
     Program PWSCF v.6.1 (svn rev. 13369) starts on 12Oct2017 at 10:46:10 

     This program is part of the open-source Quantum ESPRESSO suite
     for quantum simulation of materials; please cite
         "P. Giannozzi et al., J. Phys.:Condens. Matter 21 395502 (2009);
          URL http://www.quantum-espresso.org", 
     in publications or presentations arising from this work. More details at
     http://www.quantum-espresso.org/quote

     Parallel version (MPI), running on     1 processors
     Waiting for input...
     Reading input from standard input

     Current dimensions of program PWSCF are:
     Max number of different atomic species (ntypx) = 10
     Max number of k-points (npk) =  40000
     Max angular momentum in pseudopotentials (lmaxx) =  3
     Message from routine iosys:
     london is obsolete, use "vdw_corr='grimme-d2'" instead

     IMPORTANT: XC functional enforced from input :
     Exchange-correlation      = PBE ( 1  4  3  4 0 0)
     Any further DFT definition will be discarded
     Please, verify this is what you really want

               file C.pbe-rrkjus.UPF: wavefunction(s)  2S 2P renormalized
               file H.pbe-rrkjus.UPF: wavefunction(s)  1S renormalized
               file O.pbe-rrkjus.UPF: wavefunction(s)  2S renormalized
               file N.pbe-rrkjus.UPF: wavefunction(s)  2S renormalized

     -------------------------------------
     Parameters for Dispersion Correction:
     -------------------------------------
       atom      VdW radius       C_6     

        C          2.744         60.710
        H          1.892          4.857
        O          2.536         24.284
        N          2.640         42.670

     Subspace diagonalization in iterative solution of the eigenvalue problem:
     a serial algorithm will be used

 
     G-vector sticks info
     --------------------
     sticks:   dense  smooth     PW     G-vecs:    dense   smooth      PW
     Sum        4711    4711   1317               233651   233651   34375
 


     bravais-lattice index     =            0
     lattice parameter (alat)  =      19.2639  a.u.
     unit-cell volume          =   10526.7386 (a.u.)^3
     number of atoms/cell      =          164
     number of atomic types    =            4
     number of electrons       =       456.00
     number of Kohn-Sham states=          228
     kinetic-energy cutoff     =      30.0000  Ry
     charge density cutoff     =     120.0000  Ry
     convergence threshold     =      1.0E-07
     mixing beta               =       0.7000
     number of iterations used =            8  plain     mixing
     Exchange-correlation      = PBE ( 1  4  3  4 0 0)
     nstep                     =           50


     celldm(1)=  19.263869  celldm(2)=   0.000000  celldm(3)=   0.000000
     celldm(4)=   0.000000  celldm(5)=   0.000000  celldm(6)=   0.000000

     crystal axes: (cart. coord. in units of alat)
               a(1) = (   1.000000   0.000000   0.000000 )  
               a(2) = (   0.000000   1.329606   0.000000 )  
               a(3) = (  -0.551692   0.000000   1.107492 )  

     reciprocal axes: (cart. coord. in units 2 pi/alat)
               b(1) = (  1.000000  0.000000  0.498146 )  
               b(2) = (  0.000000  0.752103  0.000000 )  
               b(3) = (  0.000000  0.000000  0.902941 )  


     PseudoPot. # 1 for C  read from file:
     /data/home/btx156/espresso/pseudo/C.pbe-rrkjus.UPF
     MD5 check sum: 00fb224312de0c5b6853bd333518df6f
     Pseudo is Ultrasoft, Zval =  4.0
     Generated by new atomic code, or converted to UPF format
     Using radial grid of  627 points,  4 beta functions with: 
                l(1) =   0
                l(2) =   0
                l(3) =   1
                l(4) =   1
     Q(r) pseudized with 0 coefficients 


     PseudoPot. # 2 for H  read from file:
     /data/home/btx156/espresso/pseudo/H.pbe-rrkjus.UPF
     MD5 check sum: 7cc9d459525c9a0585f487a71c3c9563
     Pseudo is Ultrasoft, Zval =  1.0
     Generated by new atomic code, or converted to UPF format
     Using radial grid of 1061 points,  2 beta functions with: 
                l(1) =   0
                l(2) =   0
     Q(r) pseudized with 0 coefficients 


     PseudoPot. # 3 for O  read from file:
     /data/home/btx156/espresso/pseudo/O.pbe-rrkjus.UPF
     MD5 check sum: 390ba29e75625707450f3bd3f0eb6be9
     Pseudo is Ultrasoft, Zval =  6.0
     Generated by new atomic code, or converted to UPF format
     Using radial grid of 1269 points,  4 beta functions with: 
                l(1) =   0
                l(2) =   0
                l(3) =   1
                l(4) =   1
     Q(r) pseudized with 0 coefficients 


     PseudoPot. # 4 for N  read from file:
     /data/home/btx156/espresso/pseudo/N.pbe-rrkjus.UPF
     MD5 check sum: 0c3fbe5807a93f9ba59d5a7019aa238b
     Pseudo is Ultrasoft, Zval =  5.0
     Generated by new atomic code, or converted to UPF format
     Using radial grid of 1257 points,  4 beta functions with: 
                l(1) =   0
                l(2) =   0
                l(3) =   1
                l(4) =   1
     Q(r) pseudized with 0 coefficients 


     atomic species   valence    mass     pseudopotential
        C              4.00    12.00000     C ( 1.00)
        H              1.00     1.00790     H ( 1.00)
        O              6.00    15.99940     O ( 1.00)
        N              5.00    14.00670     N ( 1.00)

      4 Sym. Ops., with inversion, found ( 2 have fractional translation)



   Cartesian axes

     site n.     atom                  positions (alat units)
         1           C   tau(   1) = (   0.1910743   0.2741002   0.8527231  )
         2           C   tau(   2) = (   0.1099946   0.3445590   0.7667701  )
         3           H   tau(   3) = (   0.1258888   0.3342651   0.6618006  )
         4           C   tau(   4) = (   0.0114702   0.4243848   0.8177940  )
         5           C   tau(   5) = (  -0.0061924   0.4359164   0.9547052  )
         6           H   tau(   6) = (  -0.0832258   0.5000923   0.9915146  )
         7           C   tau(   7) = (   0.0742704   0.3668090   1.0383741  )
         8           H   tau(   8) = (   0.6126973   0.3806999   0.0358826  )
         9           C   tau(   9) = (   0.1737856   0.2823985   0.9915662  )
        10           C   tau(  10) = (   0.2579883   0.2033444   1.0769327  )
        11           C   tau(  11) = (   0.7932168   0.2065377   0.1098581  )
        12           H   tau(  12) = (   0.7163547   0.2688654   0.1497495  )
        13           C   tau(  13) = (   0.8708336   0.1355342   0.1931090  )
        14           H   tau(  14) = (  -0.0529003   0.0742864   0.1489126  )
        15           C   tau(  15) = (  -0.1379918   0.1326973   0.3332124  )
        16           C   tau(  16) = (   0.7689200   0.2061152   0.4055069  )
        17           H   tau(  17) = (   0.7011621   0.2707431   0.3540715  )
        18           C   tau(  18) = (  -0.2391475   0.1989969   0.5400485  )
        19           H   tau(  19) = (   0.6870132   0.2570802   0.5905742  )
        20           C   tau(  20) = (  -0.1524931   0.1171142   0.6126830  )
        21           C   tau(  21) = (  -0.0584961   0.0432481   0.5410062  )
        22           H   tau(  22) = (   0.0096088   1.3084381   0.5920776  )
        23           C   tau(  23) = (  -0.0518699   0.0521525   0.4061134  )
        24           H   tau(  24) = (   0.0224836  -0.0041809   0.3539004  )
        25           C   tau(  25) = (  -0.2530773   0.1902114   0.8172730  )
        26           H   tau(  26) = (  -0.2457093   0.2942905   0.7897505  )
        27           H   tau(  27) = (  -0.2324345   0.1821841   0.9221628  )
        28           H   tau(  28) = (  -0.3544194   0.1569948   0.7992028  )
        29           C   tau(  29) = (  -0.0718609   0.0228318   0.8165723  )
        30           H   tau(  30) = (  -0.0859394   1.2500822   0.7850266  )
        31           H   tau(  31) = (  -0.0934025   0.0291042   0.9215813  )
        32           H   tau(  32) = (   0.0319005   0.0490307   0.8010752  )
        33           C   tau(  33) = (  -0.0525175   0.4989433   0.6043729  )
        34           H   tau(  34) = (   0.0458511   0.5377849   0.5817736  )
        35           H   tau(  35) = (  -0.1280492   0.5647463   0.5658886  )
        36           H   tau(  36) = (  -0.0639810   0.4002940   0.5620417  )
        37           N   tau(  37) = (  -0.1586795   0.1108721   0.7456391  )
        38           O   tau(  38) = (   0.2869757   0.1988081   0.8026202  )
        39           H   tau(  39) = (   0.3296942   0.1556494   0.8876635  )
        40           O   tau(  40) = (   0.3464773   0.1302836   1.0242415  )
        41           O   tau(  41) = (  -0.0722096   0.4960085   0.7435686  )
        42           C   tau(  42) = (  -0.0186130   0.9389030   0.8085138  )
        43           C   tau(  43) = (   0.2572326   1.0555054   0.2547685  )
        44           C   tau(  44) = (   0.4669208   0.3907026   0.2989778  )
        45           C   tau(  45) = (   0.0624666   1.0093618   0.8944668  )
        46           C   tau(  46) = (   0.3383132   0.9850466   0.3407215  )
        47           C   tau(  47) = (   0.3858402   0.3202438   0.2130248  )
        48           H   tau(  48) = (   0.0465724   0.9990679   0.9994374  )
        49           H   tau(  49) = (   0.3224190   0.9953405   0.4456910  )
        50           H   tau(  50) = (   0.4017344   0.3305377   0.1080543  )
        51           C   tau(  51) = (   0.1609911   1.0891876   0.8434430  )
        52           C   tau(  52) = (   0.4368376   0.9052208   0.2896976  )
        53           C   tau(  53) = (   0.2873168   0.2404180   0.2640487  )
        54           C   tau(  54) = (   0.1786536   1.1007192   0.7065328  )
        55           C   tau(  55) = (   0.4545002   0.8936892   0.1527865  )
        56           C   tau(  56) = (   0.2696542   0.2288864   0.4009598  )
        57           H   tau(  57) = (   0.2556870   1.1648952   0.6697233  )
        58           H   tau(  58) = (   0.5315336   0.8295133   0.1159770  )
        59           H   tau(  59) = (   0.1926198   0.1647105   0.4377683  )
        60           C   tau(  60) = (   0.0981919   1.0316118   0.6228638  )
        61           C   tau(  61) = (   0.3740375   0.9627966   0.0691175  )
        62           C   tau(  62) = (   0.3501159   0.2979938   0.4846278  )
        63           H   tau(  63) = (   0.1114571   1.0455028   0.5178637  )
        64           H   tau(  64) = (  -0.1643895   0.9489057   1.0716091  )
        65           H   tau(  65) = (   0.3368507   0.2841029   0.5896279  )
        66           C   tau(  66) = (  -0.0013244   0.9472013   0.6696708  )
        67           C   tau(  67) = (   0.2745222   1.0472072   0.1159254  )
        68           C   tau(  68) = (   0.4496322   0.3824044   0.4378209  )
        69           C   tau(  69) = (  -0.0855271   0.8681472   0.5843053  )
        70           C   tau(  70) = (   0.1903185   1.1262612   0.0305590  )
        71           C   tau(  71) = (   0.5338349   0.4614584   0.5231863  )
        72           C   tau(  72) = (  -0.0690624   0.8713405   0.4438872  )
        73           C   tau(  73) = (  -0.3449090   1.1230679   0.9976335  )
        74           C   tau(  74) = (   0.5173702   0.4582651   0.6636044  )
        75           H   tau(  75) = (   0.0077987   0.9336682   0.4039968  )
        76           H   tau(  76) = (  -0.2680479   1.0607402   0.9577421  )
        77           H   tau(  77) = (   0.4405091   0.3959374   0.7034948  )
        78           C   tau(  78) = (  -0.1466802   0.8003370   0.3606363  )
        79           C   tau(  79) = (  -0.4225267   1.1940714   0.9143826  )
        80           C   tau(  80) = (   0.5949880   0.5292686   0.7468553  )
        81           H   tau(  81) = (   0.7770537   0.7390892   0.4048337  )
        82           H   tau(  82) = (   0.5012081   1.2553192   0.9585791  )
        83           H   tau(  83) = (  -0.3287469   0.5905164   0.7026579  )
        84           C   tau(  84) = (   0.8621462   0.7975001   0.2205329  )
        85           C   tau(  85) = (   0.5862996   1.1969084   0.7742792  )
        86           C   tau(  86) = (  -0.4138384   0.5321055   0.8869587  )
        87           C   tau(  87) = (  -0.0447656   0.8709180   0.1482384  )
        88           C   tau(  88) = (  -0.3206122   1.1234904   0.7019847  )
        89           C   tau(  89) = (   0.4930734   0.4586876   0.9592533  )
        90           C   tau(  90) = (   0.2249787   1.1637461   1.0568641  )
        91           C   tau(  91) = (   0.5008253   0.8306623   0.5031188  )
        92           C   tau(  92) = (   0.2233291   0.1658595   0.0506275  )
        93           H   tau(  93) = (   0.0229923   0.9355459   0.1996738  )
        94           H   tau(  94) = (  -0.2528543   1.0588625   0.7534201  )
        95           H   tau(  95) = (   0.4253155   0.3940597   0.9078178  )
        96           C   tau(  96) = (   0.9633009   0.8637997   0.0136978  )
        97           C   tau(  97) = (   0.6874553   1.1306087   0.5674432  )
        98           C   tau(  98) = (  -0.5149940   0.4658059   1.0937938  )
        99           H   tau(  99) = (  -0.5145520   0.9218831   1.0706628  )
       100           H   tau( 100) = (  -0.2387054   1.0725254   0.5169175  )
       101           H   tau( 101) = (   0.9628598   0.4077226   0.0368288  )
       102           C   tau( 102) = (   0.3249553   0.7819170   1.0485540  )
       103           C   tau( 103) = (   0.6008009   1.2124915   0.4948087  )
       104           C   tau( 104) = (   0.1233525   0.5476887   0.0589376  )
       105           C   tau( 105) = (   0.7826495   0.7080509   0.0127392  )
       106           C   tau( 106) = (   0.5068039   1.2863575   0.5664855  )
       107           C   tau( 107) = (  -0.3343426   0.6215547   1.0947525  )
       108           H   tau( 108) = (   0.1628534   0.6436353   1.0691604  )
       109           H   tau( 109) = (   0.4386990   0.0211675   0.5154141  )
       110           H   tau( 110) = (   0.2854544   0.6859704   0.0383313  )
       111           C   tau( 111) = (   0.7760233   0.7169553   0.1476329  )
       112           C   tau( 112) = (   0.5001768   1.2774531   0.7013783  )
       113           C   tau( 113) = (  -0.3277155   0.6126503   0.9598587  )
       114           H   tau( 114) = (   0.7016708   0.6606219   0.1998459  )
       115           H   tau( 115) = (   0.4258242   1.3337865   0.7535913  )
       116           H   tau( 116) = (  -0.2533630   0.6689837   0.9076457  )
       117           C   tau( 117) = (   0.4255386   0.8550143   0.8439639  )
       118           C   tau( 118) = (   0.7013852   1.1393942   0.2902186  )
       119           C   tau( 119) = (   0.0227683   0.4745914   0.2635277  )
       120           H   tau( 120) = (   0.4181706   0.9590933   0.8714865  )
       121           H   tau( 121) = (   0.6940171   1.0353151   0.3177411  )
       122           H   tau( 122) = (   0.0301363   0.3705123   0.2360052  )
       123           H   tau( 123) = (   0.4048957   0.8469869   0.7390751  )
       124           H   tau( 124) = (   0.6807423   1.1474215   0.1853298  )
       125           H   tau( 125) = (   0.0434111   0.4826187   0.3684165  )
       126           H   tau( 126) = (   0.5268807   0.8217976   0.8620342  )
       127           H   tau( 127) = (   0.8027272   1.1726108   0.3082888  )
       128           H   tau( 128) = (  -0.0785729   0.5078080   0.2454575  )
       129           C   tau( 129) = (   0.2443221   0.6876346   0.8446656  )
       130           C   tau( 130) = (   0.5201677   1.3067738   0.2909203  )
       131           C   tau( 131) = (   0.2039857   0.6419710   0.2628260  )
       132           H   tau( 132) = (   0.2584006   0.5852794   0.8762113  )
       133           H   tau( 133) = (   0.5342472   0.0795234   0.3224650  )
       134           H   tau( 134) = (   0.1899072   0.7443262   0.2312803  )
       135           H   tau( 135) = (   0.2658638   0.6939070   0.7396566  )
       136           H   tau( 136) = (   0.5417104   1.3005014   0.1859103  )
       137           H   tau( 137) = (   0.1824440   0.6356986   0.3678350  )
       138           H   tau( 138) = (   0.1405617   0.7138335   0.8601617  )
       139           H   tau( 139) = (   0.4164073   1.2805750   0.3064164  )
       140           H   tau( 140) = (   0.3077461   0.6157721   0.2473299  )
       141           H   tau( 141) = (   0.1266101   1.2025878   1.0794643  )
       142           H   tau( 142) = (   0.4024567   0.7918207   0.5257180  )
       143           H   tau( 143) = (   0.3216977   0.1270179   0.0280273  )
       144           H   tau( 144) = (   0.3005105   1.2295492   1.0953493  )
       145           H   tau( 145) = (   0.5763561   0.7648603   0.5416030  )
       146           H   tau( 146) = (   0.1477974   0.1000574   0.0121423  )
       147           H   tau( 147) = (   0.2364422   1.0650968   1.0991963  )
       148           H   tau( 148) = (   0.5122878   0.9293116   0.5454500  )
       149           H   tau( 149) = (   0.2118656   0.2645088   0.0082953  )
       150           N   tau( 150) = (   0.3311407   0.7756749   0.9155988  )
       151           N   tau( 151) = (   0.6069863   1.2187335   0.3618525  )
       152           N   tau( 152) = (   0.1171671   0.5539307   0.1918928  )
       153           O   tau( 153) = (  -0.1145145   0.8636109   0.8586177  )
       154           O   tau( 154) = (   0.1613311   1.1307975   0.3048714  )
       155           O   tau( 155) = (   0.5628223   0.4659947   0.2488739  )
       156           H   tau( 156) = (  -0.1572330   0.8204523   0.7735744  )
       157           H   tau( 157) = (   0.1186136   1.1739562   0.2198291  )
       158           H   tau( 158) = (   0.6055408   0.5091534   0.3339172  )
       159           O   tau( 159) = (  -0.1740161   0.7950864   0.6369954  )
       160           O   tau( 160) = (   0.1018295   1.1993220   0.0832501  )
       161           O   tau( 161) = (   0.6223239   0.5345192   0.4704962  )
       162           O   tau( 162) = (   0.2446708   1.1608113   0.9176693  )
       163           O   tau( 163) = (   0.5205174   0.8335971   0.3639230  )
       164           O   tau( 164) = (   0.2036360   0.1687943   0.1898223  )

     number of k points=    30
                       cart. coord. in units 2pi/alat
        k(    1) = (   0.0000000   0.0000000   0.0000000), wk =   0.0312500
        k(    2) = (   0.0000000   0.0000000   0.2257353), wk =   0.0625000
        k(    3) = (   0.0000000   0.0000000  -0.4514707), wk =   0.0312500
        k(    4) = (   0.0000000   0.1880257   0.0000000), wk =   0.0625000
        k(    5) = (   0.0000000   0.1880257   0.2257353), wk =   0.1250000
        k(    6) = (   0.0000000   0.1880257  -0.4514707), wk =   0.0625000
        k(    7) = (   0.0000000  -0.3760514   0.0000000), wk =   0.0312500
        k(    8) = (   0.0000000  -0.3760514   0.2257353), wk =   0.0625000
        k(    9) = (   0.0000000  -0.3760514  -0.4514707), wk =   0.0312500
        k(   10) = (   0.2500000   0.0000000   0.1245365), wk =   0.0625000
        k(   11) = (   0.2500000   0.0000000   0.3502718), wk =   0.0625000
        k(   12) = (   0.2500000   0.0000000  -0.3269342), wk =   0.0625000
        k(   13) = (   0.2500000   0.0000000  -0.1011988), wk =   0.0625000
        k(   14) = (   0.2500000   0.1880257   0.1245365), wk =   0.1250000
        k(   15) = (   0.2500000   0.1880257   0.3502718), wk =   0.1250000
        k(   16) = (   0.2500000   0.1880257  -0.3269342), wk =   0.1250000
        k(   17) = (   0.2500000   0.1880257  -0.1011988), wk =   0.1250000
        k(   18) = (   0.2500000  -0.3760514   0.1245365), wk =   0.0625000
        k(   19) = (   0.2500000  -0.3760514   0.3502718), wk =   0.0625000
        k(   20) = (   0.2500000  -0.3760514  -0.3269342), wk =   0.0625000
        k(   21) = (   0.2500000  -0.3760514  -0.1011988), wk =   0.0625000
        k(   22) = (  -0.5000000   0.0000000  -0.2490730), wk =   0.0312500
        k(   23) = (  -0.5000000   0.0000000  -0.0233376), wk =   0.0625000
        k(   24) = (  -0.5000000   0.0000000  -0.7005436), wk =   0.0312500
        k(   25) = (  -0.5000000   0.1880257  -0.2490730), wk =   0.0625000
        k(   26) = (  -0.5000000   0.1880257  -0.0233376), wk =   0.1250000
        k(   27) = (  -0.5000000   0.1880257  -0.7005436), wk =   0.0625000
        k(   28) = (  -0.5000000  -0.3760514  -0.2490730), wk =   0.0312500
        k(   29) = (  -0.5000000  -0.3760514  -0.0233376), wk =   0.0625000
        k(   30) = (  -0.5000000  -0.3760514  -0.7005436), wk =   0.0312500

     Dense  grid:   233651 G-vectors     FFT dimensions: (  72,  90,  90)

     Estimated max dynamical RAM per process >    4517.46MB

     Initial potential from superposition of free atoms

     starting charge  448.68464, renormalised to  456.00000
     Starting wfc are  428 randomized atomic wfcs

     total cpu time spent up to now is      479.5 secs

     Self-consistent Calculation

     iteration #  1     ecut=    30.00 Ry     beta=0.70
     Davidson diagonalization with overlap
     ethr =  1.00E-02,  avg # of iterations =  2.0

     total cpu time spent up to now is     1437.5 secs

     total energy              =   -1365.08003878 Ry
     Harris-Foulkes estimate   =   -1383.13873461 Ry
     estimated scf accuracy    <      28.20029906 Ry

     iteration #  2     ecut=    30.00 Ry     beta=0.70
     Davidson diagonalization with overlap
     ethr =  6.18E-03,  avg # of iterations =  3.0

     total cpu time spent up to now is     2413.3 secs

     total energy              =   -1368.76048210 Ry
     Harris-Foulkes estimate   =   -1375.71661601 Ry
     estimated scf accuracy    <      12.23963822 Ry

     iteration #  3     ecut=    30.00 Ry     beta=0.70
     Davidson diagonalization with overlap
     ethr =  2.68E-03,  avg # of iterations =  3.0

     total cpu time spent up to now is     3396.6 secs

     total energy              =   -1371.74947556 Ry
     Harris-Foulkes estimate   =   -1372.66521692 Ry
     estimated scf accuracy    <       1.71386247 Ry

     iteration #  4     ecut=    30.00 Ry     beta=0.70
     Davidson diagonalization with overlap
     ethr =  3.76E-04,  avg # of iterations =  4.0

     total cpu time spent up to now is     4379.7 secs

     total energy              =   -1372.12147223 Ry
     Harris-Foulkes estimate   =   -1372.32674122 Ry
     estimated scf accuracy    <       0.42288650 Ry

     iteration #  5     ecut=    30.00 Ry     beta=0.70
     Davidson diagonalization with overlap
     ethr =  9.27E-05,  avg # of iterations =  4.0

     total cpu time spent up to now is     5312.6 secs

     total energy              =   -1372.21234439 Ry
     Harris-Foulkes estimate   =   -1372.24245649 Ry
     estimated scf accuracy    <       0.07182542 Ry

     iteration #  6     ecut=    30.00 Ry     beta=0.70
     Davidson diagonalization with overlap
     ethr =  1.58E-05,  avg # of iterations =  4.0

     total cpu time spent up to now is     6234.8 secs

     total energy              =   -1372.22661596 Ry
     Harris-Foulkes estimate   =   -1372.22922122 Ry
     estimated scf accuracy    <       0.00571883 Ry

     iteration #  7     ecut=    30.00 Ry     beta=0.70
     Davidson diagonalization with overlap
     ethr =  1.25E-06,  avg # of iterations =  5.0

     total cpu time spent up to now is     7210.3 secs

     total energy              =   -1372.22776896 Ry
     Harris-Foulkes estimate   =   -1372.22880190 Ry
     estimated scf accuracy    <       0.00248623 Ry

     iteration #  8     ecut=    30.00 Ry     beta=0.70
     Davidson diagonalization with overlap
     ethr =  5.45E-07,  avg # of iterations =  4.9

     total cpu time spent up to now is     8090.6 secs

     total energy              =   -1372.22829218 Ry
     Harris-Foulkes estimate   =   -1372.22837608 Ry
     estimated scf accuracy    <       0.00020778 Ry

     iteration #  9     ecut=    30.00 Ry     beta=0.70
     Davidson diagonalization with overlap
     ethr =  4.56E-08,  avg # of iterations =  4.0

     total cpu time spent up to now is     9036.9 secs

     total energy              =   -1372.22833975 Ry
     Harris-Foulkes estimate   =   -1372.22835349 Ry
     estimated scf accuracy    <       0.00003058 Ry

     iteration # 10     ecut=    30.00 Ry     beta=0.70
     Davidson diagonalization with overlap
     ethr =  6.71E-09,  avg # of iterations =  4.0

     total cpu time spent up to now is     9970.7 secs

     total energy              =   -1372.22834627 Ry
     Harris-Foulkes estimate   =   -1372.22834767 Ry
     estimated scf accuracy    <       0.00000291 Ry

     iteration # 11     ecut=    30.00 Ry     beta=0.70
     Davidson diagonalization with overlap
     ethr =  6.38E-10,  avg # of iterations =  4.0

     total cpu time spent up to now is    10959.5 secs

     total energy              =   -1372.22834710 Ry
     Harris-Foulkes estimate   =   -1372.22834726 Ry
     estimated scf accuracy    <       0.00000046 Ry

     iteration # 12     ecut=    30.00 Ry     beta=0.70
     Davidson diagonalization with overlap
     ethr =  1.01E-10,  avg # of iterations =  4.0

     total cpu time spent up to now is    11877.4 secs

     End of self-consistent calculation

          k = 0.0000 0.0000 0.0000 ( 29151 PWs)   bands (ev):

   -20.8258 -20.8252 -20.8244 -20.8241 -20.3131 -20.3127 -20.3123 -20.3095
   -19.1516 -19.1506 -19.1469 -19.1446 -17.9204 -17.9197 -17.9024 -17.9019
   -15.1342 -15.1274 -15.1206 -15.1097 -15.0889 -15.0887 -15.0757 -15.0719
   -13.6319 -13.6288 -13.6049 -13.6024 -13.0071 -12.9750 -12.9638 -12.9535
   -12.5748 -12.5743 -12.4912 -12.4903 -12.4186 -12.4104 -12.3678 -12.3642
   -12.1788 -12.1728 -12.1644 -12.1400 -11.8000 -11.7867 -11.7344 -11.7165
   -11.3813 -11.3606 -11.3479 -11.3437 -10.6590 -10.6496 -10.5927 -10.5722
    -9.5155  -9.4555  -9.4135  -9.4051  -9.0937  -9.0916  -8.9838  -8.9554
    -8.8956  -8.8448  -8.8302  -8.8148  -8.7937  -8.7846  -8.7463  -8.6944
    -8.0335  -8.0301  -7.9963  -7.9960  -7.3863  -7.3704  -7.3655  -7.3057
    -7.0383  -7.0329  -6.9668  -6.9410  -6.8663  -6.8362  -6.8348  -6.8210
    -6.6060  -6.5852  -6.5772  -6.5598  -6.1369  -6.0835  -6.0661  -6.0557
    -5.9407  -5.9229  -5.8915  -5.8663  -5.7092  -5.6440  -5.6438  -5.6199
    -5.6093  -5.5722  -5.5328  -5.4738  -5.2316  -5.2303  -5.2150  -5.1777
    -4.9961  -4.9910  -4.9858  -4.9610  -4.9251  -4.9052  -4.8556  -4.7773
    -4.7719  -4.7621  -4.7507  -4.7449  -4.6540  -4.6345  -4.5405  -4.5253
    -4.4155  -4.4088  -4.4070  -4.3861  -4.1737  -4.1059  -4.1004  -4.0991
    -4.0984  -4.0823  -4.0418  -4.0340  -3.9726  -3.9036  -3.8810  -3.8545
    -3.7684  -3.7530  -3.7523  -3.7384  -3.7273  -3.7253  -3.7039  -3.6933
    -3.5707  -3.5695  -3.5176  -3.5092  -3.3601  -3.3476  -3.3008  -3.2704
    -3.2239  -3.2116  -3.1530  -3.1351  -3.1089  -3.1023  -3.0907  -3.0593
    -3.0493  -3.0410  -2.9947  -2.9840  -2.9149  -2.8882  -2.8821  -2.8736
    -2.6843  -2.6709  -2.6413  -2.6085  -2.5672  -2.5259  -2.5212  -2.4874
    -2.2874  -2.2054  -2.1674  -2.0730  -1.9624  -1.9424  -1.8697  -1.8017
    -1.7728  -1.7284  -1.7062  -1.7061  -1.6677  -1.5747  -1.5466  -1.4328
    -1.4117  -1.4052  -1.3984  -1.3364  -0.3874  -0.3737  -0.2729  -0.2682
    -0.2458  -0.2179  -0.0838  -0.0828   0.0557   0.1219   0.1384   0.1467
     0.1558   0.1779   0.2192   0.2372   0.5728   0.5983   0.6010   0.6038
     1.3137   1.3187   1.4810   1.5265

          k = 0.0000 0.0000 0.2257 ( 29221 PWs)   bands (ev):

   -20.8257 -20.8253 -20.8244 -20.8241 -20.3132 -20.3128 -20.3118 -20.3099
   -19.1514 -19.1507 -19.1466 -19.1449 -17.9203 -17.9198 -17.9023 -17.9019
   -15.1363 -15.1304 -15.1298 -15.1209 -15.0836 -15.0759 -15.0717 -15.0661
   -13.6417 -13.6358 -13.6039 -13.6009 -12.9809 -12.9803 -12.9653 -12.9492
   -12.5760 -12.5738 -12.4928 -12.4896 -12.4168 -12.4053 -12.3761 -12.3731
   -12.1869 -12.1678 -12.1620 -12.1457 -11.7938 -11.7891 -11.7251 -11.7165
   -11.4222 -11.3760 -11.3372 -11.3082 -10.6415 -10.6179 -10.6148 -10.5940
    -9.4697  -9.4643  -9.4543  -9.4108  -9.0435  -9.0335  -9.0118  -8.9757
    -8.9021  -8.8734  -8.8243  -8.8162  -8.8103  -8.7874  -8.7566  -8.7140
    -8.0573  -8.0322  -7.9838  -7.9600  -7.4001  -7.3874  -7.3352  -7.2991
    -7.0506  -7.0081  -6.9888  -6.9435  -6.8930  -6.8424  -6.8082  -6.7931
    -6.6044  -6.5952  -6.5823  -6.5727  -6.1305  -6.0939  -6.0555  -6.0449
    -5.9587  -5.8991  -5.8829  -5.8671  -5.6894  -5.6711  -5.6225  -5.5999
    -5.5936  -5.5793  -5.5179  -5.5116  -5.2388  -5.2373  -5.2003  -5.1803
    -5.0485  -5.0161  -4.9728  -4.9346  -4.8832  -4.8755  -4.8226  -4.8022
    -4.7983  -4.7981  -4.7469  -4.7428  -4.6122  -4.6105  -4.5886  -4.5275
    -4.4627  -4.4547  -4.3900  -4.3865  -4.1495  -4.1250  -4.1168  -4.1113
    -4.0577  -4.0472  -4.0392  -4.0115  -3.9516  -3.9260  -3.8929  -3.8703
    -3.7795  -3.7659  -3.7464  -3.7320  -3.7178  -3.7066  -3.7056  -3.6730
    -3.5927  -3.5550  -3.5294  -3.5280  -3.3719  -3.3569  -3.3417  -3.3129
    -3.3123  -3.1946  -3.1579  -3.1466  -3.1317  -3.0746  -3.0656  -3.0410
    -3.0133  -3.0035  -2.9855  -2.9704  -2.9372  -2.9052  -2.8499  -2.8287
    -2.7088  -2.6529  -2.6424  -2.6256  -2.5441  -2.5426  -2.5406  -2.4856
    -2.2407  -2.1747  -2.1662  -2.0705  -1.9449  -1.9216  -1.8782  -1.8149
    -1.7682  -1.7328  -1.7139  -1.6980  -1.6697  -1.5782  -1.5626  -1.4676
    -1.4000  -1.3955  -1.3910  -1.3508  -0.3886  -0.3773  -0.2826  -0.2728
    -0.2607  -0.2155  -0.0831  -0.0827   0.0637   0.1096   0.1391   0.1445
     0.1699   0.1700   0.1949   0.2239   0.5859   0.6054   0.6157   0.6199
     1.3125   1.3271   1.4830   1.5315

          k = 0.0000 0.0000-0.4515 ( 29196 PWs)   bands (ev):

   -20.8256 -20.8254 -20.8244 -20.8241 -20.3131 -20.3130 -20.3108 -20.3107
   -19.1511 -19.1511 -19.1457 -19.1457 -17.9201 -17.9200 -17.9022 -17.9021
   -15.1371 -15.1370 -15.1310 -15.1309 -15.0755 -15.0754 -15.0627 -15.0626
   -13.6460 -13.6459 -13.6022 -13.6021 -12.9757 -12.9756 -12.9496 -12.9495
   -12.5753 -12.5752 -12.4924 -12.4923 -12.4010 -12.4010 -12.3922 -12.3922
   -12.1752 -12.1752 -12.1573 -12.1573 -11.7896 -11.7895 -11.7167 -11.7167
   -11.3897 -11.3896 -11.3415 -11.3414 -10.6225 -10.6224 -10.5988 -10.5988
    -9.4676  -9.4676  -9.4472  -9.4472  -9.0112  -9.0111  -8.9903  -8.9902
    -8.9105  -8.9105  -8.8130  -8.8129  -8.7972  -8.7971  -8.7451  -8.7450
    -8.0575  -8.0575  -7.9662  -7.9662  -7.4012  -7.4011  -7.3051  -7.3051
    -7.0020  -7.0020  -6.9944  -6.9944  -6.8790  -6.8790  -6.7789  -6.7789
    -6.6047  -6.6047  -6.5833  -6.5833  -6.1123  -6.1122  -6.0436  -6.0435
    -5.9119  -5.9118  -5.8757  -5.8756  -5.7051  -5.7051  -5.6000  -5.5999
    -5.5635  -5.5634  -5.5198  -5.5197  -5.2479  -5.2478  -5.1885  -5.1885
    -5.0308  -5.0308  -4.9535  -4.9535  -4.8801  -4.8800  -4.8278  -4.8277
    -4.8108  -4.8108  -4.7279  -4.7279  -4.6020  -4.6020  -4.5274  -4.5274
    -4.4869  -4.4868  -4.4115  -4.4115  -4.1344  -4.1343  -4.1221  -4.1220
    -4.0273  -4.0272  -4.0183  -4.0183  -3.9525  -3.9525  -3.8968  -3.8968
    -3.7705  -3.7705  -3.7259  -3.7259  -3.7168  -3.7167  -3.6875  -3.6874
    -3.5507  -3.5506  -3.5382  -3.5382  -3.4009  -3.4008  -3.3650  -3.3650
    -3.2746  -3.2745  -3.1543  -3.1543  -3.1027  -3.1027  -3.0339  -3.0339
    -3.0089  -3.0088  -2.9592  -2.9592  -2.8847  -2.8847  -2.8393  -2.8393
    -2.6770  -2.6770  -2.6500  -2.6500  -2.5502  -2.5502  -2.5090  -2.5090
    -2.1762  -2.1762  -2.1063  -2.1063  -1.9086  -1.9086  -1.8675  -1.8675
    -1.7492  -1.7491  -1.7055  -1.7055  -1.6389  -1.6388  -1.5234  -1.5234
    -1.3857  -1.3857  -1.3790  -1.3790  -0.3858  -0.3857  -0.2899  -0.2899
    -0.2392  -0.2392  -0.0840  -0.0839   0.0843   0.0844   0.1559   0.1559
     0.1621   0.1623   0.1901   0.1902   0.6063   0.6064   0.6310   0.6311
     1.3216   1.3217   1.5128   1.5128

          k = 0.0000 0.1880 0.0000 ( 29189 PWs)   bands (ev):

   -20.8256 -20.8250 -20.8246 -20.8243 -20.3132 -20.3125 -20.3120 -20.3099
   -19.1515 -19.1508 -19.1465 -19.1449 -17.9203 -17.9198 -17.9023 -17.9019
   -15.1337 -15.1296 -15.1176 -15.1105 -15.0893 -15.0892 -15.0749 -15.0723
   -13.6314 -13.6292 -13.6046 -13.6029 -13.0035 -12.9825 -12.9595 -12.9539
   -12.5748 -12.5744 -12.4909 -12.4902 -12.4179 -12.4121 -12.3669 -12.3644
   -12.1788 -12.1756 -12.1590 -12.1428 -11.7984 -11.7891 -11.7313 -11.7187
   -11.3766 -11.3578 -11.3534 -11.3454 -10.6578 -10.6511 -10.5898 -10.5753
    -9.5076  -9.4658  -9.4114  -9.4049  -9.0934  -9.0919  -8.9796  -8.9596
    -8.8865  -8.8419  -8.8398  -8.8095  -8.8091  -8.7891  -8.7302  -8.6981
    -8.0327  -8.0303  -7.9967  -7.9965  -7.3867  -7.3742  -7.3547  -7.3137
    -7.0369  -7.0326  -6.9640  -6.9454  -6.8628  -6.8415  -6.8324  -6.8207
    -6.6037  -6.5889  -6.5744  -6.5621  -6.1279  -6.0818  -6.0761  -6.0527
    -5.9363  -5.9242  -5.8878  -5.8695  -5.7136  -5.6701  -5.6409  -5.6275
    -5.5857  -5.5592  -5.5168  -5.4970  -5.2356  -5.2302  -5.2044  -5.1823
    -5.0063  -4.9990  -4.9731  -4.9340  -4.9331  -4.9055  -4.8595  -4.7942
    -4.7687  -4.7673  -4.7543  -4.7511  -4.6245  -4.6179  -4.5427  -4.5156
    -4.4558  -4.4439  -4.4090  -4.3930  -4.1647  -4.1188  -4.1044  -4.0953
    -4.0645  -4.0544  -4.0258  -4.0200  -3.9636  -3.9221  -3.8915  -3.8697
    -3.7787  -3.7685  -3.7359  -3.7317  -3.7267  -3.7225  -3.7022  -3.7013
    -3.5578  -3.5568  -3.5210  -3.5131  -3.3728  -3.3702  -3.2761  -3.2638
    -3.2342  -3.2201  -3.1635  -3.1472  -3.1138  -3.1020  -3.0728  -3.0527
    -3.0407  -3.0244  -2.9919  -2.9837  -2.9194  -2.9041  -2.8861  -2.8790
    -2.6839  -2.6762  -2.6335  -2.6123  -2.5605  -2.5311  -2.5131  -2.4883
    -2.2728  -2.2146  -2.1583  -2.0922  -1.9547  -1.9389  -1.8633  -1.8204
    -1.7640  -1.7446  -1.7214  -1.7068  -1.6360  -1.5676  -1.5387  -1.4486
    -1.4070  -1.3992  -1.3987  -1.3486  -0.3861  -0.3765  -0.2733  -0.2707
    -0.2397  -0.2209  -0.0820  -0.0812   0.0615   0.1028   0.1483   0.1540
     0.1549   0.1757   0.2209   0.2340   0.5745   0.5912   0.6023   0.6055
     1.3154   1.3191   1.4869   1.5192

          k = 0.0000 0.1880 0.2257 ( 29220 PWs)   bands (ev):

   -20.8255 -20.8251 -20.8246 -20.8243 -20.3131 -20.3127 -20.3117 -20.3102
   -19.1514 -19.1509 -19.1463 -19.1451 -17.9202 -17.9199 -17.9023 -17.9020
   -15.1360 -15.1331 -15.1266 -15.1216 -15.0828 -15.0777 -15.0702 -15.0666
   -13.6409 -13.6368 -13.6034 -13.6012 -12.9809 -12.9771 -12.9654 -12.9525
   -12.5757 -12.5742 -12.4923 -12.4900 -12.4154 -12.4073 -12.3754 -12.3733
   -12.1849 -12.1728 -12.1574 -12.1473 -11.7932 -11.7899 -11.7237 -11.7176
   -11.4155 -11.3829 -11.3329 -11.3124 -10.6384 -10.6231 -10.6100 -10.5966
    -9.4702  -9.4681  -9.4448  -9.4159  -9.0421  -9.0351  -9.0068  -8.9816
    -8.8946  -8.8717  -8.8303  -8.8255  -8.8071  -8.7936  -8.7432  -8.7169
    -8.0544  -8.0370  -7.9793  -7.9629  -7.3978  -7.3874  -7.3319  -7.3055
    -7.0450  -7.0154  -6.9824  -6.9519  -6.8842  -6.8497  -6.8054  -6.7944
    -6.6004  -6.5932  -6.5845  -6.5763  -6.1217  -6.0871  -6.0698  -6.0483
    -5.9474  -5.9061  -5.8788  -5.8682  -5.6993  -5.6561  -5.6277  -5.6165
    -5.5928  -5.5590  -5.5349  -5.5019  -5.2385  -5.2291  -5.2016  -5.1847
    -5.0483  -5.0120  -4.9766  -4.9193  -4.8998  -4.8870  -4.8193  -4.8061
    -4.7964  -4.7772  -4.7597  -4.7449  -4.6298  -4.5947  -4.5678  -4.5141
    -4.4879  -4.4569  -4.4153  -4.4025  -4.1440  -4.1280  -4.1096  -4.0910
    -4.0555  -4.0413  -4.0146  -4.0097  -3.9440  -3.9355  -3.9019  -3.8763
    -3.7788  -3.7622  -3.7474  -3.7299  -3.7229  -3.7081  -3.7004  -3.6827
    -3.5896  -3.5492  -3.5382  -3.5204  -3.3862  -3.3671  -3.3479  -3.3290
    -3.2691  -3.2039  -3.1588  -3.1502  -3.1212  -3.0921  -3.0579  -3.0425
    -3.0201  -2.9999  -2.9873  -2.9737  -2.9249  -2.8945  -2.8549  -2.8373
    -2.7019  -2.6641  -2.6386  -2.6280  -2.5460  -2.5416  -2.5271  -2.4891
    -2.2306  -2.1839  -2.1565  -2.0891  -1.9378  -1.9203  -1.8719  -1.8315
    -1.7609  -1.7407  -1.7174  -1.6946  -1.6539  -1.5928  -1.5407  -1.4754
    -1.4041  -1.3937  -1.3874  -1.3585  -0.3881  -0.3802  -0.2818  -0.2767
    -0.2512  -0.2209  -0.0825  -0.0809   0.0683   0.0987   0.1424   0.1506
     0.1668   0.1704   0.1988   0.2193   0.5887   0.6075   0.6094   0.6193
     1.3150   1.3253   1.4901   1.5243

          k = 0.0000 0.1880-0.4515 ( 29230 PWs)   bands (ev):

   -20.8255 -20.8252 -20.8246 -20.8243 -20.3129 -20.3128 -20.3111 -20.3109
   -19.1511 -19.1511 -19.1458 -19.1458 -17.9201 -17.9200 -17.9022 -17.9021
   -15.1373 -15.1372 -15.1308 -15.1307 -15.0754 -15.0753 -15.0628 -15.0627
   -13.6461 -13.6460 -13.6021 -13.6021 -12.9722 -12.9721 -12.9532 -12.9531
   -12.5752 -12.5751 -12.4924 -12.4924 -12.4000 -12.4000 -12.3934 -12.3933
   -12.1744 -12.1743 -12.1581 -12.1580 -11.7896 -11.7895 -11.7168 -11.7167
   -11.3831 -11.3830 -11.3483 -11.3482 -10.6206 -10.6205 -10.6005 -10.6005
    -9.4681  -9.4681  -9.4467  -9.4467  -9.0089  -9.0088  -8.9930  -8.9929
    -8.9053  -8.9053  -8.8302  -8.8302  -8.7850  -8.7849  -8.7450  -8.7450
    -8.0567  -8.0567  -7.9673  -7.9673  -7.3998  -7.3998  -7.3053  -7.3053
    -7.0083  -7.0083  -6.9918  -6.9918  -6.8744  -6.8743  -6.7821  -6.7820
    -6.6020  -6.6020  -6.5856  -6.5855  -6.1040  -6.1039  -6.0543  -6.0542
    -5.9078  -5.9077  -5.8777  -5.8777  -5.6891  -5.6891  -5.6054  -5.6053
    -5.5878  -5.5878  -5.5057  -5.5057  -5.2392  -5.2392  -5.1932  -5.1932
    -5.0263  -5.0262  -4.9704  -4.9704  -4.8713  -4.8713  -4.8243  -4.8243
    -4.8115  -4.8115  -4.7279  -4.7279  -4.5933  -4.5933  -4.5445  -4.5444
    -4.4880  -4.4880  -4.4197  -4.4197  -4.1273  -4.1273  -4.1135  -4.1135
    -4.0374  -4.0373  -3.9891  -3.9890  -3.9649  -3.9649  -3.8989  -3.8989
    -3.7632  -3.7631  -3.7267  -3.7266  -3.7168  -3.7168  -3.6932  -3.6931
    -3.5604  -3.5603  -3.5344  -3.5343  -3.4000  -3.3999  -3.3779  -3.3779
    -3.2494  -3.2494  -3.1671  -3.1671  -3.1087  -3.1086  -3.0437  -3.0436
    -2.9961  -2.9960  -2.9655  -2.9655  -2.8824  -2.8824  -2.8311  -2.8311
    -2.6765  -2.6765  -2.6550  -2.6550  -2.5490  -2.5489  -2.5064  -2.5063
    -2.1685  -2.1684  -2.1190  -2.1190  -1.9032  -1.9031  -1.8729  -1.8729
    -1.7469  -1.7469  -1.6962  -1.6962  -1.6472  -1.6471  -1.5206  -1.5205
    -1.3933  -1.3932  -1.3746  -1.3746  -0.3875  -0.3874  -0.2871  -0.2870
    -0.2411  -0.2410  -0.0825  -0.0824   0.0840   0.0841   0.1517   0.1517
     0.1689   0.1690   0.1869   0.1870   0.6095   0.6096   0.6271   0.6272
     1.3223   1.3223   1.5124   1.5124

          k = 0.0000-0.3761 0.0000 ( 29204 PWs)   bands (ev):

   -20.8252 -20.8251 -20.8247 -20.8245 -20.3130 -20.3129 -20.3110 -20.3108
   -19.1512 -19.1512 -19.1456 -19.1456 -17.9202 -17.9200 -17.9022 -17.9020
   -15.1323 -15.1322 -15.1133 -15.1132 -15.0897 -15.0897 -15.0734 -15.0734
   -13.6302 -13.6302 -13.6039 -13.6038 -12.9942 -12.9942 -12.9555 -12.9555
   -12.5747 -12.5746 -12.4904 -12.4904 -12.4155 -12.4155 -12.3654 -12.3654
   -12.1781 -12.1780 -12.1502 -12.1501 -11.7941 -11.7940 -11.7247 -11.7246
   -11.3652 -11.3652 -11.3513 -11.3512 -10.6546 -10.6546 -10.5826 -10.5826
    -9.4878  -9.4878  -9.4071  -9.4071  -9.0927  -9.0926  -8.9696  -8.9696
    -8.8637  -8.8637  -8.8301  -8.8301  -8.7980  -8.7980  -8.7099  -8.7099
    -8.0313  -8.0312  -7.9970  -7.9970  -7.3821  -7.3821  -7.3333  -7.3333
    -7.0340  -7.0340  -6.9555  -6.9555  -6.8534  -6.8534  -6.8249  -6.8249
    -6.5970  -6.5970  -6.5681  -6.5681  -6.1062  -6.1062  -6.0612  -6.0612
    -5.9288  -5.9287  -5.8784  -5.8783  -5.7052  -5.7051  -5.6320  -5.6320
    -5.5540  -5.5539  -5.5170  -5.5170  -5.2340  -5.2340  -5.1914  -5.1914
    -5.0080  -5.0080  -4.9515  -4.9515  -4.9082  -4.9082  -4.8404  -4.8404
    -4.7657  -4.7657  -4.7580  -4.7579  -4.5850  -4.5850  -4.5415  -4.5415
    -4.4793  -4.4793  -4.4089  -4.4089  -4.1428  -4.1428  -4.0966  -4.0965
    -4.0364  -4.0364  -4.0078  -4.0078  -3.9339  -3.9338  -3.9063  -3.9063
    -3.7817  -3.7817  -3.7269  -3.7269  -3.7189  -3.7189  -3.7096  -3.7096
    -3.5362  -3.5361  -3.5286  -3.5285  -3.3841  -3.3841  -3.2667  -3.2667
    -3.2291  -3.2291  -3.1566  -3.1566  -3.1243  -3.1243  -3.0457  -3.0456
    -3.0149  -3.0149  -2.9900  -2.9900  -2.9243  -2.9243  -2.8874  -2.8873
    -2.6820  -2.6820  -2.6215  -2.6215  -2.5452  -2.5451  -2.4970  -2.4970
    -2.2410  -2.2410  -2.1300  -2.1300  -1.9413  -1.9412  -1.8462  -1.8462
    -1.7596  -1.7596  -1.7178  -1.7177  -1.5937  -1.5937  -1.4911  -1.4911
    -1.4022  -1.4022  -1.3755  -1.3755  -0.3820  -0.3820  -0.2732  -0.2732
    -0.2291  -0.2290  -0.0800  -0.0799   0.0786   0.0787   0.1523   0.1523
     0.1681   0.1681   0.2268   0.2268   0.5808   0.5808   0.6046   0.6046
     1.3182   1.3182   1.5024   1.5024

          k = 0.0000-0.3761 0.2257 ( 29226 PWs)   bands (ev):

   -20.8252 -20.8250 -20.8248 -20.8246 -20.3128 -20.3127 -20.3112 -20.3110
   -19.1512 -19.1511 -19.1457 -19.1457 -17.9202 -17.9200 -17.9022 -17.9021
   -15.1351 -15.1350 -15.1236 -15.1235 -15.0806 -15.0805 -15.0682 -15.0681
   -13.6390 -13.6389 -13.6022 -13.6022 -12.9778 -12.9778 -12.9602 -12.9601
   -12.5749 -12.5749 -12.4912 -12.4912 -12.4117 -12.4117 -12.3742 -12.3741
   -12.1796 -12.1796 -12.1516 -12.1516 -11.7916 -11.7915 -11.7206 -11.7205
   -11.3993 -11.3993 -11.3226 -11.3225 -10.6311 -10.6310 -10.6030 -10.6030
    -9.4703  -9.4703  -9.4292  -9.4291  -9.0387  -9.0386  -8.9947  -8.9947
    -8.8781  -8.8780  -8.8359  -8.8358  -8.8006  -8.8005  -8.7265  -8.7264
    -8.0465  -8.0465  -7.9704  -7.9704  -7.3917  -7.3917  -7.3201  -7.3201
    -7.0308  -7.0308  -6.9681  -6.9681  -6.8665  -6.8665  -6.7992  -6.7991
    -6.5929  -6.5928  -6.5843  -6.5843  -6.0998  -6.0998  -6.0646  -6.0646
    -5.9248  -5.9247  -5.8722  -5.8722  -5.6861  -5.6860  -5.6059  -5.6059
    -5.5921  -5.5921  -5.5114  -5.5114  -5.2303  -5.2303  -5.1952  -5.1951
    -5.0342  -5.0342  -4.9420  -4.9420  -4.8998  -4.8998  -4.8118  -4.8118
    -4.7828  -4.7827  -4.7558  -4.7558  -4.6156  -4.6156  -4.5271  -4.5271
    -4.4720  -4.4720  -4.4364  -4.4364  -4.1351  -4.1350  -4.0911  -4.0911
    -4.0347  -4.0347  -4.0059  -4.0058  -3.9378  -3.9377  -3.8978  -3.8978
    -3.7742  -3.7741  -3.7341  -3.7340  -3.7170  -3.7170  -3.6946  -3.6946
    -3.5716  -3.5715  -3.5230  -3.5229  -3.3913  -3.3912  -3.3368  -3.3367
    -3.2349  -3.2348  -3.1369  -3.1369  -3.1253  -3.1252  -3.0409  -3.0409
    -3.0236  -3.0236  -2.9777  -2.9777  -2.8972  -2.8971  -2.8539  -2.8539
    -2.6841  -2.6841  -2.6335  -2.6335  -2.5434  -2.5433  -2.5043  -2.5042
    -2.2068  -2.2067  -2.1270  -2.1270  -1.9251  -1.9251  -1.8555  -1.8555
    -1.7528  -1.7528  -1.7063  -1.7063  -1.6203  -1.6203  -1.5035  -1.5034
    -1.4004  -1.4003  -1.3742  -1.3742  -0.3853  -0.3852  -0.2800  -0.2800
    -0.2349  -0.2349  -0.0806  -0.0805   0.0811   0.0812   0.1499   0.1499
     0.1677   0.1678   0.2087   0.2087   0.5972   0.5972   0.6142   0.6143
     1.3205   1.3205   1.5071   1.5071

          k = 0.0000-0.3761-0.4515 ( 29216 PWs)   bands (ev):

   -20.8251 -20.8250 -20.8248 -20.8246 -20.3127 -20.3124 -20.3114 -20.3112
   -19.1511 -19.1511 -19.1458 -19.1458 -17.9201 -17.9200 -17.9022 -17.9021
   -15.1375 -15.1374 -15.1306 -15.1305 -15.0752 -15.0751 -15.0630 -15.0629
   -13.6462 -13.6461 -13.6021 -13.6020 -12.9660 -12.9659 -12.9595 -12.9594
   -12.5751 -12.5750 -12.4925 -12.4924 -12.3985 -12.3985 -12.3951 -12.3950
   -12.1734 -12.1734 -12.1589 -12.1589 -11.7896 -11.7895 -11.7168 -11.7167
   -11.3707 -11.3706 -11.3608 -11.3608 -10.6182 -10.6182 -10.6026 -10.6025
    -9.4686  -9.4685  -9.4462  -9.4462  -9.0052  -9.0052  -8.9969  -8.9969
    -8.8988  -8.8988  -8.8431  -8.8430  -8.7784  -8.7784  -8.7450  -8.7449
    -8.0559  -8.0559  -7.9683  -7.9683  -7.3984  -7.3984  -7.3054  -7.3054
    -7.0129  -7.0129  -6.9908  -6.9908  -6.8695  -6.8695  -6.7854  -6.7854
    -6.5982  -6.5982  -6.5889  -6.5889  -6.0887  -6.0887  -6.0717  -6.0717
    -5.9035  -5.9034  -5.8801  -5.8801  -5.6563  -5.6562  -5.6382  -5.6382
    -5.5960  -5.5960  -5.4971  -5.4971  -5.2271  -5.2271  -5.2012  -5.2012
    -5.0184  -5.0183  -4.9885  -4.9884  -4.8648  -4.8647  -4.8175  -4.8174
    -4.8160  -4.8160  -4.7275  -4.7274  -4.5771  -4.5771  -4.5660  -4.5660
    -4.4914  -4.4914  -4.4282  -4.4282  -4.1193  -4.1192  -4.1086  -4.1085
    -4.0249  -4.0249  -4.0003  -4.0003  -3.9487  -3.9487  -3.9096  -3.9096
    -3.7529  -3.7528  -3.7326  -3.7326  -3.7085  -3.7084  -3.7050  -3.7049
    -3.5666  -3.5665  -3.5341  -3.5340  -3.3947  -3.3947  -3.3922  -3.3921
    -3.2165  -3.2165  -3.1906  -3.1906  -3.1107  -3.1106  -3.0531  -3.0531
    -2.9937  -2.9937  -2.9634  -2.9634  -2.8824  -2.8823  -2.8226  -2.8226
    -2.6731  -2.6730  -2.6629  -2.6629  -2.5478  -2.5477  -2.5037  -2.5037
    -2.1475  -2.1475  -2.1447  -2.1447  -1.8957  -1.8956  -1.8801  -1.8800
    -1.7452  -1.7452  -1.6807  -1.6806  -1.6614  -1.6614  -1.5176  -1.5175
    -1.3986  -1.3986  -1.3725  -1.3725  -0.3891  -0.3890  -0.2842  -0.2841
    -0.2431  -0.2430  -0.0810  -0.0809   0.0837   0.0838   0.1494   0.1495
     0.1770   0.1770   0.1805   0.1805   0.6177   0.6177   0.6183   0.6184
     1.3229   1.3230   1.5120   1.5120

          k = 0.2500 0.0000 0.1245 ( 29230 PWs)   bands (ev):

   -20.8257 -20.8254 -20.8244 -20.8241 -20.3141 -20.3121 -20.3117 -20.3098
   -19.1521 -19.1502 -19.1467 -19.1448 -17.9204 -17.9197 -17.9024 -17.9019
   -15.1388 -15.1295 -15.1294 -15.1181 -15.0829 -15.0761 -15.0716 -15.0684
   -13.6410 -13.6266 -13.6123 -13.6026 -12.9829 -12.9822 -12.9603 -12.9490
   -12.5800 -12.5740 -12.4904 -12.4885 -12.4196 -12.4137 -12.3687 -12.3655
   -12.1759 -12.1716 -12.1621 -12.1543 -11.7973 -11.7883 -11.7263 -11.7154
   -11.3992 -11.3624 -11.3561 -11.3302 -10.6277 -10.6206 -10.6170 -10.5993
    -9.4798  -9.4534  -9.4359  -9.4323  -9.0786  -9.0690  -8.9824  -8.9596
    -8.8975  -8.8610  -8.8370  -8.8136  -8.8098  -8.7803  -8.7357  -8.7158
    -8.0313  -8.0276  -7.9988  -7.9778  -7.3855  -7.3641  -7.3578  -7.2917
    -7.0470  -7.0259  -6.9660  -6.9536  -6.8547  -6.8492  -6.8230  -6.8214
    -6.6037  -6.6025  -6.5792  -6.5745  -6.1113  -6.1090  -6.0542  -6.0438
    -5.9544  -5.9231  -5.8862  -5.8788  -5.6935  -5.6836  -5.6401  -5.5997
    -5.5658  -5.5330  -5.5326  -5.5286  -5.2445  -5.2317  -5.1924  -5.1866
    -5.0957  -5.0120  -4.9672  -4.9492  -4.9285  -4.8980  -4.8158  -4.7959
    -4.7941  -4.7861  -4.7619  -4.6982  -4.6286  -4.5977  -4.5400  -4.5052
    -4.4686  -4.4572  -4.3956  -4.3915  -4.1545  -4.1119  -4.0873  -4.0675
    -4.0582  -4.0356  -4.0286  -3.9905  -3.9412  -3.9221  -3.9175  -3.8788
    -3.8158  -3.7839  -3.7503  -3.7358  -3.7348  -3.7155  -3.7095  -3.6858
    -3.5801  -3.5435  -3.5291  -3.5228  -3.3943  -3.3924  -3.3411  -3.3192
    -3.2791  -3.1614  -3.1487  -3.1322  -3.1038  -3.0806  -3.0592  -3.0228
    -3.0198  -3.0009  -2.9882  -2.9773  -2.9257  -2.8811  -2.8582  -2.8475
    -2.6859  -2.6768  -2.6471  -2.6377  -2.5731  -2.5369  -2.5268  -2.4884
    -2.3177  -2.2560  -2.1190  -2.0435  -1.9559  -1.9167  -1.8541  -1.8005
    -1.7833  -1.7379  -1.7264  -1.6927  -1.6500  -1.5806  -1.5664  -1.4513
    -1.4080  -1.3964  -1.3755  -1.3529  -0.3928  -0.3702  -0.2835  -0.2648
    -0.2585  -0.2135  -0.0949  -0.0779   0.0608   0.1136   0.1297   0.1379
     0.1706   0.1803   0.2145   0.2280   0.5660   0.5925   0.6107   0.6287
     1.3198   1.3204   1.4761   1.5335

          k = 0.2500 0.0000 0.3503 ( 29219 PWs)   bands (ev):

   -20.8256 -20.8254 -20.8244 -20.8241 -20.3142 -20.3118 -20.3112 -20.3104
   -19.1521 -19.1501 -19.1463 -19.1453 -17.9203 -17.9198 -17.9023 -17.9020
   -15.1407 -15.1355 -15.1319 -15.1269 -15.0773 -15.0712 -15.0659 -15.0631
   -13.6508 -13.6334 -13.6138 -13.5982 -12.9897 -12.9613 -12.9497 -12.9492
   -12.5798 -12.5754 -12.4949 -12.4830 -12.4173 -12.4115 -12.3788 -12.3742
   -12.1841 -12.1671 -12.1647 -12.1531 -11.7928 -11.7888 -11.7179 -11.7154
   -11.4078 -11.3703 -11.3583 -11.3249 -10.6399 -10.6173 -10.6048 -10.5861
    -9.4853  -9.4574  -9.4472  -9.4316  -9.0438  -9.0306  -8.9911  -8.9606
    -8.9273  -8.8555  -8.8386  -8.8271  -8.8092  -8.7924  -8.7392  -8.7292
    -8.0471  -8.0398  -7.9838  -7.9604  -7.4108  -7.3598  -7.3412  -7.2805
    -7.0327  -7.0100  -6.9784  -6.9782  -6.8705  -6.8632  -6.7959  -6.7939
    -6.6184  -6.6024  -6.5883  -6.5801  -6.1263  -6.0874  -6.0552  -6.0319
    -5.9459  -5.9045  -5.8928  -5.8711  -5.6885  -5.6851  -5.6198  -5.6091
    -5.5680  -5.5666  -5.5311  -5.4986  -5.2601  -5.2358  -5.1987  -5.1800
    -5.0891  -4.9830  -4.9809  -4.9399  -4.9319  -4.8837  -4.8801  -4.8206
    -4.8162  -4.7681  -4.7668  -4.6173  -4.6036  -4.5871  -4.5384  -4.5214
    -4.4849  -4.4796  -4.4507  -4.3843  -4.1257  -4.1128  -4.0912  -4.0813
    -4.0267  -4.0225  -4.0187  -4.0121  -3.9513  -3.9417  -3.9323  -3.8918
    -3.7870  -3.7662  -3.7523  -3.7443  -3.7255  -3.7196  -3.6962  -3.6832
    -3.5633  -3.5549  -3.5306  -3.5227  -3.4116  -3.4083  -3.3869  -3.3386
    -3.3232  -3.1890  -3.1754  -3.1132  -3.1071  -3.0655  -3.0518  -3.0391
    -3.0345  -2.9918  -2.9480  -2.9374  -2.8876  -2.8804  -2.8398  -2.8332
    -2.6832  -2.6809  -2.6578  -2.6504  -2.5557  -2.5513  -2.5436  -2.4892
    -2.2796  -2.2458  -2.0924  -2.0282  -1.9351  -1.9156  -1.8468  -1.8320
    -1.7696  -1.7265  -1.7115  -1.7088  -1.6486  -1.6256  -1.5515  -1.4854
    -1.4022  -1.3867  -1.3750  -1.3598  -0.4063  -0.3638  -0.2894  -0.2775
    -0.2485  -0.2295  -0.0981  -0.0763   0.0699   0.0993   0.1358   0.1393
     0.1771   0.1801   0.1974   0.2040   0.5778   0.5987   0.6237   0.6464
     1.3211   1.3245   1.4852   1.5340

          k = 0.2500 0.0000-0.3269 ( 29199 PWs)   bands (ev):

   -20.8257 -20.8253 -20.8244 -20.8241 -20.3137 -20.3121 -20.3114 -20.3105
   -19.1515 -19.1506 -19.1460 -19.1455 -17.9202 -17.9200 -17.9022 -17.9021
   -15.1327 -15.1310 -15.1268 -15.1248 -15.0812 -15.0802 -15.0693 -15.0686
   -13.6455 -13.6400 -13.6016 -13.5956 -12.9786 -12.9783 -12.9641 -12.9522
   -12.5762 -12.5729 -12.4931 -12.4840 -12.4013 -12.3988 -12.3943 -12.3911
   -12.1887 -12.1745 -12.1579 -12.1356 -11.7939 -11.7903 -11.7202 -11.7178
   -11.4236 -11.3768 -11.3396 -11.3068 -10.6521 -10.6279 -10.6051 -10.5782
    -9.4926  -9.4758  -9.4398  -9.4001  -9.0476  -9.0229  -8.9999  -8.9785
    -8.9136  -8.8596  -8.8380  -8.8161  -8.7804  -8.7795  -8.7611  -8.7343
    -8.0814  -8.0389  -7.9937  -7.9413  -7.4296  -7.3765  -7.3129  -7.3030
    -7.0277  -7.0150  -6.9951  -6.9611  -6.9043  -6.8399  -6.8006  -6.7770
    -6.6123  -6.5963  -6.5886  -6.5780  -6.1265  -6.0747  -6.0572  -6.0298
    -5.9504  -5.9037  -5.8831  -5.8514  -5.6797  -5.6399  -5.6374  -5.6261
    -5.6041  -5.5886  -5.5078  -5.4934  -5.2464  -5.2352  -5.2089  -5.1811
    -5.0242  -5.0043  -4.9738  -4.9377  -4.8683  -4.8567  -4.8282  -4.8264
    -4.8044  -4.7876  -4.7231  -4.7083  -4.7059  -4.6043  -4.5897  -4.5042
    -4.4934  -4.4864  -4.4514  -4.4018  -4.1291  -4.1225  -4.1132  -4.0930
    -4.0701  -4.0425  -3.9960  -3.9910  -3.9633  -3.9281  -3.9038  -3.8946
    -3.7789  -3.7595  -3.7404  -3.7143  -3.7141  -3.7129  -3.7041  -3.6802
    -3.5830  -3.5575  -3.5364  -3.5225  -3.3939  -3.3908  -3.3457  -3.3093
    -3.2434  -3.2342  -3.1607  -3.1599  -3.1239  -3.1209  -3.0496  -3.0372
    -3.0269  -2.9975  -2.9935  -2.9737  -2.8939  -2.8911  -2.8533  -2.8418
    -2.7016  -2.6510  -2.6490  -2.6269  -2.5444  -2.5405  -2.5121  -2.5047
    -2.2399  -2.1436  -2.1402  -2.0820  -1.8932  -1.8856  -1.8814  -1.8656
    -1.7497  -1.7476  -1.7032  -1.6888  -1.6746  -1.6347  -1.5206  -1.4997
    -1.4131  -1.3917  -1.3874  -1.3524  -0.4068  -0.3641  -0.2880  -0.2839
    -0.2508  -0.2319  -0.0880  -0.0732   0.0788   0.0921   0.1515   0.1628
     0.1664   0.1699   0.1894   0.2072   0.5902   0.6031   0.6096   0.6362
     1.3070   1.3271   1.5013   1.5128

          k = 0.2500 0.0000-0.1012 ( 29177 PWs)   bands (ev):

   -20.8257 -20.8253 -20.8244 -20.8241 -20.3132 -20.3128 -20.3118 -20.3099
   -19.1514 -19.1507 -19.1466 -19.1449 -17.9203 -17.9198 -17.9023 -17.9019
   -15.1311 -15.1254 -15.1221 -15.1114 -15.0914 -15.0831 -15.0798 -15.0727
   -13.6363 -13.6347 -13.5994 -13.5982 -12.9998 -12.9720 -12.9656 -12.9602
   -12.5760 -12.5718 -12.4922 -12.4850 -12.4159 -12.4033 -12.3767 -12.3756
   -12.1784 -12.1668 -12.1660 -12.1440 -11.7981 -11.7894 -11.7301 -11.7167
   -11.3794 -11.3655 -11.3460 -11.3424 -10.6546 -10.6343 -10.6058 -10.5812
    -9.5021  -9.4492  -9.4321  -9.4115  -9.0726  -9.0664  -8.9988  -8.9597
    -8.8718  -8.8665  -8.8578  -8.7976  -8.7924  -8.7819  -8.7411  -8.7156
    -8.0552  -8.0454  -7.9825  -7.9777  -7.3989  -7.3983  -7.3320  -7.3053
    -7.0299  -7.0176  -6.9717  -6.9585  -6.8758  -6.8698  -6.8073  -6.8038
    -6.6048  -6.5866  -6.5842  -6.5707  -6.1217  -6.0814  -6.0592  -6.0454
    -5.9339  -5.9102  -5.8953  -5.8683  -5.6837  -5.6658  -5.6516  -5.5964
    -5.5929  -5.5789  -5.5353  -5.4869  -5.2334  -5.2330  -5.2129  -5.1846
    -5.0002  -4.9952  -4.9626  -4.9574  -4.8994  -4.8872  -4.8268  -4.8082
    -4.7857  -4.7794  -4.7518  -4.7198  -4.6569  -4.6230  -4.5932  -4.5130
    -4.4685  -4.4482  -4.4474  -4.4006  -4.1577  -4.0995  -4.0945  -4.0926
    -4.0562  -4.0430  -4.0416  -4.0281  -3.9492  -3.9311  -3.8948  -3.8850
    -3.7943  -3.7658  -3.7275  -3.7238  -3.7174  -3.7108  -3.7008  -3.6958
    -3.5762  -3.5726  -3.5189  -3.5080  -3.3580  -3.3512  -3.3075  -3.2902
    -3.2595  -3.1875  -3.1854  -3.1352  -3.1112  -3.0974  -3.0820  -3.0668
    -3.0370  -3.0139  -3.0041  -2.9700  -2.9288  -2.9088  -2.8805  -2.8522
    -2.7007  -2.6474  -2.6338  -2.6211  -2.5403  -2.5390  -2.5208  -2.4857
    -2.2580  -2.1904  -2.1781  -2.0737  -1.9307  -1.8901  -1.8645  -1.8362
    -1.7877  -1.7358  -1.7055  -1.6914  -1.6704  -1.5876  -1.5506  -1.4492
    -1.4099  -1.4096  -1.3896  -1.3468  -0.3900  -0.3751  -0.2856  -0.2589
    -0.2567  -0.2289  -0.0806  -0.0804   0.0641   0.1119   0.1446   0.1590
     0.1686   0.1705   0.2086   0.2275   0.5801   0.5972   0.6049   0.6076
     1.3119   1.3154   1.4864   1.5194

          k = 0.2500 0.1880 0.1245 ( 29199 PWs)   bands (ev):

   -20.8255 -20.8252 -20.8246 -20.8243 -20.3137 -20.3125 -20.3113 -20.3101
   -19.1518 -19.1505 -19.1463 -19.1450 -17.9203 -17.9198 -17.9023 -17.9019
   -15.1382 -15.1332 -15.1253 -15.1190 -15.0823 -15.0778 -15.0705 -15.0686
   -13.6394 -13.6297 -13.6099 -13.6035 -12.9823 -12.9800 -12.9605 -12.9517
   -12.5791 -12.5748 -12.4900 -12.4887 -12.4191 -12.4150 -12.3679 -12.3657
   -12.1752 -12.1721 -12.1611 -12.1555 -11.7961 -11.7898 -11.7245 -11.7169
   -11.3930 -11.3625 -11.3575 -11.3348 -10.6263 -10.6187 -10.6172 -10.6023
    -9.4753  -9.4555  -9.4376  -9.4331  -9.0771  -9.0703  -8.9791  -8.9630
    -8.8904  -8.8634  -8.8375  -8.8249  -8.8025  -8.7843  -8.7306  -8.7172
    -8.0308  -8.0279  -7.9958  -7.9809  -7.3855  -7.3764  -7.3390  -7.2983
    -7.0437  -7.0269  -6.9677  -6.9559  -6.8514  -6.8462  -6.8260  -6.8234
    -6.6011  -6.5984  -6.5823  -6.5778  -6.1045  -6.1012  -6.0623  -6.0530
    -5.9492  -5.9257  -5.8868  -5.8800  -5.6925  -5.6722  -5.6294  -5.6161
    -5.5767  -5.5609  -5.5269  -5.5036  -5.2419  -5.2269  -5.1940  -5.1887
    -5.0842  -5.0297  -4.9551  -4.9492  -4.9301  -4.9064  -4.8014  -4.7967
    -4.7928  -4.7833  -4.7552  -4.7064  -4.6350  -4.5843  -4.5580  -4.5003
    -4.4825  -4.4334  -4.4267  -4.3862  -4.1567  -4.1195  -4.0954  -4.0675
    -4.0548  -4.0263  -4.0138  -3.9748  -3.9618  -3.9287  -3.9173  -3.8761
    -3.8002  -3.7771  -3.7528  -3.7408  -3.7342  -3.7174  -3.7053  -3.6900
    -3.5843  -3.5419  -3.5314  -3.5217  -3.4103  -3.3772  -3.3358  -3.3113
    -3.2686  -3.1968  -3.1556  -3.1145  -3.1042  -3.0805  -3.0535  -3.0363
    -3.0150  -2.9999  -2.9928  -2.9634  -2.9173  -2.8809  -2.8698  -2.8560
    -2.6858  -2.6779  -2.6435  -2.6357  -2.5637  -2.5376  -2.5282  -2.4994
    -2.3046  -2.2620  -2.1087  -2.0552  -1.9492  -1.9194  -1.8506  -1.8208
    -1.7785  -1.7377  -1.7167  -1.7131  -1.6360  -1.5909  -1.5370  -1.4585
    -1.4082  -1.3897  -1.3808  -1.3615  -0.3898  -0.3738  -0.2819  -0.2701
    -0.2495  -0.2193  -0.0922  -0.0801   0.0663   0.0999   0.1357   0.1474
     0.1684   0.1790   0.2157   0.2256   0.5679   0.5863   0.6144   0.6273
     1.3195   1.3212   1.4845   1.5251

          k = 0.2500 0.1880 0.3503 ( 29178 PWs)   bands (ev):

   -20.8255 -20.8252 -20.8246 -20.8243 -20.3138 -20.3121 -20.3111 -20.3106
   -19.1518 -19.1504 -19.1460 -19.1454 -17.9202 -17.9199 -17.9023 -17.9020
   -15.1402 -15.1368 -15.1306 -15.1274 -15.0765 -15.0722 -15.0654 -15.0634
   -13.6490 -13.6373 -13.6101 -13.5997 -12.9851 -12.9614 -12.9561 -12.9475
   -12.5791 -12.5760 -12.4932 -12.4848 -12.4166 -12.4126 -12.3780 -12.3748
   -12.1822 -12.1715 -12.1610 -12.1541 -11.7923 -11.7894 -11.7175 -11.7157
   -11.4007 -11.3673 -11.3620 -11.3315 -10.6368 -10.6213 -10.6011 -10.5884
    -9.4826  -9.4648  -9.4415  -9.4324  -9.0419  -9.0326  -8.9871  -8.9661
    -8.9173  -8.8623  -8.8491  -8.8277  -8.8006  -8.7926  -8.7376  -8.7298
    -8.0460  -8.0407  -7.9805  -7.9639  -7.4059  -7.3748  -7.3239  -7.2859
    -7.0332  -7.0171  -6.9785  -6.9730  -6.8682  -6.8608  -6.7980  -6.7968
    -6.6143  -6.5986  -6.5925  -6.5821  -6.1183  -6.0815  -6.0664  -6.0402
    -5.9403  -5.9142  -5.8846  -5.8729  -5.6837  -5.6675  -5.6256  -5.6192
    -5.5778  -5.5659  -5.5304  -5.4994  -5.2461  -5.2301  -5.2000  -5.1852
    -5.0831  -5.0251  -4.9706  -4.9503  -4.9003  -4.8855  -4.8574  -4.8211
    -4.8183  -4.7736  -4.7589  -4.6649  -4.5922  -4.5835  -4.5407  -4.5280
    -4.4900  -4.4613  -4.4313  -4.4028  -4.1415  -4.1228  -4.0922  -4.0595
    -4.0455  -4.0186  -4.0141  -3.9785  -3.9660  -3.9440  -3.9250  -3.8890
    -3.7894  -3.7588  -3.7493  -3.7393  -3.7350  -3.7163  -3.6988  -3.6845
    -3.5688  -3.5582  -3.5356  -3.5307  -3.4131  -3.3971  -3.3776  -3.3611
    -3.2965  -3.2222  -3.1502  -3.1139  -3.1060  -3.0728  -3.0486  -3.0321
    -3.0203  -2.9942  -2.9612  -2.9530  -2.8852  -2.8706  -2.8456  -2.8280
    -2.6809  -2.6738  -2.6630  -2.6531  -2.5520  -2.5509  -2.5400  -2.4996
    -2.2747  -2.2510  -2.0839  -2.0387  -1.9277  -1.9141  -1.8442  -1.8361
    -1.7697  -1.7305  -1.7202  -1.7054  -1.6461  -1.6294  -1.5330  -1.4887
    -1.4041  -1.3875  -1.3774  -1.3616  -0.4011  -0.3713  -0.2870  -0.2778
    -0.2467  -0.2327  -0.0945  -0.0790   0.0737   0.0937   0.1401   0.1444
     0.1749   0.1761   0.1987   0.2030   0.5798   0.5946   0.6273   0.6433
     1.3217   1.3243   1.4924   1.5269

          k = 0.2500 0.1880-0.3269 ( 29224 PWs)   bands (ev):

   -20.8255 -20.8251 -20.8246 -20.8243 -20.3134 -20.3119 -20.3117 -20.3107
   -19.1514 -19.1507 -19.1459 -19.1456 -17.9202 -17.9200 -17.9022 -17.9021
   -15.1326 -15.1312 -15.1266 -15.1250 -15.0810 -15.0802 -15.0694 -15.0688
   -13.6448 -13.6409 -13.6006 -13.5964 -12.9777 -12.9734 -12.9665 -12.9557
   -12.5757 -12.5733 -12.4918 -12.4854 -12.3998 -12.3982 -12.3950 -12.3926
   -12.1871 -12.1778 -12.1534 -12.1382 -11.7935 -11.7909 -11.7198 -11.7181
   -11.4169 -11.3839 -11.3347 -11.3115 -10.6490 -10.6326 -10.6000 -10.5816
    -9.4910  -9.4796  -9.4327  -9.4052  -9.0443  -9.0270  -8.9970  -8.9823
    -8.9051  -8.8644  -8.8406  -8.8051  -8.7991  -8.7815  -8.7501  -8.7352
    -8.0774  -8.0497  -7.9814  -7.9467  -7.4221  -7.3842  -7.3124  -7.3041
    -7.0252  -7.0159  -6.9914  -6.9678  -6.8956  -6.8520  -6.7945  -6.7790
    -6.6071  -6.5949  -6.5899  -6.5821  -6.1183  -6.0709  -6.0675  -6.0355
    -5.9404  -5.9091  -5.8773  -5.8554  -5.6961  -5.6705  -5.6205  -5.6036
    -5.5960  -5.5732  -5.5198  -5.5037  -5.2403  -5.2298  -5.2086  -5.1847
    -5.0316  -5.0215  -4.9451  -4.9275  -4.8724  -4.8596  -4.8326  -4.8229
    -4.8016  -4.7850  -4.7433  -4.7215  -4.6783  -4.6206  -4.5745  -4.5281
    -4.4898  -4.4776  -4.4451  -4.4159  -4.1517  -4.1397  -4.0892  -4.0737
    -4.0612  -4.0265  -4.0211  -3.9694  -3.9592  -3.9295  -3.9228  -3.8908
    -3.7765  -3.7620  -3.7374  -3.7286  -3.7173  -3.7112  -3.6954  -3.6774
    -3.5836  -3.5550  -3.5381  -3.5248  -3.3953  -3.3780  -3.3479  -3.3258
    -3.2338  -3.2250  -3.1823  -3.1498  -3.1328  -3.0994  -3.0577  -3.0402
    -3.0242  -3.0101  -2.9785  -2.9710  -2.9144  -2.8990  -2.8425  -2.8330
    -2.6946  -2.6600  -2.6447  -2.6261  -2.5502  -2.5452  -2.5103  -2.5004
    -2.2270  -2.1624  -2.1264  -2.0877  -1.9011  -1.8964  -1.8689  -1.8549
    -1.7556  -1.7489  -1.7062  -1.6896  -1.6668  -1.6369  -1.5175  -1.5018
    -1.4101  -1.3918  -1.3856  -1.3584  -0.4019  -0.3721  -0.2852  -0.2819
    -0.2501  -0.2362  -0.0851  -0.0746   0.0814   0.0907   0.1520   0.1584
     0.1728   0.1746   0.1875   0.2018   0.5916   0.6009   0.6131   0.6317
     1.3102   1.3244   1.5029   1.5110

          k = 0.2500 0.1880-0.1012 ( 29196 PWs)   bands (ev):

   -20.8255 -20.8251 -20.8246 -20.8243 -20.3131 -20.3127 -20.3117 -20.3102
   -19.1514 -19.1509 -19.1463 -19.1451 -17.9203 -17.9199 -17.9023 -17.9020
   -15.1307 -15.1273 -15.1194 -15.1125 -15.0907 -15.0856 -15.0776 -15.0733
   -13.6360 -13.6349 -13.5993 -13.5984 -12.9966 -12.9782 -12.9629 -12.9599
   -12.5754 -12.5724 -12.4911 -12.4861 -12.4142 -12.4053 -12.3764 -12.3757
   -12.1776 -12.1715 -12.1598 -12.1464 -11.7970 -11.7910 -11.7279 -11.7185
   -11.3747 -11.3619 -11.3513 -11.3453 -10.6520 -10.6379 -10.6017 -10.5846
    -9.4954  -9.4591  -9.4271  -9.4134  -9.0717  -9.0675  -8.9935  -8.9662
    -8.8693  -8.8643  -8.8497  -8.8062  -8.7937  -8.7904  -8.7326  -8.7168
    -8.0538  -8.0468  -7.9818  -7.9782  -7.3980  -7.3958  -7.3305  -7.3111
    -7.0276  -7.0185  -6.9707  -6.9608  -6.8752  -6.8696  -6.8067  -6.8040
    -6.6028  -6.5898  -6.5820  -6.5725  -6.1140  -6.0767  -6.0687  -6.0476
    -5.9296  -5.9127  -5.8915  -5.8722  -5.6917  -5.6664  -5.6480  -5.6146
    -5.5952  -5.5500  -5.5294  -5.5020  -5.2365  -5.2319  -5.2036  -5.1858
    -5.0033  -4.9984  -4.9563  -4.9472  -4.9035  -4.8964  -4.8289  -4.7972
    -4.7960  -4.7769  -4.7480  -4.7281  -4.6355  -4.6093  -4.5857  -4.5116
    -4.4974  -4.4738  -4.4430  -4.4104  -4.1571  -4.1247  -4.0835  -4.0683
    -4.0516  -4.0484  -4.0340  -3.9984  -3.9543  -3.9390  -3.9194  -3.8880
    -3.7875  -3.7611  -3.7320  -3.7264  -3.7199  -3.7110  -3.7001  -3.6911
    -3.5647  -3.5616  -3.5233  -3.5129  -3.3706  -3.3470  -3.3023  -3.2717
    -3.2493  -3.2003  -3.1833  -3.1603  -3.1160  -3.1043  -3.0955  -3.0551
    -3.0346  -3.0089  -2.9884  -2.9757  -2.9274  -2.9118  -2.8793  -2.8560
    -2.6958  -2.6622  -2.6247  -2.6183  -2.5443  -2.5337  -2.5193  -2.4919
    -2.2443  -2.1969  -2.1628  -2.0877  -1.9302  -1.9025  -1.8598  -1.8401
    -1.7784  -1.7429  -1.7134  -1.6975  -1.6485  -1.5960  -1.5328  -1.4616
    -1.4063  -1.4010  -1.3918  -1.3565  -0.3883  -0.3778  -0.2828  -0.2662
    -0.2496  -0.2320  -0.0802  -0.0787   0.0697   0.1018   0.1516   0.1600
     0.1678   0.1697   0.2108   0.2242   0.5818   0.5979   0.5997   0.6079
     1.3130   1.3157   1.4908   1.5142

          k = 0.2500-0.3761 0.1245 ( 29196 PWs)   bands (ev):

   -20.8251 -20.8250 -20.8248 -20.8246 -20.3131 -20.3130 -20.3108 -20.3107
   -19.1513 -19.1512 -19.1456 -19.1456 -17.9202 -17.9200 -17.9022 -17.9020
   -15.1363 -15.1362 -15.1216 -15.1215 -15.0804 -15.0804 -15.0693 -15.0692
   -13.6352 -13.6351 -13.6061 -13.6061 -12.9798 -12.9798 -12.9575 -12.9574
   -12.5770 -12.5769 -12.4893 -12.4892 -12.4174 -12.4174 -12.3666 -12.3665
   -12.1736 -12.1736 -12.1585 -12.1585 -11.7931 -11.7931 -11.7205 -11.7205
   -11.3779 -11.3778 -11.3461 -11.3460 -10.6226 -10.6226 -10.6097 -10.6096
    -9.4646  -9.4646  -9.4362  -9.4361  -9.0737  -9.0737  -8.9711  -8.9711
    -8.8744  -8.8744  -8.8355  -8.8355  -8.7932  -8.7931  -8.7222  -8.7222
    -8.0292  -8.0292  -7.9884  -7.9884  -7.3836  -7.3836  -7.3159  -7.3159
    -7.0345  -7.0345  -6.9635  -6.9634  -6.8452  -6.8452  -6.8278  -6.8278
    -6.5950  -6.5950  -6.5847  -6.5847  -6.0908  -6.0908  -6.0709  -6.0709
    -5.9367  -5.9366  -5.8839  -5.8838  -5.6771  -5.6771  -5.6157  -5.6156
    -5.5919  -5.5919  -5.5051  -5.5051  -5.2307  -5.2307  -5.1933  -5.1933
    -5.0584  -5.0584  -4.9477  -4.9477  -4.9225  -4.9225  -4.7979  -4.7979
    -4.7840  -4.7840  -4.7263  -4.7262  -4.6256  -4.6256  -4.5134  -4.5133
    -4.4736  -4.4736  -4.4058  -4.4058  -4.1448  -4.1448  -4.0764  -4.0764
    -4.0339  -4.0339  -3.9973  -3.9973  -3.9522  -3.9522  -3.8898  -3.8897
    -3.7752  -3.7752  -3.7536  -3.7535  -3.7229  -3.7229  -3.7019  -3.7019
    -3.5684  -3.5683  -3.5227  -3.5226  -3.3994  -3.3993  -3.3072  -3.3072
    -3.2437  -3.2436  -3.1475  -3.1475  -3.0735  -3.0735  -3.0558  -3.0558
    -3.0080  -3.0080  -2.9693  -2.9692  -2.8974  -2.8974  -2.8713  -2.8713
    -2.6824  -2.6824  -2.6365  -2.6365  -2.5460  -2.5459  -2.5205  -2.5205
    -2.2798  -2.2798  -2.0828  -2.0827  -1.9326  -1.9325  -1.8415  -1.8415
    -1.7605  -1.7604  -1.7155  -1.7155  -1.6115  -1.6115  -1.4895  -1.4895
    -1.3964  -1.3964  -1.3769  -1.3769  -0.3822  -0.3821  -0.2771  -0.2770
    -0.2338  -0.2337  -0.0860  -0.0860   0.0808   0.0809   0.1466   0.1466
     0.1727   0.1727   0.2200   0.2200   0.5750   0.5751   0.6218   0.6219
     1.3206   1.3206   1.5048   1.5048

          k = 0.2500-0.3761 0.3503 ( 29190 PWs)   bands (ev):

   -20.8251 -20.8250 -20.8248 -20.8246 -20.3130 -20.3129 -20.3110 -20.3108
   -19.1512 -19.1512 -19.1457 -19.1456 -17.9201 -17.9200 -17.9022 -17.9021
   -15.1388 -15.1387 -15.1288 -15.1287 -15.0745 -15.0745 -15.0643 -15.0642
   -13.6440 -13.6440 -13.6041 -13.6040 -12.9734 -12.9734 -12.9517 -12.9517
   -12.5775 -12.5774 -12.4892 -12.4891 -12.4148 -12.4147 -12.3763 -12.3762
   -12.1774 -12.1774 -12.1570 -12.1569 -11.7909 -11.7909 -11.7166 -11.7165
   -11.3835 -11.3835 -11.3474 -11.3474 -10.6293 -10.6293 -10.5943 -10.5943
    -9.4751  -9.4751  -9.4355  -9.4355  -9.0373  -9.0373  -8.9772  -8.9772
    -8.8928  -8.8928  -8.8383  -8.8382  -8.7939  -8.7939  -8.7331  -8.7331
    -8.0433  -8.0433  -7.9724  -7.9724  -7.3927  -7.3927  -7.3016  -7.3016
    -7.0288  -7.0287  -6.9736  -6.9736  -6.8620  -6.8620  -6.8001  -6.8001
    -6.6043  -6.6042  -6.5888  -6.5887  -6.0968  -6.0968  -6.0592  -6.0591
    -5.9279  -5.9278  -5.8772  -5.8771  -5.6619  -5.6618  -5.6305  -5.6304
    -5.5821  -5.5821  -5.5117  -5.5116  -5.2251  -5.2250  -5.1993  -5.1992
    -5.0628  -5.0628  -4.9621  -4.9621  -4.8898  -4.8898  -4.8266  -4.8265
    -4.7908  -4.7907  -4.7327  -4.7327  -4.5862  -4.5862  -4.5394  -4.5394
    -4.4567  -4.4567  -4.4289  -4.4289  -4.1386  -4.1385  -4.0743  -4.0742
    -4.0396  -4.0396  -3.9869  -3.9869  -3.9468  -3.9468  -3.9072  -3.9072
    -3.7736  -3.7736  -3.7416  -3.7416  -3.7243  -3.7243  -3.6937  -3.6937
    -3.5688  -3.5687  -3.5379  -3.5378  -3.4044  -3.4043  -3.3667  -3.3666
    -3.2634  -3.2633  -3.1220  -3.1219  -3.0956  -3.0956  -3.0381  -3.0380
    -2.9865  -2.9865  -2.9842  -2.9842  -2.8709  -2.8709  -2.8381  -2.8381
    -2.6742  -2.6742  -2.6602  -2.6602  -2.5502  -2.5501  -2.5226  -2.5226
    -2.2631  -2.2631  -2.0624  -2.0623  -1.9163  -1.9162  -1.8412  -1.8411
    -1.7578  -1.7578  -1.7098  -1.7098  -1.6378  -1.6378  -1.5039  -1.5038
    -1.4002  -1.4002  -1.3689  -1.3689  -0.3873  -0.3873  -0.2816  -0.2816
    -0.2403  -0.2402  -0.0863  -0.0862   0.0828   0.0829   0.1475   0.1475
     0.1716   0.1716   0.2008   0.2008   0.5862   0.5862   0.6355   0.6355
     1.3232   1.3232   1.5097   1.5097

          k = 0.2500-0.3761-0.3269 ( 29248 PWs)   bands (ev):

   -20.8251 -20.8250 -20.8248 -20.8246 -20.3127 -20.3125 -20.3114 -20.3112
   -19.1511 -19.1511 -19.1458 -19.1458 -17.9202 -17.9200 -17.9022 -17.9021
   -15.1319 -15.1318 -15.1258 -15.1257 -15.0806 -15.0805 -15.0692 -15.0692
   -13.6430 -13.6430 -13.5984 -13.5983 -12.9727 -12.9726 -12.9641 -12.9640
   -12.5745 -12.5744 -12.4887 -12.4887 -12.3969 -12.3969 -12.3960 -12.3960
   -12.1831 -12.1831 -12.1451 -12.1451 -11.7923 -11.7922 -11.7190 -11.7189
   -11.4005 -11.4005 -11.3229 -11.3229 -10.6414 -10.6413 -10.5902 -10.5902
    -9.4862  -9.4861  -9.4181  -9.4181  -9.0360  -9.0359  -8.9901  -8.9901
    -8.8851  -8.8851  -8.8242  -8.8241  -8.7910  -8.7910  -8.7397  -8.7397
    -8.0661  -8.0660  -7.9615  -7.9615  -7.4033  -7.4033  -7.3084  -7.3084
    -7.0197  -7.0197  -6.9810  -6.9810  -6.8752  -6.8751  -6.7853  -6.7853
    -6.5961  -6.5961  -6.5902  -6.5902  -6.0968  -6.0968  -6.0510  -6.0510
    -5.9225  -5.9224  -5.8658  -5.8658  -5.6969  -5.6969  -5.6090  -5.6089
    -5.5601  -5.5600  -5.5289  -5.5289  -5.2302  -5.2301  -5.1975  -5.1975
    -5.0339  -5.0338  -4.9223  -4.9223  -4.8677  -4.8676  -4.8326  -4.8325
    -4.7869  -4.7868  -4.7421  -4.7421  -4.6505  -4.6505  -4.5540  -4.5540
    -4.4794  -4.4794  -4.4351  -4.4351  -4.1555  -4.1555  -4.0665  -4.0665
    -4.0507  -4.0506  -3.9871  -3.9870  -3.9445  -3.9445  -3.9072  -3.9072
    -3.7679  -3.7679  -3.7405  -3.7404  -3.7140  -3.7140  -3.6817  -3.6816
    -3.5714  -3.5713  -3.5302  -3.5300  -3.3752  -3.3752  -3.3540  -3.3540
    -3.2116  -3.2116  -3.1816  -3.1816  -3.1128  -3.1127  -3.0478  -3.0478
    -3.0190  -3.0189  -2.9685  -2.9684  -2.9198  -2.9198  -2.8303  -2.8303
    -2.6783  -2.6783  -2.6328  -2.6328  -2.5529  -2.5529  -2.5025  -2.5024
    -2.1955  -2.1955  -2.1052  -2.1051  -1.9041  -1.9040  -1.8544  -1.8544
    -1.7555  -1.7554  -1.7013  -1.7013  -1.6477  -1.6477  -1.5093  -1.5092
    -1.4011  -1.4010  -1.3723  -1.3723  -0.3886  -0.3885  -0.2812  -0.2812
    -0.2450  -0.2450  -0.0791  -0.0790   0.0866   0.0866   0.1543   0.1544
     0.1796   0.1796   0.1897   0.1897   0.5958   0.5959   0.6219   0.6219
     1.3176   1.3176   1.5069   1.5069

          k = 0.2500-0.3761-0.1012 ( 29206 PWs)   bands (ev):

   -20.8252 -20.8250 -20.8248 -20.8246 -20.3128 -20.3127 -20.3112 -20.3110
   -19.1512 -19.1511 -19.1457 -19.1457 -17.9202 -17.9200 -17.9022 -17.9020
   -15.1295 -15.1294 -15.1155 -15.1154 -15.0887 -15.0887 -15.0750 -15.0749
   -13.6354 -13.6354 -13.5989 -13.5989 -12.9883 -12.9882 -12.9606 -12.9605
   -12.5740 -12.5739 -12.4886 -12.4885 -12.4099 -12.4099 -12.3760 -12.3759
   -12.1753 -12.1752 -12.1525 -12.1525 -11.7942 -11.7942 -11.7230 -11.7229
   -11.3632 -11.3632 -11.3532 -11.3532 -10.6454 -10.6454 -10.5930 -10.5929
    -9.4783  -9.4783  -9.4193  -9.4192  -9.0697  -9.0697  -8.9804  -8.9803
    -8.8645  -8.8645  -8.8290  -8.8290  -8.7953  -8.7953  -8.7220  -8.7220
    -8.0504  -8.0503  -7.9799  -7.9799  -7.3952  -7.3952  -7.3231  -7.3230
    -7.0224  -7.0224  -6.9664  -6.9664  -6.8720  -6.8719  -6.8052  -6.8051
    -6.5969  -6.5968  -6.5770  -6.5770  -6.0944  -6.0944  -6.0586  -6.0586
    -5.9205  -5.9204  -5.8819  -5.8818  -5.6862  -5.6862  -5.6346  -5.6346
    -5.5633  -5.5633  -5.5172  -5.5171  -5.2348  -5.2348  -5.1914  -5.1913
    -5.0034  -5.0034  -4.9430  -4.9430  -4.9080  -4.9079  -4.8144  -4.8143
    -4.7844  -4.7843  -4.7404  -4.7404  -4.5900  -4.5900  -4.5680  -4.5680
    -4.5024  -4.5024  -4.4305  -4.4305  -4.1468  -4.1467  -4.0658  -4.0658
    -4.0417  -4.0417  -4.0099  -4.0099  -3.9529  -3.9529  -3.9129  -3.9129
    -3.7696  -3.7696  -3.7324  -3.7324  -3.7170  -3.7170  -3.6932  -3.6932
    -3.5461  -3.5460  -3.5280  -3.5279  -3.3638  -3.3637  -3.2739  -3.2739
    -3.2311  -3.2310  -3.1659  -3.1659  -3.1347  -3.1347  -3.0751  -3.0751
    -3.0101  -3.0101  -2.9795  -2.9795  -2.9221  -2.9220  -2.8680  -2.8680
    -2.6817  -2.6817  -2.6178  -2.6178  -2.5395  -2.5394  -2.5068  -2.5068
    -2.2172  -2.2172  -2.1245  -2.1244  -1.9220  -1.9220  -1.8492  -1.8491
    -1.7613  -1.7612  -1.7086  -1.7085  -1.6183  -1.6183  -1.4948  -1.4948
    -1.3986  -1.3985  -1.3791  -1.3791  -0.3836  -0.3835  -0.2755  -0.2755
    -0.2401  -0.2401  -0.0784  -0.0783   0.0842   0.0843   0.1595   0.1595
     0.1675   0.1676   0.2170   0.2170   0.5881   0.5882   0.6043   0.6044
     1.3150   1.3150   1.5020   1.5020

          k =-0.5000 0.0000-0.2491 ( 29296 PWs)   bands (ev):

   -20.8257 -20.8254 -20.8244 -20.8241 -20.3147 -20.3115 -20.3111 -20.3105
   -19.1525 -19.1497 -19.1465 -19.1451 -17.9204 -17.9197 -17.9024 -17.9019
   -15.1425 -15.1354 -15.1318 -15.1245 -15.0764 -15.0694 -15.0665 -15.0665
   -13.6497 -13.6244 -13.6216 -13.6002 -12.9955 -12.9542 -12.9501 -12.9496
   -12.5852 -12.5731 -12.4905 -12.4855 -12.4204 -12.4175 -12.3694 -12.3669
   -12.1873 -12.1692 -12.1640 -12.1522 -11.7943 -11.7899 -11.7188 -11.7144
   -11.4150 -11.3653 -11.3619 -11.3181 -10.6474 -10.6264 -10.5963 -10.5836
    -9.4916  -9.4602  -9.4380  -9.4232  -9.0598  -9.0499  -8.9867  -8.9505
    -8.8983  -8.8882  -8.8600  -8.8192  -8.7979  -8.7805  -8.7374  -8.7265
    -8.0273  -8.0228  -8.0024  -7.9625  -7.4026  -7.3634  -7.3289  -7.2765
    -7.0490  -7.0109  -6.9769  -6.9687  -6.8562  -6.8342  -6.8271  -6.8150
    -6.6281  -6.6047  -6.5897  -6.5797  -6.1292  -6.0715  -6.0609  -6.0266
    -5.9632  -5.9148  -5.9029  -5.8717  -5.6637  -5.6622  -5.6429  -5.6369
    -5.5898  -5.5384  -5.5287  -5.4960  -5.2704  -5.2281  -5.2016  -5.1774
    -5.1131  -5.0276  -4.9553  -4.9421  -4.9371  -4.8982  -4.8946  -4.8120
    -4.8065  -4.7938  -4.7560  -4.6011  -4.5927  -4.5401  -4.5394  -4.5306
    -4.4845  -4.4816  -4.4473  -4.3849  -4.1027  -4.0976  -4.0684  -4.0356
    -4.0203  -4.0067  -3.9999  -3.9958  -3.9930  -3.9513  -3.9274  -3.9178
    -3.7800  -3.7761  -3.7736  -3.7519  -3.7461  -3.7444  -3.6919  -3.6818
    -3.5663  -3.5546  -3.5268  -3.5151  -3.4192  -3.4132  -3.3909  -3.3441
    -3.3251  -3.1964  -3.1053  -3.1016  -3.0743  -3.0706  -3.0662  -3.0401
    -3.0159  -2.9962  -2.9537  -2.9468  -2.8840  -2.8649  -2.8432  -2.8294
    -2.6877  -2.6851  -2.6660  -2.6576  -2.5603  -2.5560  -2.5435  -2.4911
    -2.3285  -2.3220  -2.0596  -2.0212  -1.9499  -1.8941  -1.8457  -1.8104
    -1.7965  -1.7401  -1.7000  -1.6854  -1.6439  -1.6364  -1.5610  -1.4653
    -1.4064  -1.3873  -1.3709  -1.3518  -0.4127  -0.3564  -0.2858  -0.2686
    -0.2524  -0.2242  -0.1082  -0.0736   0.0675   0.1057   0.1291   0.1319
     0.1757   0.1874   0.2089   0.2151   0.5642   0.5810   0.6270   0.6462
     1.3219   1.3262   1.4713   1.5412

          k =-0.5000 0.0000-0.0233 ( 29254 PWs)   bands (ev):

   -20.8256 -20.8254 -20.8244 -20.8241 -20.3142 -20.3118 -20.3112 -20.3104
   -19.1521 -19.1501 -19.1463 -19.1453 -17.9203 -17.9198 -17.9023 -17.9020
   -15.1366 -15.1294 -15.1276 -15.1202 -15.0831 -15.0746 -15.0743 -15.0693
   -13.6456 -13.6322 -13.6084 -13.5967 -12.9808 -12.9805 -12.9554 -12.9552
   -12.5800 -12.5735 -12.4871 -12.4857 -12.4163 -12.4093 -12.3795 -12.3770
   -12.1825 -12.1725 -12.1632 -12.1398 -11.7977 -11.7894 -11.7225 -11.7157
   -11.3992 -11.3662 -11.3583 -11.3274 -10.6450 -10.6278 -10.6055 -10.5814
    -9.4979  -9.4635  -9.4415  -9.4080  -9.0772  -9.0651  -8.9816  -8.9490
    -8.9052  -8.8482  -8.8419  -8.8085  -8.8046  -8.7742  -8.7409  -8.7268
    -8.0706  -8.0281  -8.0006  -7.9581  -7.4191  -7.3537  -7.3384  -7.2886
    -7.0294  -7.0199  -6.9898  -6.9606  -6.8867  -6.8375  -6.8103  -6.8000
    -6.6129  -6.6032  -6.5838  -6.5801  -6.1136  -6.0823  -6.0553  -6.0307
    -5.9446  -5.9232  -5.8961  -5.8625  -5.6767  -5.6636  -5.6528  -5.6196
    -5.5712  -5.5657  -5.5240  -5.4919  -5.2506  -5.2310  -5.2029  -5.1859
    -5.0762  -4.9942  -4.9889  -4.9315  -4.8950  -4.8875  -4.8751  -4.8148
    -4.8031  -4.7812  -4.7439  -4.6546  -4.6220  -4.5671  -4.5639  -4.5604
    -4.4824  -4.4781  -4.4373  -4.4358  -4.1382  -4.1065  -4.0926  -4.0491
    -4.0294  -4.0074  -4.0029  -3.9989  -3.9736  -3.9320  -3.9131  -3.9114
    -3.7837  -3.7833  -3.7493  -3.7256  -3.7240  -3.7192  -3.7142  -3.6971
    -3.5624  -3.5575  -3.5309  -3.5204  -3.4143  -3.4112  -3.3357  -3.3049
    -3.2784  -3.1562  -3.1541  -3.1433  -3.1251  -3.0933  -3.0675  -3.0354
    -3.0276  -3.0070  -2.9810  -2.9461  -2.8998  -2.8871  -2.8603  -2.8441
    -2.6897  -2.6539  -2.6517  -2.6493  -2.5542  -2.5403  -2.5265  -2.4889
    -2.3065  -2.2526  -2.0977  -2.0338  -1.9290  -1.8790  -1.8783  -1.8060
    -1.7886  -1.7239  -1.7211  -1.6907  -1.6450  -1.6431  -1.5408  -1.4696
    -1.4154  -1.3959  -1.3701  -1.3587  -0.4048  -0.3636  -0.2924  -0.2711
    -0.2469  -0.2327  -0.0971  -0.0722   0.0747   0.1006   0.1362   0.1456
     0.1770   0.1851   0.2034   0.2157   0.5698   0.5898   0.6151   0.6358
     1.3099   1.3246   1.4880   1.5212

          k =-0.5000 0.0000-0.7005 ( 29160 PWs)   bands (ev):

   -20.8256 -20.8254 -20.8244 -20.8241 -20.3132 -20.3130 -20.3108 -20.3107
   -19.1511 -19.1511 -19.1457 -19.1457 -17.9202 -17.9200 -17.9022 -17.9020
   -15.1259 -15.1257 -15.1187 -15.1185 -15.0872 -15.0872 -15.0770 -15.0769
   -13.6396 -13.6395 -13.5951 -13.5950 -12.9819 -12.9818 -12.9661 -12.9659
   -12.5740 -12.5739 -12.4850 -12.4849 -12.3995 -12.3994 -12.3925 -12.3924
   -12.1731 -12.1731 -12.1542 -12.1541 -11.7942 -11.7941 -11.7215 -11.7214
   -11.3738 -11.3737 -11.3430 -11.3429 -10.6334 -10.6334 -10.6058 -10.6057
    -9.4688  -9.4688  -9.4314  -9.4313  -9.0298  -9.0297  -9.0062  -9.0061
    -8.8833  -8.8833  -8.8062  -8.8062  -8.7945  -8.7945  -8.7375  -8.7375
    -8.0631  -8.0631  -7.9698  -7.9698  -7.4104  -7.4103  -7.3099  -7.3099
    -6.9990  -6.9989  -6.9893  -6.9893  -6.8838  -6.8838  -6.7936  -6.7936
    -6.5975  -6.5975  -6.5845  -6.5844  -6.0929  -6.0928  -6.0467  -6.0466
    -5.9111  -5.9110  -5.8835  -5.8834  -5.6707  -5.6706  -5.6291  -5.6290
    -5.5641  -5.5641  -5.5252  -5.5252  -5.2356  -5.2356  -5.2020  -5.2020
    -4.9957  -4.9957  -4.9549  -4.9549  -4.8544  -4.8543  -4.8194  -4.8193
    -4.7805  -4.7805  -4.7307  -4.7307  -4.6777  -4.6776  -4.5687  -4.5686
    -4.4899  -4.4899  -4.4504  -4.4504  -4.1229  -4.1228  -4.0617  -4.0617
    -4.0393  -4.0393  -4.0080  -4.0079  -3.9616  -3.9615  -3.9047  -3.9046
    -3.7861  -3.7861  -3.7170  -3.7170  -3.7104  -3.7103  -3.6935  -3.6934
    -3.5783  -3.5782  -3.5161  -3.5160  -3.3563  -3.3563  -3.3171  -3.3171
    -3.2415  -3.2415  -3.1611  -3.1611  -3.0953  -3.0952  -3.0562  -3.0562
    -3.0180  -3.0180  -3.0119  -3.0119  -2.9149  -2.9149  -2.8560  -2.8560
    -2.6690  -2.6690  -2.6343  -2.6343  -2.5402  -2.5402  -2.4955  -2.4955
    -2.2108  -2.2108  -2.1171  -2.1170  -1.9006  -1.9005  -1.8409  -1.8409
    -1.7517  -1.7517  -1.6980  -1.6979  -1.6587  -1.6587  -1.4968  -1.4968
    -1.4124  -1.4123  -1.3687  -1.3686  -0.3842  -0.3841  -0.2808  -0.2807
    -0.2472  -0.2472  -0.0784  -0.0783   0.0887   0.0888   0.1562   0.1562
     0.1848   0.1849   0.1991   0.1992   0.5913   0.5914   0.6103   0.6104
     1.3112   1.3112   1.5022   1.5022

          k =-0.5000 0.1880-0.2491 ( 29226 PWs)   bands (ev):

   -20.8255 -20.8252 -20.8246 -20.8243 -20.3143 -20.3121 -20.3110 -20.3104
   -19.1522 -19.1502 -19.1461 -19.1452 -17.9203 -17.9198 -17.9023 -17.9020
   -15.1417 -15.1371 -15.1300 -15.1252 -15.0756 -15.0709 -15.0662 -15.0660
   -13.6476 -13.6329 -13.6136 -13.6018 -12.9904 -12.9618 -12.9520 -12.9453
   -12.5834 -12.5749 -12.4898 -12.4863 -12.4201 -12.4181 -12.3688 -12.3671
   -12.1856 -12.1743 -12.1600 -12.1530 -11.7937 -11.7906 -11.7181 -11.7150
   -11.4077 -11.3726 -11.3555 -11.3246 -10.6443 -10.6294 -10.5943 -10.5853
    -9.4881  -9.4671  -9.4334  -9.4241  -9.0584  -9.0514  -8.9816  -8.9560
    -8.8944  -8.8870  -8.8580  -8.8335  -8.7900  -8.7822  -8.7355  -8.7273
    -8.0280  -8.0264  -7.9934  -7.9667  -7.3986  -7.3733  -7.3164  -7.2818
    -7.0468  -7.0208  -6.9716  -6.9652  -6.8541  -6.8334  -6.8306  -6.8170
    -6.6228  -6.5997  -6.5958  -6.5819  -6.1220  -6.0746  -6.0649  -6.0327
    -5.9587  -5.9300  -5.8900  -5.8742  -5.6646  -5.6578  -5.6520  -5.6193
    -5.5781  -5.5557  -5.5268  -5.5121  -5.2511  -5.2243  -5.2013  -5.1813
    -5.1090  -5.0610  -4.9417  -4.9405  -4.9116  -4.8951  -4.8840  -4.8215
    -4.8089  -4.7894  -4.7548  -4.6456  -4.5940  -4.5816  -4.5280  -4.5078
    -4.4642  -4.4519  -4.4392  -4.3957  -4.1312  -4.1133  -4.0727  -4.0554
    -4.0310  -4.0162  -3.9914  -3.9752  -3.9672  -3.9553  -3.9139  -3.9064
    -3.8042  -3.7933  -3.7601  -3.7439  -3.7363  -3.7253  -3.6959  -3.6821
    -3.5709  -3.5569  -3.5363  -3.5356  -3.4113  -3.3933  -3.3858  -3.3576
    -3.3082  -3.2247  -3.1033  -3.0978  -3.0842  -3.0581  -3.0428  -3.0247
    -3.0065  -2.9976  -2.9673  -2.9517  -2.8803  -2.8673  -2.8500  -2.8409
[...]
     atom   45 type  1   force =    -0.00038712   -0.00014183   -0.00004380
     atom   46 type  1   force =    -0.00038712    0.00014183   -0.00004380
     atom   47 type  1   force =     0.00038712    0.00014183    0.00004380
     atom   48 type  2   force =     0.00036574   -0.00009823    0.00007325
     atom   49 type  2   force =     0.00036574    0.00009823    0.00007325
     atom   50 type  2   force =    -0.00036574    0.00009823   -0.00007325
     atom   51 type  1   force =     0.00010648    0.00021403   -0.00005694
     atom   52 type  1   force =     0.00010648   -0.00021403   -0.00005694
     atom   53 type  1   force =    -0.00010648   -0.00021403    0.00005694
     atom   54 type  1   force =     0.00000844    0.00005890   -0.00035941
     atom   55 type  1   force =     0.00000844   -0.00005890   -0.00035941
     atom   56 type  1   force =    -0.00000844   -0.00005890    0.00035941
     atom   57 type  2   force =     0.00012719    0.00055222   -0.00021822
     atom   58 type  2   force =     0.00012719   -0.00055222   -0.00021822
     atom   59 type  2   force =    -0.00012719   -0.00055222    0.00021822
     atom   60 type  1   force =     0.00018117   -0.00035761   -0.00007935
     atom   61 type  1   force =     0.00018117    0.00035761   -0.00007935
     atom   62 type  1   force =    -0.00018117    0.00035761    0.00007935
     atom   63 type  2   force =     0.00070537   -0.00021872   -0.00004162
     atom   64 type  2   force =     0.00070537    0.00021872   -0.00004162
     atom   65 type  2   force =    -0.00070537    0.00021872    0.00004162
     atom   66 type  1   force =    -0.00025659   -0.00068113   -0.00046194
     atom   67 type  1   force =    -0.00025659    0.00068113   -0.00046194
     atom   68 type  1   force =     0.00025659    0.00068113    0.00046194
     atom   69 type  1   force =    -0.00027602   -0.00066208   -0.00016020
     atom   70 type  1   force =    -0.00027602    0.00066208   -0.00016020
     atom   71 type  1   force =     0.00027602    0.00066208    0.00016020
     atom   72 type  1   force =     0.00053754    0.00043664   -0.00010135
     atom   73 type  1   force =     0.00053754   -0.00043664   -0.00010135
     atom   74 type  1   force =    -0.00053754   -0.00043664    0.00010135
     atom   75 type  2   force =    -0.00001744    0.00062972   -0.00013381
     atom   76 type  2   force =    -0.00001744   -0.00062972   -0.00013381
     atom   77 type  2   force =     0.00001744   -0.00062972    0.00013381
     atom   78 type  1   force =    -0.00038442   -0.00014362   -0.00038909
     atom   79 type  1   force =    -0.00038442    0.00014362   -0.00038909
     atom   80 type  1   force =     0.00038442    0.00014362    0.00038909
     atom   81 type  2   force =    -0.00056955   -0.00005917   -0.00054383
     atom   82 type  2   force =    -0.00056955    0.00005917   -0.00054383
     atom   83 type  2   force =     0.00056955    0.00005917    0.00054383
     atom   84 type  1   force =     0.00035569    0.00030390    0.00004204
     atom   85 type  1   force =     0.00035569   -0.00030390    0.00004204
     atom   86 type  1   force =    -0.00035569   -0.00030390   -0.00004204
     atom   87 type  1   force =     0.00040012    0.00027873    0.00006391
     atom   88 type  1   force =     0.00040012   -0.00027873    0.00006391
     atom   89 type  1   force =    -0.00040012   -0.00027873   -0.00006391
     atom   90 type  1   force =    -0.00000907   -0.00000279    0.00061854
     atom   91 type  1   force =    -0.00000907    0.00000279    0.00061854
     atom   92 type  1   force =     0.00000907    0.00000279   -0.00061854
     atom   93 type  2   force =     0.00090086    0.00063119   -0.00031447
     atom   94 type  2   force =     0.00090086   -0.00063119   -0.00031447
     atom   95 type  2   force =    -0.00090086   -0.00063119    0.00031447
     atom   96 type  1   force =     0.00030622    0.00032549   -0.00023907
     atom   97 type  1   force =     0.00030622   -0.00032549   -0.00023907
     atom   98 type  1   force =    -0.00030622   -0.00032549    0.00023907
     atom   99 type  2   force =    -0.00016560   -0.00041194   -0.00024394
     atom  100 type  2   force =    -0.00016560    0.00041194   -0.00024394
     atom  101 type  2   force =     0.00016560    0.00041194    0.00024394
     atom  102 type  1   force =    -0.00035020    0.00004668   -0.00009374
     atom  103 type  1   force =    -0.00035020   -0.00004668   -0.00009374
     atom  104 type  1   force =     0.00035020   -0.00004668    0.00009374
     atom  105 type  1   force =    -0.00027773    0.00003879   -0.00050347
     atom  106 type  1   force =    -0.00027773   -0.00003879   -0.00050347
     atom  107 type  1   force =     0.00027773   -0.00003879    0.00050347
     atom  108 type  2   force =     0.00050280   -0.00014720    0.00010566
     atom  109 type  2   force =     0.00050280    0.00014720    0.00010566
     atom  110 type  2   force =    -0.00050280    0.00014720   -0.00010566
     atom  111 type  1   force =    -0.00034318   -0.00022463    0.00040052
     atom  112 type  1   force =    -0.00034318    0.00022463    0.00040052
     atom  113 type  1   force =     0.00034318    0.00022463   -0.00040052
     atom  114 type  2   force =    -0.00000253   -0.00040568   -0.00024209
     atom  115 type  2   force =    -0.00000253    0.00040568   -0.00024209
     atom  116 type  2   force =     0.00000253    0.00040568    0.00024209
     atom  117 type  1   force =     0.00008457    0.00028557    0.00035284
     atom  118 type  1   force =     0.00008457   -0.00028557    0.00035284
     atom  119 type  1   force =    -0.00008457   -0.00028557   -0.00035284
     atom  120 type  2   force =    -0.00028024    0.00000608    0.00011943
     atom  121 type  2   force =    -0.00028024   -0.00000608    0.00011943
     atom  122 type  2   force =     0.00028024   -0.00000608   -0.00011943
     atom  123 type  2   force =    -0.00013650   -0.00003905    0.00023159
     atom  124 type  2   force =    -0.00013650    0.00003905    0.00023159
     atom  125 type  2   force =     0.00013650    0.00003905   -0.00023159
     atom  126 type  2   force =    -0.00014400    0.00011738    0.00032427
     atom  127 type  2   force =    -0.00014400   -0.00011738    0.00032427
     atom  128 type  2   force =     0.00014400   -0.00011738   -0.00032427
     atom  129 type  1   force =    -0.00036986   -0.00031825    0.00011147
     atom  130 type  1   force =    -0.00036986    0.00031825    0.00011147
     atom  131 type  1   force =     0.00036986    0.00031825   -0.00011147
     atom  132 type  2   force =    -0.00008102    0.00002806    0.00019105
     atom  133 type  2   force =    -0.00008102   -0.00002806    0.00019105
     atom  134 type  2   force =     0.00008102   -0.00002806   -0.00019105
     atom  135 type  2   force =     0.00050928    0.00016572   -0.00002184
     atom  136 type  2   force =     0.00050928   -0.00016572   -0.00002184
     atom  137 type  2   force =    -0.00050928   -0.00016572    0.00002184
     atom  138 type  2   force =     0.00006107    0.00026302   -0.00009754
     atom  139 type  2   force =     0.00006107   -0.00026302   -0.00009754
     atom  140 type  2   force =    -0.00006107   -0.00026302    0.00009754
     atom  141 type  2   force =    -0.00053903   -0.00029245   -0.00008384
     atom  142 type  2   force =    -0.00053903    0.00029245   -0.00008384
     atom  143 type  2   force =     0.00053903    0.00029245    0.00008384
     atom  144 type  2   force =     0.00051019    0.00004728    0.00063449
     atom  145 type  2   force =     0.00051019   -0.00004728    0.00063449
     atom  146 type  2   force =    -0.00051019   -0.00004728   -0.00063449
     atom  147 type  2   force =    -0.00028236   -0.00037816    0.00024832
     atom  148 type  2   force =    -0.00028236    0.00037816    0.00024832
     atom  149 type  2   force =     0.00028236    0.00037816   -0.00024832
     atom  150 type  4   force =    -0.00007944    0.00004710   -0.00012505
     atom  151 type  4   force =    -0.00007944   -0.00004710   -0.00012505
     atom  152 type  4   force =     0.00007944   -0.00004710    0.00012505
     atom  153 type  3   force =     0.00056733    0.00000304    0.00080147
     atom  154 type  3   force =     0.00056733   -0.00000304    0.00080147
     atom  155 type  3   force =    -0.00056733   -0.00000304   -0.00080147
     atom  156 type  2   force =     0.00094289    0.00067787   -0.00033339
     atom  157 type  2   force =     0.00094289   -0.00067787   -0.00033339
     atom  158 type  2   force =    -0.00094289   -0.00067787    0.00033339
     atom  159 type  3   force =    -0.00008418   -0.00020055    0.00071876
     atom  160 type  3   force =    -0.00008418    0.00020055    0.00071876
     atom  161 type  3   force =     0.00008418    0.00020055   -0.00071876
     atom  162 type  3   force =     0.00045529    0.00015536    0.00007708
     atom  163 type  3   force =     0.00045529   -0.00015536    0.00007708
     atom  164 type  3   force =    -0.00045529   -0.00015536   -0.00007708

     Total force =     0.007623     Total SCF correction =     0.000332

     BFGS Geometry Optimization

     bfgs converged in   1 scf cycles and   0 bfgs steps
     (criteria: energy <  1.0E-04 Ry, force <  1.0E-03 Ry/Bohr)

     End of BFGS Geometry Optimization

     Final energy   =   -1372.2283471921 Ry
Begin final coordinates

ATOMIC_POSITIONS (angstrom)
C        1.947810991   2.794177604   8.692659780
C        1.121285281   3.512434701   7.816455076
H        1.283310640   3.407498907   6.746395364
C        0.116927159   4.326179156   8.336592290
C       -0.063125126   4.443731744   9.732264799
H       -0.848403609   5.097941444  10.107500050
C        0.757111976   3.739250789  10.585186231
H        6.245836580   3.880855316   0.365786990
C        1.771570802   2.878769902  10.108026054
C        2.629932944   2.072892922  10.978251756
C        8.086052129   2.105445716   1.119893864
H        7.302520206   2.740814329   1.526546517
C        8.877277549   1.381635791   1.968553520
H       -0.539265679   0.757275851   1.518014862
C       -1.406688443   1.352715944   3.396767273
C        7.838370470   2.101138294   4.133737872
H        7.147646577   2.759955561   3.609405357
C       -2.437869446   2.028574663   5.505254383
H        7.003413014   2.620676051   6.020313163
C       -1.554514747   1.193861689   6.245690260
C       -0.596309045   0.440871138   5.515016912
H        0.097952146  13.338218038   6.035639023
C       -0.528762087   0.531642713   4.139919760
H        0.229197673  -0.042620336   3.607660485
C       -2.579870392   1.939015525   8.331281632
H       -2.504760726   2.999997624   8.050716731
H       -2.369436851   1.857184822   9.400527955
H       -3.612951782   1.600405210   8.147073485
C       -0.732550038   0.232747097   8.324138676
H       -0.876066042  12.743338347   8.002561528
H       -0.952145447   0.296688363   9.394600486
H        0.325193710   0.499818621   8.166161139
C       -0.535363250   5.086227819   6.160977231
H        0.467406624   5.482179846   5.930600514
H       -1.305333719   5.757024346   5.768668943
H       -0.652222341   4.080597298   5.729452754
N       -1.617578537   1.130230611   7.601045414
O        2.925430598   2.026650164   8.181910998
H        3.360902833   1.586690444   9.048842211
O        3.531989828   1.328110967  10.441118585
O       -0.736104523   5.056311160   7.579938696
C       -0.189740991   9.571177604   8.241990220
C        2.622229009  10.759822396   2.597110220
C        4.759790991   3.982822396   3.047779780
C        0.636784719  10.289434701   9.118194924
C        3.448764719  10.041565299   3.473314924
C        3.933255281   3.264565299   2.171575076
H        0.474759360  10.184498907  10.188264636
H        3.286739360  10.146501093   4.543374636
H        4.095280640   3.369501093   1.101505364
C        1.641142841  11.103179156   8.598057710
C        4.453122841   9.227820844   2.953177710
C        2.928907159   2.450820844   2.691712290
C        1.821195126  11.220731744   7.202395201
C        4.633175126   9.110268256   1.557505201
C        2.748854874   2.333268256   4.087384799
H        2.606473609  11.874941444   6.827159950
H        5.418453609   8.456058556   1.182269950
H        1.963566391   1.679058556   4.462610050
C        1.000968024  10.516250789   6.349473769
C        3.812938024   9.814749211   0.704583769
C        3.569081976   3.037749211   4.940296231
H        1.136193420  10.657855316   5.279103010
H       -1.675786580   9.673144684  10.923983010
H        3.433856580   2.896144684   6.010666990
C       -0.013500802   9.655769902   6.826623946
C        2.798479198  10.675230098   1.181743946
C        4.583550802   3.898230098   4.463146054
C       -0.871862944   8.849892922   5.956408244
C        1.940107056  11.481107078   0.311518244
C        5.441912944   4.704107078   5.333361756
C       -0.704022129   8.882445716   4.524986136
C       -3.516002129  11.448554284  10.169876136
C        5.274072129   4.671554284   6.764783864
H        0.079499794   9.517814329   4.118343483
H       -2.732480206  10.813185671   9.763223483
H        4.490550206   4.036185671   7.171426517
C       -1.495257549   8.158635791   3.676326480
C       -4.307237549  12.172364209   9.321216480
C        6.065307549   5.395364209   7.613443520
H        7.921285679   7.534275851   4.126875138
H        5.109315679  12.796724149   9.771755138
H       -3.351245679   6.019724149   7.162894862
C        8.788718443   8.129715944   2.248112727
C        5.976738443  12.201284056   7.893002727
C       -4.218668443   5.424284056   9.041657273
C       -0.456340470   8.878138294   1.511142128
C       -3.268320470  11.452861706   7.156032128
C        5.026390470   4.675861706   9.778627872
C        2.293433250  11.863227819  10.773672769
C        5.105413250   8.467772181   5.128792769
C        2.276616750   1.690772181   0.516097231
H        0.234383423   9.536955561   2.035474643
H       -2.577596577  10.794044439   7.680364643
H        4.335666577   4.017044439   9.254295357
C        9.819889446   8.805574663   0.139635617
C        7.007919446  11.525425337   5.784515617
C       -5.249849446   4.748425337  11.150134383
H       -5.245343014   9.397676051  10.914336837
H       -2.433363014  10.933323949   5.269456837
H        9.815393014   4.156323949   0.375433163
C        3.312594747   7.970861689  10.688959740
C        6.124564747  12.360138311   5.044079740
C        1.257455253   5.583138311   0.600810260
C        7.978329045   7.217871138   0.129863088
C        5.166359045  13.113128862   5.774753088
C       -3.408289045   6.336128862  11.159906912
H        1.660127854   6.561218038  10.899020977
H        4.472097854   0.215781962   5.254130977
H        2.909922146   6.992781962   0.390749023
C        7.910782087   7.308642713   1.504970240
C        5.098802087  13.022357287   7.149850240
C       -3.340732087   6.245357287   9.784799760
H        7.152832327   6.734379664   2.037229515
H        4.340852327  13.596620336   7.682109515
H       -2.582782327   6.819620336   9.252540485
C        4.337940392   8.716015525   8.603368368
C        7.149920392  11.614984475   2.958488368
C        0.232099608   4.837984475   2.686401632
H        4.262830726   9.776997624   8.883933269
H        7.074810726  10.554002376   3.239053269
H        0.307209274   3.777002376   2.405836731
H        4.127506851   8.634184822   7.534132045
H        6.939486851  11.696815178   1.889252045
H        0.442533149   4.919815178   3.755637955
H        5.371021782   8.377405210   8.787576515
H        8.183001782  11.953594790   3.142696515
H       -0.800971782   5.176594790   2.502193485
C        2.490620038   7.009747097   8.610521324
C        5.302590038  13.321252903   2.965641324
C        2.079429962   6.544252903   2.679248676
H        2.634136042   5.966338347   8.932098472
H        5.446116042   0.810661653   3.287208472
H        1.935913958   7.587661653   2.357671528
H        2.710215447   7.073688363   7.540059514
H        5.522195447  13.257311637   1.895169514
H        1.859834553   6.480311637   3.749710486
H        1.432886290   7.276818621   8.768488861
H        4.244856290  13.054181379   3.123608861
H        3.137163710   6.277181379   2.521281139
H        1.290663376  12.259179846  11.004059486
H        4.102643376   8.071820154   5.359169486
H        3.279386624   1.294820154   0.285710514
H        3.063403719  12.534024346  11.165991057
H        5.875373719   7.796985654   5.521101057
H        1.506646281   1.019985654   0.123778943
H        2.410292341  10.857597298  11.205207246
H        5.222262341   9.473402702   5.560317246
H        2.159757659   2.696402702   0.084562754
N        3.375648537   7.907230611   9.333614586
N        6.187618537  12.423769389   3.688724586
N        1.194401463   5.646769389   1.956155414
O       -1.167360598   8.803650164   8.752749002
O        1.644609402  11.527349836   3.107859002
O        5.737410598   4.750349836   2.537020998
H       -1.602832833   8.363690444   7.885817789
H        1.209147167  11.967309556   2.240937789
H        6.172882833   5.190309556   3.403952211
O       -1.773919828   8.105110967   6.493531415
O        1.038050172  12.225889033   0.848651415
O        6.343969828   5.448889033   4.796238585
O        2.494174523  11.833311160   9.354721304
O        5.306154523   8.497688840   3.709831304
O        2.075865477   1.720688840   1.935048696
End final coordinates



     Writing output data file 2hc_3_222.save
 
     init_run     :    475.52s CPU    479.18s WALL (       1 calls)
     electrons    :  11291.62s CPU  11409.06s WALL (       1 calls)
     forces       :    162.19s CPU    162.79s WALL (       1 calls)

     Called by init_run:
     wfcinit      :    469.89s CPU    473.23s WALL (       1 calls)
     potinit      :      2.19s CPU      2.21s WALL (       1 calls)

     Called by electrons:
     c_bands      :  10160.53s CPU  10260.98s WALL (      12 calls)
     sum_band     :   1110.98s CPU   1114.34s WALL (      12 calls)
     v_of_rho     :      3.63s CPU      3.65s WALL (      13 calls)
     newd         :      7.15s CPU      9.79s WALL (      13 calls)
     mix_rho      :      0.70s CPU      0.75s WALL (      12 calls)

     Called by c_bands:
     init_us_2    :     82.06s CPU     82.25s WALL (     780 calls)
     cegterg      :   9883.28s CPU   9983.30s WALL (     360 calls)

     Called by sum_band:
     sum_band:bec :      0.39s CPU      0.39s WALL (     360 calls)
     addusdens    :      7.48s CPU      9.89s WALL (      12 calls)

     Called by *egterg:
     h_psi        :   6270.55s CPU   6276.65s WALL (    1770 calls)
     s_psi        :   1319.91s CPU   1320.44s WALL (    1770 calls)
     g_psi        :     32.92s CPU     32.93s WALL (    1380 calls)
     cdiaghg      :    280.57s CPU    280.77s WALL (    1740 calls)

     Called by h_psi:
     h_psi:pot    :   6230.76s CPU   6235.57s WALL (    1770 calls)
     h_psi:calbec :   1247.46s CPU   1248.23s WALL (    1770 calls)
     vloc_psi     :   3663.66s CPU   3667.05s WALL (    1770 calls)
     add_vuspsi   :   1319.63s CPU   1320.29s WALL (    1770 calls)

     General routines
     calbec       :   1783.92s CPU   1784.91s WALL (    2250 calls)
     fft          :      1.61s CPU      1.67s WALL (     170 calls)
     fftw         :   3727.67s CPU   3730.77s WALL (  580042 calls)
     davcio       :      0.05s CPU      4.00s WALL (      30 calls)
 
     Parallel routines
     fft_scatter  :    323.38s CPU    323.94s WALL (  580212 calls)
 
     PWSCF        :     3h18m CPU        3h21m WALL

 
   This run was terminated on:  14: 7:25  12Oct2017            

=------------------------------------------------------------------------------=
   JOB DONE.
=------------------------------------------------------------------------------=
