 Entering Gaussian System, Link 0=g09
 Input=2hc_4_664-mega_dimer_1.com
 Output=2hc_4_664-mega_dimer_1.out
 Initial command:
 /share/apps/gaussian/g09_D01/g09/l1.exe "/tmp/160967.1.all.q/Gau-19432.inp" -scrdir="/tmp/160967.1.all.q/"
 Entering Link 1 = /share/apps/gaussian/g09_D01/g09/l1.exe PID=     19433.
  
 Copyright (c) 1988,1990,1992,1993,1995,1998,2003,2009,2013,
            Gaussian, Inc.  All Rights Reserved.
  
 This is part of the Gaussian(R) 09 program.  It is based on
 the Gaussian(R) 03 system (copyright 2003, Gaussian, Inc.),
 the Gaussian(R) 98 system (copyright 1998, Gaussian, Inc.),
 the Gaussian(R) 94 system (copyright 1995, Gaussian, Inc.),
 the Gaussian 92(TM) system (copyright 1992, Gaussian, Inc.),
 the Gaussian 90(TM) system (copyright 1990, Gaussian, Inc.),
 the Gaussian 88(TM) system (copyright 1988, Gaussian, Inc.),
 the Gaussian 86(TM) system (copyright 1986, Carnegie Mellon
 University), and the Gaussian 82(TM) system (copyright 1983,
 Carnegie Mellon University). Gaussian is a federally registered
 trademark of Gaussian, Inc.
  
 This software contains proprietary and confidential information,
 including trade secrets, belonging to Gaussian, Inc.
  
 This software is provided under written license and may be
 used, copied, transmitted, or stored only in accord with that
 written license.
  
 The following legend is applicable only to US Government
 contracts under FAR:
  
                    RESTRICTED RIGHTS LEGEND
  
 Use, reproduction and disclosure by the US Government is
 subject to restrictions as set forth in subparagraphs (a)
 and (c) of the Commercial Computer Software - Restricted
 Rights clause in FAR 52.227-19.
  
 Gaussian, Inc.
 340 Quinnipiac St., Bldg. 40, Wallingford CT 06492
  
  
 ---------------------------------------------------------------
 Warning -- This program may not be used in any manner that
 competes with the business of Gaussian, Inc. or will provide
 assistance to any competitor of Gaussian, Inc.  The licensee
 of this program is prohibited from giving any competitor of
 Gaussian, Inc. access to this program.  By using this program,
 the user acknowledges that Gaussian, Inc. is engaged in the
 business of creating and licensing software in the field of
 computational chemistry and represents and warrants to the
 licensee that it is not a competitor of Gaussian, Inc. and that
 it will not use this program in any manner prohibited above.
 ---------------------------------------------------------------
  

 Cite this work as:
 Gaussian 09, Revision D.01,
 M. J. Frisch, G. W. Trucks, H. B. Schlegel, G. E. Scuseria, 
 M. A. Robb, J. R. Cheeseman, G. Scalmani, V. Barone, B. Mennucci, 
 G. A. Petersson, H. Nakatsuji, M. Caricato, X. Li, H. P. Hratchian, 
 A. F. Izmaylov, J. Bloino, G. Zheng, J. L. Sonnenberg, M. Hada, 
 M. Ehara, K. Toyota, R. Fukuda, J. Hasegawa, M. Ishida, T. Nakajima, 
 Y. Honda, O. Kitao, H. Nakai, T. Vreven, J. A. Montgomery, Jr., 
 J. E. Peralta, F. Ogliaro, M. Bearpark, J. J. Heyd, E. Brothers, 
 K. N. Kudin, V. N. Staroverov, T. Keith, R. Kobayashi, J. Normand, 
 K. Raghavachari, A. Rendell, J. C. Burant, S. S. Iyengar, J. Tomasi, 
 M. Cossi, N. Rega, J. M. Millam, M. Klene, J. E. Knox, J. B. Cross, 
 V. Bakken, C. Adamo, J. Jaramillo, R. Gomperts, R. E. Stratmann, 
 O. Yazyev, A. J. Austin, R. Cammi, C. Pomelli, J. W. Ochterski, 
 R. L. Martin, K. Morokuma, V. G. Zakrzewski, G. A. Voth, 
 P. Salvador, J. J. Dannenberg, S. Dapprich, A. D. Daniels, 
 O. Farkas, J. B. Foresman, J. V. Ortiz, J. Cioslowski, 
 and D. J. Fox, Gaussian, Inc., Wallingford CT, 2013.
 
 ******************************************
 Gaussian 09:  ES64L-G09RevD.01 24-Apr-2013
                 3-Nov-2017 
 ******************************************
 %chk=2hc_4_664-mega_dimer_1.chk
 %nproc=4
 Will use up to    4 processors via shared memory.
 %mem=28GB
 ------------------------------------------
 #p wb97xd 6-311++G** td=(nstates=4) nosymm
 ------------------------------------------
 1/38=1/1;
 2/12=2,15=1,17=6,18=5,40=1/2;
 3/5=4,6=6,7=1111,11=9,16=1,25=1,30=1,74=-58/1,2,8,3;
 4//1;
 5/5=2,38=5/2;
 8/6=1,10=2,108=4/1;
 9/41=4,42=1,70=2/14;
 6/7=2,8=2,9=2,10=2/1;
 99/5=1,9=1/99;
 Leave Link    1 at Fri Nov  3 16:11:46 2017, MaxMem=  3758096384 cpu:         8.1
 (Enter /share/apps/gaussian/g09_D01/g09/l101.exe)
 -----
 Title
 -----
 Symbolic Z-matrix:
 Charge =  0 Multiplicity = 1
 H                    -0.51112  -2.85845  -1.27793 
 C                     0.18427  -3.64021  -0.97381 
 C                     0.2691   -4.79886  -1.718 
 C                     0.97672  -3.42099   0.17892 
 H                    -0.35986  -4.91372  -2.59845 
 C                     1.17076  -5.83439  -1.34135 
 C                     0.87881  -2.18032   0.88254 
 C                     1.86114  -4.46438   0.55162 
 C                     1.96114  -5.6287   -0.17241 
 N                     1.27814  -6.97652  -2.06582 
 C                     1.58568  -1.82165   1.99908 
 H                     0.18222  -1.44427   0.46677 
 H                     2.48757  -4.3534    1.43617 
 H                     2.65752  -6.39584   0.15791 
 C                     0.46091  -7.17432  -3.25304 
 C                     2.21184  -8.01813  -1.65619 
 C                     1.46745  -0.53236   2.62272 
 H                     2.2896   -2.52857   2.43375 
 H                    -0.61024  -7.09558  -3.01678 
 H                     0.65337  -8.17036  -3.661 
 H                     0.69653  -6.43193  -4.03159 
 H                     2.18045  -8.8347   -2.38412 
 H                     1.94864  -8.42038  -0.666 
 H                     3.24211  -7.63153  -1.60931 
 C                     2.24591  -0.22836   3.83962 
 O                     0.71506   0.38841   2.13669 
 C                     2.91258  -1.21855   4.58863 
 C                     2.3388    1.12041   4.28606 
 H                     1.13889   1.59074   2.91642 
 C                     3.64956  -0.92722   5.72879 
 H                     2.85737  -2.25884   4.27226 
 O                     1.69956   2.11208   3.62562 
 C                     3.11742   1.42905   5.41201 
 C                     4.32722  -2.02325   6.50579 
 C                     3.75286   0.42136   6.12236 
 H                     3.20305   2.47144   5.71917 
 H                     3.90214  -2.12089   7.51775 
 H                     5.3978   -1.81244   6.63628 
 H                     4.22994  -2.98633   5.98728 
 H                     4.34234   0.67541   7.00604 
 N                     4.09686  -0.39652  -2.06582 
 C                     4.91409  -0.59432  -3.25304 
 C                     3.16316  -1.43813  -1.65619 
 C                     4.20424   0.74562  -1.34135 
 H                     5.98524  -0.51558  -3.01678 
 H                     4.72163  -1.59036  -3.661 
 H                     4.67848   0.14807  -4.03159 
 H                     3.19455  -2.2547   -2.38412 
 H                     3.42636  -1.84038  -0.666 
 H                     2.13289  -1.05153  -1.60931 
 C                     3.41387   0.9513   -0.17241 
 C                     5.10591   1.78115  -1.718 
 C                     3.51386   2.11562   0.55162 
 H                     2.71748   0.18416   0.15791 
 C                     5.19074   2.93979  -0.97381 
 H                     5.73486   1.66628  -2.59845 
 C                     4.39828   3.15901   0.17892 
 H                     2.88743   2.2266    1.43617 
 H                     5.88612   3.72155  -1.27793 
 C                     4.49619   4.39968   0.88254 
 C                     3.78932   4.75835   1.99908 
 H                     5.19278   5.13573   0.46677 
 C                     3.90755   6.04764   2.62272 
 H                     3.0854    4.05143   2.43375 
 O                     4.65994   6.96841   2.13669 
 C                     3.12909   6.35164   3.83962 
 H                     4.23611   8.17074   2.91642 
 C                     3.0362    7.70041   4.28606 
 C                     2.46243   5.36145   4.58863 
 O                     3.67545   8.69208   3.62562 
 C                     2.25759   8.00905   5.41201 
 C                     1.72544   5.65278   5.72879 
 H                     2.51763   4.32116   4.27226 
 C                     1.62215   7.00136   6.12236 
 H                     2.17195   9.05144   5.71917 
 C                     1.04779   4.55675   6.50579 
 H                     1.03266   7.25541   7.00604 
 H                     1.47286   4.45911   7.51775 
 H                    -0.02279   4.76756   6.63628 
 H                     1.14507   3.59367   5.98728 
 
 NAtoms=     80 NQM=       80 NQMF=       0 NMMI=      0 NMMIF=      0
                NMic=       0 NMicF=      0.
                    Isotopes and Nuclear Properties:
 (Nuclear quadrupole moments (NQMom) in fm**2, nuclear magnetic moments (NMagM)
  in nuclear magnetons)

  Atom         1           2           3           4           5           6           7           8           9          10
 IAtWgt=           1          12          12          12           1          12          12          12          12          14
 AtmWgt=   1.0078250  12.0000000  12.0000000  12.0000000   1.0078250  12.0000000  12.0000000  12.0000000  12.0000000  14.0030740
 NucSpn=           1           0           0           0           1           0           0           0           0           2
 AtZEff=   0.0000000   0.0000000   0.0000000   0.0000000   0.0000000   0.0000000   0.0000000   0.0000000   0.0000000   0.0000000
 NQMom=    0.0000000   0.0000000   0.0000000   0.0000000   0.0000000   0.0000000   0.0000000   0.0000000   0.0000000   2.0440000
 NMagM=    2.7928460   0.0000000   0.0000000   0.0000000   2.7928460   0.0000000   0.0000000   0.0000000   0.0000000   0.4037610
 AtZNuc=   1.0000000   6.0000000   6.0000000   6.0000000   1.0000000   6.0000000   6.0000000   6.0000000   6.0000000   7.0000000

  Atom        11          12          13          14          15          16          17          18          19          20
 IAtWgt=          12           1           1           1          12          12          12           1           1           1
 AtmWgt=  12.0000000   1.0078250   1.0078250   1.0078250  12.0000000  12.0000000  12.0000000   1.0078250   1.0078250   1.0078250
 NucSpn=           0           1           1           1           0           0           0           1           1           1
 AtZEff=   0.0000000   0.0000000   0.0000000   0.0000000   0.0000000   0.0000000   0.0000000   0.0000000   0.0000000   0.0000000
 NQMom=    0.0000000   0.0000000   0.0000000   0.0000000   0.0000000   0.0000000   0.0000000   0.0000000   0.0000000   0.0000000
 NMagM=    0.0000000   2.7928460   2.7928460   2.7928460   0.0000000   0.0000000   0.0000000   2.7928460   2.7928460   2.7928460
 AtZNuc=   6.0000000   1.0000000   1.0000000   1.0000000   6.0000000   6.0000000   6.0000000   1.0000000   1.0000000   1.0000000

  Atom        21          22          23          24          25          26          27          28          29          30
 IAtWgt=           1           1           1           1          12          16          12          12           1          12
 AtmWgt=   1.0078250   1.0078250   1.0078250   1.0078250  12.0000000  15.9949146  12.0000000  12.0000000   1.0078250  12.0000000
 NucSpn=           1           1           1           1           0           0           0           0           1           0
 AtZEff=   0.0000000   0.0000000   0.0000000   0.0000000   0.0000000   0.0000000   0.0000000   0.0000000   0.0000000   0.0000000
 NQMom=    0.0000000   0.0000000   0.0000000   0.0000000   0.0000000   0.0000000   0.0000000   0.0000000   0.0000000   0.0000000
 NMagM=    2.7928460   2.7928460   2.7928460   2.7928460   0.0000000   0.0000000   0.0000000   0.0000000   2.7928460   0.0000000
 AtZNuc=   1.0000000   1.0000000   1.0000000   1.0000000   6.0000000   8.0000000   6.0000000   6.0000000   1.0000000   6.0000000

  Atom        31          32          33          34          35          36          37          38          39          40
 IAtWgt=           1          16          12          12          12           1           1           1           1           1
 AtmWgt=   1.0078250  15.9949146  12.0000000  12.0000000  12.0000000   1.0078250   1.0078250   1.0078250   1.0078250   1.0078250
 NucSpn=           1           0           0           0           0           1           1           1           1           1
 AtZEff=   0.0000000   0.0000000   0.0000000   0.0000000   0.0000000   0.0000000   0.0000000   0.0000000   0.0000000   0.0000000
 NQMom=    0.0000000   0.0000000   0.0000000   0.0000000   0.0000000   0.0000000   0.0000000   0.0000000   0.0000000   0.0000000
 NMagM=    2.7928460   0.0000000   0.0000000   0.0000000   0.0000000   2.7928460   2.7928460   2.7928460   2.7928460   2.7928460
 AtZNuc=   1.0000000   8.0000000   6.0000000   6.0000000   6.0000000   1.0000000   1.0000000   1.0000000   1.0000000   1.0000000

  Atom        41          42          43          44          45          46          47          48          49          50
 IAtWgt=          14          12          12          12           1           1           1           1           1           1
 AtmWgt=  14.0030740  12.0000000  12.0000000  12.0000000   1.0078250   1.0078250   1.0078250   1.0078250   1.0078250   1.0078250
 NucSpn=           2           0           0           0           1           1           1           1           1           1
 AtZEff=   0.0000000   0.0000000   0.0000000   0.0000000   0.0000000   0.0000000   0.0000000   0.0000000   0.0000000   0.0000000
 NQMom=    2.0440000   0.0000000   0.0000000   0.0000000   0.0000000   0.0000000   0.0000000   0.0000000   0.0000000   0.0000000
 NMagM=    0.4037610   0.0000000   0.0000000   0.0000000   2.7928460   2.7928460   2.7928460   2.7928460   2.7928460   2.7928460
 AtZNuc=   7.0000000   6.0000000   6.0000000   6.0000000   1.0000000   1.0000000   1.0000000   1.0000000   1.0000000   1.0000000

  Atom        51          52          53          54          55          56          57          58          59          60
 IAtWgt=          12          12          12           1          12           1          12           1           1          12
 AtmWgt=  12.0000000  12.0000000  12.0000000   1.0078250  12.0000000   1.0078250  12.0000000   1.0078250   1.0078250  12.0000000
 NucSpn=           0           0           0           1           0           1           0           1           1           0
 AtZEff=   0.0000000   0.0000000   0.0000000   0.0000000   0.0000000   0.0000000   0.0000000   0.0000000   0.0000000   0.0000000
 NQMom=    0.0000000   0.0000000   0.0000000   0.0000000   0.0000000   0.0000000   0.0000000   0.0000000   0.0000000   0.0000000
 NMagM=    0.0000000   0.0000000   0.0000000   2.7928460   0.0000000   2.7928460   0.0000000   2.7928460   2.7928460   0.0000000
 AtZNuc=   6.0000000   6.0000000   6.0000000   1.0000000   6.0000000   1.0000000   6.0000000   1.0000000   1.0000000   6.0000000

  Atom        61          62          63          64          65          66          67          68          69          70
 IAtWgt=          12           1          12           1          16          12           1          12          12          16
 AtmWgt=  12.0000000   1.0078250  12.0000000   1.0078250  15.9949146  12.0000000   1.0078250  12.0000000  12.0000000  15.9949146
 NucSpn=           0           1           0           1           0           0           1           0           0           0
 AtZEff=   0.0000000   0.0000000   0.0000000   0.0000000   0.0000000   0.0000000   0.0000000   0.0000000   0.0000000   0.0000000
 NQMom=    0.0000000   0.0000000   0.0000000   0.0000000   0.0000000   0.0000000   0.0000000   0.0000000   0.0000000   0.0000000
 NMagM=    0.0000000   2.7928460   0.0000000   2.7928460   0.0000000   0.0000000   2.7928460   0.0000000   0.0000000   0.0000000
 AtZNuc=   6.0000000   1.0000000   6.0000000   1.0000000   8.0000000   6.0000000   1.0000000   6.0000000   6.0000000   8.0000000

  Atom        71          72          73          74          75          76          77          78          79          80
 IAtWgt=          12          12           1          12           1          12           1           1           1           1
 AtmWgt=  12.0000000  12.0000000   1.0078250  12.0000000   1.0078250  12.0000000   1.0078250   1.0078250   1.0078250   1.0078250
 NucSpn=           0           0           1           0           1           0           1           1           1           1
 AtZEff=   0.0000000   0.0000000   0.0000000   0.0000000   0.0000000   0.0000000   0.0000000   0.0000000   0.0000000   0.0000000
 NQMom=    0.0000000   0.0000000   0.0000000   0.0000000   0.0000000   0.0000000   0.0000000   0.0000000   0.0000000   0.0000000
 NMagM=    0.0000000   0.0000000   2.7928460   0.0000000   2.7928460   0.0000000   2.7928460   2.7928460   2.7928460   2.7928460
 AtZNuc=   6.0000000   6.0000000   1.0000000   6.0000000   1.0000000   6.0000000   1.0000000   1.0000000   1.0000000   1.0000000
 Leave Link  101 at Fri Nov  3 16:11:51 2017, MaxMem=  3758096384 cpu:         0.4
 (Enter /share/apps/gaussian/g09_D01/g09/l202.exe)
 Symmetry turned off by external request.
 Stoichiometry    C36H38N2O4
 Framework group  C1[X(C36H38N2O4)]
 Deg. of freedom   234
 Full point group                 C1      NOp   1
                          Input orientation:                          
 ---------------------------------------------------------------------
 Center     Atomic      Atomic             Coordinates (Angstroms)
 Number     Number       Type             X           Y           Z
 ---------------------------------------------------------------------
      1          1           0       -0.511118   -2.858447   -1.277930
      2          6           0        0.184268   -3.640208   -0.973811
      3          6           0        0.269103   -4.798855   -1.718000
      4          6           0        0.976718   -3.420993    0.178919
      5          1           0       -0.359864   -4.913720   -2.598454
      6          6           0        1.170762   -5.834385   -1.341350
      7          6           0        0.878808   -2.180322    0.882540
      8          6           0        1.861141   -4.464382    0.551623
      9          6           0        1.961142   -5.628701   -0.172407
     10          7           0        1.278140   -6.976522   -2.065820
     11          6           0        1.585681   -1.821645    1.999082
     12          1           0        0.182215   -1.444266    0.466766
     13          1           0        2.487573   -4.353397    1.436169
     14          1           0        2.657520   -6.395843    0.157913
     15          6           0        0.460908   -7.174323   -3.253037
     16          6           0        2.211841   -8.018129   -1.656186
     17          6           0        1.467449   -0.532362    2.622715
     18          1           0        2.289600   -2.528565    2.433749
     19          1           0       -0.610241   -7.095578   -3.016782
     20          1           0        0.653370   -8.170357   -3.661002
     21          1           0        0.696525   -6.431926   -4.031589
     22          1           0        2.180453   -8.834703   -2.384121
     23          1           0        1.948639   -8.420379   -0.666002
     24          1           0        3.242108   -7.631529   -1.609305
     25          6           0        2.245913   -0.228357    3.839616
     26          8           0        0.715061    0.388406    2.136689
     27          6           0        2.912581   -1.218549    4.588630
     28          6           0        2.338798    1.120413    4.286060
     29          1           0        1.138895    1.590739    2.916420
     30          6           0        3.649563   -0.927219    5.728790
     31          1           0        2.857368   -2.258838    4.272261
     32          8           0        1.699561    2.112082    3.625623
     33          6           0        3.117416    1.429050    5.412007
     34          6           0        4.327222   -2.023253    6.505795
     35          6           0        3.752856    0.421359    6.122356
     36          1           0        3.203047    2.471438    5.719167
     37          1           0        3.902137   -2.120887    7.517750
     38          1           0        5.397803   -1.812439    6.636276
     39          1           0        4.229940   -2.986328    5.987280
     40          1           0        4.342342    0.675414    7.006038
     41          7           0        4.096860   -0.396522   -2.065820
     42          6           0        4.914092   -0.594323   -3.253037
     43          6           0        3.163159   -1.438129   -1.656186
     44          6           0        4.204238    0.745615   -1.341350
     45          1           0        5.985241   -0.515578   -3.016782
     46          1           0        4.721630   -1.590357   -3.661002
     47          1           0        4.678475    0.148074   -4.031589
     48          1           0        3.194547   -2.254703   -2.384121
     49          1           0        3.426361   -1.840379   -0.666002
     50          1           0        2.132892   -1.051529   -1.609305
     51          6           0        3.413868    0.951299   -0.172407
     52          6           0        5.105907    1.781145   -1.718000
     53          6           0        3.513859    2.115618    0.551623
     54          1           0        2.717480    0.184157    0.157913
     55          6           0        5.190742    2.939792   -0.973811
     56          1           0        5.734864    1.666280   -2.598454
     57          6           0        4.398282    3.159007    0.178919
     58          1           0        2.887427    2.226603    1.436169
     59          1           0        5.886118    3.721553   -1.277930
     60          6           0        4.496192    4.399678    0.882540
     61          6           0        3.789319    4.758355    1.999082
     62          1           0        5.192785    5.135733    0.466766
     63          6           0        3.907551    6.047638    2.622715
     64          1           0        3.085400    4.051435    2.433749
     65          8           0        4.659939    6.968406    2.136689
     66          6           0        3.129087    6.351643    3.839616
     67          1           0        4.236105    8.170739    2.916420
     68          6           0        3.036202    7.700413    4.286060
     69          6           0        2.462429    5.361451    4.588630
     70          8           0        3.675449    8.692082    3.625623
     71          6           0        2.257594    8.009050    5.412007
     72          6           0        1.725437    5.652781    5.728790
     73          1           0        2.517632    4.321162    4.272261
     74          6           0        1.622154    7.001359    6.122356
     75          1           0        2.171953    9.051438    5.719167
     76          6           0        1.047788    4.556747    6.505795
     77          1           0        1.032658    7.255414    7.006038
     78          1           0        1.472863    4.459112    7.517750
     79          1           0       -0.022793    4.767561    6.636276
     80          1           0        1.145070    3.593672    5.987280
 ---------------------------------------------------------------------
 Rotational constants (GHZ):      0.1290845      0.0349856      0.0301471
 Leave Link  202 at Fri Nov  3 16:11:51 2017, MaxMem=  3758096384 cpu:         0.1
 (Enter /share/apps/gaussian/g09_D01/g09/l301.exe)
 Standard basis: 6-311++G(d,p) (5D, 7F)
 Ernie: Thresh=  0.10000D-02 Tol=  0.10000D-05 Strict=F.
  1190 basis functions,  1854 primitive gaussians,  1232 cartesian basis functions
   150 alpha electrons      150 beta electrons
       nuclear repulsion energy      4557.4525404978 Hartrees.
 IExCor= 4639 DFT=T Ex+Corr=wB97XD ExCW=0 ScaHFX=  1.000000
 ScaDFX=  1.000000  1.000000  1.000000  1.000000 ScalE2=  1.000000  1.000000
 IRadAn=      0 IRanWt=     -1 IRanGd=            0 ICorTp=0 IEmpDi=121
  HFx wShort=  0.000000 wLong=  0.200000 cFull=  0.222036 cShort=  0.000000 cLong=  0.777964
  DFx wShort=  0.000000 wLong=  0.200000 cFull=  0.000000 cShort=  0.000000 cLong=  1.000000
 NAtoms=   80 NActive=   80 NUniq=   80 SFac= 1.00D+00 NAtFMM=   60 NAOKFM=T Big=T
 Integral buffers will be    131072 words long.
 Raffenetti 1 integral format.
 Two-electron integral symmetry is turned off.
 R6Disp:  Grimme-D2 Dispersion energy=       -0.0653725329 Hartrees.
 Nuclear repulsion after empirical dispersion term =     4557.3871679650 Hartrees.
 Leave Link  301 at Fri Nov  3 16:11:51 2017, MaxMem=  3758096384 cpu:         0.1
 (Enter /share/apps/gaussian/g09_D01/g09/l302.exe)
 NPDir=0 NMtPBC=     1 NCelOv=     1 NCel=       1 NClECP=     1 NCelD=      1
         NCelK=      1 NCelE2=     1 NClLst=     1 CellRange=     0.0.
 One-electron integrals computed using PRISM.
 NBasis=  1190 RedAO= T EigKep=  1.12D-06  NBF=  1190
 NBsUse=  1171 1.00D-06 EigRej=  9.40D-07 NBFU=  1171
 Precomputing XC quadrature grid using
 IXCGrd= 4 IRadAn=           0 IRanWt=          -1 IRanGd=           0 AccXCQ= 0.00D+00.
 Generated NRdTot=       0 NPtTot=           0 NUsed=           0 NTot=          32
 NSgBfM=  1123  1123  1123  1123  1123 MxSgAt=    80 MxSgA2=    80.
 Leave Link  302 at Fri Nov  3 16:12:03 2017, MaxMem=  3758096384 cpu:        24.6
 (Enter /share/apps/gaussian/g09_D01/g09/l308.exe)
 Leave Link  308 at Fri Nov  3 16:12:04 2017, MaxMem=  3758096384 cpu:         1.9
 (Enter /share/apps/gaussian/g09_D01/g09/l303.exe)
 DipDrv:  MaxL=1.
 Leave Link  303 at Fri Nov  3 16:12:05 2017, MaxMem=  3758096384 cpu:         1.2
 (Enter /share/apps/gaussian/g09_D01/g09/l401.exe)
 ExpMin= 3.60D-02 ExpMax= 8.59D+03 ExpMxC= 1.30D+03 IAcc=3 IRadAn=         5 AccDes= 0.00D+00
 Harris functional with IExCor= 4639 and IRadAn=       5 diagonalized for initial guess.
 HarFok:  IExCor= 4639 AccDes= 0.00D+00 IRadAn=         5 IDoV= 1 UseB2=F ITyADJ=14
 ICtDFT=  3500011 ScaDFX=  1.000000  1.000000  1.000000  1.000000
 FoFCou: FMM=F IPFlag=           0 FMFlag=      100000 FMFlg1=        2001
         NFxFlg=           0 DoJE=T BraDBF=F KetDBF=T FulRan=T
         wScrn=  0.000000 ICntrl=     500 IOpCl=  0 I1Cent=   200000004 NGrid=           0
         NMat0=    1 NMatS0=      1 NMatT0=    0 NMatD0=    1 NMtDS0=    0 NMtDT0=    0
 Symmetry not used in FoFCou.
 Harris En= -1725.68331252773    
 JPrj=0 DoOrth=F DoCkMO=F.
 Leave Link  401 at Fri Nov  3 16:13:38 2017, MaxMem=  3758096384 cpu:       186.0
 (Enter /share/apps/gaussian/g09_D01/g09/l502.exe)
 Closed shell SCF:
 Using DIIS extrapolation, IDIIS=  1040.
 Two-electron integral symmetry not used.
 IVT=     4586966 IEndB=     4586966 NGot=  3758096384 MDV=  3755045115
 LenX=  3755045115 LenY=  3753526059
 Requested convergence on RMS density matrix=1.00D-08 within 128 cycles.
 Requested convergence on MAX density matrix=1.00D-06.
 Requested convergence on             energy=1.00D-06.
 No special actions if energy rises.
 Fock matrices will be formed incrementally for  20 cycles.

 Cycle   1  Pass 1  IDiag  1:
 FoFJK:  IHMeth= 1 ICntrl=       0 DoSepK=T KAlg= 0 I1Cent=   0 FoldK=F
 IRaf=         1 NMat=   1 IRICut=       1 DoRegI=T DoRafI=F ISym2E= 0.
 FoFCou: FMM=T IPFlag=           0 FMFlag=      100000 FMFlg1=        2001
         NFxFlg=           0 DoJE=T BraDBF=F KetDBF=F FulRan=T
         wScrn=  0.000000 ICntrl=     500 IOpCl=  0 I1Cent=           0 NGrid=           0
         NMat0=    1 NMatS0=      1 NMatT0=    0 NMatD0=    1 NMtDS0=    0 NMtDT0=    0
 Symmetry not used in FoFCou.
 FMM levels:  10  Number of levels for PrismC:   9
 E= -1804.36501962359    
 DIIS: error= 3.87D-02 at cycle   1 NSaved=   1.
 NSaved= 1 IEnMin= 1 EnMin= -1804.36501962359     IErMin= 1 ErrMin= 3.87D-02
 ErrMax= 3.87D-02  0.00D+00 EMaxC= 1.00D-01 BMatC= 3.92D+00 BMatP= 3.92D+00
 IDIUse=3 WtCom= 6.13D-01 WtEn= 3.87D-01
 Coeff-Com:  0.100D+01
 Coeff-En:   0.100D+01
 Coeff:      0.100D+01
 Gap=     0.265 Goal=   None    Shift=    0.000
 GapD=    0.265 DampG=1.000 DampE=0.500 DampFc=0.5000 IDamp=-1.
 Damping current iteration by 5.00D-01
 RMSDP=1.96D-02 MaxDP=3.32D+00              OVMax= 1.98D-01

 Cycle   2  Pass 1  IDiag  1:
 RMSU=  3.55D-03    CP:  8.35D-01
 E= -1804.63726455714     Delta-E=       -0.272244933544 Rises=F Damp=T
 DIIS: error= 1.84D-02 at cycle   2 NSaved=   2.
 NSaved= 2 IEnMin= 2 EnMin= -1804.63726455714     IErMin= 2 ErrMin= 1.84D-02
 ErrMax= 1.84D-02  0.00D+00 EMaxC= 1.00D-01 BMatC= 8.26D-01 BMatP= 3.92D+00
 IDIUse=3 WtCom= 8.16D-01 WtEn= 1.84D-01
 Coeff-Com: -0.581D+00 0.158D+01
 Coeff-En:   0.000D+00 0.100D+01
 Coeff:     -0.474D+00 0.147D+01
 Gap=     0.238 Goal=   None    Shift=    0.000
 RMSDP=1.15D-02 MaxDP=2.68D+00 DE=-2.72D-01 OVMax= 2.39D-01

 Cycle   3  Pass 1  IDiag  1:
 RMSU=  5.12D-03    CP:  6.50D-01  6.92D-01
 E= -1804.69961053799     Delta-E=       -0.062345980852 Rises=F Damp=F
 DIIS: error= 2.15D-02 at cycle   3 NSaved=   3.
 NSaved= 3 IEnMin= 3 EnMin= -1804.69961053799     IErMin= 2 ErrMin= 1.84D-02
 ErrMax= 2.15D-02  0.00D+00 EMaxC= 1.00D-01 BMatC= 3.17D-01 BMatP= 8.26D-01
 IDIUse=3 WtCom= 7.85D-01 WtEn= 2.15D-01
 Coeff-Com: -0.395D+00 0.846D+00 0.549D+00
 Coeff-En:   0.000D+00 0.354D+00 0.646D+00
 Coeff:     -0.310D+00 0.740D+00 0.570D+00
 Gap=     0.237 Goal=   None    Shift=    0.000
 RMSDP=4.13D-03 MaxDP=8.67D-01 DE=-6.23D-02 OVMax= 1.12D-01

 Cycle   4  Pass 1  IDiag  1:
 RMSU=  1.35D-03    CP:  6.05D-01  1.19D+00  5.30D-01
 E= -1804.95643804796     Delta-E=       -0.256827509970 Rises=F Damp=F
 DIIS: error= 4.64D-03 at cycle   4 NSaved=   4.
 NSaved= 4 IEnMin= 4 EnMin= -1804.95643804796     IErMin= 4 ErrMin= 4.64D-03
 ErrMax= 4.64D-03  0.00D+00 EMaxC= 1.00D-01 BMatC= 1.95D-02 BMatP= 3.17D-01
 IDIUse=3 WtCom= 9.54D-01 WtEn= 4.64D-02
 Coeff-Com: -0.149D+00 0.320D+00 0.318D+00 0.512D+00
 Coeff-En:   0.000D+00 0.000D+00 0.000D+00 0.100D+01
 Coeff:     -0.142D+00 0.305D+00 0.303D+00 0.535D+00
 Gap=     0.206 Goal=   None    Shift=    0.000
 RMSDP=9.33D-04 MaxDP=1.70D-01 DE=-2.57D-01 OVMax= 2.24D-02

 Cycle   5  Pass 1  IDiag  1:
 RMSU=  4.02D-04    CP:  6.16D-01  1.17D+00  6.25D-01  7.58D-01
 E= -1804.97218545223     Delta-E=       -0.015747404272 Rises=F Damp=F
 DIIS: error= 6.46D-04 at cycle   5 NSaved=   5.
 NSaved= 5 IEnMin= 5 EnMin= -1804.97218545223     IErMin= 5 ErrMin= 6.46D-04
 ErrMax= 6.46D-04  0.00D+00 EMaxC= 1.00D-01 BMatC= 3.92D-04 BMatP= 1.95D-02
 IDIUse=3 WtCom= 9.94D-01 WtEn= 6.46D-03
 Coeff-Com:  0.176D-01-0.376D-01 0.116D-01 0.164D+00 0.844D+00
 Coeff-En:   0.000D+00 0.000D+00 0.000D+00 0.000D+00 0.100D+01
 Coeff:      0.175D-01-0.374D-01 0.115D-01 0.163D+00 0.845D+00
 Gap=     0.208 Goal=   None    Shift=    0.000
 RMSDP=3.74D-04 MaxDP=7.88D-02 DE=-1.57D-02 OVMax= 8.50D-03

 Cycle   6  Pass 1  IDiag  1:
 RMSU=  1.97D-04    CP:  6.11D-01  1.16D+00  6.33D-01  8.64D-01  8.69D-01
 E= -1804.97270290480     Delta-E=       -0.000517452570 Rises=F Damp=F
 DIIS: error= 4.05D-04 at cycle   6 NSaved=   6.
 NSaved= 6 IEnMin= 6 EnMin= -1804.97270290480     IErMin= 6 ErrMin= 4.05D-04
 ErrMax= 4.05D-04  0.00D+00 EMaxC= 1.00D-01 BMatC= 1.41D-04 BMatP= 3.92D-04
 IDIUse=3 WtCom= 9.96D-01 WtEn= 4.05D-03
 Coeff-Com:  0.293D-01-0.627D-01-0.394D-01-0.329D-02 0.441D+00 0.635D+00
 Coeff-En:   0.000D+00 0.000D+00 0.000D+00 0.000D+00 0.000D+00 0.100D+01
 Coeff:      0.292D-01-0.625D-01-0.393D-01-0.328D-02 0.440D+00 0.636D+00
 Gap=     0.210 Goal=   None    Shift=    0.000
 RMSDP=8.88D-05 MaxDP=1.04D-02 DE=-5.17D-04 OVMax= 4.85D-03

 Cycle   7  Pass 1  IDiag  1:
 RMSU=  6.38D-05    CP:  6.11D-01  1.16D+00  6.34D-01  8.76D-01  1.01D+00
                    CP:  9.27D-01
 E= -1804.97287751375     Delta-E=       -0.000174608948 Rises=F Damp=F
 DIIS: error= 1.28D-04 at cycle   7 NSaved=   7.
 NSaved= 7 IEnMin= 7 EnMin= -1804.97287751375     IErMin= 7 ErrMin= 1.28D-04
 ErrMax= 1.28D-04  0.00D+00 EMaxC= 1.00D-01 BMatC= 9.76D-06 BMatP= 1.41D-04
 IDIUse=3 WtCom= 9.99D-01 WtEn= 1.28D-03
 Coeff-Com:  0.266D-02-0.566D-02-0.791D-02-0.213D-01-0.313D-01 0.160D+00
 Coeff-Com:  0.904D+00
 Coeff-En:   0.000D+00 0.000D+00 0.000D+00 0.000D+00 0.000D+00 0.000D+00
 Coeff-En:   0.100D+01
 Coeff:      0.265D-02-0.565D-02-0.790D-02-0.213D-01-0.313D-01 0.159D+00
 Coeff:      0.904D+00
 Gap=     0.210 Goal=   None    Shift=    0.000
 RMSDP=4.66D-05 MaxDP=7.03D-03 DE=-1.75D-04 OVMax= 2.91D-03

 Cycle   8  Pass 1  IDiag  1:
 RMSU=  3.71D-05    CP:  6.11D-01  1.16D+00  6.33D-01  8.84D-01  1.00D+00
                    CP:  1.04D+00  9.49D-01
 E= -1804.97290372021     Delta-E=       -0.000026206464 Rises=F Damp=F
 DIIS: error= 5.57D-05 at cycle   8 NSaved=   8.
 NSaved= 8 IEnMin= 8 EnMin= -1804.97290372021     IErMin= 8 ErrMin= 5.57D-05
 ErrMax= 5.57D-05  0.00D+00 EMaxC= 1.00D-01 BMatC= 2.72D-06 BMatP= 9.76D-06
 IDIUse=1 WtCom= 1.00D+00 WtEn= 0.00D+00
 Coeff-Com: -0.321D-02 0.690D-02 0.225D-02-0.111D-01-0.922D-01-0.193D-01
 Coeff-Com:  0.422D+00 0.695D+00
 Coeff:     -0.321D-02 0.690D-02 0.225D-02-0.111D-01-0.922D-01-0.193D-01
 Coeff:      0.422D+00 0.695D+00
 Gap=     0.210 Goal=   None    Shift=    0.000
 RMSDP=1.66D-05 MaxDP=1.96D-03 DE=-2.62D-05 OVMax= 1.38D-03

 Cycle   9  Pass 1  IDiag  1:
 RMSU=  1.18D-05    CP:  6.11D-01  1.16D+00  6.32D-01  8.87D-01  1.01D+00
                    CP:  1.06D+00  1.07D+00  1.10D+00
 E= -1804.97291004333     Delta-E=       -0.000006323114 Rises=F Damp=F
 DIIS: error= 2.90D-05 at cycle   9 NSaved=   9.
 NSaved= 9 IEnMin= 9 EnMin= -1804.97291004333     IErMin= 9 ErrMin= 2.90D-05
 ErrMax= 2.90D-05  0.00D+00 EMaxC= 1.00D-01 BMatC= 3.28D-07 BMatP= 2.72D-06
 IDIUse=1 WtCom= 1.00D+00 WtEn= 0.00D+00
 Coeff-Com: -0.135D-02 0.289D-02 0.246D-02 0.130D-02-0.197D-01-0.323D-01
 Coeff-Com: -0.827D-01 0.156D+00 0.974D+00
 Coeff:     -0.135D-02 0.289D-02 0.246D-02 0.130D-02-0.197D-01-0.323D-01
 Coeff:     -0.827D-01 0.156D+00 0.974D+00
 Gap=     0.210 Goal=   None    Shift=    0.000
 RMSDP=9.44D-06 MaxDP=1.06D-03 DE=-6.32D-06 OVMax= 8.45D-04

 Cycle  10  Pass 1  IDiag  1:
 RMSU=  5.72D-06    CP:  6.11D-01  1.16D+00  6.32D-01  8.89D-01  1.02D+00
                    CP:  1.07D+00  1.11D+00  1.17D+00  1.41D+00
 E= -1804.97291130950     Delta-E=       -0.000001266176 Rises=F Damp=F
 DIIS: error= 8.90D-06 at cycle  10 NSaved=  10.
 NSaved=10 IEnMin=10 EnMin= -1804.97291130950     IErMin=10 ErrMin= 8.90D-06
 ErrMax= 8.90D-06  0.00D+00 EMaxC= 1.00D-01 BMatC= 5.46D-08 BMatP= 3.28D-07
 IDIUse=1 WtCom= 1.00D+00 WtEn= 0.00D+00
 Coeff-Com:  0.107D-03-0.236D-03 0.427D-03 0.216D-02 0.681D-02-0.654D-02
 Coeff-Com: -0.914D-01-0.453D-01 0.337D+00 0.797D+00
 Coeff:      0.107D-03-0.236D-03 0.427D-03 0.216D-02 0.681D-02-0.654D-02
 Coeff:     -0.914D-01-0.453D-01 0.337D+00 0.797D+00
 Gap=     0.210 Goal=   None    Shift=    0.000
 RMSDP=4.69D-06 MaxDP=1.17D-03 DE=-1.27D-06 OVMax= 2.78D-04

 Cycle  11  Pass 1  IDiag  1:
 RMSU=  2.07D-06    CP:  6.11D-01  1.16D+00  6.31D-01  8.88D-01  1.02D+00
                    CP:  1.07D+00  1.12D+00  1.22D+00  1.59D+00  1.06D+00
 E= -1804.97291146695     Delta-E=       -0.000000157446 Rises=F Damp=F
 DIIS: error= 4.57D-06 at cycle  11 NSaved=  11.
 NSaved=11 IEnMin=11 EnMin= -1804.97291146695     IErMin=11 ErrMin= 4.57D-06
 ErrMax= 4.57D-06  0.00D+00 EMaxC= 1.00D-01 BMatC= 1.10D-08 BMatP= 5.46D-08
 IDIUse=1 WtCom= 1.00D+00 WtEn= 0.00D+00
 Coeff-Com:  0.266D-03-0.566D-03-0.257D-03 0.722D-03 0.568D-02 0.322D-02
 Coeff-Com: -0.152D-01-0.407D-01-0.753D-01 0.275D+00 0.847D+00
 Coeff:      0.266D-03-0.566D-03-0.257D-03 0.722D-03 0.568D-02 0.322D-02
 Coeff:     -0.152D-01-0.407D-01-0.753D-01 0.275D+00 0.847D+00
 Gap=     0.210 Goal=   None    Shift=    0.000
 RMSDP=1.78D-06 MaxDP=2.18D-04 DE=-1.57D-07 OVMax= 1.10D-04

 Cycle  12  Pass 1  IDiag  1:
 RMSU=  9.93D-07    CP:  6.11D-01  1.16D+00  6.31D-01  8.89D-01  1.02D+00
                    CP:  1.07D+00  1.13D+00  1.23D+00  1.65D+00  1.19D+00
                    CP:  1.09D+00
 E= -1804.97291149493     Delta-E=       -0.000000027983 Rises=F Damp=F
 DIIS: error= 1.40D-06 at cycle  12 NSaved=  12.
 NSaved=12 IEnMin=12 EnMin= -1804.97291149493     IErMin=12 ErrMin= 1.40D-06
 ErrMax= 1.40D-06  0.00D+00 EMaxC= 1.00D-01 BMatC= 1.63D-09 BMatP= 1.10D-08
 IDIUse=1 WtCom= 1.00D+00 WtEn= 0.00D+00
 Coeff-Com:  0.701D-04-0.147D-03-0.133D-03 0.162D-04 0.997D-03 0.179D-02
 Coeff-Com:  0.957D-02-0.604D-02-0.776D-01-0.303D-01 0.286D+00 0.815D+00
 Coeff:      0.701D-04-0.147D-03-0.133D-03 0.162D-04 0.997D-03 0.179D-02
 Coeff:      0.957D-02-0.604D-02-0.776D-01-0.303D-01 0.286D+00 0.815D+00
 Gap=     0.210 Goal=   None    Shift=    0.000
 RMSDP=9.24D-07 MaxDP=6.40D-05 DE=-2.80D-08 OVMax= 3.31D-05

 Cycle  13  Pass 1  IDiag  1:
 RMSU=  3.71D-07    CP:  6.11D-01  1.16D+00  6.31D-01  8.89D-01  1.02D+00
                    CP:  1.07D+00  1.13D+00  1.22D+00  1.67D+00  1.24D+00
                    CP:  1.23D+00  1.12D+00
 E= -1804.97291149858     Delta-E=       -0.000000003651 Rises=F Damp=F
 DIIS: error= 4.79D-07 at cycle  13 NSaved=  13.
 NSaved=13 IEnMin=13 EnMin= -1804.97291149858     IErMin=13 ErrMin= 4.79D-07
 ErrMax= 4.79D-07  0.00D+00 EMaxC= 1.00D-01 BMatC= 3.95D-10 BMatP= 1.63D-09
 IDIUse=1 WtCom= 1.00D+00 WtEn= 0.00D+00
 Coeff-Com: -0.909D-05 0.201D-04-0.239D-04-0.124D-03-0.528D-03 0.141D-03
 Coeff-Com:  0.722D-02 0.393D-02-0.219D-01-0.641D-01-0.218D-01 0.380D+00
 Coeff-Com:  0.717D+00
 Coeff:     -0.909D-05 0.201D-04-0.239D-04-0.124D-03-0.528D-03 0.141D-03
 Coeff:      0.722D-02 0.393D-02-0.219D-01-0.641D-01-0.218D-01 0.380D+00
 Coeff:      0.717D+00
 Gap=     0.210 Goal=   None    Shift=    0.000
 RMSDP=3.80D-07 MaxDP=6.52D-05 DE=-3.65D-09 OVMax= 1.42D-05

 Cycle  14  Pass 1  IDiag  1:
 RMSU=  2.00D-07    CP:  6.11D-01  1.16D+00  6.31D-01  8.89D-01  1.02D+00
                    CP:  1.07D+00  1.13D+00  1.21D+00  1.68D+00  1.26D+00
                    CP:  1.24D+00  1.24D+00  9.80D-01
 E= -1804.97291149937     Delta-E=       -0.000000000789 Rises=F Damp=F
 DIIS: error= 2.87D-07 at cycle  14 NSaved=  14.
 NSaved=14 IEnMin=14 EnMin= -1804.97291149937     IErMin=14 ErrMin= 2.87D-07
 ErrMax= 2.87D-07  0.00D+00 EMaxC= 1.00D-01 BMatC= 2.45D-11 BMatP= 3.95D-10
 IDIUse=1 WtCom= 1.00D+00 WtEn= 0.00D+00
 Coeff-Com: -0.867D-05 0.183D-04 0.773D-05-0.410D-04-0.241D-03-0.212D-03
 Coeff-Com:  0.516D-03 0.130D-02 0.503D-02-0.108D-01-0.404D-01-0.814D-02
 Coeff-Com:  0.134D+00 0.919D+00
 Coeff:     -0.867D-05 0.183D-04 0.773D-05-0.410D-04-0.241D-03-0.212D-03
 Coeff:      0.516D-03 0.130D-02 0.503D-02-0.108D-01-0.404D-01-0.814D-02
 Coeff:      0.134D+00 0.919D+00
 Gap=     0.210 Goal=   None    Shift=    0.000
 RMSDP=3.29D-07 MaxDP=4.18D-05 DE=-7.89D-10 OVMax= 5.74D-06

 Cycle  15  Pass 1  IDiag  1:
 RMSU=  2.48D-07    CP:  6.11D-01  1.16D+00  6.31D-01  8.89D-01  1.02D+00
                    CP:  1.07D+00  1.13D+00  1.21D+00  1.67D+00  1.26D+00
                    CP:  1.23D+00  1.25D+00  1.18D+00  1.41D+00
 E= -1804.97291149950     Delta-E=       -0.000000000130 Rises=F Damp=F
 DIIS: error= 1.42D-07 at cycle  15 NSaved=  15.
 NSaved=15 IEnMin=15 EnMin= -1804.97291149950     IErMin=15 ErrMin= 1.42D-07
 ErrMax= 1.42D-07  0.00D+00 EMaxC= 1.00D-01 BMatC= 5.93D-12 BMatP= 2.45D-11
 IDIUse=1 WtCom= 1.00D+00 WtEn= 0.00D+00
 Coeff-Com: -0.313D-05 0.653D-05 0.691D-05-0.191D-05-0.308D-04-0.104D-03
 Coeff-Com: -0.603D-03-0.257D-04 0.457D-02 0.361D-02-0.129D-01-0.456D-01
 Coeff-Com: -0.460D-01 0.340D+00 0.757D+00
 Coeff:     -0.313D-05 0.653D-05 0.691D-05-0.191D-05-0.308D-04-0.104D-03
 Coeff:     -0.603D-03-0.257D-04 0.457D-02 0.361D-02-0.129D-01-0.456D-01
 Coeff:     -0.460D-01 0.340D+00 0.757D+00
 Gap=     0.210 Goal=   None    Shift=    0.000
 RMSDP=2.93D-07 MaxDP=2.79D-05 DE=-1.30D-10 OVMax= 2.59D-06

 Cycle  16  Pass 1  IDiag  1:
 RMSU=  1.24D-07    CP:  6.11D-01  1.16D+00  6.31D-01  8.89D-01  1.02D+00
                    CP:  1.07D+00  1.13D+00  1.21D+00  1.67D+00  1.27D+00
                    CP:  1.22D+00  1.22D+00  1.27D+00  1.96D+00  1.84D+00
 E= -1804.97291149908     Delta-E=        0.000000000421 Rises=F Damp=F
 DIIS: error= 6.23D-08 at cycle  16 NSaved=  16.
 NSaved=16 IEnMin=15 EnMin= -1804.97291149950     IErMin=16 ErrMin= 6.23D-08
 ErrMax= 6.23D-08  0.00D+00 EMaxC= 1.00D-01 BMatC= 1.62D-12 BMatP= 5.93D-12
 IDIUse=1 WtCom= 1.00D+00 WtEn= 0.00D+00
 Coeff-Com:  0.518D-07-0.129D-06 0.142D-05 0.583D-05 0.301D-04-0.123D-04
 Coeff-Com: -0.315D-03-0.267D-03 0.949D-03 0.334D-02 0.157D-02-0.152D-01
 Coeff-Com: -0.473D-01-0.380D-01 0.327D+00 0.768D+00
 Coeff:      0.518D-07-0.129D-06 0.142D-05 0.583D-05 0.301D-04-0.123D-04
 Coeff:     -0.315D-03-0.267D-03 0.949D-03 0.334D-02 0.157D-02-0.152D-01
 Coeff:     -0.473D-01-0.380D-01 0.327D+00 0.768D+00
 Gap=     0.210 Goal=   None    Shift=    0.000
 RMSDP=6.89D-07 MaxDP=6.04D-05 DE= 4.21D-10 OVMax= 1.35D-06

 Cycle  17  Pass 1  IDiag  1:
 RMSU=  2.90D-07    CP:  6.11D-01  1.16D+00  6.31D-01  8.89D-01  1.02D+00
                    CP:  1.07D+00  1.13D+00  1.21D+00  1.66D+00  1.27D+00
                    CP:  1.18D+00  1.16D+00  1.39D+00  2.60D+00  3.00D+00
                    CP:  3.00D+00
 E= -1804.97291149921     Delta-E=       -0.000000000133 Rises=F Damp=F
 DIIS: error= 4.88D-08 at cycle  17 NSaved=  17.
 NSaved=17 IEnMin=15 EnMin= -1804.97291149950     IErMin=17 ErrMin= 4.88D-08
 ErrMax= 4.88D-08  0.00D+00 EMaxC= 1.00D-01 BMatC= 1.01D-12 BMatP= 1.62D-12
 IDIUse=1 WtCom= 1.00D+00 WtEn= 0.00D+00
 Coeff-Com:  0.195D-06-0.421D-06 0.545D-06 0.423D-05 0.235D-04-0.220D-05
 Coeff-Com: -0.173D-03-0.189D-03 0.327D-03 0.213D-02 0.198D-02-0.697D-02
 Coeff-Com: -0.304D-01-0.519D-01 0.173D+00 0.534D+00 0.378D+00
 Coeff:      0.195D-06-0.421D-06 0.545D-06 0.423D-05 0.235D-04-0.220D-05
 Coeff:     -0.173D-03-0.189D-03 0.327D-03 0.213D-02 0.198D-02-0.697D-02
 Coeff:     -0.304D-01-0.519D-01 0.173D+00 0.534D+00 0.378D+00
 Gap=     0.210 Goal=   None    Shift=    0.000
 RMSDP=6.75D-07 MaxDP=6.00D-05 DE=-1.33D-10 OVMax= 3.03D-07

 Cycle  18  Pass 1  IDiag  1:
 RMSU=  2.90D-07    CP:  6.11D-01  1.16D+00  6.31D-01  8.89D-01  1.02D+00
                    CP:  1.07D+00  1.13D+00  1.21D+00  1.64D+00  1.27D+00
                    CP:  1.14D+00  1.12D+00  1.47D+00  3.00D+00  3.00D+00
                    CP:  3.00D+00  2.74D+00
 E= -1804.97291149881     Delta-E=        0.000000000403 Rises=F Damp=F
 DIIS: error= 6.02D-08 at cycle  18 NSaved=  18.
 NSaved=18 IEnMin=15 EnMin= -1804.97291149950     IErMin=17 ErrMin= 4.88D-08
 ErrMax= 6.02D-08  0.00D+00 EMaxC= 1.00D-01 BMatC= 1.06D-12 BMatP= 1.01D-12
 IDIUse=1 WtCom= 1.00D+00 WtEn= 0.00D+00
 Coeff-Com:  0.298D-06-0.638D-06 0.406D-06 0.471D-05 0.267D-04 0.398D-06
 Coeff-Com: -0.173D-03-0.208D-03 0.232D-03 0.226D-02 0.257D-02-0.643D-02
 Coeff-Com: -0.323D-01-0.669D-01 0.170D+00 0.591D+00 0.609D+00-0.269D+00
 Coeff:      0.298D-06-0.638D-06 0.406D-06 0.471D-05 0.267D-04 0.398D-06
 Coeff:     -0.173D-03-0.208D-03 0.232D-03 0.226D-02 0.257D-02-0.643D-02
 Coeff:     -0.323D-01-0.669D-01 0.170D+00 0.591D+00 0.609D+00-0.269D+00
 Gap=     0.210 Goal=   None    Shift=    0.000
 RMSDP=3.32D-07 MaxDP=3.03D-05 DE= 4.03D-10 OVMax= 6.92D-08

 Cycle  19  Pass 1  IDiag  1:
 RMSU=  8.16D-08    CP:  6.11D-01  1.16D+00  6.31D-01  8.89D-01  1.02D+00
                    CP:  1.07D+00  1.13D+00  1.21D+00  1.65D+00  1.27D+00
                    CP:  1.16D+00  1.16D+00  1.44D+00  2.80D+00  3.00D+00
                    CP:  3.00D+00  1.96D+00  4.41D-01
 E= -1804.97291149909     Delta-E=       -0.000000000282 Rises=F Damp=F
 DIIS: error= 5.80D-08 at cycle  19 NSaved=  19.
 NSaved=19 IEnMin=15 EnMin= -1804.97291149950     IErMin=17 ErrMin= 4.88D-08
 ErrMax= 5.80D-08  0.00D+00 EMaxC= 1.00D-01 BMatC= 1.01D-12 BMatP= 1.01D-12
 IDIUse=1 WtCom= 1.00D+00 WtEn= 0.00D+00
 Coeff-Com:  0.295D-06-0.631D-06 0.406D-06 0.469D-05 0.266D-04 0.376D-06
 Coeff-Com: -0.172D-03-0.207D-03 0.231D-03 0.224D-02 0.255D-02-0.638D-02
 Coeff-Com: -0.321D-01-0.665D-01 0.169D+00 0.588D+00 0.607D+00-0.323D+00
 Coeff-Com:  0.593D-01
 Coeff:      0.295D-06-0.631D-06 0.406D-06 0.469D-05 0.266D-04 0.376D-06
 Coeff:     -0.172D-03-0.207D-03 0.231D-03 0.224D-02 0.255D-02-0.638D-02
 Coeff:     -0.321D-01-0.665D-01 0.169D+00 0.588D+00 0.607D+00-0.323D+00
 Coeff:      0.593D-01
 Gap=     0.210 Goal=   None    Shift=    0.000
 RMSDP=2.16D-08 MaxDP=1.82D-06 DE=-2.82D-10 OVMax= 3.27D-09

 Cycle  20  Pass 1  IDiag  1:
 RMSU=  1.05D-08    CP:  6.11D-01  1.16D+00  6.31D-01  8.89D-01  1.02D+00
                    CP:  1.07D+00  1.13D+00  1.21D+00  1.65D+00  1.27D+00
                    CP:  1.16D+00  1.16D+00  1.44D+00  2.78D+00  3.00D+00
                    CP:  3.00D+00  1.92D+00  4.15D-01  1.11D+00
 E= -1804.97291149894     Delta-E=        0.000000000148 Rises=F Damp=F
 DIIS: error= 6.45D-08 at cycle  20 NSaved=  20.
 NSaved=20 IEnMin=15 EnMin= -1804.97291149950     IErMin=17 ErrMin= 4.88D-08
 ErrMax= 6.45D-08  0.00D+00 EMaxC= 1.00D-01 BMatC= 1.01D-12 BMatP= 1.01D-12
 IDIUse=1 WtCom= 1.00D+00 WtEn= 0.00D+00
 Coeff-Com:  0.293D-06-0.627D-06 0.406D-06 0.467D-05 0.265D-04 0.343D-06
 Coeff-Com: -0.172D-03-0.206D-03 0.231D-03 0.224D-02 0.254D-02-0.637D-02
 Coeff-Com: -0.321D-01-0.662D-01 0.168D+00 0.586D+00 0.602D+00-0.312D+00
 Coeff-Com: -0.845D-01 0.141D+00
 Coeff:      0.293D-06-0.627D-06 0.406D-06 0.467D-05 0.265D-04 0.343D-06
 Coeff:     -0.172D-03-0.206D-03 0.231D-03 0.224D-02 0.254D-02-0.637D-02
 Coeff:     -0.321D-01-0.662D-01 0.168D+00 0.586D+00 0.602D+00-0.312D+00
 Coeff:     -0.845D-01 0.141D+00
 Gap=     0.210 Goal=   None    Shift=    0.000
 RMSDP=3.31D-08 MaxDP=2.49D-06 DE= 1.48D-10 OVMax= 4.77D-09

 Cycle  21  Pass 1  IDiag  1:
 Restarting incremental Fock formation.
 E= -1804.97291149884     Delta-E=        0.000000000103 Rises=F Damp=F
 DIIS: error= 2.32D-07 at cycle  21 NSaved=  20.
 NSaved=20 IEnMin=14 EnMin= -1804.97291149950     IErMin=16 ErrMin= 4.88D-08
 ErrMax= 2.32D-07  0.00D+00 EMaxC= 1.00D-01 BMatC= 1.51D-11 BMatP= 1.01D-12
 IDIUse=1 WtCom= 1.00D+00 WtEn= 0.00D+00
 Coeff-Com:  0.741D-09 0.595D-06 0.377D-05 0.187D-04-0.137D-05-0.124D-03
 Coeff-Com: -0.152D-03 0.134D-03 0.172D-02 0.211D-02-0.421D-02-0.252D-01
 Coeff-Com: -0.605D-01 0.122D+00 0.471D+00 0.480D+00-0.264D+00 0.212D+00
 Coeff-Com: -0.176D-01 0.822D-01
 Coeff:      0.741D-09 0.595D-06 0.377D-05 0.187D-04-0.137D-05-0.124D-03
 Coeff:     -0.152D-03 0.134D-03 0.172D-02 0.211D-02-0.421D-02-0.252D-01
 Coeff:     -0.605D-01 0.122D+00 0.471D+00 0.480D+00-0.264D+00 0.212D+00
 Coeff:     -0.176D-01 0.822D-01
 Gap=     0.210 Goal=   None    Shift=    0.000
 RMSDP=4.85D-07 MaxDP=5.58D-05 DE= 1.03D-10 OVMax= 1.53D-07

 Cycle  22  Pass 1  IDiag  1:
 RMSU=  4.84D-07    CP:  1.00D+00
 E= -1804.97291149858     Delta-E=        0.000000000261 Rises=F Damp=F
 DIIS: error= 2.20D-07 at cycle  22 NSaved=  20.
 NSaved=20 IEnMin=13 EnMin= -1804.97291149950     IErMin=15 ErrMin= 4.88D-08
 ErrMax= 2.20D-07  0.00D+00 EMaxC= 1.00D-01 BMatC= 1.32D-11 BMatP= 1.01D-12
 IDIUse=1 WtCom= 1.00D+00 WtEn= 0.00D+00
 Coeff-Com:  0.366D-06 0.240D-05 0.126D-04-0.142D-06-0.786D-04-0.103D-03
 Coeff-Com:  0.583D-04 0.115D-02 0.146D-02-0.248D-02-0.168D-01-0.427D-01
 Coeff-Com:  0.772D-01 0.312D+00 0.318D+00-0.934D-01 0.437D+00-0.166D+00
 Coeff-Com: -0.125D+01 0.143D+01
 Coeff:      0.366D-06 0.240D-05 0.126D-04-0.142D-06-0.786D-04-0.103D-03
 Coeff:      0.583D-04 0.115D-02 0.146D-02-0.248D-02-0.168D-01-0.427D-01
 Coeff:      0.772D-01 0.312D+00 0.318D+00-0.934D-01 0.437D+00-0.166D+00
 Coeff:     -0.125D+01 0.143D+01
 Gap=     0.210 Goal=   None    Shift=    0.000
 RMSDP=5.88D-07 MaxDP=5.83D-05 DE= 2.61D-10 OVMax= 2.20D-07

 Cycle  23  Pass 1  IDiag  1:
 RMSU=  3.60D-07    CP:  1.00D+00  1.96D+00
 E= -1804.97291149807     Delta-E=        0.000000000507 Rises=F Damp=F
 DIIS: error= 2.16D-07 at cycle  23 NSaved=  20.
 NSaved=20 IEnMin=12 EnMin= -1804.97291149950     IErMin=14 ErrMin= 4.88D-08
 ErrMax= 2.16D-07  0.00D+00 EMaxC= 1.00D-01 BMatC= 1.18D-11 BMatP= 1.01D-12
 IDIUse=1 WtCom= 1.00D+00 WtEn= 0.00D+00
 Coeff-Com:  0.640D-06 0.486D-05 0.189D-05-0.134D-04-0.399D-04-0.702D-04
 Coeff-Com:  0.431D-03 0.815D-03-0.211D-03-0.724D-02-0.252D-01 0.315D-01
 Coeff-Com:  0.159D+00 0.189D+00-0.625D-01 0.932D+00-0.465D+00-0.111D+01
 Coeff-Com: -0.346D-01 0.140D+01
 Coeff:      0.640D-06 0.486D-05 0.189D-05-0.134D-04-0.399D-04-0.702D-04
 Coeff:      0.431D-03 0.815D-03-0.211D-03-0.724D-02-0.252D-01 0.315D-01
 Coeff:      0.159D+00 0.189D+00-0.625D-01 0.932D+00-0.465D+00-0.111D+01
 Coeff:     -0.346D-01 0.140D+01
 Gap=     0.210 Goal=   None    Shift=    0.000
 RMSDP=6.90D-07 MaxDP=6.57D-05 DE= 5.07D-10 OVMax= 2.58D-07

 Cycle  24  Pass 1  IDiag  1:
 RMSU=  2.46D-07    CP:  1.00D+00  3.00D+00  2.01D+00
 E= -1804.97291149811     Delta-E=       -0.000000000038 Rises=F Damp=F
 DIIS: error= 2.06D-07 at cycle  24 NSaved=  20.
 NSaved=20 IEnMin=11 EnMin= -1804.97291149950     IErMin=13 ErrMin= 4.88D-08
 ErrMax= 2.06D-07  0.00D+00 EMaxC= 1.00D-01 BMatC= 1.03D-11 BMatP= 1.01D-12
 IDIUse=1 WtCom= 1.00D+00 WtEn= 0.00D+00
 Coeff-Com:  0.217D-05-0.183D-06-0.193D-04-0.207D-04 0.653D-04 0.337D-03
 Coeff-Com:  0.140D-03-0.124D-02-0.550D-02-0.983D-02 0.317D-01 0.109D+00
 Coeff-Com:  0.998D-01-0.115D-02 0.109D+01-0.580D+00-0.667D+00-0.483D+00
 Coeff-Com:  0.672D+00 0.744D+00
 Coeff:      0.217D-05-0.183D-06-0.193D-04-0.207D-04 0.653D-04 0.337D-03
 Coeff:      0.140D-03-0.124D-02-0.550D-02-0.983D-02 0.317D-01 0.109D+00
 Coeff:      0.998D-01-0.115D-02 0.109D+01-0.580D+00-0.667D+00-0.483D+00
 Coeff:      0.672D+00 0.744D+00
 Gap=     0.210 Goal=   None    Shift=    0.000
 RMSDP=3.17D-07 MaxDP=2.36D-05 DE=-3.82D-11 OVMax= 8.23D-08

 Cycle  25  Pass 1  IDiag  1:
 RMSU=  2.26D-07    CP:  1.00D+00  3.00D+00  2.59D+00  1.28D+00
 E= -1804.97291149782     Delta-E=        0.000000000294 Rises=F Damp=F
 DIIS: error= 2.05D-07 at cycle  25 NSaved=  20.
 NSaved=20 IEnMin=10 EnMin= -1804.97291149950     IErMin=12 ErrMin= 4.88D-08
 ErrMax= 2.05D-07  0.00D+00 EMaxC= 1.00D-01 BMatC= 9.99D-12 BMatP= 1.01D-12
 IDIUse=1 WtCom= 1.00D+00 WtEn= 0.00D+00
 Coeff-Com: -0.156D-05-0.109D-04-0.905D-05 0.535D-04 0.268D-03 0.119D-03
 Coeff-Com: -0.883D-03-0.464D-02-0.967D-02 0.272D-01 0.101D+00 0.982D-01
 Coeff-Com: -0.199D-01 0.118D+01-0.647D+00-0.661D+00-0.397D+00 0.506D+00
 Coeff-Com:  0.507D+00 0.316D+00
 Coeff:     -0.156D-05-0.109D-04-0.905D-05 0.535D-04 0.268D-03 0.119D-03
 Coeff:     -0.883D-03-0.464D-02-0.967D-02 0.272D-01 0.101D+00 0.982D-01
 Coeff:     -0.199D-01 0.118D+01-0.647D+00-0.661D+00-0.397D+00 0.506D+00
 Coeff:      0.507D+00 0.316D+00
 Gap=     0.210 Goal=   None    Shift=    0.000
 RMSDP=1.23D-07 MaxDP=9.47D-06 DE= 2.94D-10 OVMax= 3.25D-08

 Cycle  26  Pass 1  IDiag  1:
 RMSU=  5.62D-08    CP:  1.00D+00  3.00D+00  2.76D+00  1.45D+00  1.35D+00
 E= -1804.97291149764     Delta-E=        0.000000000174 Rises=F Damp=F
 DIIS: error= 2.08D-07 at cycle  26 NSaved=  20.
 NSaved=20 IEnMin= 9 EnMin= -1804.97291149950     IErMin=11 ErrMin= 4.88D-08
 ErrMax= 2.08D-07  0.00D+00 EMaxC= 1.00D-01 BMatC= 9.84D-12 BMatP= 1.01D-12
 IDIUse=1 WtCom= 1.00D+00 WtEn= 0.00D+00
 Coeff-Com: -0.547D-05-0.865D-05 0.269D-04 0.255D-03 0.205D-03-0.671D-03
 Coeff-Com: -0.439D-02-0.107D-01 0.232D-01 0.930D-01 0.892D-01 0.400D-01
 Coeff-Com:  0.114D+01-0.637D+00-0.667D+00-0.367D+00 0.414D+00 0.579D+00
 Coeff-Com:  0.731D+00-0.418D+00
 Coeff:     -0.547D-05-0.865D-05 0.269D-04 0.255D-03 0.205D-03-0.671D-03
 Coeff:     -0.439D-02-0.107D-01 0.232D-01 0.930D-01 0.892D-01 0.400D-01
 Coeff:      0.114D+01-0.637D+00-0.667D+00-0.367D+00 0.414D+00 0.579D+00
 Coeff:      0.731D+00-0.418D+00
 Gap=     0.210 Goal=   None    Shift=    0.000
 RMSDP=9.35D-08 MaxDP=8.11D-06 DE= 1.74D-10 OVMax= 2.32D-08

 Cycle  27  Pass 1  IDiag  1:
 RMSU=  6.32D-08    CP:  1.00D+00  3.00D+00  2.72D+00  1.56D+00  1.16D+00
                    CP:  3.18D-01
 E= -1804.97291149767     Delta-E=       -0.000000000031 Rises=F Damp=F
 DIIS: error= 2.08D-07 at cycle  27 NSaved=  20.
 NSaved=20 IEnMin= 8 EnMin= -1804.97291149950     IErMin=10 ErrMin= 4.88D-08
 ErrMax= 2.08D-07  0.00D+00 EMaxC= 1.00D-01 BMatC= 9.78D-12 BMatP= 1.01D-12
 IDIUse=1 WtCom= 1.00D+00 WtEn= 0.00D+00
 Coeff-Com: -0.736D-05 0.312D-05 0.195D-03 0.192D-03-0.357D-03-0.372D-02
 Coeff-Com: -0.989D-02 0.217D-01 0.872D-01 0.818D-01 0.557D-01 0.112D+01
 Coeff-Com: -0.622D+00-0.696D+00-0.322D+00 0.405D+00 0.474D+00 0.802D+00
 Coeff-Com: -0.608D+00 0.219D+00
 Coeff:     -0.736D-05 0.312D-05 0.195D-03 0.192D-03-0.357D-03-0.372D-02
 Coeff:     -0.989D-02 0.217D-01 0.872D-01 0.818D-01 0.557D-01 0.112D+01
 Coeff:     -0.622D+00-0.696D+00-0.322D+00 0.405D+00 0.474D+00 0.802D+00
 Coeff:     -0.608D+00 0.219D+00
 Gap=     0.210 Goal=   None    Shift=    0.000
 RMSDP=8.05D-08 MaxDP=8.53D-06 DE=-3.09D-11 OVMax= 1.10D-08

 Cycle  28  Pass 1  IDiag  1:
 RMSU=  6.17D-08    CP:  1.00D+00  3.00D+00  2.75D+00  1.63D+00  1.22D+00
                    CP: -3.77D-01  1.40D+00
 E= -1804.97291149813     Delta-E=       -0.000000000453 Rises=F Damp=F
 DIIS: error= 2.02D-07 at cycle  28 NSaved=  20.
 NSaved=20 IEnMin= 7 EnMin= -1804.97291149950     IErMin= 9 ErrMin= 4.88D-08
 ErrMax= 2.02D-07  0.00D+00 EMaxC= 1.00D-01 BMatC= 9.68D-12 BMatP= 1.01D-12
 IDIUse=1 WtCom= 1.00D+00 WtEn= 0.00D+00
 Coeff-Com:  0.686D-05 0.169D-03 0.161D-03-0.268D-03-0.356D-02-0.104D-01
 Coeff-Com:  0.206D-01 0.865D-01 0.823D-01 0.560D-01 0.112D+01-0.625D+00
 Coeff-Com: -0.695D+00-0.324D+00 0.404D+00 0.476D+00 0.819D+00-0.625D+00
 Coeff-Com:  0.240D+00-0.216D-01
 Coeff:      0.686D-05 0.169D-03 0.161D-03-0.268D-03-0.356D-02-0.104D-01
 Coeff:      0.206D-01 0.865D-01 0.823D-01 0.560D-01 0.112D+01-0.625D+00
 Coeff:     -0.695D+00-0.324D+00 0.404D+00 0.476D+00 0.819D+00-0.625D+00
 Coeff:      0.240D+00-0.216D-01
 Gap=     0.210 Goal=   None    Shift=    0.000
 RMSDP=4.15D-09 MaxDP=5.84D-07 DE=-4.53D-10 OVMax= 5.71D-09

 SCF Done:  E(RwB97XD) =  -1804.97291150     A.U. after   28 cycles
            NFock= 28  Conv=0.42D-08     -V/T= 2.0047
 KE= 1.796528168760D+03 PE=-1.331537757675D+04 EE= 5.156489328525D+03
 Leave Link  502 at Fri Nov  3 19:57:24 2017, MaxMem=  3758096384 cpu:     26819.8
 (Enter /share/apps/gaussian/g09_D01/g09/l801.exe)
 DoSCS=F DFT=T ScalE2(SS,OS)=  1.000000  1.000000
 ExpMin= 3.60D-02 ExpMax= 8.59D+03 ExpMxC= 1.30D+03 IAcc=3 IRadAn=         5 AccDes= 0.00D+00
 HarFok:  IExCor=  205 AccDes= 0.00D+00 IRadAn=         5 IDoV=-2 UseB2=F ITyADJ=14
 ICtDFT= 12500011 ScaDFX=  1.000000  1.000000  1.000000  1.000000
 Largest valence mixing into a core orbital is  5.73D-05
 Largest core mixing into a valence orbital is  1.58D-05
 Range of M.O.s used for correlation:    43  1171
 NBasis=  1190 NAE=   150 NBE=   150 NFC=    42 NFV=     0
 NROrb=   1129 NOA=   108 NOB=   108 NVA=  1021 NVB=  1021

 **** Warning!!: The largest alpha MO coefficient is  0.14389958D+03

 Leave Link  801 at Fri Nov  3 19:57:28 2017, MaxMem=  3758096384 cpu:         6.7
 (Enter /share/apps/gaussian/g09_D01/g09/l914.exe)
 RHF ground state
 MDV=  3758096384 DFT=T DoStab=F Mixed=T DoRPA=T DoScal=F NonHer=T
 Would need an additional       1503714600000 words for in-memory AO integral storage.
 Making orbital integer symmetry assigments:
    16 initial guesses have been made.
 Convergence on wavefunction:    0.001000000000000
 Davidson Disk Diagonalization:  ConvIn= 1.00D-03 SkipCon=T Conv= 1.00D-03.
 Max sub-space:   200 roots to seek:    16 dimension of matrix:       220536
 Iteration     1 Dimension    16 NMult     0 NNew     16
 CISAX will form    16 AO SS matrices at one time.
 NMat=    16 NSing=    16 JSym2X= 0.
 FoFJK:  IHMeth= 1 ICntrl=       0 DoSepK=T KAlg= 0 I1Cent=   0 FoldK=F
 IRaf=         1 NMat=  32 IRICut=       1 DoRegI=T DoRafI=F ISym2E= 0.
 FoFCou: FMM=T IPFlag=           0 FMFlag=      100000 FMFlg1=        2001
         NFxFlg=           0 DoJE=F BraDBF=F KetDBF=F FulRan=T
         wScrn=  0.000000 ICntrl=     500 IOpCl=  0 I1Cent=           0 NGrid=           0
         NMat0=   16 NMatS0=     16 NMatT0=    0 NMatD0=   16 NMtDS0=    0 NMtDT0=    0
 Symmetry not used in FoFCou.
 FMM levels:  10  Number of levels for PrismC:   9
 New state      2 was old state      3
 New state      3 was old state      4
 New state      4 was old state      5
 Excitation Energies [eV] at current iteration:
 Root      1 :     3.363392064903056
 Root      2 :     3.839618240940371
 Root      3 :     3.916799504480339
 Root      4 :     4.449175289472224
 Root      5 :     4.536117437123228
 Root      6 :     4.552916215863776
 Root      7 :     5.212172364684600
 Root      8 :     5.344963098002369
 Root      9 :     5.365666349950144
 Root     10 :     5.600155765265675
 Root     11 :     5.794797130620815
 Root     12 :     5.888278266630362
 Root     13 :     5.899267728154755
 Root     14 :     6.057063172511536
 Root     15 :     6.192153947587135
 Root     16 :     6.335042577146782
 Iteration     2 Dimension    24 NMult    16 NNew      8
 CISAX will form     8 AO SS matrices at one time.
 NMat=     8 NSing=     8 JSym2X= 0.
 New state      1 was old state      2
 Root      1 not converged, maximum delta is    0.157154539764492
 New state      2 was old state      1
 Root      2 not converged, maximum delta is    0.194673178932223
 Root      3 not converged, maximum delta is    0.155809051328834
 Root      4 not converged, maximum delta is    0.099081897125033
 Excitation Energies [eV] at current iteration:
 Root      1 :     3.292967397485446   Change is   -0.546650843454925
 Root      2 :     3.311197450360367   Change is   -0.052194614542689
 Root      3 :     3.398463549025061   Change is   -0.518335955455278
 Root      4 :     3.807578626456727   Change is   -0.641596663015497
 Iteration     3 Dimension    32 NMult    24 NNew      8
 CISAX will form     8 AO SS matrices at one time.
 NMat=     8 NSing=     8 JSym2X= 0.
 Root      1 not converged, maximum delta is    0.120765564106402
 Root      2 not converged, maximum delta is    0.182576446686999
 Root      3 not converged, maximum delta is    0.152637671719439
 Root      4 not converged, maximum delta is    0.034894065649387
 Excitation Energies [eV] at current iteration:
 Root      1 :     3.240352795942781   Change is   -0.052614601542665
 Root      2 :     3.301015941607031   Change is   -0.010181508753336
 Root      3 :     3.353059072211448   Change is   -0.045404476813613
 Root      4 :     3.749474017596685   Change is   -0.058104608860042
 Iteration     4 Dimension    40 NMult    32 NNew      8
 CISAX will form     8 AO SS matrices at one time.
 NMat=     8 NSing=     8 JSym2X= 0.
 Root      1 not converged, maximum delta is    0.005662702390546
 Root      2 not converged, maximum delta is    0.023552024823982
 Root      3 not converged, maximum delta is    0.035024865123020
 Root      4 not converged, maximum delta is    0.019934798963023
 Excitation Energies [eV] at current iteration:
 Root      1 :     3.233236993118044   Change is   -0.007115802824737
 Root      2 :     3.298792229588055   Change is   -0.002223712018976
 Root      3 :     3.347395663490728   Change is   -0.005663408720720
 Root      4 :     3.732192566501579   Change is   -0.017281451095106
 Iteration     5 Dimension    48 NMult    40 NNew      8
 CISAX will form     8 AO SS matrices at one time.
 NMat=     8 NSing=     8 JSym2X= 0.
 Root      1 not converged, maximum delta is    0.002098254257226
 Root      2 not converged, maximum delta is    0.003776747476302
 Root      3 not converged, maximum delta is    0.004880946793238
 Root      4 not converged, maximum delta is    0.005487565636816
 Excitation Energies [eV] at current iteration:
 Root      1 :     3.232256358435928   Change is   -0.000980634682116
 Root      2 :     3.298303302328288   Change is   -0.000488927259768
 Root      3 :     3.346679693950755   Change is   -0.000715969539973
 Root      4 :     3.729515086622730   Change is   -0.002677479878849
 Iteration     6 Dimension    56 NMult    48 NNew      8
 CISAX will form     8 AO SS matrices at one time.
 NMat=     8 NSing=     8 JSym2X= 0.
 Root      1 has converged.
 Root      2 not converged, maximum delta is    0.001680553522308
 Root      3 has converged.
 Root      4 not converged, maximum delta is    0.004068013935828
 Excitation Energies [eV] at current iteration:
 Root      1 :     3.232129513993812   Change is   -0.000126844442116
 Root      2 :     3.298204742904081   Change is   -0.000098559424207
 Root      3 :     3.346579378483165   Change is   -0.000100315467589
 Root      4 :     3.729001295373300   Change is   -0.000513791249430
 Iteration     7 Dimension    60 NMult    56 NNew      4
 CISAX will form     4 AO SS matrices at one time.
 NMat=     4 NSing=     4 JSym2X= 0.
 Root      1 has converged.
 Root      2 not converged, maximum delta is    0.001078437950355
 Root      3 has converged.
 Root      4 not converged, maximum delta is    0.005974910585765
 Excitation Energies [eV] at current iteration:
 Root      1 :     3.232128691778912   Change is   -0.000000822214900
 Root      2 :     3.298184177319088   Change is   -0.000020565584993
 Root      3 :     3.346574540709674   Change is   -0.000004837773491
 Root      4 :     3.728765622407670   Change is   -0.000235672965629
 Iteration     8 Dimension    64 NMult    60 NNew      4
 CISAX will form     4 AO SS matrices at one time.
 NMat=     4 NSing=     4 JSym2X= 0.
 Root      1 has converged.
 Root      2 has converged.
 Root      3 has converged.
 Root      4 not converged, maximum delta is    0.012729309530502
 Excitation Energies [eV] at current iteration:
 Root      1 :     3.232128181971933   Change is   -0.000000509806979
 Root      2 :     3.298177301389837   Change is   -0.000006875929251
 Root      3 :     3.346573864556644   Change is   -0.000000676153030
 Root      4 :     3.728514936870389   Change is   -0.000250685537281
 Iteration     9 Dimension    66 NMult    64 NNew      2
 CISAX will form     2 AO SS matrices at one time.
 NMat=     2 NSing=     2 JSym2X= 0.
 Root      1 has converged.
 Root      2 has converged.
 Root      3 has converged.
 Root      4 not converged, maximum delta is    0.018175220587002
 Excitation Energies [eV] at current iteration:
 Root      1 :     3.232128111617151   Change is   -0.000000070354781
 Root      2 :     3.298175742406579   Change is   -0.000001558983257
 Root      3 :     3.346573841175173   Change is   -0.000000023381471
 Root      4 :     3.728241668978647   Change is   -0.000273267891743
 Iteration    10 Dimension    68 NMult    66 NNew      2
 CISAX will form     2 AO SS matrices at one time.
 NMat=     2 NSing=     2 JSym2X= 0.
 Root      1 has converged.
 Root      2 has converged.
 Root      3 has converged.
 Root      4 not converged, maximum delta is    0.015156513359743
 Excitation Energies [eV] at current iteration:
 Root      1 :     3.232127733542207   Change is   -0.000000378074944
 Root      2 :     3.298175107624266   Change is   -0.000000634782314
 Root      3 :     3.346573760723886   Change is   -0.000000080451287
 Root      4 :     3.728046110645580   Change is   -0.000195558333067
 Iteration    11 Dimension    70 NMult    68 NNew      2
 CISAX will form     2 AO SS matrices at one time.
 NMat=     2 NSing=     2 JSym2X= 0.
 Root      1 has converged.
 Root      2 has converged.
 Root      3 has converged.
 Root      4 not converged, maximum delta is    0.005907658328536
 Excitation Energies [eV] at current iteration:
 Root      1 :     3.232127005738571   Change is   -0.000000727803636
 Root      2 :     3.298174878647873   Change is   -0.000000228976392
 Root      3 :     3.346573425419888   Change is   -0.000000335303998
 Root      4 :     3.727976624058714   Change is   -0.000069486586866
 Iteration    12 Dimension    72 NMult    70 NNew      2
 CISAX will form     2 AO SS matrices at one time.
 NMat=     2 NSing=     2 JSym2X= 0.
 Root      1 has converged.
 Root      2 has converged.
 Root      3 has converged.
 Root      4 not converged, maximum delta is    0.001535353409308
 Excitation Energies [eV] at current iteration:
 Root      1 :     3.232126451969096   Change is   -0.000000553769474
 Root      2 :     3.298174812976903   Change is   -0.000000065670970
 Root      3 :     3.346573142176797   Change is   -0.000000283243091
 Root      4 :     3.727958821821415   Change is   -0.000017802237298
 Iteration    13 Dimension    74 NMult    72 NNew      2
 CISAX will form     2 AO SS matrices at one time.
 NMat=     2 NSing=     2 JSym2X= 0.
 Root      1 has converged.
 Root      2 has converged.
 Root      3 has converged.
 Root      4 has converged.
 Excitation Energies [eV] at current iteration:
 Root      1 :     3.232126040539257   Change is   -0.000000411429840
 Root      2 :     3.298174750411306   Change is   -0.000000062565597
 Root      3 :     3.346572497536859   Change is   -0.000000644639938
 Root      4 :     3.727952942032320   Change is   -0.000005879789095
 Convergence achieved on expansion vectors.
 ***********************************************************************
 Excited states from <AA,BB:AA,BB> singles matrix:
 ***********************************************************************
 
 1PDM for each excited state written to RWF  633
 Ground to excited state transition densities written to RWF  633
 Ground to excited state transition electric dipole moments (Au):
       state          X           Y           Z        Dip. S.      Osc.
         1        -0.7926     -0.7428     -0.5347      1.4658      0.1161
         2        -0.0014     -2.2548     -1.6774      7.8977      0.6382
         3        -0.1225      3.1126      2.6838     16.9063      1.3861
         4         0.0545      0.7384      0.5616      0.8635      0.0789
 Ground to excited state transition velocity dipole moments (Au):
       state          X           Y           Z        Dip. S.      Osc.
         1         0.0911      0.0878      0.0624      0.0199      0.1117
         2         0.0012      0.2710      0.1996      0.1132      0.6229
         3         0.0147     -0.3816     -0.3242      0.2510      1.3606
         4        -0.0076     -0.0932     -0.0755      0.0145      0.0703
 Ground to excited state transition magnetic dipole moments (Au):
       state          X           Y           Z
         1        -3.0486      1.3803     -1.1920
         2         0.2739     -1.2443      1.8439
         3        -0.1435      1.8210     -2.5385
         4        -0.5473      0.0182      0.2454
 Ground to excited state transition velocity quadrupole moments (Au):
       state          XX          YY          ZZ          XY          XZ          YZ
         1         0.9301     -4.8625      0.6427     -0.1761      0.0560     -1.9369
         2        -0.1063      1.0891      1.1830      1.0889      0.9450      1.1295
         3         0.3562     -1.5003     -1.8813     -1.4839     -1.6497     -1.6572
         4        -0.2270      2.7821      0.2932     -0.2894     -0.1813      1.5444
 <0|del|b> * <b|rxdel|0> + <0|del|b> * <b|delr+rdel|0>
 Rotatory Strengths (R) in cgs (10**-40 erg-esu-cm/Gauss)
       state          XX          YY          ZZ    R(velocity)    E-M Angle
         1        91.9409  -1540.8198     73.8151   -458.3546      117.44
         2       -22.9728    444.3619   -239.5315     60.6192       87.63
         3       -58.4282    906.9500   -123.8729    241.5496       85.39
         4       -39.4386   -123.8934     80.5241    -27.6027      102.85
 1/2[<0|r|b>*<b|rxdel|0> + (<0|rxdel|b>*<b|r|0>)*]
 Rotatory Strengths (R) in cgs (10**-40 erg-esu-cm/Gauss)
       state          XX          YY          ZZ     R(length)
         1     -1708.6919    725.0197   -450.7005   -478.1242
         2         0.2639  -1984.0857   2187.1430     67.7737
         3       -12.4368  -4008.2216   4817.9246    265.7554
         4        21.0888     -9.4815    -97.4652    -28.6193
  1/2[<0|del|b>*<b|r|0> + (<0|r|b>*<b|del|0>)*] (Au)
       state          X           Y           Z        Dip. S.   Osc.(frdel)
         1        -0.0722     -0.0652     -0.0334      0.1708      0.1138
         2         0.0000     -0.6109     -0.3348      0.9457      0.6305
         3        -0.0018     -1.1879     -0.8702      2.0599      1.3733
         4        -0.0004     -0.0689     -0.0424      0.1117      0.0744

 Excitation energies and oscillator strengths:
 
 Excited state symmetry could not be determined.
 Excited State   1:      Singlet-?Sym    3.2321 eV  383.60 nm  f=0.1161  <S**2>=0.000
     147 -> 151        0.14663
     147 -> 154       -0.11452
     148 -> 151        0.53359
     150 -> 152        0.37770
 This state for optimization and/or second-order correction.
 Total Energy, E(TD-HF/TD-KS) =  -1804.85413305    
 Copying the excited state density for this state as the 1-particle RhoCI density.
 
 Excited state symmetry could not be determined.
 Excited State   2:      Singlet-?Sym    3.2982 eV  375.92 nm  f=0.6382  <S**2>=0.000
     148 -> 151        0.18126
     149 -> 151       -0.13413
     150 -> 151        0.56625
     150 -> 152       -0.31512
 
 Excited state symmetry could not be determined.
 Excited State   3:      Singlet-?Sym    3.3466 eV  370.48 nm  f=1.3861  <S**2>=0.000
     148 -> 151       -0.33392
     149 -> 152        0.12677
     150 -> 151        0.37341
     150 -> 152        0.43525
 
 Excited state symmetry could not be determined.
 Excited State   4:      Singlet-?Sym    3.7280 eV  332.58 nm  f=0.0789  <S**2>=0.000
     147 -> 151        0.59744
     147 -> 154       -0.13181
     148 -> 151       -0.16210
     148 -> 154       -0.13300
     149 -> 152       -0.20166
 SavETr:  write IOETrn=   770 NScale= 10 NData=  16 NLR=1 NState=    4 LETran=      82.
 Leave Link  914 at Sat Nov  4 05:32:25 2017, MaxMem=  3758096384 cpu:     68979.0
 (Enter /share/apps/gaussian/g09_D01/g09/l601.exe)
 Copying SCF densities to generalized density rwf, IOpCl= 0 IROHF=0.

 **********************************************************************

            Population analysis using the SCF density.

 **********************************************************************

 Alpha  occ. eigenvalues --  -19.26074 -19.24679 -19.22797 -19.21660 -14.49129
 Alpha  occ. eigenvalues --  -14.46573 -10.39468 -10.36837 -10.36427 -10.36412
 Alpha  occ. eigenvalues --  -10.34790 -10.34714 -10.33979 -10.33610 -10.33256
 Alpha  occ. eigenvalues --  -10.32756 -10.32439 -10.32201 -10.32164 -10.31470
 Alpha  occ. eigenvalues --  -10.31288 -10.31118 -10.30717 -10.30601 -10.30533
 Alpha  occ. eigenvalues --  -10.30351 -10.30244 -10.30049 -10.29284 -10.29277
 Alpha  occ. eigenvalues --  -10.28961 -10.28827 -10.28444 -10.28372 -10.28146
 Alpha  occ. eigenvalues --  -10.28060 -10.27806 -10.27583 -10.27523 -10.26970
 Alpha  occ. eigenvalues --  -10.26739 -10.26499  -1.16344  -1.13156  -1.12541
 Alpha  occ. eigenvalues --   -1.09408  -1.09343  -1.06838  -0.98527  -0.97058
 Alpha  occ. eigenvalues --   -0.95512  -0.94337  -0.92497  -0.89416  -0.88881
 Alpha  occ. eigenvalues --   -0.88439  -0.87225  -0.86085  -0.86005  -0.85627
 Alpha  occ. eigenvalues --   -0.85362  -0.84553  -0.83175  -0.82908  -0.80738
 Alpha  occ. eigenvalues --   -0.78555  -0.77992  -0.75969  -0.75925  -0.73553
 Alpha  occ. eigenvalues --   -0.73182  -0.72819  -0.70626  -0.69950  -0.69824
 Alpha  occ. eigenvalues --   -0.68256  -0.67050  -0.65619  -0.65398  -0.64708
 Alpha  occ. eigenvalues --   -0.62799  -0.62059  -0.61833  -0.60937  -0.60072
 Alpha  occ. eigenvalues --   -0.59229  -0.59005  -0.58952  -0.58132  -0.57301
 Alpha  occ. eigenvalues --   -0.56980  -0.56661  -0.56388  -0.56140  -0.55664
 Alpha  occ. eigenvalues --   -0.54198  -0.54025  -0.53641  -0.53266  -0.52948
 Alpha  occ. eigenvalues --   -0.52903  -0.52598  -0.52478  -0.52213  -0.51375
 Alpha  occ. eigenvalues --   -0.51324  -0.50679  -0.50468  -0.50332  -0.50029
 Alpha  occ. eigenvalues --   -0.49873  -0.49763  -0.49722  -0.49315  -0.49095
 Alpha  occ. eigenvalues --   -0.48815  -0.48449  -0.48242  -0.47753  -0.47505
 Alpha  occ. eigenvalues --   -0.47271  -0.46687  -0.46632  -0.46549  -0.45511
 Alpha  occ. eigenvalues --   -0.45363  -0.44702  -0.44298  -0.44012  -0.43853
 Alpha  occ. eigenvalues --   -0.43340  -0.42626  -0.42506  -0.41900  -0.40850
 Alpha  occ. eigenvalues --   -0.40186  -0.39893  -0.39076  -0.36535  -0.36360
 Alpha  occ. eigenvalues --   -0.35589  -0.34469  -0.33628  -0.33291  -0.32577
 Alpha  occ. eigenvalues --   -0.31821  -0.30123  -0.28311  -0.27313  -0.25438
 Alpha virt. eigenvalues --   -0.04431  -0.01384   0.01588   0.01988   0.02918
 Alpha virt. eigenvalues --    0.03110   0.03233   0.03662   0.04342   0.04830
 Alpha virt. eigenvalues --    0.04896   0.05034   0.05554   0.05585   0.05853
 Alpha virt. eigenvalues --    0.05983   0.06352   0.06424   0.06636   0.06758
 Alpha virt. eigenvalues --    0.06814   0.07372   0.07532   0.07698   0.07873
 Alpha virt. eigenvalues --    0.08033   0.08314   0.08492   0.08559   0.09070
 Alpha virt. eigenvalues --    0.09174   0.09589   0.09803   0.10152   0.10184
 Alpha virt. eigenvalues --    0.10333   0.10495   0.10737   0.11063   0.11151
 Alpha virt. eigenvalues --    0.11301   0.11709   0.11962   0.12088   0.12297
 Alpha virt. eigenvalues --    0.12430   0.12476   0.12863   0.13301   0.13461
 Alpha virt. eigenvalues --    0.13697   0.13943   0.14015   0.14240   0.14465
 Alpha virt. eigenvalues --    0.14795   0.14845   0.15031   0.15228   0.15349
 Alpha virt. eigenvalues --    0.15454   0.15635   0.15689   0.15839   0.16057
 Alpha virt. eigenvalues --    0.16333   0.16474   0.16579   0.16989   0.17131
 Alpha virt. eigenvalues --    0.17181   0.17324   0.17635   0.17702   0.17789
 Alpha virt. eigenvalues --    0.17899   0.18218   0.18280   0.18408   0.18509
 Alpha virt. eigenvalues --    0.18725   0.18864   0.18979   0.19059   0.19160
 Alpha virt. eigenvalues --    0.19358   0.19648   0.19701   0.19918   0.19991
 Alpha virt. eigenvalues --    0.20209   0.20253   0.20386   0.20517   0.20651
 Alpha virt. eigenvalues --    0.20824   0.20961   0.21024   0.21378   0.21427
 Alpha virt. eigenvalues --    0.21570   0.21711   0.21920   0.22076   0.22121
 Alpha virt. eigenvalues --    0.22247   0.22316   0.22542   0.22583   0.22674
 Alpha virt. eigenvalues --    0.22965   0.23016   0.23249   0.23378   0.23543
 Alpha virt. eigenvalues --    0.23688   0.24030   0.24164   0.24199   0.24372
 Alpha virt. eigenvalues --    0.24656   0.24900   0.25020   0.25055   0.25196
 Alpha virt. eigenvalues --    0.25347   0.25749   0.25837   0.26023   0.26111
 Alpha virt. eigenvalues --    0.26249   0.26487   0.26679   0.26729   0.26888
 Alpha virt. eigenvalues --    0.27079   0.27218   0.27339   0.27455   0.27590
 Alpha virt. eigenvalues --    0.27955   0.28037   0.28094   0.28294   0.28412
 Alpha virt. eigenvalues --    0.28541   0.28739   0.28950   0.29033   0.29279
 Alpha virt. eigenvalues --    0.29449   0.29544   0.29643   0.29855   0.30119
 Alpha virt. eigenvalues --    0.30238   0.30422   0.30563   0.30717   0.30850
 Alpha virt. eigenvalues --    0.31255   0.31311   0.31541   0.31638   0.31758
 Alpha virt. eigenvalues --    0.32035   0.32212   0.32467   0.32552   0.32668
 Alpha virt. eigenvalues --    0.32905   0.33018   0.33223   0.33453   0.33531
 Alpha virt. eigenvalues --    0.33628   0.33843   0.33973   0.34086   0.34279
 Alpha virt. eigenvalues --    0.34420   0.34453   0.34636   0.34912   0.34990
 Alpha virt. eigenvalues --    0.35152   0.35517   0.35655   0.35877   0.36069
 Alpha virt. eigenvalues --    0.36262   0.36369   0.36453   0.36740   0.36874
 Alpha virt. eigenvalues --    0.37035   0.37190   0.37287   0.37393   0.37633
 Alpha virt. eigenvalues --    0.37716   0.37777   0.38070   0.38275   0.38554
 Alpha virt. eigenvalues --    0.38696   0.38835   0.38967   0.39213   0.39307
 Alpha virt. eigenvalues --    0.39666   0.39766   0.39901   0.40186   0.40246
 Alpha virt. eigenvalues --    0.40358   0.40653   0.40835   0.41007   0.41394
 Alpha virt. eigenvalues --    0.41470   0.41656   0.41796   0.41990   0.42091
 Alpha virt. eigenvalues --    0.42482   0.42641   0.42787   0.42972   0.43140
 Alpha virt. eigenvalues --    0.43417   0.43777   0.43860   0.44144   0.44402
 Alpha virt. eigenvalues --    0.44806   0.44932   0.45097   0.45339   0.45427
 Alpha virt. eigenvalues --    0.46023   0.46448   0.46543   0.46728   0.46997
 Alpha virt. eigenvalues --    0.47042   0.47638   0.47737   0.47983   0.48451
 Alpha virt. eigenvalues --    0.48995   0.49062   0.49514   0.49682   0.50050
 Alpha virt. eigenvalues --    0.50093   0.50611   0.50882   0.51389   0.51677
 Alpha virt. eigenvalues --    0.52199   0.52534   0.52731   0.53035   0.53517
 Alpha virt. eigenvalues --    0.53832   0.54326   0.54498   0.54831   0.55084
 Alpha virt. eigenvalues --    0.55232   0.55789   0.55996   0.56194   0.56666
 Alpha virt. eigenvalues --    0.57390   0.57890   0.58288   0.58950   0.59359
 Alpha virt. eigenvalues --    0.59979   0.60142   0.60753   0.60996   0.61156
 Alpha virt. eigenvalues --    0.61581   0.62314   0.62662   0.63219   0.63357
 Alpha virt. eigenvalues --    0.63759   0.64104   0.64374   0.64634   0.64797
 Alpha virt. eigenvalues --    0.65116   0.65153   0.65514   0.65990   0.66024
 Alpha virt. eigenvalues --    0.66166   0.66423   0.66525   0.66810   0.67008
 Alpha virt. eigenvalues --    0.67287   0.67728   0.67860   0.68099   0.68150
 Alpha virt. eigenvalues --    0.68497   0.68733   0.69096   0.69605   0.69926
 Alpha virt. eigenvalues --    0.70317   0.70427   0.70581   0.70696   0.71165
 Alpha virt. eigenvalues --    0.71378   0.71753   0.71993   0.72051   0.72371
 Alpha virt. eigenvalues --    0.72469   0.72541   0.73097   0.73188   0.73672
 Alpha virt. eigenvalues --    0.73751   0.74134   0.74257   0.74356   0.74820
 Alpha virt. eigenvalues --    0.75090   0.75278   0.75433   0.75471   0.75705
 Alpha virt. eigenvalues --    0.76319   0.76760   0.76834   0.77136   0.77565
 Alpha virt. eigenvalues --    0.77673   0.77908   0.78152   0.78579   0.78696
 Alpha virt. eigenvalues --    0.78868   0.78948   0.79308   0.79599   0.79724
 Alpha virt. eigenvalues --    0.80087   0.80280   0.80400   0.80517   0.80769
 Alpha virt. eigenvalues --    0.81525   0.81667   0.81725   0.82348   0.82502
 Alpha virt. eigenvalues --    0.82564   0.82986   0.83478   0.83674   0.83896
 Alpha virt. eigenvalues --    0.84002   0.84351   0.84747   0.85008   0.85142
 Alpha virt. eigenvalues --    0.85407   0.85760   0.86074   0.86155   0.86320
 Alpha virt. eigenvalues --    0.87115   0.87255   0.87610   0.87834   0.88058
 Alpha virt. eigenvalues --    0.88367   0.88753   0.88919   0.89759   0.89978
 Alpha virt. eigenvalues --    0.90185   0.90433   0.90750   0.91326   0.92223
 Alpha virt. eigenvalues --    0.92724   0.93124   0.93514   0.94514   0.94677
 Alpha virt. eigenvalues --    0.95233   0.95733   0.96052   0.96485   0.96711
 Alpha virt. eigenvalues --    0.96837   0.97066   0.97419   0.97740   0.98370
 Alpha virt. eigenvalues --    0.98655   0.99187   0.99599   0.99881   1.00165
 Alpha virt. eigenvalues --    1.00449   1.00842   1.00987   1.01423   1.01794
 Alpha virt. eigenvalues --    1.02055   1.02436   1.02861   1.03131   1.03423
 Alpha virt. eigenvalues --    1.03593   1.03953   1.04403   1.04544   1.04945
 Alpha virt. eigenvalues --    1.05033   1.05481   1.05747   1.06222   1.06630
 Alpha virt. eigenvalues --    1.06779   1.07255   1.07428   1.07692   1.08162
 Alpha virt. eigenvalues --    1.08287   1.08560   1.08933   1.09029   1.09417
 Alpha virt. eigenvalues --    1.09745   1.09867   1.10245   1.10884   1.11194
 Alpha virt. eigenvalues --    1.11423   1.11769   1.12026   1.12168   1.12441
 Alpha virt. eigenvalues --    1.12715   1.13122   1.13523   1.14530   1.14803
 Alpha virt. eigenvalues --    1.15060   1.15082   1.15654   1.15922   1.16273
 Alpha virt. eigenvalues --    1.16461   1.17239   1.17459   1.17727   1.17947
 Alpha virt. eigenvalues --    1.18302   1.18363   1.19361   1.19912   1.20146
 Alpha virt. eigenvalues --    1.20360   1.20738   1.20977   1.21692   1.22462
 Alpha virt. eigenvalues --    1.22561   1.23266   1.23474   1.23701   1.24524
 Alpha virt. eigenvalues --    1.24869   1.25301   1.26083   1.27095   1.27540
 Alpha virt. eigenvalues --    1.27948   1.28593   1.29345   1.30955   1.31379
 Alpha virt. eigenvalues --    1.33213   1.33678   1.34284   1.34850   1.35997
 Alpha virt. eigenvalues --    1.36340   1.36924   1.37026   1.38909   1.39217
 Alpha virt. eigenvalues --    1.40490   1.40833   1.41526   1.41747   1.42617
 Alpha virt. eigenvalues --    1.43445   1.44054   1.44629   1.44972   1.47008
 Alpha virt. eigenvalues --    1.47525   1.47911   1.48047   1.48875   1.50196
 Alpha virt. eigenvalues --    1.50510   1.50704   1.50764   1.50994   1.51653
 Alpha virt. eigenvalues --    1.52056   1.52959   1.53438   1.53643   1.54346
 Alpha virt. eigenvalues --    1.54562   1.55719   1.56001   1.56584   1.57259
 Alpha virt. eigenvalues --    1.57514   1.58285   1.58399   1.58766   1.59099
 Alpha virt. eigenvalues --    1.59411   1.59675   1.59882   1.60667   1.61059
 Alpha virt. eigenvalues --    1.61630   1.61776   1.62069   1.62243   1.62390
 Alpha virt. eigenvalues --    1.62575   1.62963   1.63059   1.63753   1.63954
 Alpha virt. eigenvalues --    1.64094   1.64251   1.64696   1.64930   1.65182
 Alpha virt. eigenvalues --    1.65345   1.65720   1.65946   1.66236   1.66654
 Alpha virt. eigenvalues --    1.66861   1.67115   1.67330   1.67469   1.67773
 Alpha virt. eigenvalues --    1.68116   1.68329   1.68818   1.69292   1.69509
 Alpha virt. eigenvalues --    1.69929   1.70122   1.70515   1.70817   1.71502
 Alpha virt. eigenvalues --    1.72038   1.72418   1.73088   1.73408   1.74302
 Alpha virt. eigenvalues --    1.74820   1.75051   1.75610   1.76744   1.77344
 Alpha virt. eigenvalues --    1.77703   1.78014   1.78273   1.79079   1.79351
 Alpha virt. eigenvalues --    1.79639   1.79955   1.80321   1.80624   1.81156
 Alpha virt. eigenvalues --    1.81378   1.82247   1.82709   1.82880   1.83113
 Alpha virt. eigenvalues --    1.83285   1.83549   1.83855   1.84129   1.84752
 Alpha virt. eigenvalues --    1.85334   1.86132   1.86482   1.86566   1.87183
 Alpha virt. eigenvalues --    1.87554   1.88043   1.88111   1.89104   1.89323
 Alpha virt. eigenvalues --    1.90018   1.90269   1.90996   1.91644   1.91971
 Alpha virt. eigenvalues --    1.92375   1.93440   1.93508   1.94175   1.94423
 Alpha virt. eigenvalues --    1.95924   1.96409   1.96681   1.97029   1.97331
 Alpha virt. eigenvalues --    1.97759   1.98226   1.98726   1.99291   1.99910
 Alpha virt. eigenvalues --    2.00295   2.00364   2.01077   2.01624   2.01790
 Alpha virt. eigenvalues --    2.02406   2.03269   2.03694   2.03849   2.04256
 Alpha virt. eigenvalues --    2.04479   2.04902   2.05541   2.05749   2.06047
 Alpha virt. eigenvalues --    2.06446   2.07097   2.07301   2.08060   2.08182
 Alpha virt. eigenvalues --    2.08530   2.08833   2.09812   2.09918   2.10677
 Alpha virt. eigenvalues --    2.10930   2.11101   2.11702   2.12469   2.13187
 Alpha virt. eigenvalues --    2.13839   2.14023   2.14307   2.14863   2.15728
 Alpha virt. eigenvalues --    2.16104   2.16363   2.16732   2.17042   2.17903
 Alpha virt. eigenvalues --    2.18136   2.18376   2.18734   2.19427   2.19670
 Alpha virt. eigenvalues --    2.20639   2.21279   2.22727   2.23100   2.23673
 Alpha virt. eigenvalues --    2.23726   2.24708   2.25376   2.25708   2.26284
 Alpha virt. eigenvalues --    2.26503   2.26931   2.27819   2.28062   2.28626
 Alpha virt. eigenvalues --    2.29054   2.29625   2.29862   2.30752   2.31426
 Alpha virt. eigenvalues --    2.32523   2.33811   2.34484   2.35014   2.35491
 Alpha virt. eigenvalues --    2.37192   2.38269   2.38537   2.38834   2.39444
 Alpha virt. eigenvalues --    2.40242   2.41238   2.41644   2.42485   2.43428
 Alpha virt. eigenvalues --    2.43692   2.44264   2.45412   2.46288   2.47117
 Alpha virt. eigenvalues --    2.47497   2.47768   2.48516   2.48925   2.49239
 Alpha virt. eigenvalues --    2.49633   2.50761   2.51671   2.53716   2.54148
 Alpha virt. eigenvalues --    2.54331   2.55094   2.55585   2.55906   2.56056
 Alpha virt. eigenvalues --    2.56547   2.57129   2.57731   2.58220   2.58591
 Alpha virt. eigenvalues --    2.59876   2.60248   2.60673   2.61398   2.62531
 Alpha virt. eigenvalues --    2.62974   2.63619   2.63745   2.64789   2.65439
 Alpha virt. eigenvalues --    2.66623   2.67077   2.67554   2.67979   2.68329
 Alpha virt. eigenvalues --    2.69380   2.69618   2.70278   2.70934   2.71676
 Alpha virt. eigenvalues --    2.72230   2.72650   2.73275   2.73969   2.74900
 Alpha virt. eigenvalues --    2.75447   2.76084   2.76210   2.76339   2.77461
 Alpha virt. eigenvalues --    2.78236   2.79241   2.79740   2.80112   2.80651
 Alpha virt. eigenvalues --    2.80957   2.80988   2.81703   2.81906   2.82102
 Alpha virt. eigenvalues --    2.82522   2.82741   2.83150   2.83594   2.83881
 Alpha virt. eigenvalues --    2.83975   2.84149   2.84821   2.85035   2.85510
 Alpha virt. eigenvalues --    2.85884   2.86605   2.87216   2.87648   2.88246
 Alpha virt. eigenvalues --    2.89011   2.89737   2.90302   2.90654   2.90917
 Alpha virt. eigenvalues --    2.90982   2.91547   2.91973   2.92906   2.93213
 Alpha virt. eigenvalues --    2.93744   2.94138   2.94821   2.95114   2.95769
 Alpha virt. eigenvalues --    2.96580   2.96737   2.97230   2.97403   2.97825
 Alpha virt. eigenvalues --    2.98206   2.98784   2.99178   3.00263   3.00624
 Alpha virt. eigenvalues --    3.01118   3.01528   3.01826   3.02598   3.03151
 Alpha virt. eigenvalues --    3.03242   3.04123   3.04470   3.05195   3.06165
 Alpha virt. eigenvalues --    3.06426   3.06861   3.07203   3.07641   3.07986
 Alpha virt. eigenvalues --    3.08981   3.09636   3.10209   3.10654   3.10888
 Alpha virt. eigenvalues --    3.11613   3.13360   3.13806   3.14972   3.15821
 Alpha virt. eigenvalues --    3.17615   3.18620   3.20795   3.21583   3.21811
 Alpha virt. eigenvalues --    3.21950   3.22419   3.22524   3.22986   3.23217
 Alpha virt. eigenvalues --    3.23861   3.24189   3.25978   3.27809   3.28273
 Alpha virt. eigenvalues --    3.29376   3.30576   3.31526   3.32082   3.32647
 Alpha virt. eigenvalues --    3.32867   3.32950   3.35362   3.35567   3.36129
 Alpha virt. eigenvalues --    3.37225   3.38387   3.39367   3.39982   3.40403
 Alpha virt. eigenvalues --    3.41525   3.42256   3.43700   3.45463   3.46772
 Alpha virt. eigenvalues --    3.48973   3.50216   3.50636   3.51222   3.53295
 Alpha virt. eigenvalues --    3.54861   3.58026   3.59842   3.59983   3.61012
 Alpha virt. eigenvalues --    3.62263   3.63119   3.63427   3.64165   3.64938
 Alpha virt. eigenvalues --    3.65568   3.66402   3.67730   3.68452   3.69326
 Alpha virt. eigenvalues --    3.73906   3.74908   3.75769   3.77394   3.77914
 Alpha virt. eigenvalues --    3.78144   3.78722   3.79142   3.79894   3.80411
 Alpha virt. eigenvalues --    3.81114   3.81171   3.81909   3.83812   3.85017
 Alpha virt. eigenvalues --    3.86726   3.87626   3.88118   3.89657   3.90590
 Alpha virt. eigenvalues --    3.91843   3.92027   3.93166   3.93849   3.95622
 Alpha virt. eigenvalues --    3.97375   4.02340   4.03149   4.05411   4.07719
 Alpha virt. eigenvalues --    4.08690   4.09187   4.11367   4.12259   4.12586
 Alpha virt. eigenvalues --    4.16253   4.16910   4.18652   4.25854   4.28252
 Alpha virt. eigenvalues --    4.29942   4.30318   4.30505   4.31272   4.31901
 Alpha virt. eigenvalues --    4.34380   4.37927   4.38781   4.42943   4.45494
 Alpha virt. eigenvalues --    4.52522   4.55531   4.77182   4.80197   4.91333
 Alpha virt. eigenvalues --    4.94271   4.94889   4.96336   4.98786   5.01500
 Alpha virt. eigenvalues --    5.16949   5.17319   5.20180   5.21484   5.26505
 Alpha virt. eigenvalues --    5.28590   5.39014   5.40327   5.66025   5.72063
 Alpha virt. eigenvalues --    5.86912   5.89748   5.95287   5.95658  23.73572
 Alpha virt. eigenvalues --   23.75617  23.81886  23.82909  23.96136  23.96794
 Alpha virt. eigenvalues --   24.01197  24.02681  24.03964  24.04056  24.05001
 Alpha virt. eigenvalues --   24.05719  24.07009  24.07081  24.07287  24.07988
 Alpha virt. eigenvalues --   24.08752  24.09897  24.10214  24.10321  24.11444
 Alpha virt. eigenvalues --   24.11938  24.13655  24.14461  24.15885  24.17818
 Alpha virt. eigenvalues --   24.22388  24.23886  24.25032  24.27011  24.27321
 Alpha virt. eigenvalues --   24.29653  24.29840  24.30246  24.32217  24.33100
 Alpha virt. eigenvalues --   35.72998  35.76241  50.13524  50.15206  50.18423
 Alpha virt. eigenvalues --   50.19636
          Condensed to atoms (all electrons):
 Mulliken charges:
               1
     1  H    0.201045
     2  C   -0.160002
     3  C   -0.207557
     4  C    0.434338
     5  H    0.212586
     6  C   -0.535937
     7  C   -0.089059
     8  C   -0.207167
     9  C   -0.294526
    10  N    0.081360
    11  C   -0.134963
    12  H    0.297193
    13  H    0.215600
    14  H    0.214712
    15  C   -0.363943
    16  C   -0.371675
    17  C   -0.189297
    18  H   -0.075807
    19  H    0.176255
    20  H    0.164505
    21  H    0.181357
    22  H    0.163982
    23  H    0.184347
    24  H    0.176211
    25  C    0.586799
    26  O   -0.241931
    27  C   -0.518702
    28  C    0.086182
    29  H    0.446639
    30  C    0.141841
    31  H    0.090649
    32  O   -0.220956
    33  C    0.043288
    34  C   -0.471259
    35  C   -0.779049
    36  H    0.135563
    37  H    0.186989
    38  H    0.178719
    39  H    0.161358
    40  H    0.238334
    41  N    0.252390
    42  C   -0.322741
    43  C   -0.799986
    44  C    0.230755
    45  H    0.163736
    46  H    0.158121
    47  H    0.181589
    48  H    0.138037
    49  H    0.274143
    50  H    0.241634
    51  C   -0.048259
    52  C   -0.470306
    53  C   -0.462306
    54  H    0.031509
    55  C   -0.483388
    56  H    0.173388
    57  C    0.629442
    58  H   -0.283859
    59  H    0.207825
    60  C    0.203365
    61  C    0.119866
    62  H    0.258337
    63  C   -0.363281
    64  H    0.051688
    65  O   -0.342059
    66  C    0.891226
    67  H    0.394658
    68  C   -0.236872
    69  C   -0.074308
    70  O   -0.351095
    71  C   -0.405084
    72  C    0.026002
    73  H   -0.246666
    74  C   -0.227092
    75  H    0.232029
    76  C   -0.530380
    77  H    0.211947
    78  H    0.190696
    79  H    0.162656
    80  H    0.084620
 Sum of Mulliken charges =   0.00000
 Mulliken charges with hydrogens summed into heavy atoms:
               1
     2  C    0.041042
     3  C    0.005030
     4  C    0.434338
     6  C   -0.535937
     7  C    0.208134
     8  C    0.008433
     9  C   -0.079815
    10  N    0.081360
    11  C   -0.210771
    15  C    0.158174
    16  C    0.152865
    17  C   -0.189297
    25  C    0.586799
    26  O   -0.241931
    27  C   -0.428054
    28  C    0.086182
    30  C    0.141841
    32  O    0.225683
    33  C    0.178851
    34  C    0.055807
    35  C   -0.540714
    41  N    0.252390
    42  C    0.180705
    43  C   -0.146172
    44  C    0.230755
    51  C   -0.016749
    52  C   -0.296918
    53  C   -0.746165
    55  C   -0.275563
    57  C    0.629442
    60  C    0.461702
    61  C    0.171555
    63  C   -0.363281
    65  O   -0.342059
    66  C    0.891226
    68  C   -0.236872
    69  C   -0.320974
    70  O    0.043564
    71  C   -0.173055
    72  C    0.026002
    74  C   -0.015146
    76  C   -0.092408
 Electronic spatial extent (au):  <R**2>=          46088.7514
 Charge=              0.0000 electrons
 Dipole moment (field-independent basis, Debye):
    X=             -0.5767    Y=            -19.3924    Z=             -6.0302  Tot=             20.3165
 Quadrupole moment (field-independent basis, Debye-Ang):
   XX=           -255.0834   YY=           -270.0269   ZZ=           -224.0066
   XY=            -61.3903   XZ=            -14.1313   YZ=             -6.8945
 Traceless Quadrupole moment (field-independent basis, Debye-Ang):
   XX=             -5.3778   YY=            -20.3212   ZZ=             25.6990
   XY=            -61.3903   XZ=            -14.1313   YZ=             -6.8945
 Octapole moment (field-independent basis, Debye-Ang**2):
  XXX=          -2051.2564  YYY=          -1659.0300  ZZZ=          -1211.4501  XYY=           -902.3374
  XXY=           -393.9003  XXZ=           -524.0359  XZZ=           -596.3424  YZZ=           -280.1046
  YYZ=           -787.5761  XYZ=           -141.8075
 Hexadecapole moment (field-independent basis, Debye-Ang**3):
 XXXX=         -14491.6080 YYYY=         -32954.1621 ZZZZ=         -17331.1659 XXXY=          -4188.2080
 XXXZ=          -4019.3961 YYYX=          -7220.6202 YYYZ=          -7140.5392 ZZZX=          -3165.4308
 ZZZY=          -6201.3522 XXYY=          -8761.8608 XXZZ=          -5168.5492 YYZZ=          -8045.4972
 XXYZ=          -2892.3951 YYXZ=          -2399.8150 ZZXY=          -1656.7941
 N-N= 4.557387167965D+03 E-N=-1.331537757672D+04  KE= 1.796528168760D+03
 Leave Link  601 at Sat Nov  4 05:32:25 2017, MaxMem=  3758096384 cpu:         1.3
 (Enter /share/apps/gaussian/g09_D01/g09/l9999.exe)
 1\1\GINC-NXN33\SP\RwB97XD TD-FC\6-311++G(d,p)\C36H38N2O4\BTX008\04-Nov
 -2017\0\\#p wb97xd 6-311++G** td=(nstates=4) nosymm\\Title\\0,1\H,0,-0
 .511118,-2.858447,-1.27793\C,0,0.184268,-3.640208,-0.973811\C,0,0.2691
 03,-4.798855,-1.718\C,0,0.976718,-3.420993,0.178919\H,0,-0.359864,-4.9
 1372,-2.598454\C,0,1.170762,-5.834385,-1.34135\C,0,0.878808,-2.180322,
 0.88254\C,0,1.861141,-4.464382,0.551623\C,0,1.961142,-5.628701,-0.1724
 07\N,0,1.27814,-6.976522,-2.06582\C,0,1.585681,-1.821645,1.999082\H,0,
 0.182215,-1.444266,0.466766\H,0,2.487573,-4.353397,1.436169\H,0,2.6575
 2,-6.395843,0.157913\C,0,0.460908,-7.174323,-3.253037\C,0,2.211841,-8.
 018129,-1.656186\C,0,1.467449,-0.532362,2.622715\H,0,2.2896,-2.528565,
 2.433749\H,0,-0.610241,-7.095578,-3.016782\H,0,0.65337,-8.170357,-3.66
 1002\H,0,0.696525,-6.431926,-4.031589\H,0,2.180453,-8.834703,-2.384121
 \H,0,1.948639,-8.420379,-0.666002\H,0,3.242108,-7.631529,-1.609305\C,0
 ,2.245913,-0.228357,3.839616\O,0,0.715061,0.388406,2.136689\C,0,2.9125
 81,-1.218549,4.58863\C,0,2.338798,1.120413,4.28606\H,0,1.138895,1.5907
 39,2.91642\C,0,3.649563,-0.927219,5.72879\H,0,2.857368,-2.258838,4.272
 261\O,0,1.699561,2.112082,3.625623\C,0,3.117416,1.42905,5.412007\C,0,4
 .327222,-2.023253,6.505795\C,0,3.752856,0.421359,6.122356\H,0,3.203047
 ,2.471438,5.719167\H,0,3.902137,-2.120887,7.51775\H,0,5.397803,-1.8124
 39,6.636276\H,0,4.22994,-2.986328,5.98728\H,0,4.342342,0.675414,7.0060
 38\N,0,4.09686,-0.396522,-2.06582\C,0,4.914092,-0.594323,-3.253037\C,0
 ,3.163159,-1.438129,-1.656186\C,0,4.204238,0.745615,-1.34135\H,0,5.985
 241,-0.515578,-3.016782\H,0,4.72163,-1.590357,-3.661002\H,0,4.678475,0
 .148074,-4.031589\H,0,3.194547,-2.254703,-2.384121\H,0,3.426361,-1.840
 379,-0.666002\H,0,2.132892,-1.051529,-1.609305\C,0,3.413868,0.951299,-
 0.172407\C,0,5.105907,1.781145,-1.718\C,0,3.513859,2.115618,0.551623\H
 ,0,2.71748,0.184157,0.157913\C,0,5.190742,2.939792,-0.973811\H,0,5.734
 864,1.66628,-2.598454\C,0,4.398282,3.159007,0.178919\H,0,2.887427,2.22
 6603,1.436169\H,0,5.886118,3.721553,-1.27793\C,0,4.496192,4.399678,0.8
 8254\C,0,3.789319,4.758355,1.999082\H,0,5.192785,5.135733,0.466766\C,0
 ,3.907551,6.047638,2.622715\H,0,3.0854,4.051435,2.433749\O,0,4.659939,
 6.968406,2.136689\C,0,3.129087,6.351643,3.839616\H,0,4.236105,8.170739
 ,2.91642\C,0,3.036202,7.700413,4.28606\C,0,2.462429,5.361451,4.58863\O
 ,0,3.675449,8.692082,3.625623\C,0,2.257594,8.00905,5.412007\C,0,1.7254
 37,5.652781,5.72879\H,0,2.517632,4.321162,4.272261\C,0,1.622154,7.0013
 59,6.122356\H,0,2.171953,9.051438,5.719167\C,0,1.047788,4.556747,6.505
 795\H,0,1.032658,7.255414,7.006038\H,0,1.472863,4.459112,7.51775\H,0,-
 0.022793,4.767561,6.636276\H,0,1.14507,3.593672,5.98728\\Version=ES64L
 -G09RevD.01\HF=-1804.9729115\RMSD=4.150e-09\PG=C01 [X(C36H38N2O4)]\\@


  ON THE CHOICE OF THE CORRECT LANGUAGE -
 I SPEAK SPANISH TO GOD, ITALIAN TO WOMEN,
 FRENCH TO MEN, AND GERMAN TO MY HORSE.
          -- CHARLES V
 Job cpu time:       1 days  2 hours 40 minutes 32.9 seconds.
 File lengths (MBytes):  RWF=   2039 Int=      0 D2E=      0 Chk=    233 Scr=      1
 Normal termination of Gaussian 09 at Sat Nov  4 05:32:27 2017.
