 Entering Gaussian System, Link 0=g09
 Input=2hc_4_664-mega_dimer_0_mon-0.com
 Output=2hc_4_664-mega_dimer_0_mon-0.out
 Initial command:
 /share/apps/gaussian/g09_D01/g09/l1.exe "/tmp/160967.1.all.q/Gau-28043.inp" -scrdir="/tmp/160967.1.all.q/"
 Entering Link 1 = /share/apps/gaussian/g09_D01/g09/l1.exe PID=     28065.
  
 Copyright (c) 1988,1990,1992,1993,1995,1998,2003,2009,2013,
            Gaussian, Inc.  All Rights Reserved.
  
 This is part of the Gaussian(R) 09 program.  It is based on
 the Gaussian(R) 03 system (copyright 2003, Gaussian, Inc.),
 the Gaussian(R) 98 system (copyright 1998, Gaussian, Inc.),
 the Gaussian(R) 94 system (copyright 1995, Gaussian, Inc.),
 the Gaussian 92(TM) system (copyright 1992, Gaussian, Inc.),
 the Gaussian 90(TM) system (copyright 1990, Gaussian, Inc.),
 the Gaussian 88(TM) system (copyright 1988, Gaussian, Inc.),
 the Gaussian 86(TM) system (copyright 1986, Carnegie Mellon
 University), and the Gaussian 82(TM) system (copyright 1983,
 Carnegie Mellon University). Gaussian is a federally registered
 trademark of Gaussian, Inc.
  
 This software contains proprietary and confidential information,
 including trade secrets, belonging to Gaussian, Inc.
  
 This software is provided under written license and may be
 used, copied, transmitted, or stored only in accord with that
 written license.
  
 The following legend is applicable only to US Government
 contracts under FAR:
  
                    RESTRICTED RIGHTS LEGEND
  
 Use, reproduction and disclosure by the US Government is
 subject to restrictions as set forth in subparagraphs (a)
 and (c) of the Commercial Computer Software - Restricted
 Rights clause in FAR 52.227-19.
  
 Gaussian, Inc.
 340 Quinnipiac St., Bldg. 40, Wallingford CT 06492
  
  
 ---------------------------------------------------------------
 Warning -- This program may not be used in any manner that
 competes with the business of Gaussian, Inc. or will provide
 assistance to any competitor of Gaussian, Inc.  The licensee
 of this program is prohibited from giving any competitor of
 Gaussian, Inc. access to this program.  By using this program,
 the user acknowledges that Gaussian, Inc. is engaged in the
 business of creating and licensing software in the field of
 computational chemistry and represents and warrants to the
 licensee that it is not a competitor of Gaussian, Inc. and that
 it will not use this program in any manner prohibited above.
 ---------------------------------------------------------------
  

 Cite this work as:
 Gaussian 09, Revision D.01,
 M. J. Frisch, G. W. Trucks, H. B. Schlegel, G. E. Scuseria, 
 M. A. Robb, J. R. Cheeseman, G. Scalmani, V. Barone, B. Mennucci, 
 G. A. Petersson, H. Nakatsuji, M. Caricato, X. Li, H. P. Hratchian, 
 A. F. Izmaylov, J. Bloino, G. Zheng, J. L. Sonnenberg, M. Hada, 
 M. Ehara, K. Toyota, R. Fukuda, J. Hasegawa, M. Ishida, T. Nakajima, 
 Y. Honda, O. Kitao, H. Nakai, T. Vreven, J. A. Montgomery, Jr., 
 J. E. Peralta, F. Ogliaro, M. Bearpark, J. J. Heyd, E. Brothers, 
 K. N. Kudin, V. N. Staroverov, T. Keith, R. Kobayashi, J. Normand, 
 K. Raghavachari, A. Rendell, J. C. Burant, S. S. Iyengar, J. Tomasi, 
 M. Cossi, N. Rega, J. M. Millam, M. Klene, J. E. Knox, J. B. Cross, 
 V. Bakken, C. Adamo, J. Jaramillo, R. Gomperts, R. E. Stratmann, 
 O. Yazyev, A. J. Austin, R. Cammi, C. Pomelli, J. W. Ochterski, 
 R. L. Martin, K. Morokuma, V. G. Zakrzewski, G. A. Voth, 
 P. Salvador, J. J. Dannenberg, S. Dapprich, A. D. Daniels, 
 O. Farkas, J. B. Foresman, J. V. Ortiz, J. Cioslowski, 
 and D. J. Fox, Gaussian, Inc., Wallingford CT, 2013.
 
 ******************************************
 Gaussian 09:  ES64L-G09RevD.01 24-Apr-2013
                 3-Nov-2017 
 ******************************************
 %chk=2hc_4_664-mega_dimer_0_mon-0.chk
 %nproc=4
 Will use up to    4 processors via shared memory.
 %mem=28GB
 ------------------------------------------
 #p wb97xd 6-311++G** td=(nstates=4) nosymm
 ------------------------------------------
 1/38=1/1;
 2/12=2,15=1,17=6,18=5,40=1/2;
 3/5=4,6=6,7=1111,11=9,16=1,25=1,30=1,74=-58/1,2,8,3;
 4//1;
 5/5=2,38=5/2;
 8/6=1,10=2,108=4/1;
 9/41=4,42=1,70=2/14;
 6/7=2,8=2,9=2,10=2/1;
 99/5=1,9=1/99;
 Leave Link    1 at Fri Nov  3 13:11:18 2017, MaxMem=  3758096384 cpu:         0.3
 (Enter /share/apps/gaussian/g09_D01/g09/l101.exe)
 -----
 Title
 -----
 Symbolic Z-matrix:
 Charge =  0 Multiplicity = 1
 H                    -0.51112  -2.85845  -1.27793 
 C                     0.18427  -3.64021  -0.97381 
 C                     0.2691   -4.79886  -1.718 
 C                     0.97672  -3.42099   0.17892 
 H                    -0.35986  -4.91372  -2.59845 
 C                     1.17076  -5.83439  -1.34135 
 C                     0.87881  -2.18032   0.88254 
 C                     1.86114  -4.46438   0.55162 
 C                     1.96114  -5.6287   -0.17241 
 N                     1.27814  -6.97652  -2.06582 
 C                     1.58568  -1.82165   1.99908 
 H                     0.18222  -1.44427   0.46677 
 H                     2.48757  -4.3534    1.43617 
 H                     2.65752  -6.39584   0.15791 
 C                     0.46091  -7.17432  -3.25304 
 C                     2.21184  -8.01813  -1.65619 
 C                     1.46745  -0.53236   2.62272 
 H                     2.2896   -2.52857   2.43375 
 H                    -0.61024  -7.09558  -3.01678 
 H                     0.65337  -8.17036  -3.661 
 H                     0.69653  -6.43193  -4.03159 
 H                     2.18045  -8.8347   -2.38412 
 H                     1.94864  -8.42038  -0.666 
 H                     3.24211  -7.63153  -1.60931 
 C                     2.24591  -0.22836   3.83962 
 O                     0.71506   0.38841   2.13669 
 C                     2.91258  -1.21855   4.58863 
 C                     2.3388    1.12041   4.28606 
 H                     1.13889   1.59074   2.91642 
 C                     3.64956  -0.92722   5.72879 
 H                     2.85737  -2.25884   4.27226 
 O                     1.69956   2.11208   3.62562 
 C                     3.11742   1.42905   5.41201 
 C                     4.32722  -2.02325   6.50579 
 C                     3.75286   0.42136   6.12236 
 H                     3.20305   2.47144   5.71917 
 H                     3.90214  -2.12089   7.51775 
 H                     5.3978   -1.81244   6.63628 
 H                     4.22994  -2.98633   5.98728 
 H                     4.34234   0.67541   7.00604 
 
 NAtoms=     40 NQM=       40 NQMF=       0 NMMI=      0 NMMIF=      0
                NMic=       0 NMicF=      0.
                    Isotopes and Nuclear Properties:
 (Nuclear quadrupole moments (NQMom) in fm**2, nuclear magnetic moments (NMagM)
  in nuclear magnetons)

  Atom         1           2           3           4           5           6           7           8           9          10
 IAtWgt=           1          12          12          12           1          12          12          12          12          14
 AtmWgt=   1.0078250  12.0000000  12.0000000  12.0000000   1.0078250  12.0000000  12.0000000  12.0000000  12.0000000  14.0030740
 NucSpn=           1           0           0           0           1           0           0           0           0           2
 AtZEff=   0.0000000   0.0000000   0.0000000   0.0000000   0.0000000   0.0000000   0.0000000   0.0000000   0.0000000   0.0000000
 NQMom=    0.0000000   0.0000000   0.0000000   0.0000000   0.0000000   0.0000000   0.0000000   0.0000000   0.0000000   2.0440000
 NMagM=    2.7928460   0.0000000   0.0000000   0.0000000   2.7928460   0.0000000   0.0000000   0.0000000   0.0000000   0.4037610
 AtZNuc=   1.0000000   6.0000000   6.0000000   6.0000000   1.0000000   6.0000000   6.0000000   6.0000000   6.0000000   7.0000000

  Atom        11          12          13          14          15          16          17          18          19          20
 IAtWgt=          12           1           1           1          12          12          12           1           1           1
 AtmWgt=  12.0000000   1.0078250   1.0078250   1.0078250  12.0000000  12.0000000  12.0000000   1.0078250   1.0078250   1.0078250
 NucSpn=           0           1           1           1           0           0           0           1           1           1
 AtZEff=   0.0000000   0.0000000   0.0000000   0.0000000   0.0000000   0.0000000   0.0000000   0.0000000   0.0000000   0.0000000
 NQMom=    0.0000000   0.0000000   0.0000000   0.0000000   0.0000000   0.0000000   0.0000000   0.0000000   0.0000000   0.0000000
 NMagM=    0.0000000   2.7928460   2.7928460   2.7928460   0.0000000   0.0000000   0.0000000   2.7928460   2.7928460   2.7928460
 AtZNuc=   6.0000000   1.0000000   1.0000000   1.0000000   6.0000000   6.0000000   6.0000000   1.0000000   1.0000000   1.0000000

  Atom        21          22          23          24          25          26          27          28          29          30
 IAtWgt=           1           1           1           1          12          16          12          12           1          12
 AtmWgt=   1.0078250   1.0078250   1.0078250   1.0078250  12.0000000  15.9949146  12.0000000  12.0000000   1.0078250  12.0000000
 NucSpn=           1           1           1           1           0           0           0           0           1           0
 AtZEff=   0.0000000   0.0000000   0.0000000   0.0000000   0.0000000   0.0000000   0.0000000   0.0000000   0.0000000   0.0000000
 NQMom=    0.0000000   0.0000000   0.0000000   0.0000000   0.0000000   0.0000000   0.0000000   0.0000000   0.0000000   0.0000000
 NMagM=    2.7928460   2.7928460   2.7928460   2.7928460   0.0000000   0.0000000   0.0000000   0.0000000   2.7928460   0.0000000
 AtZNuc=   1.0000000   1.0000000   1.0000000   1.0000000   6.0000000   8.0000000   6.0000000   6.0000000   1.0000000   6.0000000

  Atom        31          32          33          34          35          36          37          38          39          40
 IAtWgt=           1          16          12          12          12           1           1           1           1           1
 AtmWgt=   1.0078250  15.9949146  12.0000000  12.0000000  12.0000000   1.0078250   1.0078250   1.0078250   1.0078250   1.0078250
 NucSpn=           1           0           0           0           0           1           1           1           1           1
 AtZEff=   0.0000000   0.0000000   0.0000000   0.0000000   0.0000000   0.0000000   0.0000000   0.0000000   0.0000000   0.0000000
 NQMom=    0.0000000   0.0000000   0.0000000   0.0000000   0.0000000   0.0000000   0.0000000   0.0000000   0.0000000   0.0000000
 NMagM=    2.7928460   0.0000000   0.0000000   0.0000000   0.0000000   2.7928460   2.7928460   2.7928460   2.7928460   2.7928460
 AtZNuc=   1.0000000   8.0000000   6.0000000   6.0000000   6.0000000   1.0000000   1.0000000   1.0000000   1.0000000   1.0000000
 Leave Link  101 at Fri Nov  3 13:11:18 2017, MaxMem=  3758096384 cpu:         0.2
 (Enter /share/apps/gaussian/g09_D01/g09/l202.exe)
                          Input orientation:                          
 ---------------------------------------------------------------------
 Center     Atomic      Atomic             Coordinates (Angstroms)
 Number     Number       Type             X           Y           Z
 ---------------------------------------------------------------------
      1          1           0       -0.511118   -2.858447   -1.277930
      2          6           0        0.184268   -3.640208   -0.973811
      3          6           0        0.269103   -4.798855   -1.718000
      4          6           0        0.976718   -3.420993    0.178919
      5          1           0       -0.359864   -4.913720   -2.598454
      6          6           0        1.170762   -5.834385   -1.341350
      7          6           0        0.878808   -2.180322    0.882540
      8          6           0        1.861141   -4.464382    0.551623
      9          6           0        1.961142   -5.628701   -0.172407
     10          7           0        1.278140   -6.976522   -2.065820
     11          6           0        1.585681   -1.821645    1.999082
     12          1           0        0.182215   -1.444266    0.466766
     13          1           0        2.487573   -4.353397    1.436169
     14          1           0        2.657520   -6.395843    0.157913
     15          6           0        0.460908   -7.174323   -3.253037
     16          6           0        2.211841   -8.018129   -1.656186
     17          6           0        1.467449   -0.532362    2.622715
     18          1           0        2.289600   -2.528565    2.433749
     19          1           0       -0.610241   -7.095578   -3.016782
     20          1           0        0.653370   -8.170357   -3.661002
     21          1           0        0.696525   -6.431926   -4.031589
     22          1           0        2.180453   -8.834703   -2.384121
     23          1           0        1.948639   -8.420379   -0.666002
     24          1           0        3.242108   -7.631529   -1.609305
     25          6           0        2.245913   -0.228357    3.839616
     26          8           0        0.715061    0.388406    2.136689
     27          6           0        2.912581   -1.218549    4.588630
     28          6           0        2.338798    1.120413    4.286060
     29          1           0        1.138895    1.590739    2.916420
     30          6           0        3.649563   -0.927219    5.728790
     31          1           0        2.857368   -2.258838    4.272261
     32          8           0        1.699561    2.112082    3.625623
     33          6           0        3.117416    1.429050    5.412007
     34          6           0        4.327222   -2.023253    6.505795
     35          6           0        3.752856    0.421359    6.122356
     36          1           0        3.203047    2.471438    5.719167
     37          1           0        3.902137   -2.120887    7.517750
     38          1           0        5.397803   -1.812439    6.636276
     39          1           0        4.229940   -2.986328    5.987280
     40          1           0        4.342342    0.675414    7.006038
 ---------------------------------------------------------------------
                    Distance matrix (angstroms):
                    1          2          3          4          5
     1  H    0.000000
     2  C    1.089587   0.000000
     3  C    2.137192   1.379666   0.000000
     4  C    2.156971   1.415916   2.448984   0.000000
     5  H    2.447613   2.134801   1.088114   3.424688   0.000000
     6  C    3.418911   2.433653   1.423790   2.858904   2.184205
     7  C    2.656949   2.461644   3.740490   1.429662   4.595987
     8  C    3.399103   2.412077   2.792426   1.417665   3.880432
     9  C    3.874088   2.784535   2.437314   2.442641   3.432779
    10  N    4.558592   3.676959   2.425153   4.215625   2.687361
    11  C    4.026206   3.756225   4.941038   2.498348   5.872258
    12  H    2.350443   2.626295   4.004250   2.149777   4.661173
    13  H    4.312001   3.409084   3.881858   2.175486   4.969914
    14  H    4.961359   3.871860   3.431320   3.416909   4.347281
    15  C    4.844860   4.214424   2.834780   5.111934   2.492483
    16  C    5.846358   4.872667   3.760555   5.101647   4.139914
    17  C    4.953830   4.923440   6.203290   3.815383   7.056626
    18  H    4.661481   4.156878   5.145255   2.757598   6.166984
    19  H    4.581125   4.092011   2.781190   5.121867   2.235664
    20  H    5.937293   5.288034   3.910236   6.116045   3.572301
    21  H    4.670203   4.172062   2.863967   5.183879   2.339825
    22  H    6.647093   5.740776   4.514980   6.109534   4.676885
    23  H    6.112278   5.104683   4.128314   5.162595   4.621711
    24  H    6.081022   5.068025   4.107872   5.104738   4.619427
    25  C    6.380272   6.249815   7.462193   5.020407   8.378034
    26  O    4.868798   5.117292   6.478054   4.291020   7.189547
    27  C    6.987668   6.651983   7.718818   5.295647   8.718794
    28  C    7.410218   7.414294   8.681596   6.272817   9.544112
    29  H    6.333275   6.588476   7.941114   5.712939   8.658412
    30  C    8.374666   8.018319   9.048301   6.645606  10.065321
    31  H    6.520034   6.047720   7.002430   4.652193   8.037767
    32  O    7.323803   7.519292   8.852207   6.558749   9.609488
    33  C    8.735224   8.664837   9.886187   7.449209  10.793039
    34  C    9.202905   8.701903   9.581393   7.294444  10.640062
    35  C    9.148925   8.921140  10.042826   7.602306  11.019531
    36  H    9.547883   9.553073  10.806324   8.388780  11.679799
    37  H    9.868374   9.393481  10.279568   8.006672  11.327054
    38  H    9.931975   9.403994  10.247740   7.989424  11.315870
    39  H    8.676247   8.077859   8.851261   6.671540   9.924514
    40  H   10.230756   9.979587  11.075547   8.643930  12.066293
                    6          7          8          9         10
     6  C    0.000000
     7  C    4.287552   0.000000
     8  C    2.436571   2.508269   0.000000
     9  C    1.425985   3.765060   1.374721   0.000000
    10  N    1.356784   5.644097   3.674472   2.422422   0.000000
    11  C    5.237626   1.369301   3.025735   4.398865   6.571968
    12  H    4.849707   1.095394   3.456457   4.591581   6.182305
    13  H    3.412027   2.759870   1.089567   2.119209   4.539542
    14  H    2.184828   4.632442   2.125975   1.087456   2.680460
    15  C    2.440056   6.497514   4.876461   3.758980   1.454812
    16  C    2.439612   6.504006   4.198396   2.823795   1.457581
    17  C    6.626710   2.467890   4.461524   5.833448   7.971537
    18  H    5.141169   2.125525   2.733745   4.063346   6.407300
    19  H    2.751300   6.448389   5.075868   4.105388   2.117660
    20  H    3.332453   7.521643   5.739266   4.510053   2.088106
    21  H    2.796309   6.500617   5.121854   4.139772   2.121110
    22  H    3.332980   7.526363   5.274491   3.901054   2.090053
    23  H    2.783622   6.517732   4.140070   2.835006   2.119854
    24  H    2.755359   6.442836   4.075230   2.777925   2.120050
    25  C    7.708820   3.797821   5.376138   6.733583   9.019340
    26  O    7.143357   2.863227   5.232159   6.564314   8.498253
    27  C    7.713918   4.335475   5.285677   6.559127   8.950271
    28  C    9.022265   4.960884   6.735288   8.097598  10.345614
    29  H    8.559328   4.292460   6.540519   7.895395   9.911613
    30  C    8.956094   5.721319   6.520202   7.731677  10.147594
    31  H    6.865989   3.925694   4.438473   5.649272   8.057405
    32  O    9.385989   5.159736   7.261230   8.626307  10.731861
    33  C   10.107165   6.209268   7.741712   9.073836  11.399758
    34  C    9.277158   6.598275   6.891504   7.949589  10.358782
    35  C   10.075140   6.518019   7.647360   8.912772  11.309248
    36  H   11.089084   7.101684   8.752704  10.092830  12.392548
    37  H    9.986698   7.291780   7.627880   8.672412  11.059266
    38  H    9.883645   7.325444   7.520890   8.528344  10.925468
    39  H    8.436754   6.159391   6.110828   7.076109   9.459767
    40  H   11.050579   7.592662   8.615877   9.845915  12.257245
                   11         12         13         14         15
    11  C    0.000000
    12  H    2.111901   0.000000
    13  H    2.745915   3.836334   0.000000
    14  H    5.045991   5.544424   2.415452   0.000000
    15  C    7.582943   6.837262   5.835550   4.131067   0.000000
    16  C    7.221459   7.200138   4.803014   2.474146   2.515494
    17  C    1.437062   2.670489   4.129026   6.470852   8.924866
    18  H    1.088197   3.079902   2.089108   4.502292   7.567478
    19  H    7.602324   6.685837   6.078222   4.609401   1.099717
    20  H    8.556395   7.905742   6.626812   4.663650   1.093417
    21  H    7.642924   6.736206   6.117558   4.625876   1.101277
    22  H    8.291514   8.169398   5.896698   3.554936   2.543366
    23  H    7.125847   7.284886   4.609763   2.297846   3.233999
    24  H    7.036971   7.207998   4.537663   2.234216   3.262816
    25  C    2.522308   4.136835   4.780263   7.194598  10.086546
    26  O    2.379336   2.535992   5.110501   7.329034   9.290243
    27  C    2.971556   4.949304   4.466085   6.819141  10.147595
    28  C    3.801731   5.080889   6.173055   8.581217  11.365170
    29  H    3.561670   4.015881   6.272386   8.584933  10.740027
    30  C    4.355494   6.322874   5.613868   7.869223  11.395922
    31  H    2.641149   4.722474   3.545045   5.838031   9.302426
    32  O    4.258264   4.992828   6.871469   9.237288  11.622717
    33  C    4.955935   6.428589   7.045614   9.436417  12.496321
    34  C    5.278935   7.347529   5.874946   7.886891  11.692592
    35  C    5.170020   6.943755   6.808787   9.124066  12.507170
    36  H    5.906392   7.214283   8.089150  10.481117  13.455871
    37  H    5.992596   8.000751   6.631042   8.601832  12.385036
    38  H    6.002993   8.087074   6.478196   8.395590  12.285001
    39  H    4.924867   7.016987   5.061357   6.933889  10.822586
    40  H    6.237314   8.035034   7.729977   9.986897  13.488236
                   16         17         18         19         20
    16  C    0.000000
    17  C    8.654468   0.000000
    18  H    6.846088   2.167133   0.000000
    19  H    3.265956   8.899243   7.679517   0.000000
    20  H    2.543874   9.924051   8.464813   1.779574   0.000000
    21  H    3.233382   8.926306   7.718466   1.782668   1.778016
    22  H    1.094380   9.721402   7.936697   3.348550   2.098515
    23  H    1.100702   8.559674   6.666197   3.718754   3.272653
    24  H    1.101412   8.453259   6.579802   4.136282   3.346843
    25  C    9.533391   1.476236   2.696169  10.115658  11.039512
    26  O    9.343237   1.284571   3.328083   9.182848  10.337768
    27  C    9.258674   2.534577   2.597645  10.236798  11.022164
    28  C   10.901346   2.501526   4.092495  11.381162  12.341591
    29  H   10.695339   2.168356   4.304156  10.663699  11.780374
    30  C   10.338565   3.816443   3.907826  11.518664  12.231452
    31  H    8.290514   2.762896   1.942998   9.410022  10.136090
    32  O   11.435957   2.837743   4.827454  11.586101  12.645868
    33  C   11.833368   3.788097   5.021754  12.554250  13.436504
    34  C   10.345594   5.047709   4.581354  11.865348  12.435748
    35  C   11.580389   4.287208   4.944592  12.612089  13.384263
    36  H   12.861156   4.650068   6.052139  13.505027  14.413057
    37  H   11.036107   5.693196   5.349163  12.493417  13.119263
    38  H   10.836322   5.761506   5.275888  12.537531  12.998719
    39  H    9.370929   4.997360   4.074561  11.017551  11.521951
    40  H   12.455956   5.379336   5.948534  13.615187  14.340220
                   21         22         23         24         25
    21  H    0.000000
    22  H    3.269485   0.000000
    23  H    4.104742   1.782508   0.000000
    24  H    3.713018   1.781875   1.784704   0.000000
    25  C   10.141042  10.621129   9.354047   9.246086   0.000000
    26  O    9.195919  10.375492   9.325850   9.205313   2.371469
    27  C   10.314959  10.351863   8.966978   8.924646   1.409237
    28  C   11.354214  11.984186  10.756480  10.590929   1.423770
    29  H   10.622320  11.741823  10.663579  10.485987   2.320967
    30  C   11.588237  11.423918   9.996697   9.947936   2.455121
    31  H    9.541375   9.381238   7.948385   7.975378   2.164235
    32  O   11.516903  12.497215  11.375976  11.167895   2.412871
    33  C   12.523464  12.922931  11.632690  11.463353   2.445185
    34  C   11.985609  11.403292   9.900280   9.923965   3.829100
    35  C   12.625818  12.669147  11.292180  11.175350   2.811389
    36  H   13.439858  13.947681  12.687616  12.481105   3.426034
    37  H   12.737670  12.086628  10.510640  10.682038   4.455717
    38  H   12.539738  11.875651  10.434791  10.319808   4.501670
    39  H   11.168478  10.415577   8.888161   8.958895   4.019357
    40  H   13.624811  13.538507  12.137688  12.018317   3.903594
                   26         27         28         29         30
    26  O    0.000000
    27  C    3.663798   0.000000
    28  C    2.791443   2.427245   0.000000
    29  H    1.494396   3.719455   1.880661   0.000000
    30  C    4.821344   1.388517   2.827078   4.533541   0.000000
    31  H    4.019707   1.088733   3.418836   4.428397   2.126560
    32  O    2.481375   3.673133   1.352113   1.043606   4.178896
    33  C    4.193084   2.780232   1.403303   3.188831   2.436295
    34  C    6.160592   2.514812   4.331707   6.009158   1.504742
    35  C    5.011469   2.397431   2.420789   4.298636   1.408626
    36  H    4.833554   3.870205   2.150812   3.590508   3.427877
    37  H    6.738681   3.220742   4.836721   6.525635   2.165413
    38  H    6.856973   3.274429   4.845890   6.599791   2.159511
    39  H    6.210496   2.610881   4.830723   6.319358   2.154898
    40  H    6.078659   3.387503   3.407417   5.274928   2.163270
                   31         32         33         34         35
    31  H    0.000000
    32  O    4.567669   0.000000
    33  C    3.868742   2.380759   0.000000
    34  C    2.684147   5.683396   3.818167   0.000000
    35  C    3.377604   3.648046   1.387019   2.540285   0.000000
    36  H    4.958683   2.602409   1.090070   4.699447   2.160480
    37  H    3.412297   6.157761   4.201428   1.101945   2.903864
    38  H    3.498807   6.175993   4.148042   1.098914   2.821315
    39  H    2.313976   6.162307   4.589576   1.098105   3.443572
    40  H    4.276508   4.524988   2.146939   2.744681   1.092214
                   36         37         38         39         40
    36  H    0.000000
    37  H    4.981273   0.000000
    38  H    4.899964   1.763279   0.000000
    39  H    5.560000   1.788514   1.778515   0.000000
    40  H    2.485907   2.876618   2.727661   3.802480   0.000000
 Symmetry turned off by external request.
 Stoichiometry    C18H19NO2
 Framework group  C1[X(C18H19NO2)]
 Deg. of freedom   114
 Full point group                 C1      NOp   1
 Rotational constants (GHZ):      0.7345787      0.1037181      0.0914774
 Leave Link  202 at Fri Nov  3 13:11:18 2017, MaxMem=  3758096384 cpu:         0.1
 (Enter /share/apps/gaussian/g09_D01/g09/l301.exe)
 Standard basis: 6-311++G(d,p) (5D, 7F)
 Ernie: Thresh=  0.10000D-02 Tol=  0.10000D-05 Strict=F.
   595 basis functions,   927 primitive gaussians,   616 cartesian basis functions
    75 alpha electrons       75 beta electrons
       nuclear repulsion energy      1481.1128483202 Hartrees.
 IExCor= 4639 DFT=T Ex+Corr=wB97XD ExCW=0 ScaHFX=  1.000000
 ScaDFX=  1.000000  1.000000  1.000000  1.000000 ScalE2=  1.000000  1.000000
 IRadAn=      0 IRanWt=     -1 IRanGd=            0 ICorTp=0 IEmpDi=121
  HFx wShort=  0.000000 wLong=  0.200000 cFull=  0.222036 cShort=  0.000000 cLong=  0.777964
  DFx wShort=  0.000000 wLong=  0.200000 cFull=  0.000000 cShort=  0.000000 cLong=  1.000000
 NAtoms=   40 NActive=   40 NUniq=   40 SFac= 1.00D+00 NAtFMM=   60 NAOKFM=F Big=F
 Integral buffers will be    131072 words long.
 Raffenetti 1 integral format.
 Two-electron integral symmetry is turned off.
 R6Disp:  Grimme-D2 Dispersion energy=       -0.0252868595 Hartrees.
 Nuclear repulsion after empirical dispersion term =     1481.0875614607 Hartrees.
 Leave Link  301 at Fri Nov  3 13:11:19 2017, MaxMem=  3758096384 cpu:         0.1
 (Enter /share/apps/gaussian/g09_D01/g09/l302.exe)
 NPDir=0 NMtPBC=     1 NCelOv=     1 NCel=       1 NClECP=     1 NCelD=      1
         NCelK=      1 NCelE2=     1 NClLst=     1 CellRange=     0.0.
 One-electron integrals computed using PRISM.
 NBasis=   595 RedAO= T EigKep=  1.22D-06  NBF=   595
 NBsUse=   588 1.00D-06 EigRej=  9.10D-07 NBFU=   588
 Precomputing XC quadrature grid using
 IXCGrd= 4 IRadAn=           0 IRanWt=          -1 IRanGd=           0 AccXCQ= 0.00D+00.
 Generated NRdTot=       0 NPtTot=           0 NUsed=           0 NTot=          32
 NSgBfM=   599   599   599   599   599 MxSgAt=    40 MxSgA2=    40.
 Leave Link  302 at Fri Nov  3 13:11:22 2017, MaxMem=  3758096384 cpu:         7.4
 (Enter /share/apps/gaussian/g09_D01/g09/l308.exe)
 Leave Link  308 at Fri Nov  3 13:11:23 2017, MaxMem=  3758096384 cpu:         0.9
 (Enter /share/apps/gaussian/g09_D01/g09/l303.exe)
 DipDrv:  MaxL=1.
 Leave Link  303 at Fri Nov  3 13:11:23 2017, MaxMem=  3758096384 cpu:         0.6
 (Enter /share/apps/gaussian/g09_D01/g09/l401.exe)
 ExpMin= 3.60D-02 ExpMax= 8.59D+03 ExpMxC= 1.30D+03 IAcc=3 IRadAn=         5 AccDes= 0.00D+00
 Harris functional with IExCor= 4639 and IRadAn=       5 diagonalized for initial guess.
 HarFok:  IExCor= 4639 AccDes= 0.00D+00 IRadAn=         5 IDoV= 1 UseB2=F ITyADJ=14
 ICtDFT=  3500011 ScaDFX=  1.000000  1.000000  1.000000  1.000000
 FoFCou: FMM=F IPFlag=           0 FMFlag=      100000 FMFlg1=           0
         NFxFlg=           0 DoJE=T BraDBF=F KetDBF=T FulRan=T
         wScrn=  0.000000 ICntrl=     500 IOpCl=  0 I1Cent=   200000004 NGrid=           0
         NMat0=    1 NMatS0=      1 NMatT0=    0 NMatD0=    1 NMtDS0=    0 NMtDT0=    0
 Symmetry not used in FoFCou.
 Harris En= -862.832452314543    
 JPrj=0 DoOrth=F DoCkMO=F.
 Leave Link  401 at Fri Nov  3 13:11:47 2017, MaxMem=  3758096384 cpu:        48.6
 (Enter /share/apps/gaussian/g09_D01/g09/l502.exe)
 Closed shell SCF:
 Using DIIS extrapolation, IDIIS=  1040.
 Two-electron integral symmetry not used.
 IVT=     1164390 IEndB=     1164390 NGot=  3758096384 MDV=  3757328707
 LenX=  3757328707 LenY=  3756948635
 Requested convergence on RMS density matrix=1.00D-08 within 128 cycles.
 Requested convergence on MAX density matrix=1.00D-06.
 Requested convergence on             energy=1.00D-06.
 No special actions if energy rises.
 Fock matrices will be formed incrementally for  20 cycles.

 Cycle   1  Pass 1  IDiag  1:
 FoFJK:  IHMeth= 1 ICntrl=       0 DoSepK=T KAlg= 0 I1Cent=   0 FoldK=F
 IRaf=         1 NMat=   1 IRICut=       1 DoRegI=T DoRafI=F ISym2E= 0.
 FoFCou: FMM=F IPFlag=           0 FMFlag=      100000 FMFlg1=           0
         NFxFlg=           0 DoJE=T BraDBF=F KetDBF=F FulRan=T
         wScrn=  0.000000 ICntrl=     500 IOpCl=  0 I1Cent=           0 NGrid=           0
         NMat0=    1 NMatS0=      1 NMatT0=    0 NMatD0=    1 NMtDS0=    0 NMtDT0=    0
 Symmetry not used in FoFCou.
 E= -902.178422048567    
 DIIS: error= 4.27D-02 at cycle   1 NSaved=   1.
 NSaved= 1 IEnMin= 1 EnMin= -902.178422048567     IErMin= 1 ErrMin= 4.27D-02
 ErrMax= 4.27D-02  0.00D+00 EMaxC= 1.00D-01 BMatC= 1.95D+00 BMatP= 1.95D+00
 IDIUse=3 WtCom= 5.73D-01 WtEn= 4.27D-01
 Coeff-Com:  0.100D+01
 Coeff-En:   0.100D+01
 Coeff:      0.100D+01
 Gap=     0.281 Goal=   None    Shift=    0.000
 GapD=    0.281 DampG=1.000 DampE=0.500 DampFc=0.5000 IDamp=-1.
 Damping current iteration by 5.00D-01
 RMSDP=2.77D-02 MaxDP=2.82D+00              OVMax= 1.98D-01

 Cycle   2  Pass 1  IDiag  1:
 RMSU=  4.08D-03    CP:  8.29D-01
 E= -902.311916294308     Delta-E=       -0.133494245742 Rises=F Damp=T
 DIIS: error= 1.96D-02 at cycle   2 NSaved=   2.
 NSaved= 2 IEnMin= 2 EnMin= -902.311916294308     IErMin= 2 ErrMin= 1.96D-02
 ErrMax= 1.96D-02  0.00D+00 EMaxC= 1.00D-01 BMatC= 4.13D-01 BMatP= 1.95D+00
 IDIUse=3 WtCom= 8.04D-01 WtEn= 1.96D-01
 Coeff-Com: -0.590D+00 0.159D+01
 Coeff-En:   0.000D+00 0.100D+01
 Coeff:     -0.474D+00 0.147D+01
 Gap=     0.275 Goal=   None    Shift=    0.000
 RMSDP=1.68D-02 MaxDP=1.71D+00 DE=-1.33D-01 OVMax= 2.35D-01

 Cycle   3  Pass 1  IDiag  1:
 RMSU=  4.69D-03    CP:  6.21D-01  1.05D+00
 E= -902.342154446256     Delta-E=       -0.030238151948 Rises=F Damp=F
 DIIS: error= 2.67D-02 at cycle   3 NSaved=   3.
 NSaved= 3 IEnMin= 3 EnMin= -902.342154446256     IErMin= 2 ErrMin= 1.96D-02
 ErrMax= 2.67D-02  0.00D+00 EMaxC= 1.00D-01 BMatC= 1.55D-01 BMatP= 4.13D-01
 IDIUse=3 WtCom= 7.33D-01 WtEn= 2.67D-01
 Coeff-Com: -0.396D+00 0.849D+00 0.547D+00
 Coeff-En:   0.000D+00 0.357D+00 0.643D+00
 Coeff:     -0.290D+00 0.718D+00 0.573D+00
 Gap=     0.275 Goal=   None    Shift=    0.000
 RMSDP=3.65D-03 MaxDP=2.88D-01 DE=-3.02D-02 OVMax= 1.17D-01

 Cycle   4  Pass 1  IDiag  1:
 RMSU=  1.53D-03    CP:  5.91D-01  1.37D+00  5.65D-01
 E= -902.465870122846     Delta-E=       -0.123715676591 Rises=F Damp=F
 DIIS: error= 6.01D-03 at cycle   4 NSaved=   4.
 NSaved= 4 IEnMin= 4 EnMin= -902.465870122846     IErMin= 4 ErrMin= 6.01D-03
 ErrMax= 6.01D-03  0.00D+00 EMaxC= 1.00D-01 BMatC= 1.26D-02 BMatP= 1.55D-01
 IDIUse=3 WtCom= 9.40D-01 WtEn= 6.01D-02
 Coeff-Com: -0.143D+00 0.308D+00 0.328D+00 0.507D+00
 Coeff-En:   0.000D+00 0.000D+00 0.000D+00 0.100D+01
 Coeff:     -0.135D+00 0.290D+00 0.309D+00 0.536D+00
 Gap=     0.238 Goal=   None    Shift=    0.000
 RMSDP=1.02D-03 MaxDP=7.20D-02 DE=-1.24D-01 OVMax= 2.54D-02

 Cycle   5  Pass 1  IDiag  1:
 RMSU=  5.08D-04    CP:  5.99D-01  1.34D+00  6.61D-01  7.21D-01
 E= -902.476095781739     Delta-E=       -0.010225658893 Rises=F Damp=F
 DIIS: error= 9.19D-04 at cycle   5 NSaved=   5.
 NSaved= 5 IEnMin= 5 EnMin= -902.476095781739     IErMin= 5 ErrMin= 9.19D-04
 ErrMax= 9.19D-04  0.00D+00 EMaxC= 1.00D-01 BMatC= 2.25D-04 BMatP= 1.26D-02
 IDIUse=3 WtCom= 9.91D-01 WtEn= 9.19D-03
 Coeff-Com:  0.201D-01-0.426D-01 0.114D-01 0.174D+00 0.837D+00
 Coeff-En:   0.000D+00 0.000D+00 0.000D+00 0.000D+00 0.100D+01
 Coeff:      0.199D-01-0.422D-01 0.113D-01 0.172D+00 0.839D+00
 Gap=     0.239 Goal=   None    Shift=    0.000
 RMSDP=5.95D-04 MaxDP=5.47D-02 DE=-1.02D-02 OVMax= 8.59D-03

 Cycle   6  Pass 1  IDiag  1:
 RMSU=  2.39D-04    CP:  5.93D-01  1.33D+00  6.68D-01  8.67D-01  8.85D-01
 E= -902.476373974339     Delta-E=       -0.000278192599 Rises=F Damp=F
 DIIS: error= 5.48D-04 at cycle   6 NSaved=   6.
 NSaved= 6 IEnMin= 6 EnMin= -902.476373974339     IErMin= 6 ErrMin= 5.48D-04
 ErrMax= 5.48D-04  0.00D+00 EMaxC= 1.00D-01 BMatC= 7.22D-05 BMatP= 2.25D-04
 IDIUse=3 WtCom= 9.95D-01 WtEn= 5.48D-03
 Coeff-Com:  0.291D-01-0.623D-01-0.406D-01 0.308D-02 0.438D+00 0.633D+00
 Coeff-En:   0.000D+00 0.000D+00 0.000D+00 0.000D+00 0.000D+00 0.100D+01
 Coeff:      0.289D-01-0.619D-01-0.404D-01 0.306D-02 0.436D+00 0.635D+00
 Gap=     0.240 Goal=   None    Shift=    0.000
 RMSDP=1.08D-04 MaxDP=5.46D-03 DE=-2.78D-04 OVMax= 4.75D-03

 Cycle   7  Pass 1  IDiag  1:
 RMSU=  6.66D-05    CP:  5.93D-01  1.33D+00  6.69D-01  8.67D-01  1.04D+00
                    CP:  9.89D-01
 E= -902.476462852538     Delta-E=       -0.000088878199 Rises=F Damp=F
 DIIS: error= 1.43D-04 at cycle   7 NSaved=   7.
 NSaved= 7 IEnMin= 7 EnMin= -902.476462852538     IErMin= 7 ErrMin= 1.43D-04
 ErrMax= 1.43D-04  0.00D+00 EMaxC= 1.00D-01 BMatC= 5.05D-06 BMatP= 7.22D-05
 IDIUse=3 WtCom= 9.99D-01 WtEn= 1.43D-03
 Coeff-Com:  0.239D-02-0.514D-02-0.810D-02-0.206D-01-0.286D-01 0.163D+00
 Coeff-Com:  0.898D+00
 Coeff-En:   0.000D+00 0.000D+00 0.000D+00 0.000D+00 0.000D+00 0.000D+00
 Coeff-En:   0.100D+01
 Coeff:      0.239D-02-0.513D-02-0.809D-02-0.206D-01-0.286D-01 0.162D+00
 Coeff:      0.898D+00
 Gap=     0.240 Goal=   None    Shift=    0.000
 RMSDP=6.65D-05 MaxDP=4.09D-03 DE=-8.89D-05 OVMax= 2.74D-03

 Cycle   8  Pass 1  IDiag  1:
 RMSU=  4.11D-05    CP:  5.93D-01  1.33D+00  6.69D-01  8.87D-01  1.08D+00
                    CP:  1.06D+00  9.16D-01
 E= -902.476476421781     Delta-E=       -0.000013569243 Rises=F Damp=F
 DIIS: error= 7.87D-05 at cycle   8 NSaved=   8.
 NSaved= 8 IEnMin= 8 EnMin= -902.476476421781     IErMin= 8 ErrMin= 7.87D-05
 ErrMax= 7.87D-05  0.00D+00 EMaxC= 1.00D-01 BMatC= 1.39D-06 BMatP= 5.05D-06
 IDIUse=1 WtCom= 1.00D+00 WtEn= 0.00D+00
 Coeff-Com: -0.335D-02 0.720D-02 0.238D-02-0.121D-01-0.931D-01-0.215D-01
 Coeff-Com:  0.416D+00 0.705D+00
 Coeff:     -0.335D-02 0.720D-02 0.238D-02-0.121D-01-0.931D-01-0.215D-01
 Coeff:      0.416D+00 0.705D+00
 Gap=     0.240 Goal=   None    Shift=    0.000
 RMSDP=2.07D-05 MaxDP=1.28D-03 DE=-1.36D-05 OVMax= 1.45D-03

 Cycle   9  Pass 1  IDiag  1:
 RMSU=  1.04D-05    CP:  5.93D-01  1.33D+00  6.68D-01  8.90D-01  1.10D+00
                    CP:  1.10D+00  1.03D+00  1.13D+00
 E= -902.476479795614     Delta-E=       -0.000003373832 Rises=F Damp=F
 DIIS: error= 2.90D-05 at cycle   9 NSaved=   9.
 NSaved= 9 IEnMin= 9 EnMin= -902.476479795614     IErMin= 9 ErrMin= 2.90D-05
 ErrMax= 2.90D-05  0.00D+00 EMaxC= 1.00D-01 BMatC= 1.65D-07 BMatP= 1.39D-06
 IDIUse=1 WtCom= 1.00D+00 WtEn= 0.00D+00
 Coeff-Com: -0.134D-02 0.285D-02 0.261D-02 0.110D-02-0.199D-01-0.338D-01
 Coeff-Com: -0.846D-01 0.150D+00 0.983D+00
 Coeff:     -0.134D-02 0.285D-02 0.261D-02 0.110D-02-0.199D-01-0.338D-01
 Coeff:     -0.846D-01 0.150D+00 0.983D+00
 Gap=     0.240 Goal=   None    Shift=    0.000
 RMSDP=1.10D-05 MaxDP=8.34D-04 DE=-3.37D-06 OVMax= 8.02D-04

 Cycle  10  Pass 1  IDiag  1:
 RMSU=  6.22D-06    CP:  5.93D-01  1.33D+00  6.68D-01  8.90D-01  1.11D+00
                    CP:  1.12D+00  1.08D+00  1.23D+00  1.32D+00
 E= -902.476480471202     Delta-E=       -0.000000675589 Rises=F Damp=F
 DIIS: error= 1.04D-05 at cycle  10 NSaved=  10.
 NSaved=10 IEnMin=10 EnMin= -902.476480471202     IErMin=10 ErrMin= 1.04D-05
 ErrMax= 1.04D-05  0.00D+00 EMaxC= 1.00D-01 BMatC= 2.54D-08 BMatP= 1.65D-07
 IDIUse=1 WtCom= 1.00D+00 WtEn= 0.00D+00
 Coeff-Com:  0.178D-03-0.384D-03 0.377D-03 0.221D-02 0.716D-02-0.573D-02
 Coeff-Com: -0.871D-01-0.532D-01 0.306D+00 0.830D+00
 Coeff:      0.178D-03-0.384D-03 0.377D-03 0.221D-02 0.716D-02-0.573D-02
 Coeff:     -0.871D-01-0.532D-01 0.306D+00 0.830D+00
 Gap=     0.240 Goal=   None    Shift=    0.000
 RMSDP=5.33D-06 MaxDP=4.13D-04 DE=-6.76D-07 OVMax= 2.73D-04

 Cycle  11  Pass 1  IDiag  1:
 RMSU=  1.77D-06    CP:  5.93D-01  1.33D+00  6.68D-01  8.90D-01  1.12D+00
                    CP:  1.12D+00  1.09D+00  1.27D+00  1.51D+00  1.18D+00
 E= -902.476480552641     Delta-E=       -0.000000081438 Rises=F Damp=F
 DIIS: error= 5.05D-06 at cycle  11 NSaved=  11.
 NSaved=11 IEnMin=11 EnMin= -902.476480552641     IErMin=11 ErrMin= 5.05D-06
 ErrMax= 5.05D-06  0.00D+00 EMaxC= 1.00D-01 BMatC= 5.50D-09 BMatP= 2.54D-08
 IDIUse=1 WtCom= 1.00D+00 WtEn= 0.00D+00
 Coeff-Com:  0.281D-03-0.597D-03-0.272D-03 0.814D-03 0.582D-02 0.358D-02
 Coeff-Com: -0.137D-01-0.413D-01-0.804D-01 0.287D+00 0.839D+00
 Coeff:      0.281D-03-0.597D-03-0.272D-03 0.814D-03 0.582D-02 0.358D-02
 Coeff:     -0.137D-01-0.413D-01-0.804D-01 0.287D+00 0.839D+00
 Gap=     0.240 Goal=   None    Shift=    0.000
 RMSDP=2.39D-06 MaxDP=1.36D-04 DE=-8.14D-08 OVMax= 8.93D-05

 Cycle  12  Pass 1  IDiag  1:
 RMSU=  1.18D-06    CP:  5.93D-01  1.33D+00  6.68D-01  8.90D-01  1.12D+00
                    CP:  1.12D+00  1.10D+00  1.28D+00  1.59D+00  1.28D+00
                    CP:  1.19D+00
 E= -902.476480566850     Delta-E=       -0.000000014209 Rises=F Damp=F
 DIIS: error= 2.37D-06 at cycle  12 NSaved=  12.
 NSaved=12 IEnMin=12 EnMin= -902.476480566850     IErMin=12 ErrMin= 2.37D-06
 ErrMax= 2.37D-06  0.00D+00 EMaxC= 1.00D-01 BMatC= 7.77D-10 BMatP= 5.50D-09
 IDIUse=1 WtCom= 1.00D+00 WtEn= 0.00D+00
 Coeff-Com:  0.660D-04-0.138D-03-0.133D-03 0.196D-04 0.952D-03 0.167D-02
 Coeff-Com:  0.962D-02-0.472D-02-0.741D-01-0.384D-01 0.268D+00 0.837D+00
 Coeff:      0.660D-04-0.138D-03-0.133D-03 0.196D-04 0.952D-03 0.167D-02
 Coeff:      0.962D-02-0.472D-02-0.741D-01-0.384D-01 0.268D+00 0.837D+00
 Gap=     0.240 Goal=   None    Shift=    0.000
 RMSDP=1.22D-06 MaxDP=7.73D-05 DE=-1.42D-08 OVMax= 3.01D-05

 Cycle  13  Pass 1  IDiag  1:
 RMSU=  3.56D-07    CP:  5.93D-01  1.33D+00  6.68D-01  8.90D-01  1.12D+00
                    CP:  1.12D+00  1.10D+00  1.27D+00  1.61D+00  1.35D+00
                    CP:  1.35D+00  1.15D+00
 E= -902.476480568817     Delta-E=       -0.000000001967 Rises=F Damp=F
 DIIS: error= 7.26D-07 at cycle  13 NSaved=  13.
 NSaved=13 IEnMin=13 EnMin= -902.476480568817     IErMin=13 ErrMin= 7.26D-07
 ErrMax= 7.26D-07  0.00D+00 EMaxC= 1.00D-01 BMatC= 2.30D-10 BMatP= 7.77D-10
 IDIUse=1 WtCom= 1.00D+00 WtEn= 0.00D+00
 Coeff-Com: -0.104D-04 0.226D-04-0.277D-04-0.136D-03-0.509D-03 0.117D-03
 Coeff-Com:  0.732D-02 0.422D-02-0.226D-01-0.685D-01-0.122D-01 0.420D+00
 Coeff-Com:  0.672D+00
 Coeff:     -0.104D-04 0.226D-04-0.277D-04-0.136D-03-0.509D-03 0.117D-03
 Coeff:      0.732D-02 0.422D-02-0.226D-01-0.685D-01-0.122D-01 0.420D+00
 Coeff:      0.672D+00
 Gap=     0.240 Goal=   None    Shift=    0.000
 RMSDP=3.84D-07 MaxDP=1.72D-05 DE=-1.97D-09 OVMax= 1.07D-05

 Cycle  14  Pass 1  IDiag  1:
 RMSU=  1.50D-07    CP:  5.93D-01  1.33D+00  6.68D-01  8.90D-01  1.12D+00
                    CP:  1.12D+00  1.10D+00  1.27D+00  1.62D+00  1.36D+00
                    CP:  1.37D+00  1.31D+00  1.19D+00
 E= -902.476480569334     Delta-E=       -0.000000000518 Rises=F Damp=F
 DIIS: error= 3.91D-07 at cycle  14 NSaved=  14.
 NSaved=14 IEnMin=14 EnMin= -902.476480569334     IErMin=14 ErrMin= 3.91D-07
 ErrMax= 3.91D-07  0.00D+00 EMaxC= 1.00D-01 BMatC= 1.25D-11 BMatP= 2.30D-10
 IDIUse=1 WtCom= 1.00D+00 WtEn= 0.00D+00
 Coeff-Com: -0.994D-05 0.208D-04 0.999D-05-0.433D-04-0.245D-03-0.242D-03
 Coeff-Com:  0.283D-03 0.112D-02 0.620D-02-0.932D-02-0.414D-01-0.172D-01
 Coeff-Com:  0.986D-01 0.962D+00
 Coeff:     -0.994D-05 0.208D-04 0.999D-05-0.433D-04-0.245D-03-0.242D-03
 Coeff:      0.283D-03 0.112D-02 0.620D-02-0.932D-02-0.414D-01-0.172D-01
 Coeff:      0.986D-01 0.962D+00
 Gap=     0.240 Goal=   None    Shift=    0.000
 RMSDP=1.87D-07 MaxDP=1.07D-05 DE=-5.18D-10 OVMax= 5.86D-06

 Cycle  15  Pass 1  IDiag  1:
 RMSU=  5.23D-08    CP:  5.93D-01  1.33D+00  6.68D-01  8.90D-01  1.12D+00
                    CP:  1.12D+00  1.10D+00  1.27D+00  1.62D+00  1.36D+00
                    CP:  1.36D+00  1.39D+00  1.36D+00  1.26D+00
 E= -902.476480569308     Delta-E=        0.000000000026 Rises=F Damp=F
 DIIS: error= 1.40D-07 at cycle  15 NSaved=  15.
 NSaved=15 IEnMin=14 EnMin= -902.476480569334     IErMin=15 ErrMin= 1.40D-07
 ErrMax= 1.40D-07  0.00D+00 EMaxC= 1.00D-01 BMatC= 2.77D-12 BMatP= 1.25D-11
 IDIUse=1 WtCom= 1.00D+00 WtEn= 0.00D+00
 Coeff-Com: -0.288D-05 0.603D-05 0.712D-05 0.262D-06-0.217D-04-0.928D-04
 Coeff-Com: -0.624D-03-0.198D-03 0.441D-02 0.461D-02-0.120D-01-0.453D-01
 Coeff-Com: -0.636D-01 0.292D+00 0.821D+00
 Coeff:     -0.288D-05 0.603D-05 0.712D-05 0.262D-06-0.217D-04-0.928D-04
 Coeff:     -0.624D-03-0.198D-03 0.441D-02 0.461D-02-0.120D-01-0.453D-01
 Coeff:     -0.636D-01 0.292D+00 0.821D+00
 Gap=     0.240 Goal=   None    Shift=    0.000
 RMSDP=8.28D-08 MaxDP=5.66D-06 DE= 2.64D-11 OVMax= 2.38D-06

 Cycle  16  Pass 1  IDiag  1:
 RMSU=  2.33D-08    CP:  5.93D-01  1.33D+00  6.68D-01  8.90D-01  1.12D+00
                    CP:  1.12D+00  1.10D+00  1.27D+00  1.62D+00  1.35D+00
                    CP:  1.36D+00  1.42D+00  1.40D+00  1.45D+00  1.29D+00
 E= -902.476480569273     Delta-E=        0.000000000035 Rises=F Damp=F
 DIIS: error= 6.46D-08 at cycle  16 NSaved=  16.
 NSaved=16 IEnMin=14 EnMin= -902.476480569334     IErMin=16 ErrMin= 6.46D-08
 ErrMax= 6.46D-08  0.00D+00 EMaxC= 1.00D-01 BMatC= 5.72D-13 BMatP= 2.77D-12
 IDIUse=1 WtCom= 1.00D+00 WtEn= 0.00D+00
 Coeff-Com:  0.103D-05-0.217D-05-0.208D-06 0.821D-05 0.443D-04 0.148D-04
 Coeff-Com: -0.209D-03-0.338D-03-0.339D-04 0.333D-02 0.458D-02-0.610D-02
 Coeff-Com: -0.481D-01-0.123D+00 0.235D+00 0.935D+00
 Coeff:      0.103D-05-0.217D-05-0.208D-06 0.821D-05 0.443D-04 0.148D-04
 Coeff:     -0.209D-03-0.338D-03-0.339D-04 0.333D-02 0.458D-02-0.610D-02
 Coeff:     -0.481D-01-0.123D+00 0.235D+00 0.935D+00
 Gap=     0.240 Goal=   None    Shift=    0.000
 RMSDP=4.47D-08 MaxDP=2.88D-06 DE= 3.55D-11 OVMax= 1.31D-06

 Cycle  17  Pass 1  IDiag  1:
 RMSU=  1.05D-08    CP:  5.93D-01  1.33D+00  6.68D-01  8.90D-01  1.12D+00
                    CP:  1.12D+00  1.10D+00  1.27D+00  1.62D+00  1.35D+00
                    CP:  1.35D+00  1.44D+00  1.42D+00  1.54D+00  1.53D+00
                    CP:  1.44D+00
 E= -902.476480569287     Delta-E=       -0.000000000015 Rises=F Damp=F
 DIIS: error= 2.13D-08 at cycle  17 NSaved=  17.
 NSaved=17 IEnMin=14 EnMin= -902.476480569334     IErMin=17 ErrMin= 2.13D-08
 ErrMax= 2.13D-08  0.00D+00 EMaxC= 1.00D-01 BMatC= 8.58D-14 BMatP= 5.72D-13
 IDIUse=1 WtCom= 1.00D+00 WtEn= 0.00D+00
 Coeff-Com:  0.445D-06-0.930D-06-0.640D-06 0.288D-05 0.161D-04 0.142D-04
 Coeff-Com:  0.294D-04-0.771D-04-0.602D-03 0.419D-03 0.272D-02 0.588D-02
 Coeff-Com: -0.713D-02-0.762D-01-0.372D-01 0.303D+00 0.809D+00
 Coeff:      0.445D-06-0.930D-06-0.640D-06 0.288D-05 0.161D-04 0.142D-04
 Coeff:      0.294D-04-0.771D-04-0.602D-03 0.419D-03 0.272D-02 0.588D-02
 Coeff:     -0.713D-02-0.762D-01-0.372D-01 0.303D+00 0.809D+00
 Gap=     0.240 Goal=   None    Shift=    0.000
 RMSDP=1.33D-08 MaxDP=1.45D-06 DE=-1.46D-11 OVMax= 4.29D-07

 Cycle  18  Pass 1  IDiag  1:
 RMSU=  3.32D-09    CP:  5.93D-01  1.33D+00  6.68D-01  8.90D-01  1.12D+00
                    CP:  1.12D+00  1.10D+00  1.27D+00  1.62D+00  1.35D+00
                    CP:  1.35D+00  1.44D+00  1.41D+00  1.56D+00  1.60D+00
                    CP:  1.67D+00  1.25D+00
 E= -902.476480569282     Delta-E=        0.000000000005 Rises=F Damp=F
 DIIS: error= 8.66D-09 at cycle  18 NSaved=  18.
 NSaved=18 IEnMin=14 EnMin= -902.476480569334     IErMin=18 ErrMin= 8.66D-09
 ErrMax= 8.66D-09  0.00D+00 EMaxC= 1.00D-01 BMatC= 1.68D-14 BMatP= 8.58D-14
 IDIUse=1 WtCom= 1.00D+00 WtEn= 0.00D+00
 Coeff-Com:  0.679D-07-0.143D-06-0.340D-06-0.633D-06-0.172D-05 0.334D-05
 Coeff-Com:  0.449D-04 0.294D-04-0.201D-03-0.436D-03-0.172D-03 0.321D-02
 Coeff-Com:  0.657D-02 0.962D-03-0.630D-01-0.105D+00 0.281D+00 0.877D+00
 Coeff:      0.679D-07-0.143D-06-0.340D-06-0.633D-06-0.172D-05 0.334D-05
 Coeff:      0.449D-04 0.294D-04-0.201D-03-0.436D-03-0.172D-03 0.321D-02
 Coeff:      0.657D-02 0.962D-03-0.630D-01-0.105D+00 0.281D+00 0.877D+00
 Gap=     0.240 Goal=   None    Shift=    0.000
 RMSDP=7.56D-09 MaxDP=7.43D-07 DE= 5.46D-12 OVMax= 1.98D-07

 SCF Done:  E(RwB97XD) =  -902.476480569     A.U. after   18 cycles
            NFock= 18  Conv=0.76D-08     -V/T= 2.0047
 KE= 8.982547803940D+02 PE=-5.062260819245D+03 EE= 1.780441996821D+03
 Leave Link  502 at Fri Nov  3 13:36:51 2017, MaxMem=  3758096384 cpu:      3006.1
 (Enter /share/apps/gaussian/g09_D01/g09/l801.exe)
 DoSCS=F DFT=T ScalE2(SS,OS)=  1.000000  1.000000
 ExpMin= 3.60D-02 ExpMax= 8.59D+03 ExpMxC= 1.30D+03 IAcc=3 IRadAn=         5 AccDes= 0.00D+00
 HarFok:  IExCor=  205 AccDes= 0.00D+00 IRadAn=         5 IDoV=-2 UseB2=F ITyADJ=14
 ICtDFT= 12500011 ScaDFX=  1.000000  1.000000  1.000000  1.000000
 Largest valence mixing into a core orbital is  5.69D-05
 Largest core mixing into a valence orbital is  1.60D-05
 Range of M.O.s used for correlation:    22   588
 NBasis=   595 NAE=    75 NBE=    75 NFC=    21 NFV=     0
 NROrb=    567 NOA=    54 NOB=    54 NVA=   513 NVB=   513

 **** Warning!!: The largest alpha MO coefficient is  0.14227925D+03

 Leave Link  801 at Fri Nov  3 13:36:52 2017, MaxMem=  3758096384 cpu:         3.5
 (Enter /share/apps/gaussian/g09_D01/g09/l914.exe)
 RHF ground state
 MDV=  3758096384 DFT=T DoStab=F Mixed=T DoRPA=T DoScal=F NonHer=T
 Would need an additional         90685500000 words for in-memory AO integral storage.
 Making orbital integer symmetry assigments:
    16 initial guesses have been made.
 Convergence on wavefunction:    0.001000000000000
 Davidson Disk Diagonalization:  ConvIn= 1.00D-03 SkipCon=T Conv= 1.00D-03.
 Max sub-space:   200 roots to seek:    16 dimension of matrix:        55404
 Iteration     1 Dimension    16 NMult     0 NNew     16
 CISAX will form    16 AO SS matrices at one time.
 NMat=    16 NSing=    16 JSym2X= 0.
 FoFJK:  IHMeth= 1 ICntrl=       0 DoSepK=T KAlg= 0 I1Cent=   0 FoldK=F
 IRaf=         1 NMat=  32 IRICut=       1 DoRegI=T DoRafI=F ISym2E= 0.
 FoFCou: FMM=F IPFlag=           0 FMFlag=      100000 FMFlg1=           0
         NFxFlg=           0 DoJE=F BraDBF=F KetDBF=F FulRan=T
         wScrn=  0.000000 ICntrl=     500 IOpCl=  0 I1Cent=           0 NGrid=           0
         NMat0=   16 NMatS0=     16 NMatT0=    0 NMatD0=   16 NMtDS0=    0 NMtDT0=    0
 Symmetry not used in FoFCou.
 New state      2 was old state      7
 New state      3 was old state      2
 New state      4 was old state     10
 Excitation Energies [eV] at current iteration:
 Root      1 :     3.784222706213233
 Root      2 :     4.251387958176911
 Root      3 :     4.405763069968327
 Root      4 :     5.099047315290025
 Root      5 :     5.433040587053401
 Root      6 :     5.587235148943456
 Root      7 :     5.850711261988462
 Root      8 :     5.918416616672037
 Root      9 :     6.057829785705309
 Root     10 :     6.167777158881685
 Root     11 :     6.255439318410117
 Root     12 :     6.393540136371020
 Root     13 :     6.448952822056548
 Root     14 :     6.815826219979419
 Root     15 :     7.103074999889314
 Root     16 :     7.356720342996315
 Iteration     2 Dimension    24 NMult    16 NNew      8
 CISAX will form     8 AO SS matrices at one time.
 NMat=     8 NSing=     8 JSym2X= 0.
 Root      1 not converged, maximum delta is    0.058440604458287
 Root      2 not converged, maximum delta is    0.100813984294273
 Root      3 not converged, maximum delta is    0.089457769803337
 Root      4 not converged, maximum delta is    0.151623027857105
 Excitation Energies [eV] at current iteration:
 Root      1 :     3.348419784706288   Change is   -0.435802921506945
 Root      2 :     3.802607796933451   Change is   -0.448780161243460
 Root      3 :     3.840404824319163   Change is   -0.565358245649164
 Root      4 :     4.536931271315336   Change is   -0.562116043974688
 Iteration     3 Dimension    32 NMult    24 NNew      8
 CISAX will form     8 AO SS matrices at one time.
 NMat=     8 NSing=     8 JSym2X= 0.
 Root      1 not converged, maximum delta is    0.010718465219428
 Root      2 not converged, maximum delta is    0.142409465615970
 Root      3 not converged, maximum delta is    0.143508563310736
 Root      4 not converged, maximum delta is    0.032416145552643
 Excitation Energies [eV] at current iteration:
 Root      1 :     3.315813532982919   Change is   -0.032606251723369
 Root      2 :     3.771477335744604   Change is   -0.031130461188847
 Root      3 :     3.794413956406525   Change is   -0.045990867912638
 Root      4 :     4.485541341847950   Change is   -0.051389929467386
 Iteration     4 Dimension    40 NMult    32 NNew      8
 CISAX will form     8 AO SS matrices at one time.
 NMat=     8 NSing=     8 JSym2X= 0.
 Root      1 not converged, maximum delta is    0.007932122619517
 Root      2 not converged, maximum delta is    0.079664497908673
 Root      3 not converged, maximum delta is    0.083486190206214
 Root      4 not converged, maximum delta is    0.009383878801966
 Excitation Energies [eV] at current iteration:
 Root      1 :     3.311234925530687   Change is   -0.004578607452232
 Root      2 :     3.767118377435081   Change is   -0.004358958309523
 Root      3 :     3.786385527533926   Change is   -0.008028428872598
 Root      4 :     4.478763215076169   Change is   -0.006778126771782
 Iteration     5 Dimension    48 NMult    40 NNew      8
 CISAX will form     8 AO SS matrices at one time.
 NMat=     8 NSing=     8 JSym2X= 0.
 Root      1 not converged, maximum delta is    0.002572273184647
 Root      2 not converged, maximum delta is    0.015293965898014
 Root      3 not converged, maximum delta is    0.014557262336328
 Root      4 not converged, maximum delta is    0.004088841476968
 Excitation Energies [eV] at current iteration:
 Root      1 :     3.310739107472947   Change is   -0.000495818057740
 Root      2 :     3.766513653005799   Change is   -0.000604724429283
 Root      3 :     3.785501402941718   Change is   -0.000884124592208
 Root      4 :     4.478192404503842   Change is   -0.000570810572327
 Iteration     6 Dimension    56 NMult    48 NNew      8
 CISAX will form     8 AO SS matrices at one time.
 NMat=     8 NSing=     8 JSym2X= 0.
 Root      1 has converged.
 Root      2 not converged, maximum delta is    0.001913830372802
 Root      3 not converged, maximum delta is    0.002073330586853
 Root      4 not converged, maximum delta is    0.002356283972282
 Excitation Energies [eV] at current iteration:
 Root      1 :     3.310684429375836   Change is   -0.000054678097110
 Root      2 :     3.766441481411009   Change is   -0.000072171594789
 Root      3 :     3.785391776022384   Change is   -0.000109626919334
 Root      4 :     4.478045343745587   Change is   -0.000147060758254
 Iteration     7 Dimension    62 NMult    56 NNew      6
 CISAX will form     6 AO SS matrices at one time.
 NMat=     6 NSing=     6 JSym2X= 0.
 Root      1 has converged.
 Root      2 has converged.
 Root      3 has converged.
 Root      4 not converged, maximum delta is    0.002491110472043
 Excitation Energies [eV] at current iteration:
 Root      1 :     3.310683880866447   Change is   -0.000000548509389
 Root      2 :     3.766435533596062   Change is   -0.000005947814947
 Root      3 :     3.785383234648038   Change is   -0.000008541374346
 Root      4 :     4.478000436927121   Change is   -0.000044906818466
 Iteration     8 Dimension    64 NMult    62 NNew      2
 CISAX will form     2 AO SS matrices at one time.
 NMat=     2 NSing=     2 JSym2X= 0.
 Root      1 has converged.
 Root      2 has converged.
 Root      3 has converged.
 Root      4 not converged, maximum delta is    0.001037017875160
 Excitation Energies [eV] at current iteration:
 Root      1 :     3.310683734877097   Change is   -0.000000145989351
 Root      2 :     3.766435507503893   Change is   -0.000000026092169
 Root      3 :     3.785383220348442   Change is   -0.000000014299596
 Root      4 :     4.477987491230222   Change is   -0.000012945696899
 Iteration     9 Dimension    66 NMult    64 NNew      2
 CISAX will form     2 AO SS matrices at one time.
 NMat=     2 NSing=     2 JSym2X= 0.
 Root      1 has converged.
 Root      2 has converged.
 Root      3 has converged.
 Root      4 has converged.
 Excitation Energies [eV] at current iteration:
 Root      1 :     3.310683608940839   Change is   -0.000000125936257
 Root      2 :     3.766435497440007   Change is   -0.000000010063886
 Root      3 :     3.785383213395455   Change is   -0.000000006952987
 Root      4 :     4.477984653091730   Change is   -0.000002838138492
 Convergence achieved on expansion vectors.
 ***********************************************************************
 Excited states from <AA,BB:AA,BB> singles matrix:
 ***********************************************************************
 
 1PDM for each excited state written to RWF  633
 Ground to excited state transition densities written to RWF  633
 Ground to excited state transition electric dipole moments (Au):
       state          X           Y           Z        Dip. S.      Osc.
         1        -0.5627     -2.7234     -2.4557     13.7645      1.1164
         2        -0.0543      0.6026      0.5399      0.6576      0.0607
         3         0.0918     -0.4663     -0.3334      0.3370      0.0313
         4         0.3831      0.0859      0.5408      0.4466      0.0490
 Ground to excited state transition velocity dipole moments (Au):
       state          X           Y           Z        Dip. S.      Osc.
         1         0.0656      0.3304      0.2934      0.1995      1.0933
         2         0.0076     -0.0778     -0.0741      0.0116      0.0559
         3        -0.0105      0.0609      0.0448      0.0058      0.0279
         4        -0.0677     -0.0079     -0.0904      0.0128      0.0519
 Ground to excited state transition magnetic dipole moments (Au):
       state          X           Y           Z
         1        -1.9598     -0.3424      0.9220
         2        -0.0113     -0.2224      0.4052
         3         0.3582     -0.3233     -0.1219
         4         0.3751      0.0474     -0.3033
 Ground to excited state transition velocity quadrupole moments (Au):
       state          XX          YY          ZZ          XY          XZ          YZ
         1         0.4961     -3.4613      1.7660      0.8773      1.3529     -0.6615
         2        -0.0105      1.9033      0.0572     -0.0959     -0.1803      0.9796
         3        -0.0696     -1.6153     -0.2388      0.0601      0.0422     -0.8720
         4        -0.3269     -0.2268     -0.0580      0.6092     -0.1880      0.5706
 <0|del|b> * <b|rxdel|0> + <0|del|b> * <b|delr+rdel|0>
 Rotatory Strengths (R) in cgs (10**-40 erg-esu-cm/Gauss)
       state          XX          YY          ZZ    R(velocity)    E-M Angle
         1       -93.8436   -461.9429    722.5106     55.5747       88.32
         2       -50.1985    -76.1614     60.8313    -21.8429      104.93
         3       -63.5806     -6.9796    -76.3483    -48.9695      139.57
         4       -63.3989     39.6210     30.8435      2.3552       88.28
 1/2[<0|r|b>*<b|rxdel|0> + (<0|rxdel|b>*<b|r|0>)*]
 Rotatory Strengths (R) in cgs (10**-40 erg-esu-cm/Gauss)
       state          XX          YY          ZZ     R(length)
         1      -779.8385   -659.5307   1601.1160     53.9156
         2        -0.4340     94.7734   -154.7073    -20.1226
         3       -23.2478   -106.6192    -28.7303    -52.8658
         4      -101.6054     -2.8802    115.9871      3.8338
  1/2[<0|del|b>*<b|r|0> + (<0|r|b>*<b|del|0>)*] (Au)
       state          X           Y           Z        Dip. S.   Osc.(frdel)
         1        -0.0369     -0.8998     -0.7204      1.6572      1.1048
         2        -0.0004     -0.0469     -0.0400      0.0873      0.0582
         3        -0.0010     -0.0284     -0.0149      0.0443      0.0295
         4        -0.0259     -0.0007     -0.0489      0.0755      0.0503

 Excitation energies and oscillator strengths:
 
 Excited state symmetry could not be determined.
 Excited State   1:      Singlet-?Sym    3.3107 eV  374.50 nm  f=1.1164  <S**2>=0.000
      74 -> 76         0.15241
      74 -> 78         0.14057
      75 -> 76         0.65679
 This state for optimization and/or second-order correction.
 Total Energy, E(TD-HF/TD-KS) =  -902.354815180    
 Copying the excited state density for this state as the 1-particle RhoCI density.
 
 Excited state symmetry could not be determined.
 Excited State   2:      Singlet-?Sym    3.7664 eV  329.18 nm  f=0.0607  <S**2>=0.000
      72 -> 76         0.42905
      73 -> 76        -0.11378
      74 -> 76         0.47242
      74 -> 78         0.10675
      75 -> 76        -0.12463
      75 -> 78         0.11428
 
 Excited state symmetry could not be determined.
 Excited State   3:      Singlet-?Sym    3.7854 eV  327.53 nm  f=0.0313  <S**2>=0.000
      72 -> 76         0.49211
      72 -> 78         0.10133
      74 -> 76        -0.42793
 
 Excited state symmetry could not be determined.
 Excited State   4:      Singlet-?Sym    4.4780 eV  276.87 nm  f=0.0490  <S**2>=0.000
      71 -> 76         0.26732
      71 -> 78        -0.12161
      74 -> 81        -0.16516
      75 -> 78        -0.29011
      75 -> 81         0.51536
 SavETr:  write IOETrn=   770 NScale= 10 NData=  16 NLR=1 NState=    4 LETran=      82.
 Leave Link  914 at Fri Nov  3 14:41:35 2017, MaxMem=  3758096384 cpu:      7766.1
 (Enter /share/apps/gaussian/g09_D01/g09/l601.exe)
 Copying SCF densities to generalized density rwf, IOpCl= 0 IROHF=0.

 **********************************************************************

            Population analysis using the SCF density.

 **********************************************************************

 Alpha  occ. eigenvalues --  -19.24138 -19.23138 -14.47942 -10.37983 -10.35549
 Alpha  occ. eigenvalues --  -10.35064 -10.33791 -10.33705 -10.31759 -10.30855
 Alpha  occ. eigenvalues --  -10.30807 -10.30102 -10.30009 -10.29828 -10.29492
 Alpha  occ. eigenvalues --  -10.29485 -10.29374 -10.29149 -10.28869 -10.28179
 Alpha  occ. eigenvalues --  -10.28148  -1.14549  -1.10830  -1.08184  -0.97169
 Alpha  occ. eigenvalues --   -0.95905  -0.91079  -0.87656  -0.87193  -0.86100
 Alpha  occ. eigenvalues --   -0.84732  -0.84254  -0.79492  -0.77507  -0.74701
 Alpha  occ. eigenvalues --   -0.72255  -0.71512  -0.68606  -0.66960  -0.64278
 Alpha  occ. eigenvalues --   -0.63412  -0.60675  -0.59649  -0.58809  -0.57878
 Alpha  occ. eigenvalues --   -0.57772  -0.55722  -0.54997  -0.54341  -0.52781
 Alpha  occ. eigenvalues --   -0.52084  -0.51590  -0.51464  -0.51288  -0.50842
 Alpha  occ. eigenvalues --   -0.50215  -0.49766  -0.48706  -0.48364  -0.48181
 Alpha  occ. eigenvalues --   -0.47114  -0.46230  -0.45934  -0.45332  -0.44311
 Alpha  occ. eigenvalues --   -0.42725  -0.41873  -0.41382  -0.40544  -0.35143
 Alpha  occ. eigenvalues --   -0.35026  -0.34051  -0.33333  -0.28776  -0.26960
 Alpha virt. eigenvalues --   -0.02934   0.02547   0.03310   0.03713   0.04291
 Alpha virt. eigenvalues --    0.04428   0.04878   0.05654   0.06190   0.06288
 Alpha virt. eigenvalues --    0.06669   0.06770   0.07784   0.07969   0.08128
 Alpha virt. eigenvalues --    0.08206   0.08423   0.08998   0.09593   0.09931
 Alpha virt. eigenvalues --    0.10382   0.10805   0.11335   0.11927   0.12091
 Alpha virt. eigenvalues --    0.12410   0.13099   0.13152   0.13851   0.14253
 Alpha virt. eigenvalues --    0.14341   0.14735   0.15025   0.15340   0.15685
 Alpha virt. eigenvalues --    0.15820   0.16123   0.16419   0.16621   0.16752
 Alpha virt. eigenvalues --    0.17101   0.17461   0.17664   0.18018   0.18229
 Alpha virt. eigenvalues --    0.18542   0.19100   0.19195   0.19352   0.19775
 Alpha virt. eigenvalues --    0.19930   0.20269   0.20540   0.20677   0.20732
 Alpha virt. eigenvalues --    0.21198   0.21407   0.21659   0.22095   0.22380
 Alpha virt. eigenvalues --    0.22422   0.22514   0.23000   0.23500   0.23675
 Alpha virt. eigenvalues --    0.23774   0.24185   0.24438   0.24575   0.24952
 Alpha virt. eigenvalues --    0.25494   0.25692   0.26340   0.26426   0.26578
 Alpha virt. eigenvalues --    0.26757   0.27106   0.27254   0.27864   0.28314
 Alpha virt. eigenvalues --    0.28520   0.28771   0.29053   0.29330   0.29531
 Alpha virt. eigenvalues --    0.30291   0.30308   0.30431   0.31106   0.31340
 Alpha virt. eigenvalues --    0.31808   0.32084   0.32378   0.32497   0.32873
 Alpha virt. eigenvalues --    0.33406   0.33649   0.33969   0.34213   0.34707
 Alpha virt. eigenvalues --    0.34915   0.35039   0.35577   0.36012   0.36757
 Alpha virt. eigenvalues --    0.37047   0.37140   0.37594   0.37769   0.38308
 Alpha virt. eigenvalues --    0.38663   0.39000   0.39137   0.39462   0.39819
 Alpha virt. eigenvalues --    0.40079   0.40515   0.40870   0.41521   0.41786
 Alpha virt. eigenvalues --    0.42313   0.42896   0.43315   0.43496   0.44533
 Alpha virt. eigenvalues --    0.44558   0.45253   0.45957   0.46331   0.47432
 Alpha virt. eigenvalues --    0.48590   0.49108   0.49771   0.50108   0.50224
 Alpha virt. eigenvalues --    0.51100   0.51854   0.52512   0.53750   0.54439
 Alpha virt. eigenvalues --    0.55089   0.55500   0.56623   0.57518   0.58584
 Alpha virt. eigenvalues --    0.59560   0.60964   0.61252   0.61823   0.62248
 Alpha virt. eigenvalues --    0.62775   0.62975   0.63532   0.64312   0.64633
 Alpha virt. eigenvalues --    0.65065   0.65912   0.66170   0.66587   0.66905
 Alpha virt. eigenvalues --    0.67336   0.68119   0.68653   0.68852   0.69413
 Alpha virt. eigenvalues --    0.69942   0.70742   0.71090   0.71551   0.72267
 Alpha virt. eigenvalues --    0.72448   0.73098   0.73434   0.73928   0.74190
 Alpha virt. eigenvalues --    0.74860   0.75035   0.75287   0.75880   0.76403
 Alpha virt. eigenvalues --    0.77118   0.77827   0.78585   0.78676   0.78894
 Alpha virt. eigenvalues --    0.79357   0.79733   0.80154   0.80215   0.80759
 Alpha virt. eigenvalues --    0.81510   0.82675   0.82852   0.84078   0.84728
 Alpha virt. eigenvalues --    0.85458   0.86198   0.87396   0.88030   0.88870
 Alpha virt. eigenvalues --    0.90033   0.90933   0.91781   0.92197   0.94304
 Alpha virt. eigenvalues --    0.94643   0.95433   0.95684   0.96672   0.96754
 Alpha virt. eigenvalues --    0.97550   0.98141   0.98332   0.98850   0.99467
 Alpha virt. eigenvalues --    1.00323   1.01154   1.01761   1.02461   1.03363
 Alpha virt. eigenvalues --    1.03864   1.04090   1.05110   1.05391   1.05719
 Alpha virt. eigenvalues --    1.06635   1.06842   1.07619   1.08534   1.09062
 Alpha virt. eigenvalues --    1.10082   1.10821   1.11681   1.12863   1.13039
 Alpha virt. eigenvalues --    1.13260   1.14840   1.15178   1.15955   1.16483
 Alpha virt. eigenvalues --    1.17228   1.18849   1.20095   1.20418   1.21080
 Alpha virt. eigenvalues --    1.21977   1.22828   1.24688   1.25183   1.27809
 Alpha virt. eigenvalues --    1.30895   1.31713   1.32905   1.34351   1.35225
 Alpha virt. eigenvalues --    1.36487   1.38304   1.39731   1.41220   1.41857
 Alpha virt. eigenvalues --    1.45240   1.47825   1.48025   1.49398   1.50063
 Alpha virt. eigenvalues --    1.51186   1.51530   1.52182   1.54715   1.55463
 Alpha virt. eigenvalues --    1.55976   1.56557   1.57144   1.57280   1.58979
 Alpha virt. eigenvalues --    1.59127   1.61153   1.61730   1.62319   1.62581
 Alpha virt. eigenvalues --    1.62868   1.62983   1.63418   1.64287   1.64484
 Alpha virt. eigenvalues --    1.64989   1.65658   1.66559   1.66959   1.68116
 Alpha virt. eigenvalues --    1.68297   1.69043   1.69936   1.70371   1.70464
 Alpha virt. eigenvalues --    1.74715   1.74992   1.75438   1.76319   1.77199
 Alpha virt. eigenvalues --    1.78818   1.79550   1.79770   1.80521   1.81010
 Alpha virt. eigenvalues --    1.81311   1.83083   1.83869   1.84540   1.84799
 Alpha virt. eigenvalues --    1.86479   1.86542   1.87187   1.88404   1.89115
 Alpha virt. eigenvalues --    1.90981   1.92197   1.93788   1.94107   1.94850
 Alpha virt. eigenvalues --    1.96450   1.96767   1.98090   1.99159   2.00662
 Alpha virt. eigenvalues --    2.01429   2.01838   2.02352   2.03762   2.04364
 Alpha virt. eigenvalues --    2.05418   2.05882   2.06320   2.06433   2.07636
 Alpha virt. eigenvalues --    2.09167   2.10557   2.11207   2.11548   2.13856
 Alpha virt. eigenvalues --    2.14407   2.14635   2.15172   2.17389   2.17794
 Alpha virt. eigenvalues --    2.19785   2.20583   2.21370   2.22926   2.23740
 Alpha virt. eigenvalues --    2.24974   2.25848   2.27058   2.27694   2.28513
 Alpha virt. eigenvalues --    2.31632   2.33174   2.35254   2.36410   2.38807
 Alpha virt. eigenvalues --    2.39791   2.40774   2.42330   2.43619   2.46073
 Alpha virt. eigenvalues --    2.46181   2.47480   2.48017   2.49905   2.52522
 Alpha virt. eigenvalues --    2.54677   2.54989   2.55209   2.55558   2.56745
 Alpha virt. eigenvalues --    2.56970   2.57329   2.60487   2.61980   2.63570
 Alpha virt. eigenvalues --    2.64028   2.66947   2.67689   2.68156   2.68549
 Alpha virt. eigenvalues --    2.69921   2.72147   2.72442   2.73743   2.76378
 Alpha virt. eigenvalues --    2.76702   2.77686   2.78222   2.78666   2.79470
 Alpha virt. eigenvalues --    2.80515   2.81162   2.81537   2.82111   2.82951
 Alpha virt. eigenvalues --    2.83020   2.84307   2.85802   2.86270   2.86385
 Alpha virt. eigenvalues --    2.87668   2.90002   2.90525   2.90839   2.91652
 Alpha virt. eigenvalues --    2.92136   2.94342   2.94680   2.95462   2.96760
 Alpha virt. eigenvalues --    2.98418   2.99901   3.00738   3.01775   3.03277
 Alpha virt. eigenvalues --    3.03674   3.04707   3.05468   3.07179   3.07834
 Alpha virt. eigenvalues --    3.09330   3.09887   3.14560   3.17947   3.19592
 Alpha virt. eigenvalues --    3.20470   3.20954   3.21615   3.24269   3.26099
 Alpha virt. eigenvalues --    3.27864   3.30121   3.30674   3.32997   3.34048
 Alpha virt. eigenvalues --    3.34961   3.38434   3.39237   3.41648   3.45509
 Alpha virt. eigenvalues --    3.47130   3.47738   3.52569   3.57481   3.60001
 Alpha virt. eigenvalues --    3.60665   3.61728   3.63141   3.65418   3.66143
 Alpha virt. eigenvalues --    3.72916   3.76258   3.77021   3.77534   3.78392
 Alpha virt. eigenvalues --    3.78652   3.80488   3.85977   3.87400   3.88599
 Alpha virt. eigenvalues --    3.89944   3.92853   3.94271   4.01052   4.05188
 Alpha virt. eigenvalues --    4.07939   4.09389   4.13050   4.16482   4.26672
 Alpha virt. eigenvalues --    4.27854   4.29008   4.30153   4.36537   4.43385
 Alpha virt. eigenvalues --    4.53313   4.77715   4.92548   4.94196   4.99901
 Alpha virt. eigenvalues --    5.15743   5.17753   5.19493   5.37292   5.64450
 Alpha virt. eigenvalues --    5.85256   5.94049  23.71001  23.79712  23.94116
 Alpha virt. eigenvalues --   24.01874  24.03373  24.03412  24.04634  24.07439
 Alpha virt. eigenvalues --   24.08202  24.08691  24.09613  24.13617  24.15051
 Alpha virt. eigenvalues --   24.23087  24.25155  24.28278  24.30419  24.30827
 Alpha virt. eigenvalues --   35.74098  50.13653  50.17822
          Condensed to atoms (all electrons):
               1          2          3          4          5          6
     1  H    0.491770   0.290454  -0.013695  -0.065342  -0.013009   0.013220
     2  C    0.290454   9.290161   0.925172   0.258226   0.032024  -1.832095
     3  C   -0.013695   0.925172   9.459466  -2.392495   0.493574  -0.070513
     4  C   -0.065342   0.258226  -2.392495  11.421538  -0.041658  -1.585456
     5  H   -0.013009   0.032024   0.493574  -0.041658   0.510259  -0.072144
     6  C    0.013220  -1.832095  -0.070513  -1.585456  -0.072144  11.038880
     7  C    0.018017  -0.836973   0.505630  -0.161088   0.004142  -0.021405
     8  C   -0.096719  -0.813454  -1.221447  -0.320183   0.000015  -0.305483
     9  C    0.030637  -1.038329  -1.563695  -0.877322  -0.042425   0.370108
    10  N   -0.000855   0.041311  -0.248263  -0.027391  -0.033427   0.276906
    11  C    0.030163  -0.102707   0.383782  -0.847859  -0.020630  -0.371958
    12  H   -0.009201   0.037234   0.026451  -0.152499   0.002339   0.024057
    13  H   -0.007144   0.031779  -0.020198  -0.242019   0.002605   0.236085
    14  H    0.002511  -0.020882  -0.004809   0.164877  -0.000681  -0.253214
    15  C    0.002607  -0.068150   0.191392  -0.161804   0.017320  -0.148967
    16  C    0.000561  -0.023634  -0.162040   0.016796  -0.005002  -0.203715
    17  C    0.071513   0.139200   0.015515   0.165198  -0.006290  -0.253506
    18  H    0.005339   0.042093   0.042210   0.134150  -0.001204  -0.083902
    19  H    0.000601  -0.015050   0.007121   0.006317  -0.009613   0.015233
    20  H   -0.000012  -0.016103   0.015819  -0.009497   0.005925  -0.003277
    21  H    0.000506   0.012763   0.025768   0.008667  -0.008355  -0.042154
    22  H   -0.000054   0.009976   0.005688   0.007222   0.001404  -0.016166
    23  H   -0.000171  -0.005997  -0.011395  -0.007492  -0.000288  -0.009964
    24  H   -0.000246  -0.005117  -0.011011  -0.011452  -0.000361  -0.001847
    25  C    0.027783  -0.046263  -0.125926   0.339877  -0.002521  -0.081833
    26  O    0.001005  -0.012136  -0.002014   0.046057   0.000038  -0.000439
    27  C   -0.004417   0.027297   0.036813  -0.359210   0.000218  -0.000392
    28  C    0.008381  -0.002105  -0.015350  -0.068010  -0.000481  -0.004626
    29  H    0.000220   0.001009  -0.000246  -0.005801  -0.000014  -0.000495
    30  C   -0.000618  -0.013636  -0.000194  -0.128451   0.000057   0.002943
    31  H    0.000012   0.002683   0.000417  -0.023129   0.000033  -0.001119
    32  O    0.000081  -0.000243  -0.000044   0.003027  -0.000001  -0.000006
    33  C    0.000158  -0.000363  -0.000953  -0.047543  -0.000035   0.000957
    34  C    0.000142   0.001368   0.000211  -0.011167  -0.000011  -0.000630
    35  C    0.000051   0.000019   0.000261   0.038561   0.000013  -0.000627
    36  H    0.000005  -0.000019  -0.000018  -0.000991  -0.000001   0.000011
    37  H    0.000000  -0.000014   0.000017   0.000559   0.000000   0.000011
    38  H    0.000000   0.000024  -0.000001  -0.000387   0.000000   0.000000
    39  H    0.000009  -0.000481  -0.000256  -0.002599  -0.000006  -0.000117
    40  H    0.000000   0.000031   0.000004   0.000573   0.000000  -0.000007
               7          8          9         10         11         12
     1  H    0.018017  -0.096719   0.030637  -0.000855   0.030163  -0.009201
     2  C   -0.836973  -0.813454  -1.038329   0.041311  -0.102707   0.037234
     3  C    0.505630  -1.221447  -1.563695  -0.248263   0.383782   0.026451
     4  C   -0.161088  -0.320183  -0.877322  -0.027391  -0.847859  -0.152499
     5  H    0.004142   0.000015  -0.042425  -0.033427  -0.020630   0.002339
     6  C   -0.021405  -0.305483   0.370108   0.276906  -0.371958   0.024057
     7  C   11.447791   1.610960  -0.310673  -0.003151   3.964621   0.523709
     8  C    1.610960  11.055775   0.984511  -0.041093  -0.811859   0.111674
     9  C   -0.310673   0.984511   8.567860  -0.290140  -0.300209  -0.012144
    10  N   -0.003151  -0.041093  -0.290140   6.993481   0.005015  -0.000788
    11  C    3.964621  -0.811859  -0.300209   0.005015  17.991440   0.169213
    12  H    0.523709   0.111674  -0.012144  -0.000788   0.169213   0.470789
    13  H    0.057300   0.579552   0.073572  -0.001289  -0.117351   0.008813
    14  H    0.010202  -0.043187   0.360357  -0.036161   0.046663  -0.001750
    15  C    0.030945  -0.031378  -0.122790   0.311139  -0.009815  -0.000572
    16  C   -0.008465  -0.037837   0.115638   0.302049   0.017183  -0.000407
    17  C   -4.775598  -2.368229   0.201010   0.002556  -0.137180  -0.176118
    18  H   -0.223688  -0.329139  -0.146532  -0.000955   0.578979  -0.006065
    19  H   -0.001968  -0.004895  -0.004870  -0.055421   0.001407  -0.000061
    20  H    0.003597   0.004165   0.015840  -0.046077  -0.000321  -0.000011
    21  H   -0.001855  -0.003399  -0.008448  -0.055194  -0.000080  -0.000118
    22  H   -0.001663  -0.001624   0.016144  -0.047335   0.001113  -0.000048
    23  H   -0.000102   0.001213   0.035568  -0.055308  -0.001428   0.000100
    24  H    0.000042  -0.003489   0.031148  -0.052058  -0.001308   0.000123
    25  C   -3.736171  -1.212829   0.205863   0.000422  -7.070384  -0.192264
    26  O    0.072661   0.000677   0.000087  -0.000001  -0.288456  -0.004448
    27  C   -0.382565   0.083749  -0.059619  -0.000002  -0.225288   0.025100
    28  C   -1.755187  -0.177499   0.039286   0.000018  -5.947602  -0.086105
    29  H   -0.041185  -0.008273   0.000620   0.000002  -0.026872  -0.001534
    30  C   -0.108932   0.083730   0.008982   0.000004  -0.747841   0.005682
    31  H   -0.027516   0.008450   0.002469   0.000054  -0.054513   0.001162
    32  O    0.017103   0.000105   0.000057   0.000000  -0.006563  -0.001742
    33  C    0.160693   0.042386   0.000801  -0.000001   0.372386   0.003207
    34  C   -0.138813  -0.023003   0.005618   0.000001  -0.478081  -0.002392
    35  C   -0.091680  -0.026509  -0.002231   0.000001  -0.349824  -0.001644
    36  H    0.003083   0.000608   0.000021   0.000000   0.005078  -0.000022
    37  H   -0.000538  -0.000172  -0.000036   0.000000   0.003846  -0.000014
    38  H    0.000291   0.000258  -0.000009   0.000000   0.002060   0.000012
    39  H   -0.000584   0.001175   0.000245   0.000001  -0.015848  -0.000050
    40  H    0.000030  -0.000321   0.000001   0.000000   0.000362   0.000008
              13         14         15         16         17         18
     1  H   -0.007144   0.002511   0.002607   0.000561   0.071513   0.005339
     2  C    0.031779  -0.020882  -0.068150  -0.023634   0.139200   0.042093
     3  C   -0.020198  -0.004809   0.191392  -0.162040   0.015515   0.042210
     4  C   -0.242019   0.164877  -0.161804   0.016796   0.165198   0.134150
     5  H    0.002605  -0.000681   0.017320  -0.005002  -0.006290  -0.001204
     6  C    0.236085  -0.253214  -0.148967  -0.203715  -0.253506  -0.083902
     7  C    0.057300   0.010202   0.030945  -0.008465  -4.775598  -0.223688
     8  C    0.579552  -0.043187  -0.031378  -0.037837  -2.368229  -0.329139
     9  C    0.073572   0.360357  -0.122790   0.115638   0.201010  -0.146532
    10  N   -0.001289  -0.036161   0.311139   0.302049   0.002556  -0.000955
    11  C   -0.117351   0.046663  -0.009815   0.017183  -0.137180   0.578979
    12  H    0.008813  -0.001750  -0.000572  -0.000407  -0.176118  -0.006065
    13  H    0.646256  -0.058756   0.000717   0.002466  -0.133717  -0.126029
    14  H   -0.058756   0.547143  -0.004447   0.017318   0.023209   0.023925
    15  C    0.000717  -0.004447   5.272288  -0.111472  -0.000833  -0.000113
    16  C    0.002466   0.017318  -0.111472   5.234721   0.005625  -0.000127
    17  C   -0.133717   0.023209  -0.000833   0.005625  14.929696   0.247770
    18  H   -0.126029   0.023925  -0.000113  -0.000127   0.247770   1.041618
    19  H    0.000063  -0.001129   0.411829  -0.001333   0.000252  -0.000036
    20  H   -0.000528   0.002456   0.404698  -0.011696  -0.000061   0.000066
    21  H   -0.000218   0.000155   0.423812   0.000138  -0.000063   0.000067
    22  H   -0.000287   0.007652  -0.015300   0.400560   0.000320   0.000029
    23  H    0.002628  -0.013928   0.001133   0.416998  -0.000772  -0.000508
    24  H    0.002768  -0.012129  -0.002597   0.418896  -0.000470  -0.000570
    25  C   -0.125847   0.013257  -0.000990   0.002486   2.974162   0.377071
    26  O    0.002079   0.000018   0.000009   0.000000   0.845012  -0.005035
    27  C    0.015782  -0.002536   0.000092  -0.000729  -0.064020  -0.151702
    28  C   -0.027056   0.001406  -0.000033   0.000091  -4.187704   0.166963
    29  H   -0.000157   0.000015  -0.000005   0.000004   0.051691   0.000275
    30  C    0.047777  -0.003089  -0.000005  -0.000107  -0.524740  -0.307256
    31  H    0.009886  -0.001124   0.000003  -0.000016  -0.056350  -0.091892
    32  O    0.000055  -0.000001   0.000000   0.000000  -0.050923   0.001775
    33  C    0.002205  -0.000238  -0.000001  -0.000010   0.087604  -0.000465
    34  C   -0.003386   0.000252   0.000001   0.000027  -0.196259   0.024083
    35  C   -0.000372   0.000207   0.000000   0.000004  -0.718797  -0.035874
    36  H    0.000024  -0.000003   0.000000   0.000000   0.003246  -0.000147
    37  H    0.000003   0.000002   0.000000   0.000000  -0.000582   0.000994
    38  H    0.000247  -0.000017   0.000000   0.000000   0.000153  -0.000623
    39  H   -0.002881   0.000111  -0.000003  -0.000002   0.002950   0.006748
    40  H   -0.000088   0.000006   0.000000   0.000000   0.008232  -0.000007
              19         20         21         22         23         24
     1  H    0.000601  -0.000012   0.000506  -0.000054  -0.000171  -0.000246
     2  C   -0.015050  -0.016103   0.012763   0.009976  -0.005997  -0.005117
     3  C    0.007121   0.015819   0.025768   0.005688  -0.011395  -0.011011
     4  C    0.006317  -0.009497   0.008667   0.007222  -0.007492  -0.011452
     5  H   -0.009613   0.005925  -0.008355   0.001404  -0.000288  -0.000361
     6  C    0.015233  -0.003277  -0.042154  -0.016166  -0.009964  -0.001847
     7  C   -0.001968   0.003597  -0.001855  -0.001663  -0.000102   0.000042
     8  C   -0.004895   0.004165  -0.003399  -0.001624   0.001213  -0.003489
     9  C   -0.004870   0.015840  -0.008448   0.016144   0.035568   0.031148
    10  N   -0.055421  -0.046077  -0.055194  -0.047335  -0.055308  -0.052058
    11  C    0.001407  -0.000321  -0.000080   0.001113  -0.001428  -0.001308
    12  H   -0.000061  -0.000011  -0.000118  -0.000048   0.000100   0.000123
    13  H    0.000063  -0.000528  -0.000218  -0.000287   0.002628   0.002768
    14  H   -0.001129   0.002456   0.000155   0.007652  -0.013928  -0.012129
    15  C    0.411829   0.404698   0.423812  -0.015300   0.001133  -0.002597
    16  C   -0.001333  -0.011696   0.000138   0.400560   0.416998   0.418896
    17  C    0.000252  -0.000061  -0.000063   0.000320  -0.000772  -0.000470
    18  H   -0.000036   0.000066   0.000067   0.000029  -0.000508  -0.000570
    19  H    0.567728  -0.022689  -0.062550  -0.001860  -0.002377   0.002444
    20  H   -0.022689   0.513405  -0.020475   0.012770  -0.001600  -0.002294
    21  H   -0.062550  -0.020475   0.548118  -0.002019   0.001866  -0.002338
    22  H   -0.001860   0.012770  -0.002019   0.507254  -0.022154  -0.020365
    23  H   -0.002377  -0.001600   0.001866  -0.022154   0.557845  -0.063464
    24  H    0.002444  -0.002294  -0.002338  -0.020365  -0.063464   0.563712
    25  C    0.000089  -0.000069   0.000071   0.000153  -0.000330  -0.000275
    26  O   -0.000001   0.000000  -0.000001   0.000000   0.000000   0.000000
    27  C    0.000019   0.000013  -0.000034  -0.000046   0.000072   0.000119
    28  C    0.000009  -0.000002   0.000004   0.000005  -0.000022  -0.000009
    29  H    0.000001   0.000000   0.000000   0.000000  -0.000001   0.000000
    30  C    0.000003  -0.000001  -0.000003  -0.000005   0.000028   0.000029
    31  H   -0.000001  -0.000001  -0.000001  -0.000004   0.000046  -0.000007
    32  O    0.000000   0.000000   0.000000   0.000000   0.000000   0.000000
    33  C    0.000000   0.000000   0.000000  -0.000001   0.000003   0.000003
    34  C    0.000000   0.000000   0.000000   0.000001  -0.000006   0.000003
    35  C    0.000000   0.000000   0.000000   0.000000  -0.000003  -0.000003
    36  H    0.000000   0.000000   0.000000   0.000000   0.000000   0.000000
    37  H    0.000000   0.000000   0.000000   0.000000   0.000000   0.000000
    38  H    0.000000   0.000000   0.000000   0.000000   0.000000   0.000000
    39  H    0.000001   0.000000   0.000000   0.000000  -0.000004   0.000003
    40  H    0.000000   0.000000   0.000000   0.000000   0.000000   0.000000
              25         26         27         28         29         30
     1  H    0.027783   0.001005  -0.004417   0.008381   0.000220  -0.000618
     2  C   -0.046263  -0.012136   0.027297  -0.002105   0.001009  -0.013636
     3  C   -0.125926  -0.002014   0.036813  -0.015350  -0.000246  -0.000194
     4  C    0.339877   0.046057  -0.359210  -0.068010  -0.005801  -0.128451
     5  H   -0.002521   0.000038   0.000218  -0.000481  -0.000014   0.000057
     6  C   -0.081833  -0.000439  -0.000392  -0.004626  -0.000495   0.002943
     7  C   -3.736171   0.072661  -0.382565  -1.755187  -0.041185  -0.108932
     8  C   -1.212829   0.000677   0.083749  -0.177499  -0.008273   0.083730
     9  C    0.205863   0.000087  -0.059619   0.039286   0.000620   0.008982
    10  N    0.000422  -0.000001  -0.000002   0.000018   0.000002   0.000004
    11  C   -7.070384  -0.288456  -0.225288  -5.947602  -0.026872  -0.747841
    12  H   -0.192264  -0.004448   0.025100  -0.086105  -0.001534   0.005682
    13  H   -0.125847   0.002079   0.015782  -0.027056  -0.000157   0.047777
    14  H    0.013257   0.000018  -0.002536   0.001406   0.000015  -0.003089
    15  C   -0.000990   0.000009   0.000092  -0.000033  -0.000005  -0.000005
    16  C    0.002486   0.000000  -0.000729   0.000091   0.000004  -0.000107
    17  C    2.974162   0.845012  -0.064020  -4.187704   0.051691  -0.524740
    18  H    0.377071  -0.005035  -0.151702   0.166963   0.000275  -0.307256
    19  H    0.000089  -0.000001   0.000019   0.000009   0.000001   0.000003
    20  H   -0.000069   0.000000   0.000013  -0.000002   0.000000  -0.000001
    21  H    0.000071  -0.000001  -0.000034   0.000004   0.000000  -0.000003
    22  H    0.000153   0.000000  -0.000046   0.000005   0.000000  -0.000005
    23  H   -0.000330   0.000000   0.000072  -0.000022  -0.000001   0.000028
    24  H   -0.000275   0.000000   0.000119  -0.000009   0.000000   0.000029
    25  C   24.112230  -0.087716  -1.294540  -0.420916  -0.134775  -5.919160
    26  O   -0.087716   8.099666  -0.099143  -0.260059   0.087150  -0.054164
    27  C   -1.294540  -0.099143  10.535367  -1.642440   0.032683   1.630800
    28  C   -0.420916  -0.260059  -1.642440  19.341854   0.075170   0.132784
    29  H   -0.134775   0.087150   0.032683   0.075170   0.288885   0.037031
    30  C   -5.919160  -0.054164   1.630800   0.132784   0.037031  12.641510
    31  H   -0.047647   0.000624   0.401488   0.063126   0.001691   0.031083
    32  O    0.197215   0.005226  -0.038821   0.192755   0.224572  -0.086667
    33  C   -3.206221  -0.011852  -0.564285   1.548297   0.028940   0.165562
    34  C   -0.875725  -0.005543   0.104543   0.939089   0.003862  -0.477112
    35  C    1.040840   0.006479  -1.192337  -1.528711  -0.008656  -0.221822
    36  H   -0.123716   0.000436   0.002625  -0.083469   0.000644   0.029583
    37  H   -0.007735  -0.000064   0.008809   0.009629   0.000032  -0.049640
    38  H   -0.012450  -0.000024  -0.020531  -0.003406  -0.000052  -0.008505
    39  H    0.046089  -0.000191   0.106498  -0.001933   0.000003  -0.156648
    40  H    0.135824   0.000277  -0.033698  -0.034557  -0.000251  -0.071492
              31         32         33         34         35         36
     1  H    0.000012   0.000081   0.000158   0.000142   0.000051   0.000005
     2  C    0.002683  -0.000243  -0.000363   0.001368   0.000019  -0.000019
     3  C    0.000417  -0.000044  -0.000953   0.000211   0.000261  -0.000018
     4  C   -0.023129   0.003027  -0.047543  -0.011167   0.038561  -0.000991
     5  H    0.000033  -0.000001  -0.000035  -0.000011   0.000013  -0.000001
     6  C   -0.001119  -0.000006   0.000957  -0.000630  -0.000627   0.000011
     7  C   -0.027516   0.017103   0.160693  -0.138813  -0.091680   0.003083
     8  C    0.008450   0.000105   0.042386  -0.023003  -0.026509   0.000608
     9  C    0.002469   0.000057   0.000801   0.005618  -0.002231   0.000021
    10  N    0.000054   0.000000  -0.000001   0.000001   0.000001   0.000000
    11  C   -0.054513  -0.006563   0.372386  -0.478081  -0.349824   0.005078
    12  H    0.001162  -0.001742   0.003207  -0.002392  -0.001644  -0.000022
    13  H    0.009886   0.000055   0.002205  -0.003386  -0.000372   0.000024
    14  H   -0.001124  -0.000001  -0.000238   0.000252   0.000207  -0.000003
    15  C    0.000003   0.000000  -0.000001   0.000001   0.000000   0.000000
    16  C   -0.000016   0.000000  -0.000010   0.000027   0.000004   0.000000
    17  C   -0.056350  -0.050923   0.087604  -0.196259  -0.718797   0.003246
    18  H   -0.091892   0.001775  -0.000465   0.024083  -0.035874  -0.000147
    19  H   -0.000001   0.000000   0.000000   0.000000   0.000000   0.000000
    20  H   -0.000001   0.000000   0.000000   0.000000   0.000000   0.000000
    21  H   -0.000001   0.000000   0.000000   0.000000   0.000000   0.000000
    22  H   -0.000004   0.000000  -0.000001   0.000001   0.000000   0.000000
    23  H    0.000046   0.000000   0.000003  -0.000006  -0.000003   0.000000
    24  H   -0.000007   0.000000   0.000003   0.000003  -0.000003   0.000000
    25  C   -0.047647   0.197215  -3.206221  -0.875725   1.040840  -0.123716
    26  O    0.000624   0.005226  -0.011852  -0.005543   0.006479   0.000436
    27  C    0.401488  -0.038821  -0.564285   0.104543  -1.192337   0.002625
    28  C    0.063126   0.192755   1.548297   0.939089  -1.528711  -0.083469
    29  H    0.001691   0.224572   0.028940   0.003862  -0.008656   0.000644
    30  C    0.031083  -0.086667   0.165562  -0.477112  -0.221822   0.029583
    31  H    0.688143  -0.002717   0.044355  -0.056131   0.049917   0.001196
    32  O   -0.002717   8.151430  -0.330000  -0.010021   0.092212  -0.024901
    33  C    0.044355  -0.330000   8.304118  -0.113774  -0.525008   0.565984
    34  C   -0.056131  -0.010021  -0.113774   7.720702  -1.034768   0.004397
    35  C    0.049917   0.092212  -0.525008  -1.034768  10.510406  -0.071461
    36  H    0.001196  -0.024901   0.565984   0.004397  -0.071461   0.468386
    37  H   -0.004999  -0.000187   0.000680   0.411704  -0.021139   0.000166
    38  H   -0.000430  -0.000158   0.014165   0.359749   0.026417   0.000801
    39  H   -0.010117  -0.000020  -0.013204   0.404233  -0.031839  -0.000081
    40  H   -0.002548   0.003319  -0.109100  -0.019202   0.444517  -0.014856
              37         38         39         40
     1  H    0.000000   0.000000   0.000009   0.000000
     2  C   -0.000014   0.000024  -0.000481   0.000031
     3  C    0.000017  -0.000001  -0.000256   0.000004
     4  C    0.000559  -0.000387  -0.002599   0.000573
     5  H    0.000000   0.000000  -0.000006   0.000000
     6  C    0.000011   0.000000  -0.000117  -0.000007
     7  C   -0.000538   0.000291  -0.000584   0.000030
     8  C   -0.000172   0.000258   0.001175  -0.000321
     9  C   -0.000036  -0.000009   0.000245   0.000001
    10  N    0.000000   0.000000   0.000001   0.000000
    11  C    0.003846   0.002060  -0.015848   0.000362
    12  H   -0.000014   0.000012  -0.000050   0.000008
    13  H    0.000003   0.000247  -0.002881  -0.000088
    14  H    0.000002  -0.000017   0.000111   0.000006
    15  C    0.000000   0.000000  -0.000003   0.000000
    16  C    0.000000   0.000000  -0.000002   0.000000
    17  C   -0.000582   0.000153   0.002950   0.008232
    18  H    0.000994  -0.000623   0.006748  -0.000007
    19  H    0.000000   0.000000   0.000001   0.000000
    20  H    0.000000   0.000000   0.000000   0.000000
    21  H    0.000000   0.000000   0.000000   0.000000
    22  H    0.000000   0.000000   0.000000   0.000000
    23  H    0.000000   0.000000  -0.000004   0.000000
    24  H    0.000000   0.000000   0.000003   0.000000
    25  C   -0.007735  -0.012450   0.046089   0.135824
    26  O   -0.000064  -0.000024  -0.000191   0.000277
    27  C    0.008809  -0.020531   0.106498  -0.033698
    28  C    0.009629  -0.003406  -0.001933  -0.034557
    29  H    0.000032  -0.000052   0.000003  -0.000251
    30  C   -0.049640  -0.008505  -0.156648  -0.071492
    31  H   -0.004999  -0.000430  -0.010117  -0.002548
    32  O   -0.000187  -0.000158  -0.000020   0.003319
    33  C    0.000680   0.014165  -0.013204  -0.109100
    34  C    0.411704   0.359749   0.404233  -0.019202
    35  C   -0.021139   0.026417  -0.031839   0.444517
    36  H    0.000166   0.000801  -0.000081  -0.014856
    37  H    0.551351  -0.061398  -0.016522  -0.002702
    38  H   -0.061398   0.559071  -0.020445  -0.002356
    39  H   -0.016522  -0.020445   0.537520   0.002327
    40  H   -0.002702  -0.002356   0.002327   0.487522
 Mulliken charges:
               1
     1  H    0.215738
     2  C   -0.289072
     3  C   -0.270747
     4  C    0.939201
     5  H    0.188191
     6  C   -0.612353
     7  C    0.198982
     8  C   -0.686981
     9  C   -0.286971
    10  N    0.061951
    11  C    0.360665
    12  H    0.240323
    13  H    0.144661
    14  H    0.236339
    15  C   -0.388710
    16  C   -0.384969
    17  C   -0.122703
    18  H   -0.182285
    19  H    0.170737
    20  H    0.155958
    21  H    0.185373
    22  H    0.158639
    23  H    0.179814
    24  H    0.172121
    25  C    1.252871
    26  O   -0.336213
    27  C   -0.875732
    28  C   -0.271584
    29  H    0.393820
    30  C    0.062498
    31  H    0.073424
    32  O   -0.335916
    33  C   -0.419451
    34  C   -0.533962
    35  C   -0.346602
    36  H    0.233391
    37  H    0.177939
    38  H    0.167543
    39  H    0.165919
    40  H    0.208152
 Sum of Mulliken charges =   0.00000
 Mulliken charges with hydrogens summed into heavy atoms:
               1
     2  C   -0.073334
     3  C   -0.082556
     4  C    0.939201
     6  C   -0.612353
     7  C    0.439305
     8  C   -0.542319
     9  C   -0.050632
    10  N    0.061951
    11  C    0.178380
    15  C    0.123358
    16  C    0.125605
    17  C   -0.122703
    25  C    1.252871
    26  O   -0.336213
    27  C   -0.802308
    28  C   -0.271584
    30  C    0.062498
    32  O    0.057904
    33  C   -0.186060
    34  C   -0.022560
    35  C   -0.138450
 Electronic spatial extent (au):  <R**2>=          18345.9117
 Charge=              0.0000 electrons
 Dipole moment (field-independent basis, Debye):
    X=              1.3278    Y=             -9.0694    Z=             -3.4073  Tot=              9.7789
 Quadrupole moment (field-independent basis, Debye-Ang):
   XX=           -118.7007   YY=            -73.4222   ZZ=           -112.2197
   XY=            -16.5696   XZ=              9.2649   YZ=              9.8080
 Traceless Quadrupole moment (field-independent basis, Debye-Ang):
   XX=            -17.2532   YY=             28.0253   ZZ=            -10.7721
   XY=            -16.5696   XZ=              9.2649   YZ=              9.8080
 Octapole moment (field-independent basis, Debye-Ang**2):
  XXX=           -687.0481  YYY=            536.7102  ZZZ=           -608.5676  XYY=           -127.6535
  XXY=            292.8432  XXZ=           -173.6557  XZZ=           -161.7599  YZZ=            247.8821
  YYZ=           -363.3442  XYZ=            -11.2779
 Hexadecapole moment (field-independent basis, Debye-Ang**3):
 XXXX=          -3861.6609 YYYY=          -8665.8338 ZZZZ=          -8648.5453 XXXY=           1272.2139
 XXXZ=          -2170.3474 YYYX=            472.5054 YYYZ=             10.4069 ZZZX=          -1788.0807
 ZZZY=           -977.0506 XXYY=          -2441.9480 XXZZ=          -1853.8036 YYZZ=          -3113.8966
 XXYZ=           -403.4313 YYXZ=           -840.9596 ZZXY=            392.9078
 N-N= 1.481087561461D+03 E-N=-5.062260818951D+03  KE= 8.982547803940D+02
 Leave Link  601 at Fri Nov  3 14:41:37 2017, MaxMem=  3758096384 cpu:         0.6
 (Enter /share/apps/gaussian/g09_D01/g09/l9999.exe)
 1\1\GINC-NXN33\SP\RwB97XD TD-FC\6-311++G(d,p)\C18H19N1O2\BTX008\03-Nov
 -2017\0\\#p wb97xd 6-311++G** td=(nstates=4) nosymm\\Title\\0,1\H,0,-0
 .511118,-2.858447,-1.27793\C,0,0.184268,-3.640208,-0.973811\C,0,0.2691
 03,-4.798855,-1.718\C,0,0.976718,-3.420993,0.178919\H,0,-0.359864,-4.9
 1372,-2.598454\C,0,1.170762,-5.834385,-1.34135\C,0,0.878808,-2.180322,
 0.88254\C,0,1.861141,-4.464382,0.551623\C,0,1.961142,-5.628701,-0.1724
 07\N,0,1.27814,-6.976522,-2.06582\C,0,1.585681,-1.821645,1.999082\H,0,
 0.182215,-1.444266,0.466766\H,0,2.487573,-4.353397,1.436169\H,0,2.6575
 2,-6.395843,0.157913\C,0,0.460908,-7.174323,-3.253037\C,0,2.211841,-8.
 018129,-1.656186\C,0,1.467449,-0.532362,2.622715\H,0,2.2896,-2.528565,
 2.433749\H,0,-0.610241,-7.095578,-3.016782\H,0,0.65337,-8.170357,-3.66
 1002\H,0,0.696525,-6.431926,-4.031589\H,0,2.180453,-8.834703,-2.384121
 \H,0,1.948639,-8.420379,-0.666002\H,0,3.242108,-7.631529,-1.609305\C,0
 ,2.245913,-0.228357,3.839616\O,0,0.715061,0.388406,2.136689\C,0,2.9125
 81,-1.218549,4.58863\C,0,2.338798,1.120413,4.28606\H,0,1.138895,1.5907
 39,2.91642\C,0,3.649563,-0.927219,5.72879\H,0,2.857368,-2.258838,4.272
 261\O,0,1.699561,2.112082,3.625623\C,0,3.117416,1.42905,5.412007\C,0,4
 .327222,-2.023253,6.505795\C,0,3.752856,0.421359,6.122356\H,0,3.203047
 ,2.471438,5.719167\H,0,3.902137,-2.120887,7.51775\H,0,5.397803,-1.8124
 39,6.636276\H,0,4.22994,-2.986328,5.98728\H,0,4.342342,0.675414,7.0060
 38\\Version=ES64L-G09RevD.01\HF=-902.4764806\RMSD=7.560e-09\PG=C01 [X(
 C18H19N1O2)]\\@


 IT'S WHAT YOU LEARN AFTER YOU KNOW IT ALL
 THAT COUNTS.
 Job cpu time:       0 days  3 hours  0 minutes 58.7 seconds.
 File lengths (MBytes):  RWF=    513 Int=      0 D2E=      0 Chk=     58 Scr=      1
 Normal termination of Gaussian 09 at Fri Nov  3 14:41:48 2017.
