 Entering Gaussian System, Link 0=g09
 Input=2hc_1_rel-mega_dimer_0_mon-1.com
 Output=2hc_1_rel-mega_dimer_0_mon-1.out
 Initial command:
 /share/apps/gaussian/g09_D01/g09/l1.exe "/tmp/162432.1.all.q/Gau-12646.inp" -scrdir="/tmp/162432.1.all.q/"
 Entering Link 1 = /share/apps/gaussian/g09_D01/g09/l1.exe PID=     12647.
  
 Copyright (c) 1988,1990,1992,1993,1995,1998,2003,2009,2013,
            Gaussian, Inc.  All Rights Reserved.
  
 This is part of the Gaussian(R) 09 program.  It is based on
 the Gaussian(R) 03 system (copyright 2003, Gaussian, Inc.),
 the Gaussian(R) 98 system (copyright 1998, Gaussian, Inc.),
 the Gaussian(R) 94 system (copyright 1995, Gaussian, Inc.),
 the Gaussian 92(TM) system (copyright 1992, Gaussian, Inc.),
 the Gaussian 90(TM) system (copyright 1990, Gaussian, Inc.),
 the Gaussian 88(TM) system (copyright 1988, Gaussian, Inc.),
 the Gaussian 86(TM) system (copyright 1986, Carnegie Mellon
 University), and the Gaussian 82(TM) system (copyright 1983,
 Carnegie Mellon University). Gaussian is a federally registered
 trademark of Gaussian, Inc.
  
 This software contains proprietary and confidential information,
 including trade secrets, belonging to Gaussian, Inc.
  
 This software is provided under written license and may be
 used, copied, transmitted, or stored only in accord with that
 written license.
  
 The following legend is applicable only to US Government
 contracts under FAR:
  
                    RESTRICTED RIGHTS LEGEND
  
 Use, reproduction and disclosure by the US Government is
 subject to restrictions as set forth in subparagraphs (a)
 and (c) of the Commercial Computer Software - Restricted
 Rights clause in FAR 52.227-19.
  
 Gaussian, Inc.
 340 Quinnipiac St., Bldg. 40, Wallingford CT 06492
  
  
 ---------------------------------------------------------------
 Warning -- This program may not be used in any manner that
 competes with the business of Gaussian, Inc. or will provide
 assistance to any competitor of Gaussian, Inc.  The licensee
 of this program is prohibited from giving any competitor of
 Gaussian, Inc. access to this program.  By using this program,
 the user acknowledges that Gaussian, Inc. is engaged in the
 business of creating and licensing software in the field of
 computational chemistry and represents and warrants to the
 licensee that it is not a competitor of Gaussian, Inc. and that
 it will not use this program in any manner prohibited above.
 ---------------------------------------------------------------
  

 Cite this work as:
 Gaussian 09, Revision D.01,
 M. J. Frisch, G. W. Trucks, H. B. Schlegel, G. E. Scuseria, 
 M. A. Robb, J. R. Cheeseman, G. Scalmani, V. Barone, B. Mennucci, 
 G. A. Petersson, H. Nakatsuji, M. Caricato, X. Li, H. P. Hratchian, 
 A. F. Izmaylov, J. Bloino, G. Zheng, J. L. Sonnenberg, M. Hada, 
 M. Ehara, K. Toyota, R. Fukuda, J. Hasegawa, M. Ishida, T. Nakajima, 
 Y. Honda, O. Kitao, H. Nakai, T. Vreven, J. A. Montgomery, Jr., 
 J. E. Peralta, F. Ogliaro, M. Bearpark, J. J. Heyd, E. Brothers, 
 K. N. Kudin, V. N. Staroverov, T. Keith, R. Kobayashi, J. Normand, 
 K. Raghavachari, A. Rendell, J. C. Burant, S. S. Iyengar, J. Tomasi, 
 M. Cossi, N. Rega, J. M. Millam, M. Klene, J. E. Knox, J. B. Cross, 
 V. Bakken, C. Adamo, J. Jaramillo, R. Gomperts, R. E. Stratmann, 
 O. Yazyev, A. J. Austin, R. Cammi, C. Pomelli, J. W. Ochterski, 
 R. L. Martin, K. Morokuma, V. G. Zakrzewski, G. A. Voth, 
 P. Salvador, J. J. Dannenberg, S. Dapprich, A. D. Daniels, 
 O. Farkas, J. B. Foresman, J. V. Ortiz, J. Cioslowski, 
 and D. J. Fox, Gaussian, Inc., Wallingford CT, 2013.
 
 ******************************************
 Gaussian 09:  ES64L-G09RevD.01 24-Apr-2013
                 6-Nov-2017 
 ******************************************
 %chk=2hc_1_rel-mega_dimer_0.chk
 %nproc=4
 Will use up to    4 processors via shared memory.
 %mem=28GB
 --------------------------------------
 #p wb97xd 6-31G* td=(nstates=4) nosymm
 --------------------------------------
 1/38=1/1;
 2/12=2,15=1,17=6,18=5,40=1/2;
 3/5=1,6=6,7=1,11=9,16=1,25=1,30=1,74=-58/1,2,8,3;
 4//1;
 5/5=2,38=5/2;
 8/6=1,10=2,108=4/1;
 9/41=4,42=1,70=2/14;
 6/7=2,8=2,9=2,10=2/1;
 99/5=1,9=1/99;
 Leave Link    1 at Mon Nov  6 20:54:37 2017, MaxMem=  3758096384 cpu:         0.1
 (Enter /share/apps/gaussian/g09_D01/g09/l101.exe)
 -----
 Title
 -----
 Symbolic Z-matrix:
 Charge =  0 Multiplicity = 1
 C                    -2.78161  -1.92986   4.94906 
 C                    -3.89957  -1.10495   4.62304 
 H                    -2.8573   -2.66721   5.74398 
 C                    -1.5894   -1.80698   4.27351 
 C                    -3.73394  -0.16755   3.56643 
 N                    -5.07346  -1.20934   5.29752 
 C                    -1.41541  -0.872     3.22288 
 H                    -0.76491  -2.4603    4.56163 
 C                    -2.53385  -0.06773   2.89681 
 H                    -4.56211   0.46939   3.26587 
 C                    -5.21879  -2.19137   6.36071 
 C                    -6.18705  -0.32491   4.98381 
 C                    -0.21471  -0.74557   2.45765 
 H                    -2.43648   0.64979   2.08077 
 H                    -5.02617  -3.20909   5.98734 
 H                    -6.23846  -2.15122   6.75469 
 H                    -4.51921  -1.99012   7.18556 
 H                    -7.00493  -0.51606   5.68534 
 H                    -6.55497  -0.49358   3.95992 
 H                    -5.8863    0.73007   5.07245 
 C                     0.96817  -1.41246   2.64576 
 H                    -0.25758  -0.05055   1.61209 
 C                     2.08824  -1.23843   1.75948 
 H                     1.07416  -2.09981   3.4826 
 C                     3.38002  -1.90119   2.02727 
 O                     1.99078  -0.49847   0.71343 
 C                     4.46043  -1.698     1.11664 
 C                     3.61705  -2.72362   3.1491 
 H                     3.31167  -0.61359   0.09184 
 O                     4.30303  -0.94423   0.0109 
 C                     5.7133   -2.28044   1.366 
 C                     4.85279  -3.30849   3.38016 
 H                     2.81664  -2.92067   3.86049 
 C                     5.90593  -3.07695   2.48504 
 H                     6.5213   -2.07337   0.66433 
 H                     5.00161  -3.94637   4.25093 
 H                     6.88356  -3.52291   2.6748 
 
 NAtoms=     37 NQM=       37 NQMF=       0 NMMI=      0 NMMIF=      0
                NMic=       0 NMicF=      0.
                    Isotopes and Nuclear Properties:
 (Nuclear quadrupole moments (NQMom) in fm**2, nuclear magnetic moments (NMagM)
  in nuclear magnetons)

  Atom         1           2           3           4           5           6           7           8           9          10
 IAtWgt=          12          12           1          12          12          14          12           1          12           1
 AtmWgt=  12.0000000  12.0000000   1.0078250  12.0000000  12.0000000  14.0030740  12.0000000   1.0078250  12.0000000   1.0078250
 NucSpn=           0           0           1           0           0           2           0           1           0           1
 AtZEff=   0.0000000   0.0000000   0.0000000   0.0000000   0.0000000   0.0000000   0.0000000   0.0000000   0.0000000   0.0000000
 NQMom=    0.0000000   0.0000000   0.0000000   0.0000000   0.0000000   2.0440000   0.0000000   0.0000000   0.0000000   0.0000000
 NMagM=    0.0000000   0.0000000   2.7928460   0.0000000   0.0000000   0.4037610   0.0000000   2.7928460   0.0000000   2.7928460
 AtZNuc=   6.0000000   6.0000000   1.0000000   6.0000000   6.0000000   7.0000000   6.0000000   1.0000000   6.0000000   1.0000000

  Atom        11          12          13          14          15          16          17          18          19          20
 IAtWgt=          12          12          12           1           1           1           1           1           1           1
 AtmWgt=  12.0000000  12.0000000  12.0000000   1.0078250   1.0078250   1.0078250   1.0078250   1.0078250   1.0078250   1.0078250
 NucSpn=           0           0           0           1           1           1           1           1           1           1
 AtZEff=   0.0000000   0.0000000   0.0000000   0.0000000   0.0000000   0.0000000   0.0000000   0.0000000   0.0000000   0.0000000
 NQMom=    0.0000000   0.0000000   0.0000000   0.0000000   0.0000000   0.0000000   0.0000000   0.0000000   0.0000000   0.0000000
 NMagM=    0.0000000   0.0000000   0.0000000   2.7928460   2.7928460   2.7928460   2.7928460   2.7928460   2.7928460   2.7928460
 AtZNuc=   6.0000000   6.0000000   6.0000000   1.0000000   1.0000000   1.0000000   1.0000000   1.0000000   1.0000000   1.0000000

  Atom        21          22          23          24          25          26          27          28          29          30
 IAtWgt=          12           1          12           1          12          16          12          12           1          16
 AtmWgt=  12.0000000   1.0078250  12.0000000   1.0078250  12.0000000  15.9949146  12.0000000  12.0000000   1.0078250  15.9949146
 NucSpn=           0           1           0           1           0           0           0           0           1           0
 AtZEff=   0.0000000   0.0000000   0.0000000   0.0000000   0.0000000   0.0000000   0.0000000   0.0000000   0.0000000   0.0000000
 NQMom=    0.0000000   0.0000000   0.0000000   0.0000000   0.0000000   0.0000000   0.0000000   0.0000000   0.0000000   0.0000000
 NMagM=    0.0000000   2.7928460   0.0000000   2.7928460   0.0000000   0.0000000   0.0000000   0.0000000   2.7928460   0.0000000
 AtZNuc=   6.0000000   1.0000000   6.0000000   1.0000000   6.0000000   8.0000000   6.0000000   6.0000000   1.0000000   8.0000000

  Atom        31          32          33          34          35          36          37
 IAtWgt=          12          12           1          12           1           1           1
 AtmWgt=  12.0000000  12.0000000   1.0078250  12.0000000   1.0078250   1.0078250   1.0078250
 NucSpn=           0           0           1           0           1           1           1
 AtZEff=   0.0000000   0.0000000   0.0000000   0.0000000   0.0000000   0.0000000   0.0000000
 NQMom=    0.0000000   0.0000000   0.0000000   0.0000000   0.0000000   0.0000000   0.0000000
 NMagM=    0.0000000   0.0000000   2.7928460   0.0000000   2.7928460   2.7928460   2.7928460
 AtZNuc=   6.0000000   6.0000000   1.0000000   6.0000000   1.0000000   1.0000000   1.0000000
 Leave Link  101 at Mon Nov  6 20:54:37 2017, MaxMem=  3758096384 cpu:         0.3
 (Enter /share/apps/gaussian/g09_D01/g09/l202.exe)
                          Input orientation:                          
 ---------------------------------------------------------------------
 Center     Atomic      Atomic             Coordinates (Angstroms)
 Number     Number       Type             X           Y           Z
 ---------------------------------------------------------------------
      1          6           0       -2.781614   -1.929857    4.949057
      2          6           0       -3.899567   -1.104949    4.623044
      3          1           0       -2.857302   -2.667213    5.743983
      4          6           0       -1.589403   -1.806976    4.273514
      5          6           0       -3.733940   -0.167547    3.566427
      6          7           0       -5.073462   -1.209339    5.297522
      7          6           0       -1.415409   -0.871998    3.222876
      8          1           0       -0.764905   -2.460304    4.561627
      9          6           0       -2.533855   -0.067726    2.896805
     10          1           0       -4.562114    0.469394    3.265867
     11          6           0       -5.218792   -2.191368    6.360707
     12          6           0       -6.187049   -0.324912    4.983813
     13          6           0       -0.214710   -0.745572    2.457648
     14          1           0       -2.436476    0.649787    2.080770
     15          1           0       -5.026172   -3.209094    5.987337
     16          1           0       -6.238463   -2.151217    6.754688
     17          1           0       -4.519211   -1.990120    7.185557
     18          1           0       -7.004935   -0.516059    5.685339
     19          1           0       -6.554969   -0.493575    3.959922
     20          1           0       -5.886296    0.730066    5.072453
     21          6           0        0.968167   -1.412456    2.645758
     22          1           0       -0.257580   -0.050548    1.612086
     23          6           0        2.088236   -1.238428    1.759478
     24          1           0        1.074163   -2.099815    3.482603
     25          6           0        3.380024   -1.901192    2.027274
     26          8           0        1.990780   -0.498466    0.713431
     27          6           0        4.460431   -1.697998    1.116638
     28          6           0        3.617050   -2.723616    3.149104
     29          1           0        3.311671   -0.613585    0.091837
     30          8           0        4.303032   -0.944233    0.010896
     31          6           0        5.713299   -2.280435    1.366002
     32          6           0        4.852786   -3.308490    3.380164
     33          1           0        2.816640   -2.920673    3.860494
     34          6           0        5.905928   -3.076949    2.485036
     35          1           0        6.521299   -2.073366    0.664330
     36          1           0        5.001608   -3.946366    4.250925
     37          1           0        6.883564   -3.522908    2.674804
 ---------------------------------------------------------------------
                    Distance matrix (angstroms):
                    1          2          3          4          5
     1  C    0.000000
     2  C    1.427087   0.000000
     3  H    1.086890   2.187119   0.000000
     4  C    1.375800   2.439646   2.123642   0.000000
     5  C    2.433994   1.422179   3.429078   2.790473   0.000000
     6  N    2.427579   1.357883   2.689998   3.680276   2.424116
     7  C    2.442393   2.861080   3.414357   1.417144   2.447420
     8  H    2.120988   3.415679   2.412240   1.090708   3.881021
     9  C    2.782203   2.433290   3.868898   2.410873   1.377883
    10  H    3.429244   2.181617   4.345773   3.877399   1.087153
    11  C    2.828600   2.437239   2.486647   4.204354   3.756147
    12  C    3.764843   2.443601   4.141431   4.882559   2.837515
    13  C    3.768109   4.289086   4.634220   2.512713   3.734767
    14  H    3.873081   3.418024   4.959709   3.400198   2.135094
    15  H    2.784334   2.749174   2.248745   4.088338   4.096545
    16  H    3.906291   3.333019   3.566515   5.280955   4.513601
    17  H    2.832809   2.781000   2.301854   4.134889   4.127533
    18  H    4.514131   3.334452   4.672661   5.743492   3.912883
    19  H    4.156862   2.804402   4.645462   5.145892   2.866939
    20  H    4.090167   2.741595   4.600789   5.053531   2.776051
    21  C    4.430998   5.262989   5.080121   3.057188   4.950479
    22  H    4.586712   4.841663   5.538778   3.455719   3.989764
    23  C    5.862331   6.638645   6.509689   4.490952   6.189474
    24  H    4.128727   5.198880   4.570798   2.793900   5.182523
    25  C    6.819342   7.769458   7.301024   5.454326   7.482179
    26  O    6.539507   7.095709   7.315314   5.215755   6.404804
    27  C    8.196854   9.084941   8.712113   6.824825   8.688582
    28  C    6.694235   7.828928   6.975228   5.404783   7.793889
    29  H    7.902739   8.530840   8.615125   6.552185   7.868441
    30  O    8.691898   9.411714   9.333131   7.323594   8.822582
    31  C    9.226307  10.217499   9.631797   7.874468   9.927562
    32  C    7.914930   9.110655   8.089767   6.674910   9.145058
    33  H    5.788535   6.998984   5.983761   4.563345   7.111700
    34  C    9.102780  10.227785   9.358569   7.809704  10.127245
    35  H   10.243226  11.189446  10.682401   8.881478  10.827014
    36  H    8.070455   9.351098   8.101106   6.929569   9.542422
    37  H   10.056128  11.221323  10.248734   8.791557  11.170713
                    6          7          8          9         10
     6  N    0.000000
     7  C    4.218922   0.000000
     8  H    4.546440   2.176724   0.000000
     9  C    3.676456   1.415661   3.409581   0.000000
    10  H    2.684631   3.420955   4.967990   2.130385   0.000000
    11  C    1.454601   5.104159   4.811042   4.870047   4.133874
    12  C    1.456262   5.115540   5.842755   4.215160   2.494529
    13  C    5.646896   1.429418   2.769431   2.455762   4.585769
    14  H    4.556044   2.159355   4.315260   1.090972   2.440355
    15  H    2.115916   5.112912   4.555407   5.062729   4.599242
    16  H    2.089903   6.113260   5.904650   5.740062   4.674358
    17  H    2.116953   5.156222   4.604443   5.102022   4.627636
    18  H    2.088451   6.118269   6.631802   5.288429   3.576638
    19  H    2.120461   5.205912   6.144503   4.181019   2.319589
    20  H    2.114863   5.096702   6.055415   4.075387   2.255030
    21  C    6.601090   2.511293   2.787845   3.759718   5.874513
    22  H    6.173974   2.147089   3.842407   2.613853   4.640511
    23  C    7.988024   3.814621   4.181559   4.901814   7.029439
    24  H    6.471489   2.788003   2.162502   4.182145   6.198018
    25  C    9.090358   5.048255   4.890398   6.252331   8.380414
    26  O    8.451198   4.247230   5.123595   5.042319   7.098739
    27  C   10.421789   6.296349   6.305014   7.399109   9.524867
    28  C    9.079302   5.362795   4.611516   6.704554   8.781097
    29  H    9.887595   5.675867   6.325177   6.506611   8.558259
    30  O   10.767420   6.559162   6.977937   7.472601   9.549031
    31  C   11.530755   7.500010   7.225752   8.674963  10.805330
    32  C   10.325362   6.726924   5.802907   8.080758  10.145236
    33  H    8.200453   4.744878   3.678450   6.139691   8.141999
    34  C   11.486734   7.681679   7.013736   8.969666  11.079989
    35  H   12.516049   8.425009   8.272086   9.539515  11.665148
    36  H   10.492555   7.189348   5.963018   8.582581  10.579889
    37  H   12.457998   8.729299   7.949107  10.033711  12.136366
                   11         12         13         14         15
    11  C    0.000000
    12  C    2.513368   0.000000
    13  C    6.508843   6.498253   0.000000
    14  H    5.842200   4.841952   2.650530   0.000000
    15  H    1.101033   3.266987   6.455835   6.071141   0.000000
    16  H    1.093875   2.544412   7.531666   6.644264   1.782577
    17  H    1.100133   3.225256   6.513889   6.112753   1.782874
    18  H    2.540293   1.094355   7.521823   5.934891   3.355465
    19  H    3.229805   1.100984   6.520676   4.669098   3.717751
    20  H    3.261892   1.100585   6.417289   4.567042   4.134466
    21  C    7.258513   7.605680   1.370882   4.020404   7.094093
    22  H    7.193479   6.826597   1.095386   2.336177   7.201299
    23  C    8.687466   8.928112   2.456402   4.913411   8.507239
    24  H    6.920487   7.624245   2.132065   4.674402   6.687173
    25  C    9.633404  10.136798   3.800367   6.351537   9.383860
    26  O    9.313193   9.227306   2.822683   4.773751   9.186904
    27  C   11.019575  11.410926   4.956043   7.349080  10.770458
    28  C    9.416464  10.258669   4.367282   7.011873   9.110244
    29  H   10.703127  10.688332   4.248511   6.212339  10.536281
    30  O   11.512627  11.625630   5.141600   7.228156  11.308470
    31  C   12.019385  12.590906   6.220031   8.689990  11.728401
    32  C   10.562589  11.547787   5.753182   8.395816  10.217683
    33  H    8.446959   9.437491   3.985991   6.596274   8.131196
    34  C   11.813741  12.651391   6.549678   9.145911  11.480174
    35  H   13.049612  13.535772   7.095974   9.469086  12.765906
    36  H   10.582428  11.782958   6.377374   9.008845  10.203679
    37  H   12.721081  13.652825   7.625369  10.228754  12.365806
                   16         17         18         19         20
    16  H    0.000000
    17  H    1.779727   0.000000
    18  H    2.098744   3.256122   0.000000
    19  H    3.264762   4.097399   1.783266   0.000000
    20  H    3.354956   3.705879   1.783202   1.783857   0.000000
    21  C    8.328541   7.145263   8.579798   7.692135   7.580430
    22  H    8.162728   7.279218   7.895245   6.735408   6.653265
    23  C    9.752908   8.582874   9.930758   8.949958   8.856858
    24  H    8.011472   6.708929   8.522450   7.810986   7.680094
    25  C   10.720366   9.434707  11.097180  10.218640  10.102540
    26  O   10.341606   9.300184  10.278281   9.141638   9.086181
    27  C   12.102039  10.842098  12.398574  11.440015  11.340138
    28  C   10.509948   9.112064  11.141470  10.445117  10.292754
    29  H   11.745763  10.655441  11.735806  10.598447  10.545830
    30  O   12.572138  11.419353  12.659098  11.562616  11.499784
    31  C   13.111035  11.775218  13.547072  12.666163  12.543983
    32  C   11.650858  10.200659  12.398268  11.764214  11.597485
    33  H    9.537469   8.107816  10.274997   9.681309   9.515137
    34  C   12.906322  11.487368  13.545866  12.811052  12.658777
    35  H   14.138955  12.822878  14.511883  13.577387  13.462511
    36  H   11.654638  10.153076  12.569074  12.064863  11.878147
    37  H   13.809945  12.357978  14.525662  13.835554  13.671351
                   21         22         23         24         25
    21  C    0.000000
    22  H    2.103741   0.000000
    23  C    1.438865   2.633560   0.000000
    24  H    1.088121   3.077640   2.177037   0.000000
    25  C    2.537408   4.102368   1.476376   2.733940   0.000000
    26  O    2.369600   2.462384   1.285012   3.327585   2.371460
    27  C    3.823042   5.021871   2.500351   4.150429   1.427524
    28  C    2.998179   4.951815   2.544428   2.639436   1.411051
    29  H    3.557066   3.920168   2.160613   4.325808   2.325623
    30  O    4.275869   4.915452   2.837148   4.879930   2.415263
    31  C    4.990735   6.378428   3.792319   5.102373   2.454644
    32  C    4.384582   6.313171   3.815038   3.968549   2.445368
    33  H    2.677154   4.769044   2.788331   1.962864   2.171967
    34  C    5.213238   6.921703   4.298996   5.029501   2.823498
    35  H    5.932970   7.137453   4.642038   6.133079   3.428537
    36  H    5.026520   7.056906   4.693397   4.407368   3.428833
    37  H    6.280667   8.011404   5.389976   6.035468   3.914595
                   26         27         28         29         30
    26  O    0.000000
    27  C    2.775001   0.000000
    28  C    3.678118   2.427777   0.000000
    29  H    1.464372   1.883034   3.727247   0.000000
    30  O    2.457391   1.347443   3.672210   1.048178   0.000000
    31  C    4.178326   1.403956   2.787494   3.188997   2.368671
    32  C    4.816511   2.805562   1.386546   4.522239   4.152578
    33  H    4.056247   3.424285   1.088836   4.446402   4.575487
    34  C    5.011541   2.421462   2.409314   4.304153   3.638560
    35  H    4.796699   2.143049   3.877059   3.572173   2.573446
    36  H    5.785064   3.895098   2.150844   5.591183   5.242009
    37  H    6.077299   3.410242   3.396166   5.281505   4.517202
                   31         32         33         34         35
    31  C    0.000000
    32  C    2.419551   0.000000
    33  H    3.875955   2.127677   0.000000
    34  C    1.387003   1.401418   3.385263   0.000000
    35  H    1.089993   3.418365   4.965671   2.168140   0.000000
    36  H    3.406554   1.089614   2.445111   2.166113   4.322182
    37  H    2.150865   2.160455   4.278834   1.091175   2.504878
                   36         37
    36  H    0.000000
    37  H    2.491030   0.000000
 Symmetry turned off by external request.
 Stoichiometry    C17H17NO2
 Framework group  C1[X(C17H17NO2)]
 Deg. of freedom   105
 Full point group                 C1      NOp   1
 Rotational constants (GHZ):      1.0904251      0.1072611      0.0979095
 Leave Link  202 at Mon Nov  6 20:54:37 2017, MaxMem=  3758096384 cpu:         0.0
 (Enter /share/apps/gaussian/g09_D01/g09/l301.exe)
 Standard basis: 6-31G(d) (6D, 7F)
 Ernie: Thresh=  0.10000D-02 Tol=  0.10000D-05 Strict=F.
   334 basis functions,   628 primitive gaussians,   334 cartesian basis functions
    71 alpha electrons       71 beta electrons
       nuclear repulsion energy      1358.4109805671 Hartrees.
 IExCor= 4639 DFT=T Ex+Corr=wB97XD ExCW=0 ScaHFX=  1.000000
 ScaDFX=  1.000000  1.000000  1.000000  1.000000 ScalE2=  1.000000  1.000000
 IRadAn=      0 IRanWt=     -1 IRanGd=            0 ICorTp=0 IEmpDi=121
  HFx wShort=  0.000000 wLong=  0.200000 cFull=  0.222036 cShort=  0.000000 cLong=  0.777964
  DFx wShort=  0.000000 wLong=  0.200000 cFull=  0.000000 cShort=  0.000000 cLong=  1.000000
 NAtoms=   37 NActive=   37 NUniq=   37 SFac= 1.00D+00 NAtFMM=   60 NAOKFM=F Big=F
 Integral buffers will be    131072 words long.
 Raffenetti 1 integral format.
 Two-electron integral symmetry is turned off.
 R6Disp:  Grimme-D2 Dispersion energy=       -0.0228555466 Hartrees.
 Nuclear repulsion after empirical dispersion term =     1358.3881250206 Hartrees.
 Leave Link  301 at Mon Nov  6 20:54:37 2017, MaxMem=  3758096384 cpu:         0.1
 (Enter /share/apps/gaussian/g09_D01/g09/l302.exe)
 NPDir=0 NMtPBC=     1 NCelOv=     1 NCel=       1 NClECP=     1 NCelD=      1
         NCelK=      1 NCelE2=     1 NClLst=     1 CellRange=     0.0.
 One-electron integrals computed using PRISM.
 NBasis=   334 RedAO= T EigKep=  3.83D-04  NBF=   334
 NBsUse=   334 1.00D-06 EigRej= -1.00D+00 NBFU=   334
 Precomputing XC quadrature grid using
 IXCGrd= 4 IRadAn=           0 IRanWt=          -1 IRanGd=           0 AccXCQ= 0.00D+00.
 Generated NRdTot=       0 NPtTot=           0 NUsed=           0 NTot=          32
 NSgBfM=   326   326   326   326   326 MxSgAt=    37 MxSgA2=    37.
 Leave Link  302 at Mon Nov  6 20:54:38 2017, MaxMem=  3758096384 cpu:         1.8
 (Enter /share/apps/gaussian/g09_D01/g09/l308.exe)
 Leave Link  308 at Mon Nov  6 20:54:38 2017, MaxMem=  3758096384 cpu:         0.1
 (Enter /share/apps/gaussian/g09_D01/g09/l303.exe)
 DipDrv:  MaxL=1.
 Leave Link  303 at Mon Nov  6 20:54:38 2017, MaxMem=  3758096384 cpu:         0.1
 (Enter /share/apps/gaussian/g09_D01/g09/l401.exe)
 ExpMin= 1.61D-01 ExpMax= 5.48D+03 ExpMxC= 8.25D+02 IAcc=1 IRadAn=         1 AccDes= 0.00D+00
 Harris functional with IExCor= 4639 and IRadAn=       1 diagonalized for initial guess.
 HarFok:  IExCor= 4639 AccDes= 0.00D+00 IRadAn=         1 IDoV= 1 UseB2=F ITyADJ=14
 ICtDFT=  3500011 ScaDFX=  1.000000  1.000000  1.000000  1.000000
 FoFCou: FMM=F IPFlag=           0 FMFlag=      100000 FMFlg1=           0
         NFxFlg=           0 DoJE=T BraDBF=F KetDBF=T FulRan=T
         wScrn=  0.000000 ICntrl=     500 IOpCl=  0 I1Cent=   200000004 NGrid=           0
         NMat0=    1 NMatS0=      1 NMatT0=    0 NMatD0=    1 NMtDS0=    0 NMtDT0=    0
 Symmetry not used in FoFCou.
 Harris En= -825.250759085247    
 JPrj=0 DoOrth=F DoCkMO=F.
 Leave Link  401 at Mon Nov  6 20:54:39 2017, MaxMem=  3758096384 cpu:         3.6
 (Enter /share/apps/gaussian/g09_D01/g09/l502.exe)
 Closed shell SCF:
 Using DIIS extrapolation, IDIIS=  1040.
 Two-electron integral symmetry not used.
 Keep R1 ints in memory in canonical form, NReq=3149053790.
 IVT=      357300 IEndB=      357300 NGot=  3758096384 MDV=   627840115
 LenX=   627840115 LenY=   627728118
 Requested convergence on RMS density matrix=1.00D-08 within 128 cycles.
 Requested convergence on MAX density matrix=1.00D-06.
 Requested convergence on             energy=1.00D-06.
 No special actions if energy rises.
 FoFCou: FMM=F IPFlag=           0 FMFlag=           0 FMFlg1=           0
         NFxFlg=           0 DoJE=F BraDBF=F KetDBF=F FulRan=T
         wScrn=  0.000000 ICntrl=     600 IOpCl=  0 I1Cent=           0 NGrid=           0
         NMat0=    1 NMatS0=  55945 NMatT0=    0 NMatD0=    1 NMtDS0=    0 NMtDT0=    0
 Symmetry not used in FoFCou.
 Integral accuracy reduced to 1.0D-05 until final iterations.

 Cycle   1  Pass 0  IDiag  1:
 E= -862.694348288576    
 DIIS: error= 6.31D-02 at cycle   1 NSaved=   1.
 NSaved= 1 IEnMin= 1 EnMin= -862.694348288576     IErMin= 1 ErrMin= 6.31D-02
 ErrMax= 6.31D-02  0.00D+00 EMaxC= 1.00D-01 BMatC= 8.42D-01 BMatP= 8.42D-01
 IDIUse=3 WtCom= 3.69D-01 WtEn= 6.31D-01
 Coeff-Com:  0.100D+01
 Coeff-En:   0.100D+01
 Coeff:      0.100D+01
 Gap=     0.286 Goal=   None    Shift=    0.000
 GapD=    0.286 DampG=1.000 DampE=0.500 DampFc=0.5000 IDamp=-1.
 Damping current iteration by 5.00D-01
 RMSDP=3.03D-03 MaxDP=1.19D-01              OVMax= 1.93D-01

 Cycle   2  Pass 0  IDiag  1:
 E= -862.807238578022     Delta-E=       -0.112890289447 Rises=F Damp=T
 DIIS: error= 3.25D-02 at cycle   2 NSaved=   2.
 NSaved= 2 IEnMin= 2 EnMin= -862.807238578022     IErMin= 2 ErrMin= 3.25D-02
 ErrMax= 3.25D-02  0.00D+00 EMaxC= 1.00D-01 BMatC= 1.78D-01 BMatP= 8.42D-01
 IDIUse=3 WtCom= 6.75D-01 WtEn= 3.25D-01
 Coeff-Com: -0.425D+00 0.143D+01
 Coeff-En:   0.000D+00 0.100D+01
 Coeff:     -0.287D+00 0.129D+01
 Gap=     0.270 Goal=   None    Shift=    0.000
 RMSDP=1.34D-03 MaxDP=4.60D-02 DE=-1.13D-01 OVMax= 1.85D-01

 Cycle   3  Pass 0  IDiag  1:
 E= -862.894799477173     Delta-E=       -0.087560899151 Rises=F Damp=F
 DIIS: error= 1.21D-02 at cycle   3 NSaved=   3.
 NSaved= 3 IEnMin= 3 EnMin= -862.894799477173     IErMin= 3 ErrMin= 1.21D-02
 ErrMax= 1.21D-02  0.00D+00 EMaxC= 1.00D-01 BMatC= 5.62D-02 BMatP= 1.78D-01
 IDIUse=3 WtCom= 8.79D-01 WtEn= 1.21D-01
 Coeff-Com: -0.318D+00 0.659D+00 0.659D+00
 Coeff-En:   0.000D+00 0.000D+00 0.100D+01
 Coeff:     -0.279D+00 0.579D+00 0.700D+00
 Gap=     0.258 Goal=   None    Shift=    0.000
 RMSDP=8.61D-04 MaxDP=4.01D-02 DE=-8.76D-02 OVMax= 7.50D-02

 Cycle   4  Pass 0  IDiag  1:
 E= -862.942062997859     Delta-E=       -0.047263520686 Rises=F Damp=F
 DIIS: error= 3.49D-03 at cycle   4 NSaved=   4.
 NSaved= 4 IEnMin= 4 EnMin= -862.942062997859     IErMin= 4 ErrMin= 3.49D-03
 ErrMax= 3.49D-03  0.00D+00 EMaxC= 1.00D-01 BMatC= 4.46D-03 BMatP= 5.62D-02
 IDIUse=3 WtCom= 9.65D-01 WtEn= 3.49D-02
 Coeff-Com: -0.138D+00 0.281D+00 0.385D+00 0.472D+00
 Coeff-En:   0.000D+00 0.000D+00 0.000D+00 0.100D+01
 Coeff:     -0.133D+00 0.271D+00 0.371D+00 0.491D+00
 Gap=     0.242 Goal=   None    Shift=    0.000
 RMSDP=1.96D-04 MaxDP=1.05D-02 DE=-4.73D-02 OVMax= 1.38D-02

 Cycle   5  Pass 0  IDiag  1:
 E= -862.945834716156     Delta-E=       -0.003771718297 Rises=F Damp=F
 DIIS: error= 4.20D-04 at cycle   5 NSaved=   5.
 NSaved= 5 IEnMin= 5 EnMin= -862.945834716156     IErMin= 5 ErrMin= 4.20D-04
 ErrMax= 4.20D-04  0.00D+00 EMaxC= 1.00D-01 BMatC= 9.70D-05 BMatP= 4.46D-03
 IDIUse=3 WtCom= 9.96D-01 WtEn= 4.20D-03
 Coeff-Com:  0.235D-02-0.625D-02 0.286D-01 0.134D+00 0.841D+00
 Coeff-En:   0.000D+00 0.000D+00 0.000D+00 0.000D+00 0.100D+01
 Coeff:      0.234D-02-0.623D-02 0.285D-01 0.134D+00 0.842D+00
 Gap=     0.243 Goal=   None    Shift=    0.000
 RMSDP=5.94D-05 MaxDP=2.25D-03 DE=-3.77D-03 OVMax= 7.07D-03

 Cycle   6  Pass 0  IDiag  1:
 E= -862.945996874763     Delta-E=       -0.000162158607 Rises=F Damp=F
 DIIS: error= 2.67D-04 at cycle   6 NSaved=   6.
 NSaved= 6 IEnMin= 6 EnMin= -862.945996874763     IErMin= 6 ErrMin= 2.67D-04
 ErrMax= 2.67D-04  0.00D+00 EMaxC= 1.00D-01 BMatC= 3.21D-05 BMatP= 9.70D-05
 IDIUse=3 WtCom= 9.97D-01 WtEn= 2.67D-03
 Coeff-Com:  0.326D-01-0.672D-01-0.713D-01-0.492D-01 0.423D+00 0.732D+00
 Coeff-En:   0.000D+00 0.000D+00 0.000D+00 0.000D+00 0.000D+00 0.100D+01
 Coeff:      0.325D-01-0.670D-01-0.711D-01-0.491D-01 0.422D+00 0.732D+00
 Gap=     0.244 Goal=   None    Shift=    0.000
 RMSDP=3.19D-05 MaxDP=1.20D-03 DE=-1.62D-04 OVMax= 5.20D-03

 Cycle   7  Pass 0  IDiag  1:
 E= -862.946054007965     Delta-E=       -0.000057133202 Rises=F Damp=F
 DIIS: error= 1.21D-04 at cycle   7 NSaved=   7.
 NSaved= 7 IEnMin= 7 EnMin= -862.946054007965     IErMin= 7 ErrMin= 1.21D-04
 ErrMax= 1.21D-04  0.00D+00 EMaxC= 1.00D-01 BMatC= 2.85D-06 BMatP= 3.21D-05
 IDIUse=3 WtCom= 9.99D-01 WtEn= 1.21D-03
 Coeff-Com:  0.704D-02-0.144D-01-0.179D-01-0.229D-01 0.124D-01 0.224D+00
 Coeff-Com:  0.812D+00
 Coeff-En:   0.000D+00 0.000D+00 0.000D+00 0.000D+00 0.000D+00 0.000D+00
 Coeff-En:   0.100D+01
 Coeff:      0.703D-02-0.143D-01-0.179D-01-0.229D-01 0.124D-01 0.224D+00
 Coeff:      0.812D+00
 Gap=     0.244 Goal=   None    Shift=    0.000
 RMSDP=1.17D-05 MaxDP=2.61D-04 DE=-5.71D-05 OVMax= 1.80D-03

 Cycle   8  Pass 0  IDiag  1:
 E= -862.946060607002     Delta-E=       -0.000006599037 Rises=F Damp=F
 DIIS: error= 3.80D-05 at cycle   8 NSaved=   8.
 NSaved= 8 IEnMin= 8 EnMin= -862.946060607002     IErMin= 8 ErrMin= 3.80D-05
 ErrMax= 3.80D-05  0.00D+00 EMaxC= 1.00D-01 BMatC= 7.34D-07 BMatP= 2.85D-06
 IDIUse=1 WtCom= 1.00D+00 WtEn= 0.00D+00
 Coeff-Com: -0.334D-02 0.702D-02 0.624D-02-0.945D-03-0.942D-01-0.476D-01
 Coeff-Com:  0.362D+00 0.771D+00
 Coeff:     -0.334D-02 0.702D-02 0.624D-02-0.945D-03-0.942D-01-0.476D-01
 Coeff:      0.362D+00 0.771D+00
 Gap=     0.244 Goal=   None    Shift=    0.000
 RMSDP=6.54D-06 MaxDP=1.48D-04 DE=-6.60D-06 OVMax= 1.21D-03

 Initial convergence to 1.0D-05 achieved.  Increase integral accuracy.
 Cycle   9  Pass 1  IDiag  1:
 E= -862.945235213720     Delta-E=        0.000825393282 Rises=F Damp=F
 DIIS: error= 1.04D-04 at cycle   1 NSaved=   1.
 NSaved= 1 IEnMin= 1 EnMin= -862.945235213720     IErMin= 1 ErrMin= 1.04D-04
 ErrMax= 1.04D-04  0.00D+00 EMaxC= 1.00D-01 BMatC= 6.83D-06 BMatP= 6.83D-06
 IDIUse=3 WtCom= 9.99D-01 WtEn= 1.04D-03
 Coeff-Com:  0.100D+01
 Coeff-En:   0.100D+01
 Coeff:      0.100D+01
 Gap=     0.244 Goal=   None    Shift=    0.000
 RMSDP=6.54D-06 MaxDP=1.48D-04 DE= 8.25D-04 OVMax= 3.69D-04

 Cycle  10  Pass 1  IDiag  1:
 E= -862.945240582007     Delta-E=       -0.000005368287 Rises=F Damp=F
 DIIS: error= 1.55D-05 at cycle   2 NSaved=   2.
 NSaved= 2 IEnMin= 2 EnMin= -862.945240582007     IErMin= 2 ErrMin= 1.55D-05
 ErrMax= 1.55D-05  0.00D+00 EMaxC= 1.00D-01 BMatC= 1.76D-07 BMatP= 6.83D-06
 IDIUse=1 WtCom= 1.00D+00 WtEn= 0.00D+00
 Coeff-Com: -0.417D-01 0.104D+01
 Coeff:     -0.417D-01 0.104D+01
 Gap=     0.244 Goal=   None    Shift=    0.000
 RMSDP=2.67D-06 MaxDP=9.45D-05 DE=-5.37D-06 OVMax= 3.02D-04

 Cycle  11  Pass 1  IDiag  1:
 E= -862.945240707253     Delta-E=       -0.000000125246 Rises=F Damp=F
 DIIS: error= 2.34D-05 at cycle   3 NSaved=   3.
 NSaved= 3 IEnMin= 3 EnMin= -862.945240707253     IErMin= 2 ErrMin= 1.55D-05
 ErrMax= 2.34D-05  0.00D+00 EMaxC= 1.00D-01 BMatC= 1.65D-07 BMatP= 1.76D-07
 IDIUse=1 WtCom= 1.00D+00 WtEn= 0.00D+00
 Coeff-Com: -0.424D-01 0.532D+00 0.510D+00
 Coeff:     -0.424D-01 0.532D+00 0.510D+00
 Gap=     0.244 Goal=   None    Shift=    0.000
 RMSDP=1.29D-06 MaxDP=5.00D-05 DE=-1.25D-07 OVMax= 9.17D-05

 Cycle  12  Pass 1  IDiag  1:
 E= -862.945240858553     Delta-E=       -0.000000151300 Rises=F Damp=F
 DIIS: error= 3.82D-06 at cycle   4 NSaved=   4.
 NSaved= 4 IEnMin= 4 EnMin= -862.945240858553     IErMin= 4 ErrMin= 3.82D-06
 ErrMax= 3.82D-06  0.00D+00 EMaxC= 1.00D-01 BMatC= 5.86D-09 BMatP= 1.65D-07
 IDIUse=1 WtCom= 1.00D+00 WtEn= 0.00D+00
 Coeff-Com: -0.364D-02-0.185D-01 0.107D+00 0.915D+00
 Coeff:     -0.364D-02-0.185D-01 0.107D+00 0.915D+00
 Gap=     0.244 Goal=   None    Shift=    0.000
 RMSDP=5.40D-07 MaxDP=1.35D-05 DE=-1.51D-07 OVMax= 9.19D-05

 Cycle  13  Pass 1  IDiag  1:
 E= -862.945240872947     Delta-E=       -0.000000014395 Rises=F Damp=F
 DIIS: error= 2.22D-06 at cycle   5 NSaved=   5.
 NSaved= 5 IEnMin= 5 EnMin= -862.945240872947     IErMin= 5 ErrMin= 2.22D-06
 ErrMax= 2.22D-06  0.00D+00 EMaxC= 1.00D-01 BMatC= 1.84D-09 BMatP= 5.86D-09
 IDIUse=1 WtCom= 1.00D+00 WtEn= 0.00D+00
 Coeff-Com:  0.390D-02-0.767D-01-0.280D-01 0.394D+00 0.707D+00
 Coeff:      0.390D-02-0.767D-01-0.280D-01 0.394D+00 0.707D+00
 Gap=     0.244 Goal=   None    Shift=    0.000
 RMSDP=2.56D-07 MaxDP=5.62D-06 DE=-1.44D-08 OVMax= 3.97D-05

 Cycle  14  Pass 1  IDiag  1:
 E= -862.945240876903     Delta-E=       -0.000000003956 Rises=F Damp=F
 DIIS: error= 9.51D-07 at cycle   6 NSaved=   6.
 NSaved= 6 IEnMin= 6 EnMin= -862.945240876903     IErMin= 6 ErrMin= 9.51D-07
 ErrMax= 9.51D-07  0.00D+00 EMaxC= 1.00D-01 BMatC= 3.09D-10 BMatP= 1.84D-09
 IDIUse=1 WtCom= 1.00D+00 WtEn= 0.00D+00
 Coeff-Com:  0.221D-02-0.214D-01-0.401D-01-0.812D-01 0.219D+00 0.922D+00
 Coeff:      0.221D-02-0.214D-01-0.401D-01-0.812D-01 0.219D+00 0.922D+00
 Gap=     0.244 Goal=   None    Shift=    0.000
 RMSDP=1.74D-07 MaxDP=4.00D-06 DE=-3.96D-09 OVMax= 3.14D-05

 Cycle  15  Pass 1  IDiag  1:
 E= -862.945240878094     Delta-E=       -0.000000001191 Rises=F Damp=F
 DIIS: error= 3.68D-07 at cycle   7 NSaved=   7.
 NSaved= 7 IEnMin= 7 EnMin= -862.945240878094     IErMin= 7 ErrMin= 3.68D-07
 ErrMax= 3.68D-07  0.00D+00 EMaxC= 1.00D-01 BMatC= 1.03D-10 BMatP= 3.09D-10
 IDIUse=1 WtCom= 1.00D+00 WtEn= 0.00D+00
 Coeff-Com:  0.334D-03 0.508D-02-0.153D-01-0.116D+00-0.365D-01 0.473D+00
 Coeff-Com:  0.689D+00
 Coeff:      0.334D-03 0.508D-02-0.153D-01-0.116D+00-0.365D-01 0.473D+00
 Coeff:      0.689D+00
 Gap=     0.244 Goal=   None    Shift=    0.000
 RMSDP=7.23D-08 MaxDP=1.79D-06 DE=-1.19D-09 OVMax= 1.33D-05

 Cycle  16  Pass 1  IDiag  1:
 E= -862.945240878256     Delta-E=       -0.000000000162 Rises=F Damp=F
 DIIS: error= 2.23D-07 at cycle   8 NSaved=   8.
 NSaved= 8 IEnMin= 8 EnMin= -862.945240878256     IErMin= 8 ErrMin= 2.23D-07
 ErrMax= 2.23D-07  0.00D+00 EMaxC= 1.00D-01 BMatC= 1.15D-11 BMatP= 1.03D-10
 IDIUse=1 WtCom= 1.00D+00 WtEn= 0.00D+00
 Coeff-Com: -0.358D-03 0.622D-02 0.270D-02-0.203D-01-0.658D-01-0.411D-01
 Coeff-Com:  0.234D+00 0.884D+00
 Coeff:     -0.358D-03 0.622D-02 0.270D-02-0.203D-01-0.658D-01-0.411D-01
 Coeff:      0.234D+00 0.884D+00
 Gap=     0.244 Goal=   None    Shift=    0.000
 RMSDP=3.23D-08 MaxDP=5.22D-07 DE=-1.62D-10 OVMax= 5.70D-06

 Cycle  17  Pass 1  IDiag  1:
 E= -862.945240878340     Delta-E=       -0.000000000083 Rises=F Damp=F
 DIIS: error= 3.53D-08 at cycle   9 NSaved=   9.
 NSaved= 9 IEnMin= 9 EnMin= -862.945240878340     IErMin= 9 ErrMin= 3.53D-08
 ErrMax= 3.53D-08  0.00D+00 EMaxC= 1.00D-01 BMatC= 1.07D-12 BMatP= 1.15D-11
 IDIUse=1 WtCom= 1.00D+00 WtEn= 0.00D+00
 Coeff-Com: -0.158D-03 0.168D-02 0.213D-02 0.409D-02-0.198D-01-0.565D-01
 Coeff-Com:  0.906D-02 0.284D+00 0.776D+00
 Coeff:     -0.158D-03 0.168D-02 0.213D-02 0.409D-02-0.198D-01-0.565D-01
 Coeff:      0.906D-02 0.284D+00 0.776D+00
 Gap=     0.244 Goal=   None    Shift=    0.000
 RMSDP=7.68D-09 MaxDP=1.49D-07 DE=-8.32D-11 OVMax= 1.09D-06

 SCF Done:  E(RwB97XD) =  -862.945240878     A.U. after   17 cycles
            NFock= 17  Conv=0.77D-08     -V/T= 2.0097
 KE= 8.546410976319D+02 PE=-4.721579322877D+03 EE= 1.645604859346D+03
 Leave Link  502 at Mon Nov  6 20:55:55 2017, MaxMem=  3758096384 cpu:       201.3
 (Enter /share/apps/gaussian/g09_D01/g09/l801.exe)
 DoSCS=F DFT=T ScalE2(SS,OS)=  1.000000  1.000000
 ExpMin= 1.61D-01 ExpMax= 5.48D+03 ExpMxC= 8.25D+02 IAcc=3 IRadAn=         5 AccDes= 0.00D+00
 HarFok:  IExCor=  205 AccDes= 0.00D+00 IRadAn=         5 IDoV=-2 UseB2=F ITyADJ=14
 ICtDFT= 12500011 ScaDFX=  1.000000  1.000000  1.000000  1.000000
 Largest valence mixing into a core orbital is  7.35D-05
 Largest core mixing into a valence orbital is  1.53D-05
 Range of M.O.s used for correlation:    21   334
 NBasis=   334 NAE=    71 NBE=    71 NFC=    20 NFV=     0
 NROrb=    314 NOA=    51 NOB=    51 NVA=   263 NVB=   263
 Leave Link  801 at Mon Nov  6 20:55:55 2017, MaxMem=  3758096384 cpu:         1.2
 (Enter /share/apps/gaussian/g09_D01/g09/l914.exe)
 RHF ground state
 MDV=  3758096384 DFT=T DoStab=F Mixed=T DoRPA=T DoScal=F NonHer=T
 Would need an additional          5672200000 words for in-memory AO integral storage.
 Making orbital integer symmetry assigments:
    16 initial guesses have been made.
 Convergence on wavefunction:    0.001000000000000
 Davidson Disk Diagonalization:  ConvIn= 1.00D-03 SkipCon=T Conv= 1.00D-03.
 Max sub-space:   200 roots to seek:    16 dimension of matrix:        26826
 Iteration     1 Dimension    16 NMult     0 NNew     16
 CISAX will form    16 AO SS matrices at one time.
 NMat=    16 NSing=    16 JSym2X= 0.
 FoFJK:  IHMeth= 1 ICntrl=       0 DoSepK=T KAlg= 0 I1Cent=   0 FoldK=F
 IRaf=         1 NMat=  32 IRICut=       1 DoRegI=T DoRafI=F ISym2E= 0.
 FoFCou: FMM=F IPFlag=           0 FMFlag=      100000 FMFlg1=           0
         NFxFlg=           0 DoJE=F BraDBF=F KetDBF=F FulRan=T
         wScrn=  0.000000 ICntrl=     500 IOpCl=  0 I1Cent=           0 NGrid=           0
         NMat0=   16 NMatS0=     16 NMatT0=    0 NMatD0=   16 NMtDS0=    0 NMtDT0=    0
 Symmetry not used in FoFCou.
 New state      2 was old state      5
 New state      3 was old state      2
 New state      4 was old state      7
 Excitation Energies [eV] at current iteration:
 Root      1 :     3.849839955416826
 Root      2 :     4.139823778555439
 Root      3 :     4.534209435536552
 Root      4 :     5.202256474715868
 Root      5 :     5.600483571603387
 Root      6 :     6.079103412077696
 Root      7 :     6.218425269904113
 Root      8 :     6.326360604728759
 Root      9 :     6.448730038801314
 Root     10 :     6.834069837381736
 Root     11 :     7.061751356212264
 Root     12 :     7.439431199358167
 Root     13 :     7.479166230120717
 Root     14 :     7.774272501225687
 Root     15 :     7.938290745685006
 Root     16 :     8.210006142547735
 Iteration     2 Dimension    24 NMult    16 NNew      8
 CISAX will form     8 AO SS matrices at one time.
 NMat=     8 NSing=     8 JSym2X= 0.
 Root      1 not converged, maximum delta is    0.045239345701010
 Root      2 not converged, maximum delta is    0.098306054798750
 Root      3 not converged, maximum delta is    0.101371724648355
 Root      4 not converged, maximum delta is    0.160337177131681
 Excitation Energies [eV] at current iteration:
 Root      1 :     3.470351722035020   Change is   -0.379488233381806
 Root      2 :     3.822897008973206   Change is   -0.316926769582232
 Root      3 :     4.010935170312641   Change is   -0.523274265223911
 Root      4 :     4.726052499276903   Change is   -0.476203975438965
 Iteration     3 Dimension    32 NMult    24 NNew      8
 CISAX will form     8 AO SS matrices at one time.
 NMat=     8 NSing=     8 JSym2X= 0.
 Root      1 not converged, maximum delta is    0.012952199126053
 Root      2 not converged, maximum delta is    0.011203148938876
 Root      3 not converged, maximum delta is    0.030991960227604
 Root      4 not converged, maximum delta is    0.051741766862229
 Excitation Energies [eV] at current iteration:
 Root      1 :     3.441838400494218   Change is   -0.028513321540803
 Root      2 :     3.807833493612179   Change is   -0.015063515361027
 Root      3 :     3.966330514770151   Change is   -0.044604655542491
 Root      4 :     4.676945667457045   Change is   -0.049106831819858
 Iteration     4 Dimension    40 NMult    32 NNew      8
 CISAX will form     8 AO SS matrices at one time.
 NMat=     8 NSing=     8 JSym2X= 0.
 Root      1 not converged, maximum delta is    0.007149078592959
 Root      2 not converged, maximum delta is    0.004324491561733
 Root      3 not converged, maximum delta is    0.017774438838044
 Root      4 not converged, maximum delta is    0.010467150947608
 Excitation Energies [eV] at current iteration:
 Root      1 :     3.437980589813322   Change is   -0.003857810680896
 Root      2 :     3.806803087205406   Change is   -0.001030406406773
 Root      3 :     3.956729391537648   Change is   -0.009601123232503
 Root      4 :     4.671864235962654   Change is   -0.005081431494391
 Iteration     5 Dimension    48 NMult    40 NNew      8
 CISAX will form     8 AO SS matrices at one time.
 NMat=     8 NSing=     8 JSym2X= 0.
 Root      1 not converged, maximum delta is    0.001842457125491
 Root      2 not converged, maximum delta is    0.001381194673474
 Root      3 not converged, maximum delta is    0.003193479320963
 Root      4 not converged, maximum delta is    0.001561762548802
 Excitation Energies [eV] at current iteration:
 Root      1 :     3.437700729532907   Change is   -0.000279860280415
 Root      2 :     3.806721990395501   Change is   -0.000081096809905
 Root      3 :     3.955794810912426   Change is   -0.000934580625222
 Root      4 :     4.671623819777555   Change is   -0.000240416185100
 Iteration     6 Dimension    56 NMult    48 NNew      8
 CISAX will form     8 AO SS matrices at one time.
 NMat=     8 NSing=     8 JSym2X= 0.
 Root      1 has converged.
 Root      2 has converged.
 Root      3 has converged.
 Root      4 has converged.
 Excitation Energies [eV] at current iteration:
 Root      1 :     3.437677683577283   Change is   -0.000023045955624
 Root      2 :     3.806715521291737   Change is   -0.000006469103765
 Root      3 :     3.955715276238531   Change is   -0.000079534673895
 Root      4 :     4.671596110053950   Change is   -0.000027709723604
 Convergence achieved on expansion vectors.
 ***********************************************************************
 Excited states from <AA,BB:AA,BB> singles matrix:
 ***********************************************************************
 
 1PDM for each excited state written to RWF  633
 Ground to excited state transition densities written to RWF  633
 Ground to excited state transition electric dipole moments (Au):
       state          X           Y           Z        Dip. S.      Osc.
         1        -3.5104      0.3466      1.3044     14.1445      1.1913
         2         0.2084     -0.0157     -0.0710      0.0487      0.0045
         3        -0.7624     -0.0240      0.3711      0.7195      0.0697
         4         0.3249     -0.2891      0.1410      0.2090      0.0239
 Ground to excited state transition velocity dipole moments (Au):
       state          X           Y           Z        Dip. S.      Osc.
         1         0.4340     -0.0399     -0.1651      0.2172      1.1460
         2        -0.0282     -0.0001      0.0089      0.0009      0.0042
         3         0.1070      0.0005     -0.0475      0.0137      0.0629
         4        -0.0530      0.0553     -0.0317      0.0069      0.0267
 Ground to excited state transition magnetic dipole moments (Au):
       state          X           Y           Z
         1         0.5413      2.2220      0.8487
         2        -0.0050     -0.4024      0.3502
         3        -0.2428     -0.3641     -0.4472
         4        -0.1852     -0.1734     -0.0238
 Ground to excited state transition velocity quadrupole moments (Au):
       state          XX          YY          ZZ          XY          XZ          YZ
         1         0.1607      0.2115     -2.0091     -1.3713      2.7047      0.2324
         2        -0.0601     -0.0071      0.1178      0.0838     -0.1583     -0.0221
         3        -1.9932      0.0172     -0.9503     -0.2615      1.6185      0.0518
         4         0.3388     -0.2411     -0.5972     -0.2167     -0.1138      0.5394
 <0|del|b> * <b|rxdel|0> + <0|del|b> * <b|delr+rdel|0>
 Rotatory Strengths (R) in cgs (10**-40 erg-esu-cm/Gauss)
       state          XX          YY          ZZ    R(velocity)    E-M Angle
         1       295.3281    -86.1500   -174.2625     11.6385       89.69
         2         9.8120      7.9194     -1.0897      5.5472       77.97
         3        79.5940    -28.2314    -75.2165     -7.9513       93.84
         4         8.8983    -51.2347     46.3491      1.3376       87.36
 1/2[<0|r|b>*<b|rxdel|0> + (<0|rxdel|b>*<b|r|0>)*]
 Rotatory Strengths (R) in cgs (10**-40 erg-esu-cm/Gauss)
       state          XX          YY          ZZ     R(length)
         1      1343.7846   -544.6403   -782.8615      5.4276
         2         0.7349     -4.4633     17.5840      4.6185
         3      -130.8879     -6.1889    117.3490     -6.5760
         4        42.5451    -35.4490      2.3761      3.1574
  1/2[<0|del|b>*<b|r|0> + (<0|r|b>*<b|del|0>)*] (Au)
       state          X           Y           Z        Dip. S.   Osc.(frdel)
         1        -1.5234     -0.0138     -0.2154      1.7525      1.1684
         2        -0.0059      0.0000     -0.0006      0.0065      0.0043
         3        -0.0816      0.0000     -0.0176      0.0992      0.0661
         4        -0.0172     -0.0160     -0.0045      0.0377      0.0251

 Excitation energies and oscillator strengths:
 
 Excited state symmetry could not be determined.
 Excited State   1:      Singlet-?Sym    3.4377 eV  360.66 nm  f=1.1913  <S**2>=0.000
      70 -> 72        -0.17185
      70 -> 73         0.13999
      71 -> 72         0.65243
 This state for optimization and/or second-order correction.
 Total Energy, E(TD-HF/TD-KS) =  -862.818908543    
 Copying the excited state density for this state as the 1-particle RhoCI density.
 
 Excited state symmetry could not be determined.
 Excited State   2:      Singlet-?Sym    3.8067 eV  325.70 nm  f=0.0045  <S**2>=0.000
      68 -> 72         0.66504
      68 -> 73        -0.14455
      68 -> 76         0.10759
 
 Excited state symmetry could not be determined.
 Excited State   3:      Singlet-?Sym    3.9557 eV  313.43 nm  f=0.0697  <S**2>=0.000
      70 -> 72         0.63404
      70 -> 73        -0.16494
      71 -> 72         0.17984
      71 -> 73         0.13101
 
 Excited state symmetry could not be determined.
 Excited State   4:      Singlet-?Sym    4.6716 eV  265.40 nm  f=0.0239  <S**2>=0.000
      67 -> 72         0.32719
      67 -> 73         0.15876
      70 -> 74         0.13726
      71 -> 73         0.16766
      71 -> 74         0.54786
 SavETr:  write IOETrn=   770 NScale= 10 NData=  16 NLR=1 NState=    4 LETran=      82.
 Leave Link  914 at Mon Nov  6 20:58:30 2017, MaxMem=  3758096384 cpu:       617.7
 (Enter /share/apps/gaussian/g09_D01/g09/l601.exe)
 Copying SCF densities to generalized density rwf, IOpCl= 0 IROHF=0.

 **********************************************************************

            Population analysis using the SCF density.

 **********************************************************************

 Alpha  occ. eigenvalues --  -19.25852 -19.25387 -14.49438 -10.38834 -10.36251
 Alpha  occ. eigenvalues --  -10.35902 -10.34761 -10.34741 -10.32558 -10.31730
 Alpha  occ. eigenvalues --  -10.31627 -10.30876 -10.30872 -10.30833 -10.30659
 Alpha  occ. eigenvalues --  -10.30578 -10.30205 -10.29907 -10.29162 -10.28829
 Alpha  occ. eigenvalues --   -1.13816  -1.09945  -1.07359  -0.96276  -0.94547
 Alpha  occ. eigenvalues --   -0.90168  -0.86500  -0.86332  -0.83996  -0.83661
 Alpha  occ. eigenvalues --   -0.82574  -0.78661  -0.73827  -0.71429  -0.70665
 Alpha  occ. eigenvalues --   -0.68242  -0.67077  -0.63792  -0.62706  -0.60432
 Alpha  occ. eigenvalues --   -0.58832  -0.58137  -0.57255  -0.56880  -0.55018
 Alpha  occ. eigenvalues --   -0.54516  -0.53313  -0.52027  -0.51715  -0.51149
 Alpha  occ. eigenvalues --   -0.50584  -0.50118  -0.49933  -0.49537  -0.48237
 Alpha  occ. eigenvalues --   -0.47343  -0.46386  -0.45752  -0.45273  -0.45088
 Alpha  occ. eigenvalues --   -0.44296  -0.42002  -0.41123  -0.40691  -0.40473
 Alpha  occ. eigenvalues --   -0.34245  -0.34060  -0.32957  -0.32484  -0.28265
 Alpha  occ. eigenvalues --   -0.26097
 Alpha virt. eigenvalues --   -0.01676   0.05143   0.06364   0.09165   0.11686
 Alpha virt. eigenvalues --    0.15168   0.16233   0.17116   0.17628   0.18790
 Alpha virt. eigenvalues --    0.19120   0.19985   0.22288   0.22921   0.23548
 Alpha virt. eigenvalues --    0.23811   0.23999   0.24789   0.25202   0.25766
 Alpha virt. eigenvalues --    0.26372   0.27264   0.27882   0.28049   0.29282
 Alpha virt. eigenvalues --    0.31216   0.32258   0.32369   0.33744   0.34978
 Alpha virt. eigenvalues --    0.37654   0.37950   0.40134   0.40710   0.41740
 Alpha virt. eigenvalues --    0.42247   0.43339   0.45364   0.47882   0.48570
 Alpha virt. eigenvalues --    0.52708   0.52960   0.56190   0.56906   0.58338
 Alpha virt. eigenvalues --    0.59149   0.59483   0.60174   0.60785   0.61090
 Alpha virt. eigenvalues --    0.62395   0.63388   0.63578   0.64741   0.65255
 Alpha virt. eigenvalues --    0.65723   0.66309   0.66600   0.67105   0.67218
 Alpha virt. eigenvalues --    0.67568   0.68755   0.68990   0.69685   0.70285
 Alpha virt. eigenvalues --    0.70571   0.71087   0.71694   0.72590   0.72842
 Alpha virt. eigenvalues --    0.73790   0.74437   0.75739   0.77032   0.78321
 Alpha virt. eigenvalues --    0.78867   0.80648   0.80805   0.82642   0.82990
 Alpha virt. eigenvalues --    0.86915   0.87459   0.87548   0.88836   0.90218
 Alpha virt. eigenvalues --    0.90500   0.91218   0.91832   0.93481   0.93978
 Alpha virt. eigenvalues --    0.94332   0.94935   0.95433   0.96170   0.97675
 Alpha virt. eigenvalues --    0.98566   0.99332   1.00906   1.01921   1.01971
 Alpha virt. eigenvalues --    1.03102   1.03347   1.03795   1.05308   1.05790
 Alpha virt. eigenvalues --    1.07269   1.07857   1.08007   1.09425   1.10925
 Alpha virt. eigenvalues --    1.11496   1.12342   1.13639   1.14598   1.15914
 Alpha virt. eigenvalues --    1.17112   1.19673   1.20842   1.22388   1.25813
 Alpha virt. eigenvalues --    1.26573   1.27482   1.28375   1.31579   1.31929
 Alpha virt. eigenvalues --    1.32611   1.33587   1.36514   1.37755   1.38073
 Alpha virt. eigenvalues --    1.39030   1.40792   1.41594   1.44200   1.44400
 Alpha virt. eigenvalues --    1.46840   1.48406   1.48708   1.49919   1.50980
 Alpha virt. eigenvalues --    1.53013   1.53677   1.53715   1.55474   1.56137
 Alpha virt. eigenvalues --    1.57085   1.58546   1.58634   1.59537   1.62518
 Alpha virt. eigenvalues --    1.65280   1.66560   1.69001   1.73318   1.81175
 Alpha virt. eigenvalues --    1.83137   1.83418   1.84311   1.86356   1.87273
 Alpha virt. eigenvalues --    1.87754   1.89329   1.89723   1.90133   1.92971
 Alpha virt. eigenvalues --    1.93530   1.95002   1.95064   1.97759   1.98290
 Alpha virt. eigenvalues --    1.99183   1.99994   2.02581   2.03690   2.04150
 Alpha virt. eigenvalues --    2.05003   2.06676   2.07614   2.08171   2.09137
 Alpha virt. eigenvalues --    2.09725   2.10504   2.13693   2.15911   2.17336
 Alpha virt. eigenvalues --    2.17986   2.18870   2.20159   2.21830   2.22879
 Alpha virt. eigenvalues --    2.23021   2.24452   2.26383   2.28527   2.29870
 Alpha virt. eigenvalues --    2.30446   2.32049   2.34049   2.35811   2.36958
 Alpha virt. eigenvalues --    2.38061   2.39859   2.39996   2.40467   2.40928
 Alpha virt. eigenvalues --    2.45564   2.46327   2.48691   2.50085   2.55038
 Alpha virt. eigenvalues --    2.56881   2.59776   2.62208   2.62514   2.63504
 Alpha virt. eigenvalues --    2.63859   2.66759   2.68483   2.68910   2.70338
 Alpha virt. eigenvalues --    2.71547   2.73605   2.76513   2.78057   2.78556
 Alpha virt. eigenvalues --    2.80436   2.83287   2.86787   2.89946   2.92743
 Alpha virt. eigenvalues --    2.94928   2.98353   2.99302   3.00947   3.05061
 Alpha virt. eigenvalues --    3.06737   3.14340   3.17995   3.23201   3.32331
 Alpha virt. eigenvalues --    3.38191   3.50505   3.53274   4.10679   4.11605
 Alpha virt. eigenvalues --    4.13960   4.18198   4.19952   4.21536   4.22506
 Alpha virt. eigenvalues --    4.24079   4.30079   4.34204   4.35469   4.39895
 Alpha virt. eigenvalues --    4.42344   4.44806   4.48749   4.54012   4.60313
 Alpha virt. eigenvalues --    4.77742   4.85177   4.89103
          Condensed to atoms (all electrons):
               1          2          3          4          5          6
     1  C    5.033079   0.523484   0.362177   0.530960  -0.047011  -0.073511
     2  C    0.523484   4.443339  -0.035373  -0.018864   0.530721   0.341499
     3  H    0.362177  -0.035373   0.541832  -0.032558   0.004111  -0.010318
     4  C    0.530960  -0.018864  -0.032558   4.957983  -0.041411   0.005123
     5  C   -0.047011   0.530721   0.004111  -0.041411   5.043973  -0.074576
     6  N   -0.073511   0.341499  -0.010318   0.005123  -0.074576   6.961295
     7  C   -0.031383  -0.022395   0.002526   0.535225  -0.033798   0.000303
     8  H   -0.038629   0.002836  -0.004491   0.359040   0.000338  -0.000096
     9  C   -0.045077  -0.017619   0.000457  -0.048926   0.513623   0.005120
    10  H    0.004181  -0.035287  -0.000119   0.000431   0.361208  -0.010420
    11  C   -0.008011  -0.043459   0.007551   0.000043   0.004807   0.299272
    12  C    0.004792  -0.042490  -0.000072  -0.000085  -0.008110   0.298668
    13  C    0.006830   0.000279  -0.000169  -0.057167   0.007144  -0.000001
    14  H    0.000459   0.002610   0.000014   0.004629  -0.034974  -0.000094
    15  H    0.003408  -0.004159  -0.000371   0.000156  -0.000011  -0.044319
    16  H    0.000491   0.003290   0.000156  -0.000004  -0.000109  -0.030971
    17  H    0.003253  -0.003613  -0.000143   0.000095  -0.000022  -0.046438
    18  H   -0.000106   0.003257  -0.000002   0.000002   0.000473  -0.031169
    19  H   -0.000059  -0.003277  -0.000002   0.000001   0.002722  -0.045811
    20  H    0.000007  -0.004077  -0.000001  -0.000004   0.004236  -0.044680
    21  C    0.000152   0.000014   0.000004  -0.011440  -0.000248   0.000000
    22  H   -0.000100  -0.000006   0.000002   0.004634   0.000379   0.000000
    23  C   -0.000005   0.000000   0.000000   0.000451   0.000001   0.000000
    24  H    0.000182  -0.000009   0.000004   0.003563   0.000010   0.000000
    25  C    0.000000   0.000000   0.000000   0.000006   0.000000   0.000000
    26  O    0.000000   0.000000   0.000000   0.000005   0.000000   0.000000
    27  C    0.000000   0.000000   0.000000   0.000000   0.000000   0.000000
    28  C    0.000000   0.000000   0.000000   0.000004   0.000000   0.000000
    29  H    0.000000   0.000000   0.000000   0.000000   0.000000   0.000000
    30  O    0.000000   0.000000   0.000000   0.000000   0.000000   0.000000
    31  C    0.000000   0.000000   0.000000   0.000000   0.000000   0.000000
    32  C    0.000000   0.000000   0.000000   0.000000   0.000000   0.000000
    33  H    0.000000   0.000000   0.000000  -0.000001   0.000000   0.000000
    34  C    0.000000   0.000000   0.000000   0.000000   0.000000   0.000000
    35  H    0.000000   0.000000   0.000000   0.000000   0.000000   0.000000
    36  H    0.000000   0.000000   0.000000   0.000000   0.000000   0.000000
    37  H    0.000000   0.000000   0.000000   0.000000   0.000000   0.000000
               7          8          9         10         11         12
     1  C   -0.031383  -0.038629  -0.045077   0.004181  -0.008011   0.004792
     2  C   -0.022395   0.002836  -0.017619  -0.035287  -0.043459  -0.042490
     3  H    0.002526  -0.004491   0.000457  -0.000119   0.007551  -0.000072
     4  C    0.535225   0.359040  -0.048926   0.000431   0.000043  -0.000085
     5  C   -0.033798   0.000338   0.513623   0.361208   0.004807  -0.008110
     6  N    0.000303  -0.000096   0.005120  -0.010420   0.299272   0.298668
     7  C    4.676860  -0.032371   0.521205   0.002429   0.000004   0.000002
     8  H   -0.032371   0.541741   0.005069   0.000013  -0.000007   0.000002
     9  C    0.521205   0.005069   4.981973  -0.030982  -0.000089   0.000025
    10  H    0.002429   0.000013  -0.030982   0.540077  -0.000071   0.007409
    11  C    0.000004  -0.000007  -0.000089  -0.000071   5.011026  -0.051765
    12  C    0.000002   0.000002   0.000025   0.007409  -0.051765   5.010948
    13  C    0.382940  -0.010252  -0.038552  -0.000158   0.000000   0.000000
    14  H   -0.039672  -0.000140   0.363174  -0.004238   0.000002  -0.000005
    15  H   -0.000012  -0.000001  -0.000002   0.000000   0.380270   0.002818
    16  H    0.000000   0.000000   0.000002  -0.000002   0.382616  -0.005989
    17  H   -0.000003  -0.000003   0.000000  -0.000002   0.380536   0.002569
    18  H    0.000000   0.000000  -0.000004   0.000148  -0.005986   0.382667
    19  H   -0.000006   0.000000   0.000065  -0.000021   0.002581   0.381077
    20  H   -0.000008   0.000000   0.000141  -0.000482   0.002802   0.379555
    21  C   -0.033320   0.004532   0.005901   0.000002   0.000000   0.000000
    22  H   -0.043072  -0.000042  -0.005414  -0.000011   0.000000   0.000000
    23  C    0.002976   0.000117  -0.000224   0.000000   0.000000   0.000000
    24  H   -0.008358   0.003621   0.000105   0.000000   0.000000   0.000000
    25  C   -0.000063   0.000015  -0.000001   0.000000   0.000000   0.000000
    26  O    0.001042   0.000001  -0.000025   0.000000   0.000000   0.000000
    27  C    0.000000   0.000000   0.000000   0.000000   0.000000   0.000000
    28  C   -0.000014  -0.000023   0.000000   0.000000   0.000000   0.000000
    29  H   -0.000001   0.000000   0.000000   0.000000   0.000000   0.000000
    30  O    0.000000   0.000000   0.000000   0.000000   0.000000   0.000000
    31  C    0.000000   0.000000   0.000000   0.000000   0.000000   0.000000
    32  C    0.000000   0.000000   0.000000   0.000000   0.000000   0.000000
    33  H   -0.000026  -0.000001   0.000000   0.000000   0.000000   0.000000
    34  C    0.000000   0.000000   0.000000   0.000000   0.000000   0.000000
    35  H    0.000000   0.000000   0.000000   0.000000   0.000000   0.000000
    36  H    0.000000   0.000000   0.000000   0.000000   0.000000   0.000000
    37  H    0.000000   0.000000   0.000000   0.000000   0.000000   0.000000
              13         14         15         16         17         18
     1  C    0.006830   0.000459   0.003408   0.000491   0.003253  -0.000106
     2  C    0.000279   0.002610  -0.004159   0.003290  -0.003613   0.003257
     3  H   -0.000169   0.000014  -0.000371   0.000156  -0.000143  -0.000002
     4  C   -0.057167   0.004629   0.000156  -0.000004   0.000095   0.000002
     5  C    0.007144  -0.034974  -0.000011  -0.000109  -0.000022   0.000473
     6  N   -0.000001  -0.000094  -0.044319  -0.030971  -0.046438  -0.031169
     7  C    0.382940  -0.039672  -0.000012   0.000000  -0.000003   0.000000
     8  H   -0.010252  -0.000140  -0.000001   0.000000  -0.000003   0.000000
     9  C   -0.038552   0.363174  -0.000002   0.000002   0.000000  -0.000004
    10  H   -0.000158  -0.004238   0.000000  -0.000002  -0.000002   0.000148
    11  C    0.000000   0.000002   0.380270   0.382616   0.380536  -0.005986
    12  C    0.000000  -0.000005   0.002818  -0.005989   0.002569   0.382667
    13  C    5.038720  -0.005006   0.000000   0.000000   0.000000   0.000000
    14  H   -0.005006   0.530090   0.000000   0.000000   0.000000   0.000000
    15  H    0.000000   0.000000   0.545104  -0.023840  -0.044801   0.000088
    16  H    0.000000   0.000000  -0.023840   0.511608  -0.025931   0.005065
    17  H    0.000000   0.000000  -0.044801  -0.025931   0.550005   0.000294
    18  H    0.000000   0.000000   0.000088   0.005065   0.000294   0.511697
    19  H    0.000000  -0.000001   0.000399   0.000255  -0.000324  -0.026036
    20  H    0.000000  -0.000001  -0.000297   0.000118   0.000419  -0.023449
    21  C    0.503776   0.000229   0.000000   0.000000   0.000000   0.000000
    22  H    0.368239   0.005542   0.000000   0.000000   0.000000   0.000000
    23  C   -0.003529  -0.000003   0.000000   0.000000   0.000000   0.000000
    24  H   -0.044145   0.000006   0.000000   0.000000   0.000000   0.000000
    25  C    0.010067   0.000000   0.000000   0.000000   0.000000   0.000000
    26  O    0.003214  -0.000004   0.000000   0.000000   0.000000   0.000000
    27  C   -0.000182   0.000000   0.000000   0.000000   0.000000   0.000000
    28  C    0.000170   0.000000   0.000000   0.000000   0.000000   0.000000
    29  H   -0.000052   0.000000   0.000000   0.000000   0.000000   0.000000
    30  O    0.000021   0.000000   0.000000   0.000000   0.000000   0.000000
    31  C    0.000000   0.000000   0.000000   0.000000   0.000000   0.000000
    32  C   -0.000009   0.000000   0.000000   0.000000   0.000000   0.000000
    33  H    0.000371   0.000000   0.000000   0.000000   0.000000   0.000000
    34  C    0.000001   0.000000   0.000000   0.000000   0.000000   0.000000
    35  H    0.000000   0.000000   0.000000   0.000000   0.000000   0.000000
    36  H    0.000000   0.000000   0.000000   0.000000   0.000000   0.000000
    37  H    0.000000   0.000000   0.000000   0.000000   0.000000   0.000000
              19         20         21         22         23         24
     1  C   -0.000059   0.000007   0.000152  -0.000100  -0.000005   0.000182
     2  C   -0.003277  -0.004077   0.000014  -0.000006   0.000000  -0.000009
     3  H   -0.000002  -0.000001   0.000004   0.000002   0.000000   0.000004
     4  C    0.000001  -0.000004  -0.011440   0.004634   0.000451   0.003563
     5  C    0.002722   0.004236  -0.000248   0.000379   0.000001   0.000010
     6  N   -0.045811  -0.044680   0.000000   0.000000   0.000000   0.000000
     7  C   -0.000006  -0.000008  -0.033320  -0.043072   0.002976  -0.008358
     8  H    0.000000   0.000000   0.004532  -0.000042   0.000117   0.003621
     9  C    0.000065   0.000141   0.005901  -0.005414  -0.000224   0.000105
    10  H   -0.000021  -0.000482   0.000002  -0.000011   0.000000   0.000000
    11  C    0.002581   0.002802   0.000000   0.000000   0.000000   0.000000
    12  C    0.381077   0.379555   0.000000   0.000000   0.000000   0.000000
    13  C    0.000000   0.000000   0.503776   0.368239  -0.003529  -0.044145
    14  H   -0.000001  -0.000001   0.000229   0.005542  -0.000003   0.000006
    15  H    0.000399  -0.000297   0.000000   0.000000   0.000000   0.000000
    16  H    0.000255   0.000118   0.000000   0.000000   0.000000   0.000000
    17  H   -0.000324   0.000419   0.000000   0.000000   0.000000   0.000000
    18  H   -0.026036  -0.023449   0.000000   0.000000   0.000000   0.000000
    19  H    0.547548  -0.044344   0.000000   0.000000   0.000000   0.000000
    20  H   -0.044344   0.543834   0.000000   0.000000   0.000000   0.000000
    21  C    0.000000   0.000000   5.256232  -0.052726   0.390951   0.358722
    22  H    0.000000   0.000000  -0.052726   0.506166  -0.005895   0.004253
    23  C    0.000000   0.000000   0.390951  -0.005895   4.526088  -0.030360
    24  H    0.000000   0.000000   0.358722   0.004253  -0.030360   0.549238
    25  C    0.000000   0.000000  -0.089323   0.000877   0.340742  -0.008796
    26  O    0.000000   0.000000  -0.099632   0.014840   0.434861   0.002449
    27  C    0.000000   0.000000   0.006350  -0.000001  -0.037420  -0.000047
    28  C    0.000000   0.000000  -0.004418  -0.000016  -0.048682   0.003669
    29  H    0.000000   0.000000   0.002500  -0.000068  -0.008803  -0.000075
    30  O    0.000000   0.000000  -0.000079   0.000012   0.000349   0.000004
    31  C    0.000000   0.000000  -0.000199   0.000000   0.005271   0.000006
    32  C    0.000000   0.000000   0.000295   0.000000   0.004641   0.000465
    33  H    0.000000   0.000000   0.002813  -0.000001  -0.009016   0.005037
    34  C    0.000000   0.000000   0.000002   0.000000   0.000051  -0.000008
    35  H    0.000000   0.000000   0.000001   0.000000  -0.000088   0.000000
    36  H    0.000000   0.000000   0.000010   0.000000  -0.000111  -0.000003
    37  H    0.000000   0.000000   0.000000   0.000000   0.000004   0.000000
              25         26         27         28         29         30
     1  C    0.000000   0.000000   0.000000   0.000000   0.000000   0.000000
     2  C    0.000000   0.000000   0.000000   0.000000   0.000000   0.000000
     3  H    0.000000   0.000000   0.000000   0.000000   0.000000   0.000000
     4  C    0.000006   0.000005   0.000000   0.000004   0.000000   0.000000
     5  C    0.000000   0.000000   0.000000   0.000000   0.000000   0.000000
     6  N    0.000000   0.000000   0.000000   0.000000   0.000000   0.000000
     7  C   -0.000063   0.001042   0.000000  -0.000014  -0.000001   0.000000
     8  H    0.000015   0.000001   0.000000  -0.000023   0.000000   0.000000
     9  C   -0.000001  -0.000025   0.000000   0.000000   0.000000   0.000000
    10  H    0.000000   0.000000   0.000000   0.000000   0.000000   0.000000
    11  C    0.000000   0.000000   0.000000   0.000000   0.000000   0.000000
    12  C    0.000000   0.000000   0.000000   0.000000   0.000000   0.000000
    13  C    0.010067   0.003214  -0.000182   0.000170  -0.000052   0.000021
    14  H    0.000000  -0.000004   0.000000   0.000000   0.000000   0.000000
    15  H    0.000000   0.000000   0.000000   0.000000   0.000000   0.000000
    16  H    0.000000   0.000000   0.000000   0.000000   0.000000   0.000000
    17  H    0.000000   0.000000   0.000000   0.000000   0.000000   0.000000
    18  H    0.000000   0.000000   0.000000   0.000000   0.000000   0.000000
    19  H    0.000000   0.000000   0.000000   0.000000   0.000000   0.000000
    20  H    0.000000   0.000000   0.000000   0.000000   0.000000   0.000000
    21  C   -0.089323  -0.099632   0.006350  -0.004418   0.002500  -0.000079
    22  H    0.000877   0.014840  -0.000001  -0.000016  -0.000068   0.000012
    23  C    0.340742   0.434861  -0.037420  -0.048682  -0.008803   0.000349
    24  H   -0.008796   0.002449  -0.000047   0.003669  -0.000075   0.000004
    25  C    5.149165  -0.071926   0.432979   0.485219  -0.013499  -0.064188
    26  O   -0.071926   8.306822   0.000052   0.004011   0.095101  -0.071606
    27  C    0.432979   0.000052   4.534945  -0.035154  -0.022697   0.334557
    28  C    0.485219   0.004011  -0.035154   4.990287  -0.000059   0.004275
    29  H   -0.013499   0.095101  -0.022697  -0.000059   0.269963   0.194606
    30  O   -0.064188  -0.071606   0.334557   0.004275   0.194606   8.340510
    31  C   -0.057268   0.000580   0.521354  -0.036181   0.003762  -0.058527
    32  C   -0.026106  -0.000026  -0.033965   0.546311   0.000000   0.000017
    33  H   -0.034980  -0.000011   0.002707   0.358662  -0.000002  -0.000041
    34  C   -0.028261  -0.000013  -0.019947  -0.037858  -0.000148   0.003252
    35  H    0.005655   0.000013  -0.028801   0.000159   0.000031   0.000307
    36  H    0.002510   0.000000   0.000594  -0.034043   0.000000   0.000001
    37  H    0.000421   0.000000   0.003110   0.004028   0.000002  -0.000051
              31         32         33         34         35         36
     1  C    0.000000   0.000000   0.000000   0.000000   0.000000   0.000000
     2  C    0.000000   0.000000   0.000000   0.000000   0.000000   0.000000
     3  H    0.000000   0.000000   0.000000   0.000000   0.000000   0.000000
     4  C    0.000000   0.000000  -0.000001   0.000000   0.000000   0.000000
     5  C    0.000000   0.000000   0.000000   0.000000   0.000000   0.000000
     6  N    0.000000   0.000000   0.000000   0.000000   0.000000   0.000000
     7  C    0.000000   0.000000  -0.000026   0.000000   0.000000   0.000000
     8  H    0.000000   0.000000  -0.000001   0.000000   0.000000   0.000000
     9  C    0.000000   0.000000   0.000000   0.000000   0.000000   0.000000
    10  H    0.000000   0.000000   0.000000   0.000000   0.000000   0.000000
    11  C    0.000000   0.000000   0.000000   0.000000   0.000000   0.000000
    12  C    0.000000   0.000000   0.000000   0.000000   0.000000   0.000000
    13  C    0.000000  -0.000009   0.000371   0.000001   0.000000   0.000000
    14  H    0.000000   0.000000   0.000000   0.000000   0.000000   0.000000
    15  H    0.000000   0.000000   0.000000   0.000000   0.000000   0.000000
    16  H    0.000000   0.000000   0.000000   0.000000   0.000000   0.000000
    17  H    0.000000   0.000000   0.000000   0.000000   0.000000   0.000000
    18  H    0.000000   0.000000   0.000000   0.000000   0.000000   0.000000
    19  H    0.000000   0.000000   0.000000   0.000000   0.000000   0.000000
    20  H    0.000000   0.000000   0.000000   0.000000   0.000000   0.000000
    21  C   -0.000199   0.000295   0.002813   0.000002   0.000001   0.000010
    22  H    0.000000   0.000000  -0.000001   0.000000   0.000000   0.000000
    23  C    0.005271   0.004641  -0.009016   0.000051  -0.000088  -0.000111
    24  H    0.000006   0.000465   0.005037  -0.000008   0.000000  -0.000003
    25  C   -0.057268  -0.026106  -0.034980  -0.028261   0.005655   0.002510
    26  O    0.000580  -0.000026  -0.000011  -0.000013   0.000013   0.000000
    27  C    0.521354  -0.033965   0.002707  -0.019947  -0.028801   0.000594
    28  C   -0.036181   0.546311   0.358662  -0.037858   0.000159  -0.034043
    29  H    0.003762   0.000000  -0.000002  -0.000148   0.000031   0.000000
    30  O   -0.058527   0.000017  -0.000041   0.003252   0.000307   0.000001
    31  C    5.001380  -0.039835   0.000370   0.543358   0.357618   0.003380
    32  C   -0.039835   4.906242  -0.037126   0.531958   0.003742   0.370240
    33  H    0.000370  -0.037126   0.545961   0.004050   0.000013  -0.004056
    34  C    0.543358   0.531958   0.004050   4.867950  -0.038386  -0.036572
    35  H    0.357618   0.003742   0.000013  -0.038386   0.523096  -0.000120
    36  H    0.003380   0.370240  -0.004056  -0.036572  -0.000120   0.539287
    37  H   -0.034168  -0.037609  -0.000165   0.367054  -0.004319  -0.003704
              37
     1  C    0.000000
     2  C    0.000000
     3  H    0.000000
     4  C    0.000000
     5  C    0.000000
     6  N    0.000000
     7  C    0.000000
     8  H    0.000000
     9  C    0.000000
    10  H    0.000000
    11  C    0.000000
    12  C    0.000000
    13  C    0.000000
    14  H    0.000000
    15  H    0.000000
    16  H    0.000000
    17  H    0.000000
    18  H    0.000000
    19  H    0.000000
    20  H    0.000000
    21  C    0.000000
    22  H    0.000000
    23  C    0.000004
    24  H    0.000000
    25  C    0.000421
    26  O    0.000000
    27  C    0.003110
    28  C    0.004028
    29  H    0.000002
    30  O   -0.000051
    31  C   -0.034168
    32  C   -0.037609
    33  H   -0.000165
    34  C    0.367054
    35  H   -0.004319
    36  H   -0.003704
    37  H    0.533632
 Mulliken charges:
               1
     1  C   -0.229563
     2  C    0.379299
     3  H    0.164786
     4  C   -0.191891
     5  C   -0.233476
     6  N   -0.498877
     7  C    0.118991
     8  H    0.168729
     9  C   -0.209946
    10  H    0.165894
    11  C   -0.362122
    12  C   -0.362016
    13  C   -0.162550
    14  H    0.177385
    15  H    0.185569
    16  H    0.183247
    17  H    0.184109
    18  H    0.183060
    19  H    0.185234
    20  H    0.186232
    21  C   -0.241101
    22  H    0.202407
    23  C    0.437633
    24  H    0.160466
    25  C   -0.033245
    26  O   -0.619747
    27  C    0.341564
    28  C   -0.200348
    29  H    0.479439
    30  O   -0.683421
    31  C   -0.210902
    32  C   -0.189236
    33  H    0.165441
    34  C   -0.156482
    35  H    0.181082
    36  H    0.162588
    37  H    0.171766
 Sum of Mulliken charges =   0.00000
 Mulliken charges with hydrogens summed into heavy atoms:
               1
     1  C   -0.064777
     2  C    0.379299
     4  C   -0.023162
     5  C   -0.067582
     6  N   -0.498877
     7  C    0.118991
     9  C   -0.032561
    11  C    0.190804
    12  C    0.192510
    13  C    0.039857
    21  C   -0.080635
    23  C    0.437633
    25  C   -0.033245
    26  O   -0.619747
    27  C    0.341564
    28  C   -0.034906
    30  O   -0.203982
    31  C   -0.029820
    32  C   -0.026648
    34  C    0.015284
 Electronic spatial extent (au):  <R**2>=          16325.8481
 Charge=              0.0000 electrons
 Dipole moment (field-independent basis, Debye):
    X=             -7.1711    Y=             -1.3604    Z=              5.7829  Tot=              9.3122
 Quadrupole moment (field-independent basis, Debye-Ang):
   XX=            -88.4412   YY=           -110.5061   ZZ=            -83.0903
   XY=             -0.1965   XZ=            -23.8826   YZ=            -16.2314
 Traceless Quadrupole moment (field-independent basis, Debye-Ang):
   XX=              5.5714   YY=            -16.4936   ZZ=             10.9222
   XY=             -0.1965   XZ=            -23.8826   YZ=            -16.2314
 Octapole moment (field-independent basis, Debye-Ang**2):
  XXX=           -218.5768  YYY=            505.6346  ZZZ=           -892.4899  XYY=             -8.1993
  XXY=            114.2381  XXZ=           -154.9577  XZZ=           -173.9002  YZZ=             71.7224
  YYZ=           -316.3558  XYZ=             13.9899
 Hexadecapole moment (field-independent basis, Debye-Ang**3):
 XXXX=          -9333.7439 YYYY=          -2313.1409 ZZZZ=          -7714.3528 XXXY=            611.2617
 XXXZ=            672.1265 YYYX=            761.0566 YYYZ=           1550.9427 ZZZX=            660.2759
 ZZZY=           1077.8374 XXYY=          -2041.0245 XXZZ=          -2187.8698 YYZZ=          -1588.0030
 XXYZ=            198.1624 YYXZ=            565.6545 ZZXY=            462.2158
 N-N= 1.358388125021D+03 E-N=-4.721579318192D+03  KE= 8.546410976319D+02
 Leave Link  601 at Mon Nov  6 20:58:30 2017, MaxMem=  3758096384 cpu:         0.2
 (Enter /share/apps/gaussian/g09_D01/g09/l9999.exe)
 1\1\GINC-NXN36\SP\RwB97XD TD-FC\6-31G(d)\C17H17N1O2\BTX008\06-Nov-2017
 \0\\#p wb97xd 6-31G* td=(nstates=4) nosymm\\Title\\0,1\C,0,-2.781614,-
 1.929857,4.949057\C,0,-3.899567,-1.104949,4.623044\H,0,-2.857302,-2.66
 7213,5.743983\C,0,-1.589403,-1.806976,4.273514\C,0,-3.73394,-0.167547,
 3.566427\N,0,-5.073462,-1.209339,5.297522\C,0,-1.415409,-0.871998,3.22
 2876\H,0,-0.764905,-2.460304,4.561627\C,0,-2.533855,-0.067726,2.896805
 \H,0,-4.562114,0.469394,3.265867\C,0,-5.218792,-2.191368,6.360707\C,0,
 -6.187049,-0.324912,4.983813\C,0,-0.21471,-0.745572,2.457648\H,0,-2.43
 6476,0.649787,2.08077\H,0,-5.026172,-3.209094,5.987337\H,0,-6.238463,-
 2.151217,6.754688\H,0,-4.519211,-1.99012,7.185557\H,0,-7.004935,-0.516
 059,5.685339\H,0,-6.554969,-0.493575,3.959922\H,0,-5.886296,0.730066,5
 .072453\C,0,0.968167,-1.412456,2.645758\H,0,-0.25758,-0.050548,1.61208
 6\C,0,2.088236,-1.238428,1.759478\H,0,1.074163,-2.099815,3.482603\C,0,
 3.380024,-1.901192,2.027274\O,0,1.99078,-0.498466,0.713431\C,0,4.46043
 1,-1.697998,1.116638\C,0,3.61705,-2.723616,3.149104\H,0,3.311671,-0.61
 3585,0.091837\O,0,4.303032,-0.944233,0.010896\C,0,5.713299,-2.280435,1
 .366002\C,0,4.852786,-3.30849,3.380164\H,0,2.81664,-2.920673,3.860494\
 C,0,5.905928,-3.076949,2.485036\H,0,6.521299,-2.073366,0.66433\H,0,5.0
 01608,-3.946366,4.250925\H,0,6.883564,-3.522908,2.674804\\Version=ES64
 L-G09RevD.01\HF=-862.9452409\RMSD=7.677e-09\PG=C01 [X(C17H17N1O2)]\\@


 QUANTUM MECHANICS IS BOHRING -- M.S. GORDON
 Job cpu time:       0 days  0 hours 13 minutes 46.8 seconds.
 File lengths (MBytes):  RWF=    231 Int=      0 D2E=      0 Chk=     82 Scr=      1
 Normal termination of Gaussian 09 at Mon Nov  6 20:58:30 2017.
