 Entering Gaussian System, Link 0=g09
 Input=3_optS1_rotated.com
 Output=3_optS1_rotated.out
 Initial command:
 /share/apps/gaussian/g09_D01/g09/l1.exe "/tmp/3877181.1.smserial.q/Gau-7973.inp" -scrdir="/tmp/3877181.1.smserial.q/"
 Entering Link 1 = /share/apps/gaussian/g09_D01/g09/l1.exe PID=      7974.
  
 Copyright (c) 1988,1990,1992,1993,1995,1998,2003,2009,2013,
            Gaussian, Inc.  All Rights Reserved.
  
 This is part of the Gaussian(R) 09 program.  It is based on
 the Gaussian(R) 03 system (copyright 2003, Gaussian, Inc.),
 the Gaussian(R) 98 system (copyright 1998, Gaussian, Inc.),
 the Gaussian(R) 94 system (copyright 1995, Gaussian, Inc.),
 the Gaussian 92(TM) system (copyright 1992, Gaussian, Inc.),
 the Gaussian 90(TM) system (copyright 1990, Gaussian, Inc.),
 the Gaussian 88(TM) system (copyright 1988, Gaussian, Inc.),
 the Gaussian 86(TM) system (copyright 1986, Carnegie Mellon
 University), and the Gaussian 82(TM) system (copyright 1983,
 Carnegie Mellon University). Gaussian is a federally registered
 trademark of Gaussian, Inc.
  
 This software contains proprietary and confidential information,
 including trade secrets, belonging to Gaussian, Inc.
  
 This software is provided under written license and may be
 used, copied, transmitted, or stored only in accord with that
 written license.
  
 The following legend is applicable only to US Government
 contracts under FAR:
  
                    RESTRICTED RIGHTS LEGEND
  
 Use, reproduction and disclosure by the US Government is
 subject to restrictions as set forth in subparagraphs (a)
 and (c) of the Commercial Computer Software - Restricted
 Rights clause in FAR 52.227-19.
  
 Gaussian, Inc.
 340 Quinnipiac St., Bldg. 40, Wallingford CT 06492
  
  
 ---------------------------------------------------------------
 Warning -- This program may not be used in any manner that
 competes with the business of Gaussian, Inc. or will provide
 assistance to any competitor of Gaussian, Inc.  The licensee
 of this program is prohibited from giving any competitor of
 Gaussian, Inc. access to this program.  By using this program,
 the user acknowledges that Gaussian, Inc. is engaged in the
 business of creating and licensing software in the field of
 computational chemistry and represents and warrants to the
 licensee that it is not a competitor of Gaussian, Inc. and that
 it will not use this program in any manner prohibited above.
 ---------------------------------------------------------------
  

 Cite this work as:
 Gaussian 09, Revision D.01,
 M. J. Frisch, G. W. Trucks, H. B. Schlegel, G. E. Scuseria, 
 M. A. Robb, J. R. Cheeseman, G. Scalmani, V. Barone, B. Mennucci, 
 G. A. Petersson, H. Nakatsuji, M. Caricato, X. Li, H. P. Hratchian, 
 A. F. Izmaylov, J. Bloino, G. Zheng, J. L. Sonnenberg, M. Hada, 
 M. Ehara, K. Toyota, R. Fukuda, J. Hasegawa, M. Ishida, T. Nakajima, 
 Y. Honda, O. Kitao, H. Nakai, T. Vreven, J. A. Montgomery, Jr., 
 J. E. Peralta, F. Ogliaro, M. Bearpark, J. J. Heyd, E. Brothers, 
 K. N. Kudin, V. N. Staroverov, T. Keith, R. Kobayashi, J. Normand, 
 K. Raghavachari, A. Rendell, J. C. Burant, S. S. Iyengar, J. Tomasi, 
 M. Cossi, N. Rega, J. M. Millam, M. Klene, J. E. Knox, J. B. Cross, 
 V. Bakken, C. Adamo, J. Jaramillo, R. Gomperts, R. E. Stratmann, 
 O. Yazyev, A. J. Austin, R. Cammi, C. Pomelli, J. W. Ochterski, 
 R. L. Martin, K. Morokuma, V. G. Zakrzewski, G. A. Voth, 
 P. Salvador, J. J. Dannenberg, S. Dapprich, A. D. Daniels, 
 O. Farkas, J. B. Foresman, J. V. Ortiz, J. Cioslowski, 
 and D. J. Fox, Gaussian, Inc., Wallingford CT, 2013.
 
 ******************************************
 Gaussian 09:  ES64L-G09RevD.01 24-Apr-2013
                 5-Dec-2016 
 ******************************************
 %chk=3_optS1_rotated.chk
 %mem=12GB
 %nproc=4
 Will use up to    4 processors via shared memory.
 ---------------------------------------------
 # wb97xd 6-311++g** opt td=(nstates=1,root=1)
 ---------------------------------------------
 1/14=-1,18=20,19=15,26=3,38=1/1,3;
 2/9=110,12=2,17=6,18=5,40=1/2;
 3/5=4,6=6,7=1111,11=9,16=1,25=1,30=1,71=1,74=-58/1,2,8,3;
 4//1;
 5/5=2,38=5/2;
 8/6=1,10=2,107=1,108=1/1;
 9/8=1,15=2,41=1,42=1,70=2/14;
 10/5=4/2;
 6/7=2,8=2,9=2,10=2/1;
 7/12=6,13=5,14=1/1,2,3,16;
 1/14=-1,18=20,19=15,26=3/3(2);
 2/9=110/2;
 99//99;
 2/9=110/2;
 3/5=4,6=6,7=1111,11=9,16=1,25=1,30=1,71=1,74=-58/1,2,8,3;
 4/5=5,16=3,69=1/1;
 5/5=2,38=5/2;
 8/6=1,10=2,107=1,108=1/1;
 9/8=1,15=2,41=1,42=1,49=4,70=2/14;
 10/5=4/2;
 7/12=6,13=5,14=1/1,2,3,16;
 1/14=-1,18=20,19=15,26=3/3(-8);
 2/9=110/2;
 6/7=2,8=2,9=2,10=2/1;
 99//99;
 -----
 title
 -----
 Symbolic Z-matrix:
 Charge =  0 Multiplicity = 1
 C                     3.51471   1.71002  -0.90099 
 H                     4.56052   1.95855  -1.08095 
 H                     2.93604   2.64421  -0.86709 
 C                     3.79348   0.80309  -3.18872 
 H                     3.72617   1.7613   -3.72235 
 N                     3.05115   0.82961  -1.94429 
 H                     3.4343    1.2232    0.0761 
 H                     3.3966    0.02346  -3.83835 
 H                     4.84996   0.59155  -2.99994 
 C                     1.827     0.26564  -1.87123 
 H                     1.54571  -0.38467  -2.69014 
 C                     0.92476   0.4445   -0.85146 
 C                    -0.30337  -0.27948  -0.84909 
 H                     1.16786   1.09053  -0.01855 
 O                    -0.53789  -1.16885  -1.78563 
 C                    -1.28629  -0.05734   0.16467 
 C                    -2.45091  -0.98636   0.18047 
 C                    -1.5875    1.29341   0.33482 
 O                    -2.31609  -2.04758   0.90011 
 C                    -3.75661  -0.52811   0.28611 
 C                    -2.91673   1.73269   0.45444 
 H                    -0.80549   2.04149   0.3229 
 H                    -1.26612  -2.03962   1.21345 
 H                    -4.57122  -1.23984   0.29299 
 C                    -3.99296   0.8433    0.43629 
 H                    -3.09228   2.79773   0.54881 
 O                    -5.28705   1.21434   0.55926 
 C                    -5.58356   2.58391   0.71787 
 H                    -5.25417   3.16973  -0.14803 
 H                    -6.66722   2.64724   0.80054 
 H                    -5.12812   2.98995   1.62858 
 

 GradGradGradGradGradGradGradGradGradGradGradGradGradGradGradGradGradGrad
 Berny optimization.
 Initialization pass.
                           ----------------------------
                           !    Initial Parameters    !
                           ! (Angstroms and Degrees)  !
 --------------------------                            --------------------------
 ! Name  Definition              Value          Derivative Info.                !
 --------------------------------------------------------------------------------
 ! R1    R(1,2)                  1.0899         estimate D2E/DX2                !
 ! R2    R(1,3)                  1.0994         estimate D2E/DX2                !
 ! R3    R(1,6)                  1.4417         estimate D2E/DX2                !
 ! R4    R(1,7)                  1.0946         estimate D2E/DX2                !
 ! R5    R(4,5)                  1.0988         estimate D2E/DX2                !
 ! R6    R(4,6)                  1.4493         estimate D2E/DX2                !
 ! R7    R(4,8)                  1.0897         estimate D2E/DX2                !
 ! R8    R(4,9)                  1.0939         estimate D2E/DX2                !
 ! R9    R(6,10)                 1.3498         estimate D2E/DX2                !
 ! R10   R(10,11)                1.0829         estimate D2E/DX2                !
 ! R11   R(10,12)                1.3733         estimate D2E/DX2                !
 ! R12   R(12,13)                1.4256         estimate D2E/DX2                !
 ! R13   R(12,14)                1.0818         estimate D2E/DX2                !
 ! R14   R(13,15)                1.3127         estimate D2E/DX2                !
 ! R15   R(13,16)                1.4294         estimate D2E/DX2                !
 ! R16   R(16,17)                1.4899         estimate D2E/DX2                !
 ! R17   R(16,18)                1.3943         estimate D2E/DX2                !
 ! R18   R(17,19)                1.2893         estimate D2E/DX2                !
 ! R19   R(17,20)                1.3878         estimate D2E/DX2                !
 ! R20   R(18,21)                1.405          estimate D2E/DX2                !
 ! R21   R(18,22)                1.0823         estimate D2E/DX2                !
 ! R22   R(19,23)                1.0958         estimate D2E/DX2                !
 ! R23   R(20,24)                1.0818         estimate D2E/DX2                !
 ! R24   R(20,25)                1.3997         estimate D2E/DX2                !
 ! R25   R(21,25)                1.3963         estimate D2E/DX2                !
 ! R26   R(21,26)                1.0835         estimate D2E/DX2                !
 ! R27   R(25,27)                1.3518         estimate D2E/DX2                !
 ! R28   R(27,28)                1.4102         estimate D2E/DX2                !
 ! R29   R(28,29)                1.0961         estimate D2E/DX2                !
 ! R30   R(28,30)                1.0887         estimate D2E/DX2                !
 ! R31   R(28,31)                1.0962         estimate D2E/DX2                !
 ! A1    A(2,1,3)              108.4444         estimate D2E/DX2                !
 ! A2    A(2,1,6)              109.1654         estimate D2E/DX2                !
 ! A3    A(2,1,7)              108.6199         estimate D2E/DX2                !
 ! A4    A(3,1,6)              111.8373         estimate D2E/DX2                !
 ! A5    A(3,1,7)              108.1626         estimate D2E/DX2                !
 ! A6    A(6,1,7)              110.534          estimate D2E/DX2                !
 ! A7    A(5,4,6)              111.6948         estimate D2E/DX2                !
 ! A8    A(5,4,8)              108.1837         estimate D2E/DX2                !
 ! A9    A(5,4,9)              108.1566         estimate D2E/DX2                !
 ! A10   A(6,4,8)              109.782          estimate D2E/DX2                !
 ! A11   A(6,4,9)              110.4914         estimate D2E/DX2                !
 ! A12   A(8,4,9)              108.4394         estimate D2E/DX2                !
 ! A13   A(1,6,4)              117.8951         estimate D2E/DX2                !
 ! A14   A(1,6,10)             120.5038         estimate D2E/DX2                !
 ! A15   A(4,6,10)             120.2231         estimate D2E/DX2                !
 ! A16   A(6,10,11)            116.4597         estimate D2E/DX2                !
 ! A17   A(6,10,12)            125.5636         estimate D2E/DX2                !
 ! A18   A(11,10,12)           117.9761         estimate D2E/DX2                !
 ! A19   A(10,12,13)           120.0705         estimate D2E/DX2                !
 ! A20   A(10,12,14)           120.125          estimate D2E/DX2                !
 ! A21   A(13,12,14)           119.7083         estimate D2E/DX2                !
 ! A22   A(12,13,15)           119.7878         estimate D2E/DX2                !
 ! A23   A(12,13,16)           120.9735         estimate D2E/DX2                !
 ! A24   A(15,13,16)           119.238          estimate D2E/DX2                !
 ! A25   A(13,16,17)           116.625          estimate D2E/DX2                !
 ! A26   A(13,16,18)           112.6836         estimate D2E/DX2                !
 ! A27   A(17,16,18)           115.7159         estimate D2E/DX2                !
 ! A28   A(16,17,19)           115.9405         estimate D2E/DX2                !
 ! A29   A(16,17,20)           122.0296         estimate D2E/DX2                !
 ! A30   A(19,17,20)           109.1286         estimate D2E/DX2                !
 ! A31   A(16,18,21)           121.173          estimate D2E/DX2                !
 ! A32   A(16,18,22)           120.8082         estimate D2E/DX2                !
 ! A33   A(21,18,22)           117.9316         estimate D2E/DX2                !
 ! A34   A(17,19,23)           104.7042         estimate D2E/DX2                !
 ! A35   A(17,20,24)           119.4541         estimate D2E/DX2                !
 ! A36   A(17,20,25)           119.3774         estimate D2E/DX2                !
 ! A37   A(24,20,25)           121.1174         estimate D2E/DX2                !
 ! A38   A(18,21,25)           121.9341         estimate D2E/DX2                !
 ! A39   A(18,21,26)           117.9048         estimate D2E/DX2                !
 ! A40   A(25,21,26)           120.1554         estimate D2E/DX2                !
 ! A41   A(20,25,21)           119.6916         estimate D2E/DX2                !
 ! A42   A(20,25,27)           116.125          estimate D2E/DX2                !
 ! A43   A(21,25,27)           124.1832         estimate D2E/DX2                !
 ! A44   A(25,27,28)           118.5589         estimate D2E/DX2                !
 ! A45   A(27,28,29)           111.5314         estimate D2E/DX2                !
 ! A46   A(27,28,30)           105.9223         estimate D2E/DX2                !
 ! A47   A(27,28,31)           111.4569         estimate D2E/DX2                !
 ! A48   A(29,28,30)           109.1491         estimate D2E/DX2                !
 ! A49   A(29,28,31)           109.4798         estimate D2E/DX2                !
 ! A50   A(30,28,31)           109.203          estimate D2E/DX2                !
 ! D1    D(2,1,6,4)            -20.3524         estimate D2E/DX2                !
 ! D2    D(2,1,6,10)           173.0161         estimate D2E/DX2                !
 ! D3    D(3,1,6,4)             99.6553         estimate D2E/DX2                !
 ! D4    D(3,1,6,10)           -66.9761         estimate D2E/DX2                !
 ! D5    D(7,1,6,4)           -139.768          estimate D2E/DX2                !
 ! D6    D(7,1,6,10)            53.6006         estimate D2E/DX2                !
 ! D7    D(5,4,6,1)            -65.9756         estimate D2E/DX2                !
 ! D8    D(5,4,6,10)           100.6949         estimate D2E/DX2                !
 ! D9    D(8,4,6,1)            174.0238         estimate D2E/DX2                !
 ! D10   D(8,4,6,10)           -19.3057         estimate D2E/DX2                !
 ! D11   D(9,4,6,1)             54.469          estimate D2E/DX2                !
 ! D12   D(9,4,6,10)          -138.8606         estimate D2E/DX2                !
 ! D13   D(1,6,10,11)         -179.9831         estimate D2E/DX2                !
 ! D14   D(1,6,10,12)           -0.2775         estimate D2E/DX2                !
 ! D15   D(4,6,10,11)           13.6967         estimate D2E/DX2                !
 ! D16   D(4,6,10,12)         -166.5978         estimate D2E/DX2                !
 ! D17   D(6,10,12,13)        -175.8259         estimate D2E/DX2                !
 ! D18   D(6,10,12,14)           0.5983         estimate D2E/DX2                !
 ! D19   D(11,10,12,13)          3.8756         estimate D2E/DX2                !
 ! D20   D(11,10,12,14)       -179.7002         estimate D2E/DX2                !
 ! D21   D(10,12,13,15)          3.6009         estimate D2E/DX2                !
 ! D22   D(10,12,13,16)       -176.7155         estimate D2E/DX2                !
 ! D23   D(14,12,13,15)       -172.8383         estimate D2E/DX2                !
 ! D24   D(14,12,13,16)          6.8453         estimate D2E/DX2                !
 ! D25   D(12,13,16,17)       -172.2286         estimate D2E/DX2                !
 ! D26   D(12,13,16,18)         50.413          estimate D2E/DX2                !
 ! D27   D(15,13,16,17)          7.4567         estimate D2E/DX2                !
 ! D28   D(15,13,16,18)       -129.9016         estimate D2E/DX2                !
 ! D29   D(13,16,17,19)         90.0            estimate D2E/DX2                !
 ! D30   D(13,16,17,20)       -132.7642         estimate D2E/DX2                !
 ! D31   D(18,16,17,19)       -133.9253         estimate D2E/DX2                !
 ! D32   D(18,16,17,20)          3.3104         estimate D2E/DX2                !
 ! D33   D(13,16,18,21)        135.1736         estimate D2E/DX2                !
 ! D34   D(13,16,18,22)        -41.3618         estimate D2E/DX2                !
 ! D35   D(17,16,18,21)         -2.5932         estimate D2E/DX2                !
 ! D36   D(17,16,18,22)       -179.1286         estimate D2E/DX2                !
 ! D37   D(16,17,19,23)         -7.8853         estimate D2E/DX2                !
 ! D38   D(20,17,19,23)       -150.349          estimate D2E/DX2                !
 ! D39   D(16,17,20,24)        179.9673         estimate D2E/DX2                !
 ! D40   D(16,17,20,25)         -2.6004         estimate D2E/DX2                !
 ! D41   D(19,17,20,24)        -40.2927         estimate D2E/DX2                !
 ! D42   D(19,17,20,25)        137.1395         estimate D2E/DX2                !
 ! D43   D(16,18,21,25)          1.3119         estimate D2E/DX2                !
 ! D44   D(16,18,21,26)       -177.8288         estimate D2E/DX2                !
 ! D45   D(22,18,21,25)        177.944          estimate D2E/DX2                !
 ! D46   D(22,18,21,26)         -1.1968         estimate D2E/DX2                !
 ! D47   D(17,20,25,21)          1.1115         estimate D2E/DX2                !
 ! D48   D(17,20,25,27)       -178.746          estimate D2E/DX2                !
 ! D49   D(24,20,25,21)        178.4998         estimate D2E/DX2                !
 ! D50   D(24,20,25,27)         -1.3577         estimate D2E/DX2                !
 ! D51   D(18,21,25,20)         -0.4432         estimate D2E/DX2                !
 ! D52   D(18,21,25,27)        179.4021         estimate D2E/DX2                !
 ! D53   D(26,21,25,20)        178.6786         estimate D2E/DX2                !
 ! D54   D(26,21,25,27)         -1.4761         estimate D2E/DX2                !
 ! D55   D(20,25,27,28)        179.7898         estimate D2E/DX2                !
 ! D56   D(21,25,27,28)         -0.0605         estimate D2E/DX2                !
 ! D57   D(25,27,28,29)         61.6249         estimate D2E/DX2                !
 ! D58   D(25,27,28,30)       -179.7381         estimate D2E/DX2                !
 ! D59   D(25,27,28,31)        -61.0764         estimate D2E/DX2                !
 --------------------------------------------------------------------------------
 Trust Radius=3.00D-01 FncErr=1.00D-07 GrdErr=1.00D-06
 Number of steps in this run=    150 maximum allowed number of steps=    186.
 GradGradGradGradGradGradGradGradGradGradGradGradGradGradGradGradGradGrad

                          Input orientation:                          
 ---------------------------------------------------------------------
 Center     Atomic      Atomic             Coordinates (Angstroms)
 Number     Number       Type             X           Y           Z
 ---------------------------------------------------------------------
      1          6           0        3.514707    1.710017   -0.900991
      2          1           0        4.560517    1.958547   -1.080953
      3          1           0        2.936035    2.644206   -0.867093
      4          6           0        3.793484    0.803091   -3.188715
      5          1           0        3.726169    1.761296   -3.722352
      6          7           0        3.051145    0.829607   -1.944290
      7          1           0        3.434305    1.223205    0.076103
      8          1           0        3.396597    0.023461   -3.838353
      9          1           0        4.849960    0.591548   -2.999941
     10          6           0        1.827003    0.265640   -1.871235
     11          1           0        1.545713   -0.384668   -2.690138
     12          6           0        0.924761    0.444496   -0.851462
     13          6           0       -0.303368   -0.279479   -0.849087
     14          1           0        1.167858    1.090534   -0.018546
     15          8           0       -0.537895   -1.168846   -1.785631
     16          6           0       -1.286293   -0.057339    0.164669
     17          6           0       -2.450912   -0.986360    0.180470
     18          6           0       -1.587502    1.293412    0.334822
     19          8           0       -2.316088   -2.047584    0.900112
     20          6           0       -3.756606   -0.528108    0.286105
     21          6           0       -2.916726    1.732686    0.454440
     22          1           0       -0.805491    2.041488    0.322903
     23          1           0       -1.266115   -2.039615    1.213452
     24          1           0       -4.571222   -1.239839    0.292989
     25          6           0       -3.992958    0.843295    0.436291
     26          1           0       -3.092282    2.797727    0.548806
     27          8           0       -5.287050    1.214340    0.559257
     28          6           0       -5.583561    2.583906    0.717865
     29          1           0       -5.254168    3.169731   -0.148029
     30          1           0       -6.667219    2.647244    0.800538
     31          1           0       -5.128123    2.989947    1.628582
 ---------------------------------------------------------------------
                    Distance matrix (angstroms):
                    1          2          3          4          5
     1  C    0.000000
     2  H    1.089896   0.000000
     3  H    1.099418   1.776177   0.000000
     4  C    2.476675   2.523109   3.084616   0.000000
     5  H    2.829740   2.777055   3.091334   1.098843   0.000000
     6  N    1.441695   2.073177   2.113380   1.449263   2.117830
     7  H    1.094606   1.774222   1.776834   3.311275   3.847465
     8  H    3.389177   3.564060   3.988585   1.089666   1.772609
     9  H    2.727539   2.373811   3.524990   1.093858   1.775695
    10  C    2.424034   3.310978   2.809952   2.427273   3.044742
    11  H    3.386103   4.143570   3.798759   2.590719   3.228779
    12  C    2.883023   3.945091   2.980637   3.717650   4.221832
    13  C    4.305634   5.359095   4.363714   4.840456   5.353278
    14  H    2.582667   3.659548   2.502075   4.126319   4.551160
    15  O    5.049160   6.022538   5.239396   4.961655   5.524387
    16  C    5.225780   6.308769   5.117708   6.147330   6.598571
    17  C    6.635406   7.708684   6.580091   7.317515   7.806277
    18  C    5.266244   6.343892   4.871513   6.450639   6.701841
    19  O    7.166709   8.201306   7.260904   7.884906   8.507856
    20  C    7.700026   8.787880   7.495658   8.417264   8.792100
    21  C    6.572750   7.636597   6.068948   7.691791   7.846940
    22  H    4.502433   5.547228   3.972201   5.917404   6.080998
    23  H    6.433263   7.429619   6.627588   7.284202   7.983231
    24  H    8.689620   9.772720   8.531736   9.287849   9.694146
    25  C    7.674931   8.758296   7.276884   8.589003   8.816006
    26  H    6.851082   7.869287   6.194268   8.084641   8.112229
    27  O    8.935824  10.010930   8.467475   9.832219   9.993471
    28  C    9.282395  10.321296   8.665982  10.313179  10.347139
    29  H    8.921372   9.933044   8.238487   9.833960   9.767596
    30  H   10.365578  11.405103   9.746974  11.346425  11.369431
    31  H    9.095904  10.113116   8.448585  10.372260  10.418280
                    6          7          8          9         10
     6  N    0.000000
     7  H    2.093733   0.000000
     8  H    2.087266   4.094358   0.000000
     9  H    2.099239   3.444578   1.771418   0.000000
    10  C    1.349785   2.700458   2.528206   3.243217   0.000000
    11  H    2.072939   3.715390   2.216018   3.459338   1.082879
    12  C    2.421590   2.786498   3.899841   4.477139   1.373306
    13  C    3.698960   4.133307   4.766259   5.651694   2.424958
    14  H    2.706168   2.272298   4.549378   4.763987   2.132458
    15  O    4.110985   4.996631   4.595159   5.796767   2.767277
    16  C    4.903851   4.892001   6.161182   6.934653   3.733876
    17  C    6.171303   6.287197   7.166871   8.118346   4.906889
    18  C    5.189077   5.028957   6.623398   7.283829   4.193071
    19  O    6.721313   6.666639   7.705650   8.574828   5.495141
    20  C    7.291333   7.404079   8.275487   9.280340   6.038282
    21  C    6.494994   6.382656   7.823526   8.576500   5.483061
    22  H    4.634918   4.325085   6.248682   6.717718   3.859780
    23  H    6.069803   5.833824   7.177597   7.879218   4.939319
    24  H    8.209050   8.378668   9.063666  10.146725   6.920088
    25  C    7.435506   7.445690   8.576143   9.490430   6.287313
    26  H    6.915976   6.730446   8.309588   8.974410   6.038827
    27  O    8.714429   8.734732   9.806268  10.761725   7.577406
    28  C    9.204498   9.142498  10.390295  11.253885   8.185002
    29  H    8.813680   8.906669   9.917320  10.810820   7.845137
    30  H   10.260823  10.227095  11.387885  12.301013   9.217495
    31  H    9.183295   8.879568  10.552642  11.257783   8.248900
                   11         12         13         14         15
    11  H    0.000000
    12  C    2.110409   0.000000
    13  C    2.611443   1.425639   0.000000
    14  H    3.075126   1.081763   2.175142   0.000000
    15  O    2.403017   2.369579   1.312665   3.337211   0.000000
    16  C    4.034517   2.484576   1.429402   2.715518   2.366267
    17  C    4.957362   3.808858   2.484273   4.177151   2.749271
    18  C    4.667266   2.905063   2.350453   2.785325   3.414778
    19  O    5.528897   4.447648   3.199521   4.778034   3.338768
    20  C    6.082203   4.914795   3.643533   5.192606   3.881074
    21  C    5.855333   4.256975   3.546496   4.161719   4.369856
    22  H    4.526899   2.631214   2.648127   2.216982   3.850164
    23  H    5.087558   3.903154   2.877329   4.152093   3.206718
    24  H    6.859101   5.861107   4.521195   6.201994   4.537999
    25  C    6.477602   5.099148   4.065205   5.186716   4.574179
    26  H    6.490716   4.861592   4.381934   4.624412   5.263857
    27  O    7.733178   6.416337   5.389992   6.481900   5.807973
    28  C    8.441177   7.028379   6.207637   6.953713   6.768263
    29  H    8.082973   6.789763   6.074451   6.751462   6.614244
    30  H    9.424944   8.075850   7.196219   8.030111   7.669382
    31  H    8.635940   7.019070   6.332950   6.779394   7.072666
                   16         17         18         19         20
    16  C    0.000000
    17  C    1.489855   0.000000
    18  C    1.394348   2.442675   0.000000
    19  O    2.358481   1.289286   3.465927   0.000000
    20  C    2.517701   1.387801   2.832900   2.181950   0.000000
    21  C    2.438538   2.772229   1.405029   3.853548   2.417628
    22  H    2.159001   3.448994   1.082267   4.397225   3.913216
    23  H    2.242715   1.892126   3.461842   1.095760   3.057314
    24  H    3.493641   2.138370   3.914294   2.471169   1.081761
    25  C    2.865476   2.406447   2.449310   3.374049   1.399702
    26  H    3.400082   3.855689   2.138484   4.919648   3.401693
    27  O    4.216506   3.609742   3.707193   4.425262   2.335165
    28  C    5.074319   4.780071   4.216703   5.671005   3.634393
    29  H    5.124041   5.023868   4.147066   6.078757   4.013126
    30  H    6.055862   5.600429   5.277620   6.401849   4.338107
    31  H    5.117485   5.007545   4.133769   5.815061   4.007495
                   21         22         23         24         25
    21  C    0.000000
    22  H    2.137750   0.000000
    23  H    4.186988   4.202458   0.000000
    24  H    3.405779   4.994871   3.522872   0.000000
    25  C    1.396288   3.407120   4.043615   2.166650   0.000000
    26  H    1.083530   2.419162   5.213110   4.307510   2.154920
    27  O    2.428601   4.563377   5.213838   2.570273   1.351839
    28  C    2.811757   4.824952   6.345305   3.978238   2.374664
    29  H    2.809217   4.613614   6.700409   4.483884   2.710053
    30  H    3.875874   5.912270   7.163035   4.445247   3.246318
    31  H    2.801712   4.614057   6.354835   4.470463   2.705231
                   26         27         28         29         30
    26  H    0.000000
    27  O    2.706332   0.000000
    28  C    2.506147   1.410243   0.000000
    29  H    2.301677   2.079637   1.096113   0.000000
    30  H    3.586947   2.004070   1.088651   1.780305   0.000000
    31  H    2.312469   2.078820   1.096220   1.790127   1.780988
                   31
    31  H    0.000000
 Stoichiometry    C12H15NO3
 Framework group  C1[X(C12H15NO3)]
 Deg. of freedom    87
 Full point group                 C1      NOp   1
 Largest Abelian subgroup         C1      NOp   1
 Largest concise Abelian subgroup C1      NOp   1
                         Standard orientation:                         
 ---------------------------------------------------------------------
 Center     Atomic      Atomic             Coordinates (Angstroms)
 Number     Number       Type             X           Y           Z
 ---------------------------------------------------------------------
      1          6           0       -4.353964   -1.326809    1.095301
      2          1           0       -5.395068   -1.596625    1.271866
      3          1           0       -3.779149   -2.248992    0.928309
      4          6           0       -5.395596   -0.425590   -0.963029
      5          1           0       -5.491303   -1.382180   -1.495224
      6          7           0       -4.281059   -0.437039   -0.036724
      7          1           0       -3.962341   -0.838531    1.993286
      8          1           0       -5.252602    0.362030   -1.702340
      9          1           0       -6.332883   -0.235675   -0.432040
     10          6           0       -3.113469    0.151797   -0.371272
     11          1           0       -3.133306    0.807774   -1.232624
     12          6           0       -1.920011   -0.008678    0.288936
     13          6           0       -0.775261    0.740219   -0.112492
     14          1           0       -1.859585   -0.659609    1.150823
     15          8           0       -0.882934    1.634259   -1.067578
     16          6           0        0.493094    0.538116    0.514900
     17          6           0        1.578493    1.490719    0.148672
     18          6           0        0.859672   -0.806217    0.565857
     19          8           0        1.670476    2.548915    0.879438
     20          6           0        2.853468    1.059212   -0.189308
     21          6           0        2.161120   -1.218271    0.233364
     22          1           0        0.132809   -1.570102    0.809681
     23          1           0        0.784995    2.519487    1.524222
     24          1           0        3.610095    1.787425   -0.448979
     25          6           0        3.152651   -0.307091   -0.135742
     26          1           0        2.378517   -2.279513    0.256624
     27          8           0        4.420779   -0.651648   -0.452919
     28          6           0        4.779448   -2.014887   -0.411415
     29          1           0        4.191987   -2.607249   -1.122373
     30          1           0        5.829852   -2.056094   -0.694458
     31          1           0        4.660958   -2.430211    0.596139
 ---------------------------------------------------------------------
 Rotational constants (GHZ):      1.1393328      0.2181375      0.1963042
 Standard basis: 6-311++G(d,p) (5D, 7F)
 There are   473 symmetry adapted cartesian basis functions of A   symmetry.
 There are   457 symmetry adapted basis functions of A   symmetry.
   457 basis functions,   711 primitive gaussians,   473 cartesian basis functions
    59 alpha electrons       59 beta electrons
       nuclear repulsion energy      1049.5184176064 Hartrees.
 NAtoms=   31 NActive=   31 NUniq=   31 SFac= 1.00D+00 NAtFMM=   60 NAOKFM=F Big=F
 Integral buffers will be    131072 words long.
 Raffenetti 1 integral format.
 Two-electron integral symmetry is turned on.
 Nuclear repulsion after empirical dispersion term =     1049.5000068527 Hartrees.
 One-electron integrals computed using PRISM.
 NBasis=   457 RedAO= T EigKep=  1.60D-06  NBF=   457
 NBsUse=   455 1.00D-06 EigRej=  8.12D-07 NBFU=   455
 ExpMin= 3.60D-02 ExpMax= 8.59D+03 ExpMxC= 1.30D+03 IAcc=3 IRadAn=         5 AccDes= 0.00D+00
 Harris functional with IExCor= 4639 and IRadAn=       5 diagonalized for initial guess.
 HarFok:  IExCor= 4639 AccDes= 0.00D+00 IRadAn=         5 IDoV= 1 UseB2=F ITyADJ=14
 ICtDFT=  3500011 ScaDFX=  1.000000  1.000000  1.000000  1.000000
 FoFCou: FMM=F IPFlag=           0 FMFlag=      100000 FMFlg1=           0
         NFxFlg=           0 DoJE=T BraDBF=F KetDBF=T FulRan=T
         wScrn=  0.000000 ICntrl=     500 IOpCl=  0 I1Cent=   200000004 NGrid=           0
         NMat0=    1 NMatS0=      1 NMatT0=    0 NMatD0=    1 NMtDS0=    0 NMtDT0=    0
 Petite list used in FoFCou.
 Requested convergence on RMS density matrix=1.00D-08 within 128 cycles.
 Requested convergence on MAX density matrix=1.00D-06.
 Requested convergence on             energy=1.00D-06.
 No special actions if energy rises.
 SCF Done:  E(RwB97XD) =  -746.562795687     A.U. after   18 cycles
            NFock= 18  Conv=0.57D-08     -V/T= 2.0041
 DoSCS=F DFT=T ScalE2(SS,OS)=  1.000000  1.000000
 ExpMin= 3.60D-02 ExpMax= 8.59D+03 ExpMxC= 1.30D+03 IAcc=3 IRadAn=         5 AccDes= 0.00D+00
 HarFok:  IExCor=  205 AccDes= 0.00D+00 IRadAn=         5 IDoV=-2 UseB2=F ITyADJ=14
 ICtDFT= 12500011 ScaDFX=  1.000000  1.000000  1.000000  1.000000
 Range of M.O.s used for correlation:    17   455
 NBasis=   457 NAE=    59 NBE=    59 NFC=    16 NFV=     0
 NROrb=    439 NOA=    43 NOB=    43 NVA=   396 NVB=   396

 **** Warning!!: The largest alpha MO coefficient is  0.12087942D+03

 Would need an additional         31299800000 words for in-memory AO integral storage.
 Orbital symmetries:
       Occupied  (A) (A) (A) (A) (A) (A) (A) (A) (A) (A) (A) (A)
                 (A) (A) (A) (A) (A) (A) (A) (A) (A) (A) (A) (A)
                 (A) (A) (A) (A) (A) (A) (A) (A) (A) (A) (A) (A)
                 (A) (A) (A) (A) (A) (A) (A) (A) (A) (A) (A) (A)
                 (A) (A) (A) (A) (A) (A) (A) (A) (A) (A) (A)
       Virtual   (A) (A) (A) (A) (A) (A) (A) (A) (A) (A) (A) (A)
                 (A) (A) (A) (A) (A) (A) (A) (A) (A) (A) (A) (A)
                 (A) (A) (A) (A) (A) (A) (A) (A) (A) (A) (A) (A)
                 (A) (A) (A) (A) (A) (A) (A) (A) (A) (A) (A) (A)
                 (A) (A) (A) (A) (A) (A) (A) (A) (A) (A) (A) (A)
                 (A) (A) (A) (A) (A) (A) (A) (A) (A) (A) (A) (A)
                 (A) (A) (A) (A) (A) (A) (A) (A) (A) (A) (A) (A)
                 (A) (A) (A) (A) (A) (A) (A) (A) (A) (A) (A) (A)
                 (A) (A) (A) (A) (A) (A) (A) (A) (A) (A) (A) (A)
                 (A) (A) (A) (A) (A) (A) (A) (A) (A) (A) (A) (A)
                 (A) (A) (A) (A) (A) (A) (A) (A) (A) (A) (A) (A)
                 (A) (A) (A) (A) (A) (A) (A) (A) (A) (A) (A) (A)
                 (A) (A) (A) (A) (A) (A) (A) (A) (A) (A) (A) (A)
                 (A) (A) (A) (A) (A) (A) (A) (A) (A) (A) (A) (A)
                 (A) (A) (A) (A) (A) (A) (A) (A) (A) (A) (A) (A)
                 (A) (A) (A) (A) (A) (A) (A) (A) (A) (A) (A) (A)
                 (A) (A) (A) (A) (A) (A) (A) (A) (A) (A) (A) (A)
                 (A) (A) (A) (A) (A) (A) (A) (A) (A) (A) (A) (A)
                 (A) (A) (A) (A) (A) (A) (A) (A) (A) (A) (A) (A)
                 (A) (A) (A) (A) (A) (A) (A) (A) (A) (A) (A) (A)
                 (A) (A) (A) (A) (A) (A) (A) (A) (A) (A) (A) (A)
                 (A) (A) (A) (A) (A) (A) (A) (A) (A) (A) (A) (A)
                 (A) (A) (A) (A) (A) (A) (A) (A) (A) (A) (A) (A)
                 (A) (A) (A) (A) (A) (A) (A) (A) (A) (A) (A) (A)
                 (A) (A) (A) (A) (A) (A) (A) (A) (A) (A) (A) (A)
                 (A) (A) (A) (A) (A) (A) (A) (A) (A) (A) (A) (A)
                 (A) (A) (A) (A) (A) (A) (A) (A) (A) (A) (A) (A)
                 (A) (A) (A) (A) (A) (A) (A) (A) (A) (A) (A) (A)
                 (A) (A) (A) (A) (A) (A) (A) (A) (A) (A) (A) (A)
                 (A) (A) (A) (A) (A) (A) (A) (A) (A) (A) (A) (A)
                 (A) (A) (A) (A) (A) (A) (A) (A) (A) (A) (A) (A)
                 (A) (A) (A) (A) (A) (A) (A) (A) (A) (A) (A) (A)
                 (A) (A) (A) (A) (A) (A) (A) (A) (A) (A) (A) (A)
     8 initial guesses have been made.
 Convergence on wavefunction:    0.000001000000000
 Iteration     1 Dimension     8 NMult     0 NNew      8
 CISAX will form     8 AO SS matrices at one time.
 Iteration     2 Dimension    12 NMult     8 NNew      4
 Iteration     3 Dimension    16 NMult    12 NNew      4
 Iteration     4 Dimension    20 NMult    16 NNew      4
 Iteration     5 Dimension    24 NMult    20 NNew      4
 Iteration     6 Dimension    28 NMult    24 NNew      4
 Iteration     7 Dimension    32 NMult    28 NNew      4
 Iteration     8 Dimension    36 NMult    32 NNew      4
 Iteration     9 Dimension    40 NMult    36 NNew      4
 Iteration    10 Dimension    44 NMult    40 NNew      4
 Iteration    11 Dimension    48 NMult    44 NNew      4
 Iteration    12 Dimension    52 NMult    48 NNew      4
 Iteration    13 Dimension    56 NMult    52 NNew      4
 ***********************************************************************
 Excited states from <AA,BB:AA,BB> singles matrix:
 ***********************************************************************
 
 Ground to excited state transition densities written to RWF  633
 Ground to excited state transition electric dipole moments (Au):
       state          X           Y           Z        Dip. S.      Osc.
         1         0.8801      0.2839      0.0169      0.8555      0.0690
 Ground to excited state transition velocity dipole moments (Au):
       state          X           Y           Z        Dip. S.      Osc.
         1        -0.1058     -0.0358     -0.0017      0.0125      0.0688
 Ground to excited state transition magnetic dipole moments (Au):
       state          X           Y           Z
         1        -0.2006     -0.1253     -0.9706
 Ground to excited state transition velocity quadrupole moments (Au):
       state          XX          YY          ZZ          XY          XZ          YZ
         1        -0.1136     -0.1655      0.0779     -0.1398      0.0186     -0.0803
 <0|del|b> * <b|rxdel|0> + <0|del|b> * <b|delr+rdel|0>
 Rotatory Strengths (R) in cgs (10**-40 erg-esu-cm/Gauss)
       state          XX          YY          ZZ    R(velocity)    E-M Angle
         1        20.6134     91.0042     48.3490     53.3222       75.80
 1/2[<0|r|b>*<b|rxdel|0> + (<0|rxdel|b>*<b|r|0>)*]
 Rotatory Strengths (R) in cgs (10**-40 erg-esu-cm/Gauss)
       state          XX          YY          ZZ     R(length)
         1       124.8655     25.1646     11.5984     53.8762
  1/2[<0|del|b>*<b|r|0> + (<0|r|b>*<b|del|0>)*] (Au)
       state          X           Y           Z        Dip. S.   Osc.(frdel)
         1        -0.0932     -0.0102      0.0000      0.1033      0.0689

 Excitation energies and oscillator strengths:
 
 Excited State   1:      Singlet-A      3.2942 eV  376.38 nm  f=0.0690  <S**2>=0.000
      56 -> 60         0.14488
      58 -> 60        -0.27723
      59 -> 60         0.60544
 This state for optimization and/or second-order correction.
 Total Energy, E(TD-HF/TD-KS) =  -746.441737375    
 Copying the excited state density for this state as the 1-particle RhoCI density.
 SavETr:  write IOETrn=   770 NScale= 10 NData=  16 NLR=1 NState=    1 LETran=      28.
          IDoAtm=1111111111111111111111111111111
          Differentiating once with respect to electric field.
                with respect to dipole field.
          Differentiating once with respect to nuclear coordinates.
          There are     1 degrees of freedom in the 1st order CPHF.  IDoFFX=0 NUNeed=     1.
 LinEq1:  Iter=  0 NonCon=     1 RMS=3.72D-03 Max=1.68D-01 NDo=     1
 AX will form     1 AO Fock derivatives at one time.
 LinEq1:  Iter=  1 NonCon=     1 RMS=2.25D-03 Max=1.25D-01 NDo=     1
 LinEq1:  Iter=  2 NonCon=     1 RMS=1.41D-03 Max=5.73D-02 NDo=     1
 LinEq1:  Iter=  3 NonCon=     1 RMS=4.93D-04 Max=2.42D-02 NDo=     1
 LinEq1:  Iter=  4 NonCon=     1 RMS=3.22D-04 Max=1.46D-02 NDo=     1
 LinEq1:  Iter=  5 NonCon=     1 RMS=1.52D-04 Max=6.64D-03 NDo=     1
 LinEq1:  Iter=  6 NonCon=     1 RMS=6.81D-05 Max=3.45D-03 NDo=     1
 LinEq1:  Iter=  7 NonCon=     1 RMS=3.86D-05 Max=1.44D-03 NDo=     1
 LinEq1:  Iter=  8 NonCon=     1 RMS=1.67D-05 Max=5.93D-04 NDo=     1
 LinEq1:  Iter=  9 NonCon=     1 RMS=8.88D-06 Max=4.05D-04 NDo=     1
 LinEq1:  Iter= 10 NonCon=     1 RMS=3.80D-06 Max=1.39D-04 NDo=     1
 LinEq1:  Iter= 11 NonCon=     1 RMS=2.24D-06 Max=1.03D-04 NDo=     1
 LinEq1:  Iter= 12 NonCon=     1 RMS=8.53D-07 Max=3.21D-05 NDo=     1
 LinEq1:  Iter= 13 NonCon=     1 RMS=4.76D-07 Max=1.77D-05 NDo=     1
 LinEq1:  Iter= 14 NonCon=     1 RMS=2.07D-07 Max=5.03D-06 NDo=     1
 LinEq1:  Iter= 15 NonCon=     1 RMS=1.00D-07 Max=3.67D-06 NDo=     1
 LinEq1:  Iter= 16 NonCon=     1 RMS=4.73D-08 Max=1.09D-06 NDo=     1
 LinEq1:  Iter= 17 NonCon=     1 RMS=2.04D-08 Max=8.53D-07 NDo=     1
 LinEq1:  Iter= 18 NonCon=     1 RMS=9.74D-09 Max=4.20D-07 NDo=     1
 LinEq1:  Iter= 19 NonCon=     1 RMS=3.75D-09 Max=1.47D-07 NDo=     1
 LinEq1:  Iter= 20 NonCon=     1 RMS=1.84D-09 Max=9.21D-08 NDo=     1
 LinEq1:  Iter= 21 NonCon=     1 RMS=1.05D-09 Max=4.59D-08 NDo=     1
 LinEq1:  Iter= 22 NonCon=     1 RMS=4.71D-10 Max=1.75D-08 NDo=     1
 LinEq1:  Iter= 23 NonCon=     1 RMS=2.50D-10 Max=9.33D-09 NDo=     1
 LinEq1:  Iter= 24 NonCon=     1 RMS=7.09D-11 Max=1.80D-09 NDo=     1
 LinEq1:  Iter= 25 NonCon=     0 RMS=2.97D-11 Max=6.94D-10 NDo=     1
 Linear equations converged to 1.000D-10 1.000D-09 after    25 iterations.
 End of Minotr F.D. properties file   721 does not exist.
 End of Minotr F.D. properties file   722 does not exist.
 End of Minotr F.D. properties file   788 does not exist.

 **********************************************************************

            Population analysis using the SCF density.

 **********************************************************************

 Orbital symmetries:
       Occupied  (A) (A) (A) (A) (A) (A) (A) (A) (A) (A) (A) (A)
                 (A) (A) (A) (A) (A) (A) (A) (A) (A) (A) (A) (A)
                 (A) (A) (A) (A) (A) (A) (A) (A) (A) (A) (A) (A)
                 (A) (A) (A) (A) (A) (A) (A) (A) (A) (A) (A) (A)
                 (A) (A) (A) (A) (A) (A) (A) (A) (A) (A) (A)
       Virtual   (A) (A) (A) (A) (A) (A) (A) (A) (A) (A) (A) (A)
                 (A) (A) (A) (A) (A) (A) (A) (A) (A) (A) (A) (A)
                 (A) (A) (A) (A) (A) (A) (A) (A) (A) (A) (A) (A)
                 (A) (A) (A) (A) (A) (A) (A) (A) (A) (A) (A) (A)
                 (A) (A) (A) (A) (A) (A) (A) (A) (A) (A) (A) (A)
                 (A) (A) (A) (A) (A) (A) (A) (A) (A) (A) (A) (A)
                 (A) (A) (A) (A) (A) (A) (A) (A) (A) (A) (A) (A)
                 (A) (A) (A) (A) (A) (A) (A) (A) (A) (A) (A) (A)
                 (A) (A) (A) (A) (A) (A) (A) (A) (A) (A) (A) (A)
                 (A) (A) (A) (A) (A) (A) (A) (A) (A) (A) (A) (A)
                 (A) (A) (A) (A) (A) (A) (A) (A) (A) (A) (A) (A)
                 (A) (A) (A) (A) (A) (A) (A) (A) (A) (A) (A) (A)
                 (A) (A) (A) (A) (A) (A) (A) (A) (A) (A) (A) (A)
                 (A) (A) (A) (A) (A) (A) (A) (A) (A) (A) (A) (A)
                 (A) (A) (A) (A) (A) (A) (A) (A) (A) (A) (A) (A)
                 (A) (A) (A) (A) (A) (A) (A) (A) (A) (A) (A) (A)
                 (A) (A) (A) (A) (A) (A) (A) (A) (A) (A) (A) (A)
                 (A) (A) (A) (A) (A) (A) (A) (A) (A) (A) (A) (A)
                 (A) (A) (A) (A) (A) (A) (A) (A) (A) (A) (A) (A)
                 (A) (A) (A) (A) (A) (A) (A) (A) (A) (A) (A) (A)
                 (A) (A) (A) (A) (A) (A) (A) (A) (A) (A) (A) (A)
                 (A) (A) (A) (A) (A) (A) (A) (A) (A) (A) (A) (A)
                 (A) (A) (A) (A) (A) (A) (A) (A) (A) (A) (A) (A)
                 (A) (A) (A) (A) (A) (A) (A) (A) (A) (A) (A) (A)
                 (A) (A) (A) (A) (A) (A) (A) (A) (A) (A) (A) (A)
                 (A) (A) (A) (A) (A) (A) (A) (A) (A) (A) (A) (A)
                 (A) (A) (A) (A) (A) (A) (A) (A) (A) (A) (A) (A)
                 (A) (A) (A) (A) (A) (A) (A) (A) (A) (A) (A) (A)
                 (A) (A) (A) (A) (A) (A) (A) (A) (A) (A) (A) (A)
                 (A) (A) (A) (A) (A) (A) (A) (A) (A) (A) (A) (A)
                 (A) (A) (A) (A) (A) (A) (A) (A) (A) (A) (A) (A)
                 (A) (A) (A) (A) (A) (A) (A) (A) (A) (A) (A) (A)
                 (A) (A) (A) (A) (A) (A) (A) (A) (A) (A) (A) (A)
 The electronic state is 1-A.
 Alpha  occ. eigenvalues --  -19.29457 -19.28940 -19.18224 -14.47867 -10.36898
 Alpha  occ. eigenvalues --  -10.36298 -10.35092 -10.34149 -10.33395 -10.33086
 Alpha  occ. eigenvalues --  -10.32897 -10.30694 -10.28194 -10.28114 -10.27463
 Alpha  occ. eigenvalues --  -10.26178  -1.19117  -1.18578  -1.07816  -1.06181
 Alpha  occ. eigenvalues --   -0.95237  -0.88728  -0.87001  -0.84431  -0.83525
 Alpha  occ. eigenvalues --   -0.81911  -0.78478  -0.72735  -0.70415  -0.68669
 Alpha  occ. eigenvalues --   -0.64706  -0.63109  -0.61599  -0.60111  -0.58005
 Alpha  occ. eigenvalues --   -0.57570  -0.57148  -0.56871  -0.54569  -0.53726
 Alpha  occ. eigenvalues --   -0.52453  -0.51371  -0.50797  -0.50412  -0.49222
 Alpha  occ. eigenvalues --   -0.48754  -0.48347  -0.47223  -0.46107  -0.44888
 Alpha  occ. eigenvalues --   -0.43912  -0.43325  -0.41544  -0.40303  -0.37580
 Alpha  occ. eigenvalues --   -0.31074  -0.30792  -0.27991  -0.27277
 Alpha virt. eigenvalues --    0.00496   0.03050   0.03970   0.04118   0.04853
 Alpha virt. eigenvalues --    0.05536   0.05668   0.06229   0.06686   0.07168
 Alpha virt. eigenvalues --    0.07386   0.07621   0.08140   0.08637   0.09201
 Alpha virt. eigenvalues --    0.09920   0.10354   0.11107   0.12273   0.12766
 Alpha virt. eigenvalues --    0.13083   0.13334   0.13728   0.14162   0.14570
 Alpha virt. eigenvalues --    0.14946   0.15098   0.15483   0.15894   0.16146
 Alpha virt. eigenvalues --    0.16662   0.16750   0.17485   0.17964   0.18200
 Alpha virt. eigenvalues --    0.18234   0.18570   0.18862   0.19217   0.19308
 Alpha virt. eigenvalues --    0.19769   0.20065   0.20310   0.20859   0.21157
 Alpha virt. eigenvalues --    0.21465   0.21779   0.22160   0.22719   0.22914
 Alpha virt. eigenvalues --    0.23367   0.23432   0.23635   0.24335   0.24959
 Alpha virt. eigenvalues --    0.25179   0.25891   0.26145   0.26936   0.27175
 Alpha virt. eigenvalues --    0.27243   0.27665   0.28527   0.28807   0.29025
 Alpha virt. eigenvalues --    0.30436   0.30671   0.30941   0.31310   0.31640
 Alpha virt. eigenvalues --    0.32128   0.32872   0.33213   0.33845   0.34063
 Alpha virt. eigenvalues --    0.34564   0.34998   0.35318   0.35462   0.36152
 Alpha virt. eigenvalues --    0.36343   0.36643   0.36971   0.37623   0.37983
 Alpha virt. eigenvalues --    0.38286   0.38630   0.39242   0.39589   0.40348
 Alpha virt. eigenvalues --    0.40564   0.40973   0.41383   0.42100   0.42617
 Alpha virt. eigenvalues --    0.43086   0.43518   0.44271   0.44655   0.45915
 Alpha virt. eigenvalues --    0.46738   0.47042   0.48237   0.48721   0.49106
 Alpha virt. eigenvalues --    0.51064   0.51449   0.51713   0.52685   0.53238
 Alpha virt. eigenvalues --    0.54353   0.55022   0.56488   0.56999   0.58158
 Alpha virt. eigenvalues --    0.59254   0.60724   0.62057   0.63045   0.64577
 Alpha virt. eigenvalues --    0.64990   0.65826   0.66757   0.66792   0.67765
 Alpha virt. eigenvalues --    0.68404   0.68962   0.69928   0.70752   0.71188
 Alpha virt. eigenvalues --    0.71356   0.72094   0.72705   0.73019   0.73499
 Alpha virt. eigenvalues --    0.73656   0.74985   0.75416   0.75511   0.76468
 Alpha virt. eigenvalues --    0.77673   0.77987   0.78647   0.79486   0.80161
 Alpha virt. eigenvalues --    0.81060   0.81412   0.82363   0.82982   0.83482
 Alpha virt. eigenvalues --    0.83954   0.84358   0.85247   0.86164   0.86940
 Alpha virt. eigenvalues --    0.87340   0.88735   0.89396   0.92346   0.94853
 Alpha virt. eigenvalues --    0.95443   0.96393   0.97207   0.98162   0.98723
 Alpha virt. eigenvalues --    0.99867   1.00965   1.02409   1.02487   1.03667
 Alpha virt. eigenvalues --    1.04598   1.06169   1.07419   1.08370   1.08914
 Alpha virt. eigenvalues --    1.10184   1.11676   1.12364   1.14480   1.14951
 Alpha virt. eigenvalues --    1.16689   1.18098   1.19727   1.20526   1.22690
 Alpha virt. eigenvalues --    1.24694   1.26494   1.27636   1.28389   1.30409
 Alpha virt. eigenvalues --    1.32983   1.33689   1.34601   1.36502   1.37128
 Alpha virt. eigenvalues --    1.38541   1.39331   1.42208   1.42908   1.44991
 Alpha virt. eigenvalues --    1.46046   1.47961   1.48688   1.51584   1.51937
 Alpha virt. eigenvalues --    1.53237   1.53574   1.53786   1.57030   1.57530
 Alpha virt. eigenvalues --    1.59291   1.60321   1.61355   1.62441   1.63312
 Alpha virt. eigenvalues --    1.63809   1.64205   1.64778   1.66391   1.67523
 Alpha virt. eigenvalues --    1.67743   1.68971   1.69930   1.72490   1.72730
 Alpha virt. eigenvalues --    1.73139   1.74952   1.75633   1.78124   1.78186
 Alpha virt. eigenvalues --    1.78474   1.78933   1.80093   1.80633   1.81602
 Alpha virt. eigenvalues --    1.82057   1.84033   1.84312   1.85905   1.86905
 Alpha virt. eigenvalues --    1.88003   1.89050   1.89651   1.91901   1.92907
 Alpha virt. eigenvalues --    1.94673   1.95828   1.98337   2.00316   2.01438
 Alpha virt. eigenvalues --    2.03187   2.03829   2.05936   2.06233   2.07315
 Alpha virt. eigenvalues --    2.08790   2.09187   2.12137   2.13261   2.14367
 Alpha virt. eigenvalues --    2.16577   2.17284   2.17886   2.19328   2.20040
 Alpha virt. eigenvalues --    2.21349   2.23109   2.23309   2.24932   2.27785
 Alpha virt. eigenvalues --    2.28602   2.29472   2.33277   2.34462   2.39970
 Alpha virt. eigenvalues --    2.41645   2.43435   2.47059   2.48751   2.50267
 Alpha virt. eigenvalues --    2.51909   2.52076   2.54977   2.55575   2.56841
 Alpha virt. eigenvalues --    2.57789   2.58504   2.60188   2.61473   2.62427
 Alpha virt. eigenvalues --    2.62987   2.64547   2.66670   2.67563   2.70634
 Alpha virt. eigenvalues --    2.71761   2.72305   2.74823   2.75494   2.77515
 Alpha virt. eigenvalues --    2.78605   2.80602   2.80894   2.81736   2.84601
 Alpha virt. eigenvalues --    2.84813   2.85889   2.88273   2.89106   2.89557
 Alpha virt. eigenvalues --    2.90938   2.92344   2.94125   2.95675   2.96244
 Alpha virt. eigenvalues --    2.98488   3.00088   3.02421   3.03295   3.06130
 Alpha virt. eigenvalues --    3.07464   3.09163   3.09590   3.12396   3.14478
 Alpha virt. eigenvalues --    3.14965   3.15915   3.19504   3.20715   3.24006
 Alpha virt. eigenvalues --    3.25592   3.27576   3.29396   3.31072   3.34584
 Alpha virt. eigenvalues --    3.35952   3.39949   3.40455   3.41017   3.50039
 Alpha virt. eigenvalues --    3.52045   3.54775   3.58150   3.60302   3.62374
 Alpha virt. eigenvalues --    3.67983   3.70221   3.73022   3.75608   3.79311
 Alpha virt. eigenvalues --    3.80819   3.84719   3.85744   3.86504   3.87032
 Alpha virt. eigenvalues --    3.92628   3.93071   3.95249   3.99302   4.10406
 Alpha virt. eigenvalues --    4.13600   4.15360   4.20179   4.23833   4.27590
 Alpha virt. eigenvalues --    4.32151   4.40432   4.54468   4.89789   5.00123
 Alpha virt. eigenvalues --    5.14270   5.17000   5.18180   5.24611   5.39005
 Alpha virt. eigenvalues --    5.46462   5.51222   5.76199   5.87587   5.91008
 Alpha virt. eigenvalues --   23.75548  23.90927  23.98975  24.04775  24.05407
 Alpha virt. eigenvalues --   24.06749  24.07672  24.13298  24.18656  24.23558
 Alpha virt. eigenvalues --   24.27985  24.29112  35.70071  50.03961  50.09647
 Alpha virt. eigenvalues --   50.16669
          Condensed to atoms (all electrons):
               1          2          3          4          5          6
     1  C    5.235943   0.388500   0.397734  -0.083688   0.016308   0.251563
     2  H    0.388500   0.513963  -0.034599   0.011080  -0.011556  -0.054166
     3  H    0.397734  -0.034599   0.560879  -0.010933   0.003357  -0.058956
     4  C   -0.083688   0.011080  -0.010933   5.191743   0.395994   0.272611
     5  H    0.016308  -0.011556   0.003357   0.395994   0.571587  -0.042514
     6  N    0.251563  -0.054166  -0.058956   0.272611  -0.042514   6.852496
     7  H    0.423530  -0.013576  -0.060157   0.011022   0.001314  -0.045072
     8  H   -0.003762   0.002516  -0.001302   0.402166  -0.035536  -0.088257
     9  H   -0.017259   0.004003   0.003692   0.416857  -0.062266  -0.052962
    10  C   -0.137034   0.030806  -0.054882  -0.037705  -0.090440   0.258945
    11  H    0.000454   0.000583  -0.003384  -0.020969   0.002679  -0.059895
    12  C    0.241667  -0.001486   0.059216  -0.160059   0.064600  -0.318324
    13  C   -0.158419  -0.011576   0.012541  -0.050236   0.002813  -0.011416
    14  H    0.021661   0.001692   0.008172  -0.012156   0.001705  -0.042513
    15  O   -0.003422  -0.000132   0.000025   0.006613  -0.000236   0.009929
    16  C   -0.093625  -0.001935  -0.007666   0.007532   0.000667   0.007535
    17  C    0.004717  -0.000285  -0.001943  -0.011790  -0.000027  -0.006155
    18  C   -0.040025  -0.003045   0.008319   0.000955  -0.000376   0.001604
    19  O   -0.000051  -0.000006   0.000007   0.000159   0.000005  -0.000063
    20  C   -0.000832   0.000029   0.000594   0.001895  -0.000210   0.001866
    21  C   -0.002018  -0.000673   0.001262  -0.002721   0.000294  -0.004003
    22  H    0.004012   0.000430  -0.007195   0.000102   0.000205   0.000481
    23  H    0.000153   0.000022  -0.000021  -0.000081   0.000006  -0.000072
    24  H   -0.000064  -0.000003   0.000003   0.000020  -0.000003   0.000025
    25  C   -0.001918  -0.000227   0.000453  -0.001330   0.000141  -0.001382
    26  H   -0.000555  -0.000034   0.000438   0.000171  -0.000021   0.000110
    27  O    0.000019   0.000001  -0.000003   0.000001   0.000000   0.000000
    28  C    0.000026  -0.000003  -0.000031   0.000001   0.000002  -0.000018
    29  H    0.000009   0.000000  -0.000014  -0.000002   0.000001  -0.000007
    30  H   -0.000001   0.000000   0.000000   0.000001   0.000000   0.000000
    31  H    0.000006   0.000001  -0.000001  -0.000002   0.000000   0.000002
               7          8          9         10         11         12
     1  C    0.423530  -0.003762  -0.017259  -0.137034   0.000454   0.241667
     2  H   -0.013576   0.002516   0.004003   0.030806   0.000583  -0.001486
     3  H   -0.060157  -0.001302   0.003692  -0.054882  -0.003384   0.059216
     4  C    0.011022   0.402166   0.416857  -0.037705  -0.020969  -0.160059
     5  H    0.001314  -0.035536  -0.062266  -0.090440   0.002679   0.064600
     6  N   -0.045072  -0.088257  -0.052962   0.258945  -0.059895  -0.318324
     7  H    0.543132  -0.002504  -0.002630   0.100026   0.003768  -0.092109
     8  H   -0.002504   0.531825  -0.017739   0.045284  -0.009701   0.010393
     9  H   -0.002630  -0.017739   0.560512   0.003920   0.000031   0.003013
    10  C    0.100026   0.045284   0.003920  10.698190   0.393028  -2.795182
    11  H    0.003768  -0.009701   0.000031   0.393028   0.473463  -0.161095
    12  C   -0.092109   0.010393   0.003013  -2.795182  -0.161095  13.165832
    13  C   -0.021819   0.014583  -0.001580  -1.440951   0.053961   0.153827
    14  H   -0.024306  -0.001321  -0.000115  -0.356526  -0.000697   0.645543
    15  O    0.000269  -0.001269   0.000264   0.078510   0.034230  -0.407707
    16  C   -0.010925   0.003570  -0.000941  -0.049226   0.059875  -3.997004
    17  C   -0.004055   0.000011   0.000104  -1.576589  -0.016060   0.532709
    18  C    0.003577   0.000530   0.000678   0.675647   0.008152  -0.765414
    19  O   -0.000053  -0.000012   0.000003   0.017449  -0.000499  -0.031217
    20  C    0.000827  -0.000595   0.000086   0.221666   0.008782  -0.121902
    21  C    0.000682   0.000245   0.000043  -0.103111  -0.001224   0.244334
    22  H    0.005074   0.000257  -0.000153   0.024934   0.000900  -0.061518
    23  H   -0.000073   0.000048  -0.000019   0.007954   0.000475   0.005197
    24  H    0.000020  -0.000004   0.000002  -0.001218   0.000030  -0.013012
    25  C    0.000152   0.000213  -0.000049  -0.069053  -0.003502   0.117534
    26  H   -0.000370  -0.000032   0.000015  -0.002876  -0.000056   0.006395
    27  O    0.000003  -0.000001   0.000000  -0.000196   0.000051   0.001802
    28  C    0.000031   0.000001   0.000000  -0.000354  -0.000059   0.002310
    29  H    0.000003   0.000001   0.000000  -0.000164  -0.000017  -0.000767
    30  H    0.000001   0.000000   0.000000   0.000118   0.000002   0.000334
    31  H    0.000002   0.000000   0.000000  -0.000045   0.000004  -0.000118
              13         14         15         16         17         18
     1  C   -0.158419   0.021661  -0.003422  -0.093625   0.004717  -0.040025
     2  H   -0.011576   0.001692  -0.000132  -0.001935  -0.000285  -0.003045
     3  H    0.012541   0.008172   0.000025  -0.007666  -0.001943   0.008319
     4  C   -0.050236  -0.012156   0.006613   0.007532  -0.011790   0.000955
     5  H    0.002813   0.001705  -0.000236   0.000667  -0.000027  -0.000376
     6  N   -0.011416  -0.042513   0.009929   0.007535  -0.006155   0.001604
     7  H   -0.021819  -0.024306   0.000269  -0.010925  -0.004055   0.003577
     8  H    0.014583  -0.001321  -0.001269   0.003570   0.000011   0.000530
     9  H   -0.001580  -0.000115   0.000264  -0.000941   0.000104   0.000678
    10  C   -1.440951  -0.356526   0.078510  -0.049226  -1.576589   0.675647
    11  H    0.053961  -0.000697   0.034230   0.059875  -0.016060   0.008152
    12  C    0.153827   0.645543  -0.407707  -3.997004   0.532709  -0.765414
    13  C   10.056641   0.073696   0.706894  -2.548969   0.759799  -0.707486
    14  H    0.073696   0.660565  -0.004495  -0.008878   0.137422  -0.137217
    15  O    0.706894  -0.004495   8.121441  -0.309046   0.211234  -0.082251
    16  C   -2.548969  -0.008878  -0.309046  18.759090  -4.366789   1.434461
    17  C    0.759799   0.137422   0.211234  -4.366789  15.576919  -3.319875
    18  C   -0.707486  -0.137217  -0.082251   1.434461  -3.319875   9.096811
    19  O    0.055911   0.002407  -0.003967   0.036364   0.453977  -0.060471
    20  C   -0.836761  -0.037384  -0.031328  -0.286790  -4.059672   2.664533
    21  C    0.329168  -0.040580   0.035693  -2.068126   2.057929  -0.586988
    22  H   -0.107619  -0.042988   0.001114  -0.217917  -0.049910   0.433914
    23  H   -0.051669   0.000323  -0.000953   0.060811  -0.075680   0.021404
    24  H   -0.054172  -0.001335  -0.000833  -0.020734  -0.127975   0.053235
    25  C    0.487608  -0.004678   0.005069  -1.387779   0.349867  -2.271649
    26  H    0.011704   0.007522  -0.000120   0.046651   0.012512   0.049294
    27  O    0.004703  -0.000275   0.000314  -0.032788   0.049372  -0.022251
    28  C    0.010217  -0.001725   0.000469  -0.126652   0.060780  -0.264992
    29  H    0.004059  -0.000041  -0.000001   0.005666   0.010115  -0.019631
    30  H   -0.001018  -0.000108   0.000040  -0.008264  -0.007367  -0.001785
    31  H   -0.002340  -0.000110  -0.000025  -0.001292  -0.005446  -0.004159
              19         20         21         22         23         24
     1  C   -0.000051  -0.000832  -0.002018   0.004012   0.000153  -0.000064
     2  H   -0.000006   0.000029  -0.000673   0.000430   0.000022  -0.000003
     3  H    0.000007   0.000594   0.001262  -0.007195  -0.000021   0.000003
     4  C    0.000159   0.001895  -0.002721   0.000102  -0.000081   0.000020
     5  H    0.000005  -0.000210   0.000294   0.000205   0.000006  -0.000003
     6  N   -0.000063   0.001866  -0.004003   0.000481  -0.000072   0.000025
     7  H   -0.000053   0.000827   0.000682   0.005074  -0.000073   0.000020
     8  H   -0.000012  -0.000595   0.000245   0.000257   0.000048  -0.000004
     9  H    0.000003   0.000086   0.000043  -0.000153  -0.000019   0.000002
    10  C    0.017449   0.221666  -0.103111   0.024934   0.007954  -0.001218
    11  H   -0.000499   0.008782  -0.001224   0.000900   0.000475   0.000030
    12  C   -0.031217  -0.121902   0.244334  -0.061518   0.005197  -0.013012
    13  C    0.055911  -0.836761   0.329168  -0.107619  -0.051669  -0.054172
    14  H    0.002407  -0.037384  -0.040580  -0.042988   0.000323  -0.001335
    15  O   -0.003967  -0.031328   0.035693   0.001114  -0.000953  -0.000833
    16  C    0.036364  -0.286790  -2.068126  -0.217917   0.060811  -0.020734
    17  C    0.453977  -4.059672   2.057929  -0.049910  -0.075680  -0.127975
    18  C   -0.060471   2.664533  -0.586988   0.433914   0.021404   0.053235
    19  O    7.843197  -0.521889  -0.006246  -0.009236   0.236053  -0.013600
    20  C   -0.521889  16.468561  -5.127849   0.104961   0.068823   0.694952
    21  C   -0.006246  -5.127849  11.013946   0.068871  -0.005458  -0.120066
    22  H   -0.009236   0.104961   0.068871   0.592263  -0.003047   0.004448
    23  H    0.236053   0.068823  -0.005458  -0.003047   0.423523  -0.000280
    24  H   -0.013600   0.694952  -0.120066   0.004448  -0.000280   0.454051
    25  C    0.049624  -2.395851  -0.053891   0.097403  -0.006414  -0.104101
    26  H    0.000306  -0.027148   0.464321  -0.029143  -0.000291  -0.001794
    27  O   -0.003744  -0.749329   0.305581  -0.000577   0.000171  -0.023231
    28  C   -0.000588  -0.051430  -0.173235   0.016132  -0.000565  -0.001624
    29  H    0.000213  -0.036351   0.034142   0.001191   0.000078  -0.001111
    30  H   -0.000290   0.036105  -0.017288   0.000976  -0.000091   0.001731
    31  H    0.000083  -0.016335   0.029934   0.001261   0.000033  -0.000313
              25         26         27         28         29         30
     1  C   -0.001918  -0.000555   0.000019   0.000026   0.000009  -0.000001
     2  H   -0.000227  -0.000034   0.000001  -0.000003   0.000000   0.000000
     3  H    0.000453   0.000438  -0.000003  -0.000031  -0.000014   0.000000
     4  C   -0.001330   0.000171   0.000001   0.000001  -0.000002   0.000001
     5  H    0.000141  -0.000021   0.000000   0.000002   0.000001   0.000000
     6  N   -0.001382   0.000110   0.000000  -0.000018  -0.000007   0.000000
     7  H    0.000152  -0.000370   0.000003   0.000031   0.000003   0.000001
     8  H    0.000213  -0.000032  -0.000001   0.000001   0.000001   0.000000
     9  H   -0.000049   0.000015   0.000000   0.000000   0.000000   0.000000
    10  C   -0.069053  -0.002876  -0.000196  -0.000354  -0.000164   0.000118
    11  H   -0.003502  -0.000056   0.000051  -0.000059  -0.000017   0.000002
    12  C    0.117534   0.006395   0.001802   0.002310  -0.000767   0.000334
    13  C    0.487608   0.011704   0.004703   0.010217   0.004059  -0.001018
    14  H   -0.004678   0.007522  -0.000275  -0.001725  -0.000041  -0.000108
    15  O    0.005069  -0.000120   0.000314   0.000469  -0.000001   0.000040
    16  C   -1.387779   0.046651  -0.032788  -0.126652   0.005666  -0.008264
    17  C    0.349867   0.012512   0.049372   0.060780   0.010115  -0.007367
    18  C   -2.271649   0.049294  -0.022251  -0.264992  -0.019631  -0.001785
    19  O    0.049624   0.000306  -0.003744  -0.000588   0.000213  -0.000290
    20  C   -2.395851  -0.027148  -0.749329  -0.051430  -0.036351   0.036105
    21  C   -0.053891   0.464321   0.305581  -0.173235   0.034142  -0.017288
    22  H    0.097403  -0.029143  -0.000577   0.016132   0.001191   0.000976
    23  H   -0.006414  -0.000291   0.000171  -0.000565   0.000078  -0.000091
    24  H   -0.104101  -0.001794  -0.023231  -0.001624  -0.001111   0.001731
    25  C   11.381408  -0.221917   0.372733   0.293154  -0.028039   0.037272
    26  H   -0.221917   0.536556  -0.024445  -0.023066  -0.014281   0.004924
    27  O    0.372733  -0.024445   8.161769   0.201888  -0.028491  -0.068456
    28  C    0.293154  -0.023066   0.201888   5.260963   0.411498   0.397470
    29  H   -0.028039  -0.014281  -0.028491   0.411498   0.572424  -0.022347
    30  H    0.037272   0.004924  -0.068456   0.397470  -0.022347   0.456654
    31  H   -0.020494  -0.010603  -0.032914   0.403551  -0.062991  -0.019904
              31
     1  C    0.000006
     2  H    0.000001
     3  H   -0.000001
     4  C   -0.000002
     5  H    0.000000
     6  N    0.000002
     7  H    0.000002
     8  H    0.000000
     9  H    0.000000
    10  C   -0.000045
    11  H    0.000004
    12  C   -0.000118
    13  C   -0.002340
    14  H   -0.000110
    15  O   -0.000025
    16  C   -0.001292
    17  C   -0.005446
    18  C   -0.004159
    19  O    0.000083
    20  C   -0.016335
    21  C    0.029934
    22  H    0.001261
    23  H    0.000033
    24  H   -0.000313
    25  C   -0.020494
    26  H   -0.010603
    27  O   -0.032914
    28  C    0.403551
    29  H   -0.062991
    30  H   -0.019904
    31  H    0.572622
 Mulliken charges:
               1
     1  C   -0.443627
     2  H    0.179674
     3  H    0.184395
     4  C   -0.327250
     5  H    0.181509
     6  N    0.128609
     7  H    0.184218
     8  H    0.150391
     9  H    0.162492
    10  C    0.159075
    11  H    0.236690
    12  C   -0.327792
    13  C   -0.732096
    14  H    0.156739
    15  O   -0.366323
    16  C    1.123126
    17  C   -0.587849
    18  C   -0.165499
    19  O   -0.043825
    20  C    0.027976
    21  C   -0.272969
    22  H    0.170375
    23  H    0.319640
    24  H    0.276957
    25  C   -0.620354
    26  H    0.215834
    27  O   -0.111707
    28  C   -0.414152
    29  H    0.174855
    30  H    0.211293
    31  H    0.169595
 Sum of Mulliken charges =   0.00000
 Mulliken charges with hydrogens summed into heavy atoms:
               1
     1  C    0.104661
     4  C    0.167141
     6  N    0.128609
    10  C    0.395765
    12  C   -0.171054
    13  C   -0.732096
    15  O   -0.366323
    16  C    1.123126
    17  C   -0.587849
    18  C    0.004876
    19  O    0.275815
    20  C    0.304933
    21  C   -0.057135
    25  C   -0.620354
    27  O   -0.111707
    28  C    0.141590
 Electronic spatial extent (au):  <R**2>=           5537.1054
 Charge=              0.0000 electrons
 Dipole moment (field-independent basis, Debye):
    X=             -3.2506    Y=             -5.1618    Z=              2.4262  Tot=              6.5649
 Quadrupole moment (field-independent basis, Debye-Ang):
   XX=            -64.8829   YY=            -94.0275   ZZ=            -96.1393
   XY=             -2.5868   XZ=             -1.3348   YZ=              4.0690
 Traceless Quadrupole moment (field-independent basis, Debye-Ang):
   XX=             20.1337   YY=             -9.0109   ZZ=            -11.1228
   XY=             -2.5868   XZ=             -1.3348   YZ=              4.0690
 Octapole moment (field-independent basis, Debye-Ang**2):
  XXX=            -99.8178  YYY=            -21.3270  ZZZ=              4.0444  XYY=             19.5382
  XXY=            -62.1736  XXZ=            -20.3314  XZZ=            -11.1004  YZZ=              1.9041
  YYZ=             10.9713  XYZ=              3.8160
 Hexadecapole moment (field-independent basis, Debye-Ang**3):
 XXXX=          -5001.2275 YYYY=          -1021.7080 ZZZZ=           -358.1510 XXXY=            -94.4539
 XXXZ=             26.3649 YYYX=            -49.0083 YYYZ=             30.5476 ZZZX=              3.7864
 ZZZY=             25.1222 XXYY=          -1050.7029 XXZZ=          -1020.4628 YYZZ=           -216.9183
 XXYZ=            -20.3304 YYXZ=            -29.1410 ZZXY=              5.0030
 N-N= 1.049500006853D+03 E-N=-3.841838533313D+03  KE= 7.435490012727D+02
 Calling FoFJK, ICntrl=  10005127 FMM=F ISym2X=0 I1Cent= 0 IOpClX= 0 NMat=1 NMatS=1 NMatT=0.
 ***** Axes restored to original set *****
 -------------------------------------------------------------------
 Center     Atomic                   Forces (Hartrees/Bohr)
 Number     Number              X              Y              Z
 -------------------------------------------------------------------
      1        6          -0.000702985    0.002104189    0.000806393
      2        1           0.000358342   -0.000118659    0.000386792
      3        1           0.000258817   -0.000150141   -0.000191143
      4        6           0.000828199    0.001969123    0.000164668
      5        1          -0.000227492   -0.000481882    0.000417966
      6        7           0.002909250   -0.003618917   -0.004626735
      7        1           0.000252696   -0.000059843   -0.000638360
      8        1          -0.000185097   -0.000412114    0.000157173
      9        1          -0.000194976   -0.000411690    0.000123019
     10        6          -0.010160679    0.005702164    0.012358976
     11        1           0.000773523   -0.000727693   -0.001471735
     12        6           0.019685876    0.001168420   -0.011298358
     13        6           0.015029219   -0.052946880   -0.034840077
     14        1          -0.002241373    0.000500345    0.001102438
     15        8          -0.005100285    0.031431927    0.043418137
     16        6          -0.010595717    0.005076989   -0.034356646
     17        6           0.000098676    0.039483916    0.009084046
     18        6          -0.029209179    0.018487134    0.018923814
     19        8           0.095480076   -0.061233705    0.039686614
     20        6          -0.023217217    0.035802399   -0.019898723
     21        6           0.028074364    0.011314972    0.005989655
     22        1           0.000459355   -0.000132366   -0.001736287
     23        1          -0.065961474   -0.005928778   -0.020703041
     24        1          -0.001617196    0.000391074    0.005702100
     25        6          -0.010612334   -0.030035336   -0.007657443
     26        1           0.000443592   -0.000644203    0.000104462
     27        8          -0.003438779    0.002614692   -0.001483900
     28        6          -0.000670894    0.000319383    0.000254621
     29        1          -0.000290030    0.000030332    0.000218100
     30        1           0.000022538    0.000239411    0.000108570
     31        1          -0.000248816    0.000265735   -0.000105099
 -------------------------------------------------------------------
 Cartesian Forces:  Max     0.095480076 RMS     0.019697692

 GradGradGradGradGradGradGradGradGradGradGradGradGradGradGradGradGradGrad
 Berny optimization.
 FormGI is forming the generalized inverse of G from B-inverse, IUseBI=4.
 Internal  Forces:  Max     0.069164363 RMS     0.011867422
 Search for a local minimum.
 Step number   1 out of a maximum of  150
 All quantities printed in internal units (Hartrees-Bohrs-Radians)
 Mixed Optimization -- RFO/linear search
 Second derivative matrix not updated -- first step.
 ITU=  0
     Eigenvalues ---    0.01040   0.01140   0.01406   0.01502   0.01556
     Eigenvalues ---    0.01700   0.01725   0.01750   0.02071   0.02094
     Eigenvalues ---    0.02105   0.02114   0.02134   0.02168   0.02186
     Eigenvalues ---    0.02329   0.02356   0.02400   0.02442   0.03003
     Eigenvalues ---    0.03156   0.03428   0.07366   0.07416   0.07553
     Eigenvalues ---    0.07669   0.10079   0.10700   0.15970   0.15982
     Eigenvalues ---    0.15982   0.15999   0.16000   0.16000   0.16000
     Eigenvalues ---    0.16000   0.16000   0.16000   0.16000   0.16000
     Eigenvalues ---    0.16000   0.16000   0.16000   0.18921   0.20999
     Eigenvalues ---    0.21843   0.22000   0.22004   0.22298   0.23433
     Eigenvalues ---    0.24326   0.24555   0.25000   0.25000   0.25000
     Eigenvalues ---    0.25000   0.32634   0.33747   0.33810   0.34104
     Eigenvalues ---    0.34116   0.34155   0.34286   0.34371   0.34825
     Eigenvalues ---    0.34851   0.34969   0.35571   0.35649   0.35722
     Eigenvalues ---    0.35782   0.35782   0.38342   0.39354   0.41075
     Eigenvalues ---    0.41622   0.41789   0.43349   0.43964   0.45631
     Eigenvalues ---    0.46188   0.47158   0.50347   0.54632   0.55067
     Eigenvalues ---    0.63795   0.70259
 RFO step:  Lambda=-5.55500761D-02 EMin= 1.04012367D-02
 Linear search not attempted -- first point.
 Maximum step size (   0.300) exceeded in Quadratic search.
    -- Step size scaled by   0.900
 Iteration  1 RMS(Cart)=  0.13827818 RMS(Int)=  0.00552819
 Iteration  2 RMS(Cart)=  0.01739057 RMS(Int)=  0.00113591
 Iteration  3 RMS(Cart)=  0.00017160 RMS(Int)=  0.00113197
 Iteration  4 RMS(Cart)=  0.00000027 RMS(Int)=  0.00113197
 Variable       Old X    -DE/DX   Delta X   Delta X   Delta X     New X
                                 (Linear)    (Quad)   (Total)
    R1        2.05960   0.00025   0.00000   0.00056   0.00056   2.06017
    R2        2.07760  -0.00027   0.00000  -0.00061  -0.00061   2.07699
    R3        2.72441   0.00140   0.00000   0.00281   0.00281   2.72722
    R4        2.06851  -0.00057   0.00000  -0.00128  -0.00128   2.06723
    R5        2.07651  -0.00061   0.00000  -0.00139  -0.00139   2.07512
    R6        2.73871  -0.00064   0.00000  -0.00131  -0.00131   2.73740
    R7        2.05917   0.00027   0.00000   0.00060   0.00060   2.05977
    R8        2.06709  -0.00009   0.00000  -0.00020  -0.00020   2.06689
    R9        2.55072   0.00268   0.00000   0.00398   0.00398   2.55471
   R10        2.04634   0.00135   0.00000   0.00294   0.00294   2.04929
   R11        2.59517  -0.01005   0.00000  -0.01618  -0.01618   2.57899
   R12        2.69407   0.01257   0.00000   0.02397   0.02397   2.71803
   R13        2.04424   0.00064   0.00000   0.00140   0.00140   2.04564
   R14        2.48058  -0.05136   0.00000  -0.06664  -0.06664   2.41394
   R15        2.70118   0.01297   0.00000   0.02502   0.02502   2.72620
   R16        2.81542   0.00167   0.00000   0.00079   0.00147   2.81689
   R17        2.63494   0.02163   0.00000   0.03640   0.03662   2.67155
   R18        2.43640   0.06897   0.00000   0.08185   0.08185   2.51825
   R19        2.62256   0.03080   0.00000   0.05108   0.05171   2.67427
   R20        2.65512  -0.01459   0.00000  -0.02497  -0.02553   2.62959
   R21        2.04519   0.00026   0.00000   0.00057   0.00057   2.04575
   R22        2.07069  -0.06916   0.00000  -0.15671  -0.15671   1.91398
   R23        2.04423   0.00100   0.00000   0.00217   0.00217   2.04640
   R24        2.64505  -0.01438   0.00000  -0.02413  -0.02434   2.62072
   R25        2.63860   0.01804   0.00000   0.03350   0.03270   2.67130
   R26        2.04757  -0.00070   0.00000  -0.00152  -0.00152   2.04605
   R27        2.55461   0.00529   0.00000   0.00791   0.00791   2.56252
   R28        2.66497   0.00112   0.00000   0.00204   0.00204   2.66701
   R29        2.07135  -0.00024   0.00000  -0.00055  -0.00055   2.07080
   R30        2.05725   0.00000   0.00000   0.00000   0.00000   2.05725
   R31        2.07156  -0.00010   0.00000  -0.00022  -0.00022   2.07134
    A1        1.89271  -0.00004   0.00000   0.00020   0.00020   1.89291
    A2        1.90530   0.00037   0.00000   0.00140   0.00140   1.90669
    A3        1.89578  -0.00027   0.00000  -0.00175  -0.00175   1.89402
    A4        1.95193   0.00004   0.00000   0.00050   0.00050   1.95243
    A5        1.88779   0.00033   0.00000   0.00161   0.00161   1.88940
    A6        1.92918  -0.00044   0.00000  -0.00200  -0.00200   1.92718
    A7        1.94944  -0.00014   0.00000  -0.00030  -0.00030   1.94915
    A8        1.88816   0.00033   0.00000   0.00135   0.00135   1.88951
    A9        1.88769   0.00043   0.00000   0.00239   0.00239   1.89007
   A10        1.91606  -0.00049   0.00000  -0.00239  -0.00239   1.91367
   A11        1.92844  -0.00012   0.00000  -0.00049  -0.00049   1.92795
   A12        1.89262   0.00003   0.00000  -0.00047  -0.00047   1.89215
   A13        2.05766  -0.00077   0.00000  -0.00247  -0.00247   2.05519
   A14        2.10319  -0.00056   0.00000  -0.00187  -0.00187   2.10132
   A15        2.09829   0.00128   0.00000   0.00367   0.00366   2.10195
   A16        2.03260  -0.00365   0.00000  -0.01303  -0.01303   2.01957
   A17        2.19150   0.00483   0.00000   0.01576   0.01576   2.20726
   A18        2.05907  -0.00119   0.00000  -0.00276  -0.00276   2.05631
   A19        2.09563   0.00089   0.00000   0.00300   0.00298   2.09860
   A20        2.09658   0.00195   0.00000   0.00869   0.00868   2.10526
   A21        2.08930  -0.00279   0.00000  -0.01110  -0.01112   2.07818
   A22        2.09069   0.01211   0.00000   0.03568   0.03567   2.12636
   A23        2.11139   0.01586   0.00000   0.04670   0.04669   2.15808
   A24        2.08110  -0.02797   0.00000  -0.08234  -0.08235   1.99874
   A25        2.03549  -0.01745   0.00000  -0.04649  -0.05030   1.98519
   A26        1.96670   0.02597   0.00000   0.11910   0.11963   2.08633
   A27        2.01962  -0.00256   0.00000  -0.00519  -0.00548   2.01415
   A28        2.02354  -0.00791   0.00000  -0.00110  -0.00765   2.01590
   A29        2.12982  -0.00883   0.00000  -0.01726  -0.02046   2.10935
   A30        1.90465   0.02557   0.00000   0.12472   0.12223   2.02689
   A31        2.11487   0.00589   0.00000   0.01208   0.01228   2.12715
   A32        2.10850  -0.00346   0.00000  -0.00891  -0.00911   2.09939
   A33        2.05830  -0.00262   0.00000  -0.00415  -0.00424   2.05405
   A34        1.82743   0.00853   0.00000   0.03560   0.03560   1.86303
   A35        2.08487  -0.00082   0.00000   0.00210   0.00139   2.08626
   A36        2.08353   0.00559   0.00000   0.01120   0.01214   2.09567
   A37        2.11390  -0.00495   0.00000  -0.01441  -0.01492   2.09897
   A38        2.12815  -0.00090   0.00000  -0.00449  -0.00546   2.12269
   A39        2.05783   0.00009   0.00000   0.00062   0.00089   2.05872
   A40        2.09711   0.00076   0.00000   0.00346   0.00375   2.10086
   A41        2.08901   0.00035   0.00000  -0.00010  -0.00057   2.08844
   A42        2.02676   0.00082   0.00000   0.00298   0.00319   2.02995
   A43        2.16741  -0.00118   0.00000  -0.00291  -0.00269   2.16471
   A44        2.06924   0.00290   0.00000   0.00855   0.00855   2.07779
   A45        1.94659   0.00021   0.00000   0.00093   0.00093   1.94752
   A46        1.84869   0.00017   0.00000   0.00059   0.00059   1.84928
   A47        1.94529   0.00046   0.00000   0.00200   0.00200   1.94729
   A48        1.90501  -0.00029   0.00000  -0.00134  -0.00134   1.90367
   A49        1.91078  -0.00020   0.00000  -0.00060  -0.00061   1.91018
   A50        1.90595  -0.00038   0.00000  -0.00168  -0.00168   1.90428
    D1       -0.35522  -0.00034   0.00000  -0.00403  -0.00403  -0.35925
    D2        3.01970  -0.00025   0.00000  -0.00130  -0.00130   3.01840
    D3        1.73931  -0.00012   0.00000  -0.00254  -0.00253   1.73678
    D4       -1.16895  -0.00003   0.00000   0.00020   0.00020  -1.16876
    D5       -2.43941   0.00003   0.00000  -0.00153  -0.00153  -2.44094
    D6        0.93551   0.00012   0.00000   0.00121   0.00120   0.93671
    D7       -1.15149   0.00007   0.00000   0.00118   0.00119  -1.15030
    D8        1.75746  -0.00027   0.00000  -0.00231  -0.00231   1.75514
    D9        3.03729   0.00008   0.00000   0.00128   0.00128   3.03857
   D10       -0.33695  -0.00026   0.00000  -0.00222  -0.00222  -0.33917
   D11        0.95066   0.00043   0.00000   0.00368   0.00368   0.95434
   D12       -2.42357   0.00009   0.00000   0.00018   0.00018  -2.42340
   D13       -3.14130  -0.00049   0.00000  -0.00524  -0.00525   3.13664
   D14       -0.00484  -0.00095   0.00000  -0.01052  -0.01052  -0.01536
   D15        0.23905  -0.00011   0.00000  -0.00160  -0.00160   0.23745
   D16       -2.90768  -0.00058   0.00000  -0.00688  -0.00687  -2.91455
   D17       -3.06874  -0.00038   0.00000  -0.00476  -0.00479  -3.07353
   D18        0.01044   0.00046   0.00000   0.00574   0.00577   0.01622
   D19        0.06764  -0.00085   0.00000  -0.01014  -0.01018   0.05746
   D20       -3.13636  -0.00001   0.00000   0.00036   0.00038  -3.13598
   D21        0.06285   0.00016   0.00000   0.00108   0.00091   0.06375
   D22       -3.08427   0.00083   0.00000   0.00990   0.01001  -3.07426
[...]
 Alpha virt. eigenvalues --    2.15141   2.16213   2.17618   2.20296   2.20995
 Alpha virt. eigenvalues --    2.21363   2.21784   2.22785   2.25920   2.27153
 Alpha virt. eigenvalues --    2.28669   2.29844   2.31627   2.37230   2.38580
 Alpha virt. eigenvalues --    2.40810   2.42740   2.45248   2.49522   2.50842
 Alpha virt. eigenvalues --    2.51955   2.53461   2.54262   2.55921   2.58172
 Alpha virt. eigenvalues --    2.58469   2.59047   2.59524   2.61662   2.62089
 Alpha virt. eigenvalues --    2.63974   2.65768   2.66483   2.69667   2.70596
 Alpha virt. eigenvalues --    2.72463   2.72841   2.74536   2.76116   2.78682
 Alpha virt. eigenvalues --    2.79256   2.80374   2.81946   2.82892   2.83633
 Alpha virt. eigenvalues --    2.85299   2.85811   2.87886   2.88487   2.91354
 Alpha virt. eigenvalues --    2.91779   2.92594   2.93337   2.95479   2.96915
 Alpha virt. eigenvalues --    2.99690   3.00018   3.01603   3.02909   3.03791
 Alpha virt. eigenvalues --    3.05212   3.09403   3.09605   3.12259   3.14126
 Alpha virt. eigenvalues --    3.15780   3.20620   3.21264   3.22904   3.23405
 Alpha virt. eigenvalues --    3.24106   3.25819   3.30998   3.32777   3.33429
 Alpha virt. eigenvalues --    3.35818   3.36077   3.41097   3.43276   3.51302
 Alpha virt. eigenvalues --    3.52281   3.55475   3.59270   3.61186   3.62340
 Alpha virt. eigenvalues --    3.66704   3.67633   3.68919   3.75756   3.78310
 Alpha virt. eigenvalues --    3.81205   3.83343   3.86537   3.87741   3.90213
 Alpha virt. eigenvalues --    3.90776   3.92950   3.95209   4.03522   4.09990
 Alpha virt. eigenvalues --    4.16881   4.17580   4.21348   4.27346   4.30265
 Alpha virt. eigenvalues --    4.32832   4.37929   4.56065   4.95024   4.97459
 Alpha virt. eigenvalues --    5.11335   5.15438   5.16162   5.25610   5.39717
 Alpha virt. eigenvalues --    5.51831   5.59623   5.84637   5.89217   5.95982
 Alpha virt. eigenvalues --   23.73783  23.89704  24.03081  24.05718  24.06070
 Alpha virt. eigenvalues --   24.06104  24.07898  24.09810  24.16766  24.25682
 Alpha virt. eigenvalues --   24.27082  24.32410  35.66015  50.10521  50.12480
 Alpha virt. eigenvalues --   50.14543
          Condensed to atoms (all electrons):
               1          2          3          4          5          6
     1  C    5.369929   0.377865   0.421222  -0.144898   0.008136   0.276121
     2  H    0.377865   0.507581  -0.033273   0.010201  -0.008975  -0.046193
     3  H    0.421222  -0.033273   0.536046  -0.018593   0.012158  -0.056244
     4  C   -0.144898   0.010201  -0.018593   5.265938   0.403174   0.274351
     5  H    0.008136  -0.008975   0.012158   0.403174   0.559476  -0.031316
     6  N    0.276121  -0.046193  -0.056244   0.274351  -0.031316   6.746768
     7  H    0.394294  -0.015526  -0.047013   0.013444  -0.000619  -0.033492
     8  H    0.007967   0.003637  -0.001604   0.394322  -0.038621  -0.069582
     9  H   -0.021919   0.008914  -0.000052   0.412408  -0.056963  -0.055748
    10  C   -0.301151   0.009662  -0.005144  -0.090493  -0.087759   0.175213
    11  H    0.005004  -0.001284  -0.003504  -0.012408   0.004518  -0.067867
    12  C    0.640230   0.027267   0.044831  -0.135726   0.059426  -0.174975
    13  C   -0.408468  -0.017077  -0.025928  -0.029770  -0.003285  -0.039299
    14  H    0.035454   0.002000  -0.002488  -0.008644   0.001896  -0.039300
    15  O   -0.002343  -0.000034   0.000356   0.002039  -0.000211   0.002902
    16  C   -0.178559  -0.004250  -0.013539   0.009535  -0.002407  -0.006211
    17  C    0.014118   0.001374  -0.001756  -0.008478   0.000549  -0.008310
    18  C   -0.057265  -0.003798   0.005850   0.009915  -0.000873   0.001832
    19  O   -0.000536  -0.000006  -0.000071  -0.000176  -0.000013   0.000043
    20  C   -0.003676  -0.000336  -0.000568  -0.000987   0.000146  -0.003835
    21  C    0.022699   0.001872   0.004370   0.003546  -0.000672   0.011836
    22  H   -0.002526   0.000201  -0.003508   0.000386  -0.000331   0.001513
    23  H   -0.000828  -0.000041   0.000036   0.000125  -0.000040   0.000365
    24  H   -0.000050  -0.000002  -0.000010  -0.000001   0.000001   0.000001
    25  C   -0.001258  -0.000011   0.000475   0.000282  -0.000123   0.001052
    26  H   -0.000267  -0.000011   0.000204   0.000040   0.000018  -0.000232
    27  O    0.000003   0.000000  -0.000001   0.000000   0.000000  -0.000001
    28  C    0.000003   0.000005  -0.000004   0.000009  -0.000003   0.000033
    29  H   -0.000002   0.000000   0.000002   0.000000   0.000000   0.000000
    30  H    0.000003   0.000000   0.000001   0.000000   0.000000   0.000001
    31  H    0.000002  -0.000001  -0.000007  -0.000001   0.000000   0.000000
               7          8          9         10         11         12
     1  C    0.394294   0.007967  -0.021919  -0.301151   0.005004   0.640230
     2  H   -0.015526   0.003637   0.008914   0.009662  -0.001284   0.027267
     3  H   -0.047013  -0.001604  -0.000052  -0.005144  -0.003504   0.044831
     4  C    0.013444   0.394322   0.412408  -0.090493  -0.012408  -0.135726
     5  H   -0.000619  -0.038621  -0.056963  -0.087759   0.004518   0.059426
     6  N   -0.033492  -0.069582  -0.055748   0.175213  -0.067867  -0.174975
     7  H    0.521491  -0.002429  -0.000900   0.041405   0.001620  -0.105996
     8  H   -0.002429   0.521457  -0.012477   0.052769  -0.003712  -0.012726
     9  H   -0.000900  -0.012477   0.550814   0.029147  -0.001851  -0.016298
    10  C    0.041405   0.052769   0.029147   9.084094   0.407696  -4.204719
    11  H    0.001620  -0.003712  -0.001851   0.407696   0.462588  -0.118431
    12  C   -0.105996  -0.012726  -0.016298  -4.204719  -0.118431  24.489923
    13  C    0.032628   0.002821   0.004335  -0.182379   0.043912  -5.186450
    14  H   -0.008043  -0.001411  -0.001528  -0.241146   0.005176   0.933009
    15  O    0.000321   0.000203   0.000109   0.107805   0.022269  -0.089986
    16  C    0.019233  -0.000327   0.000813   1.461821   0.054612  -9.597614
    17  C   -0.003198  -0.002024  -0.000882  -0.362681  -0.001526   1.645750
    18  C    0.005427   0.003295   0.001536   0.273703  -0.017188  -2.710072
    19  O    0.000440   0.000018   0.000004  -0.001463   0.000618  -0.168872
    20  C   -0.000795  -0.000520  -0.000010  -0.209038   0.005379  -0.018982
    21  C    0.000291   0.001225   0.000025   0.212268  -0.018576   1.080948
    22  H    0.002927   0.000208   0.000051  -0.016479  -0.000998  -0.101574
    23  H    0.000270   0.000098   0.000032  -0.006798  -0.001255  -0.038556
    24  H    0.000032   0.000000   0.000000  -0.000283   0.000003  -0.008700
    25  C    0.001028   0.000019   0.000023   0.014208  -0.001091  -0.022451
    26  H   -0.000209  -0.000001   0.000000   0.004561   0.000095  -0.011434
    27  O    0.000008   0.000000   0.000000   0.000537   0.000017  -0.000626
    28  C    0.000093   0.000002   0.000000   0.002445  -0.000046  -0.006343
    29  H   -0.000001   0.000000   0.000000   0.000173   0.000009   0.000517
    30  H    0.000003   0.000000   0.000000   0.000048  -0.000005   0.000369
    31  H    0.000003   0.000000   0.000000  -0.000314   0.000001  -0.000100
              13         14         15         16         17         18
     1  C   -0.408468   0.035454  -0.002343  -0.178559   0.014118  -0.057265
     2  H   -0.017077   0.002000  -0.000034  -0.004250   0.001374  -0.003798
     3  H   -0.025928  -0.002488   0.000356  -0.013539  -0.001756   0.005850
     4  C   -0.029770  -0.008644   0.002039   0.009535  -0.008478   0.009915
     5  H   -0.003285   0.001896  -0.000211  -0.002407   0.000549  -0.000873
     6  N   -0.039299  -0.039300   0.002902  -0.006211  -0.008310   0.001832
     7  H    0.032628  -0.008043   0.000321   0.019233  -0.003198   0.005427
     8  H    0.002821  -0.001411   0.000203  -0.000327  -0.002024   0.003295
     9  H    0.004335  -0.001528   0.000109   0.000813  -0.000882   0.001536
    10  C   -0.182379  -0.241146   0.107805   1.461821  -0.362681   0.273703
    11  H    0.043912   0.005176   0.022269   0.054612  -0.001526  -0.017188
    12  C   -5.186450   0.933009  -0.089986  -9.597614   1.645750  -2.710072
    13  C   12.927706  -0.108710   0.739082   0.916040   0.104365  -1.350628
    14  H   -0.108710   0.558723  -0.001055  -0.160719   0.059850  -0.117014
    15  O    0.739082  -0.001055   8.201342  -0.549791   0.040442  -0.094775
    16  C    0.916040  -0.160719  -0.549791  20.366953  -2.216686  -0.824061
    17  C    0.104365   0.059850   0.040442  -2.216686  15.020802  -8.327924
    18  C   -1.350628  -0.117014  -0.094775  -0.824061  -8.327924  23.866397
    19  O   -0.013874  -0.001882  -0.046015   0.375227   0.295564   0.056443
    20  C   -0.786224   0.032906   0.035956  -3.851164  -3.014892   5.123718
    21  C   -0.155878  -0.079693  -0.028871  -0.190473   2.919623  -7.036204
    22  H   -0.003898  -0.016308  -0.008077  -0.142324  -0.076809   0.623633
    23  H   -0.061077  -0.003377   0.035590  -0.089809   0.000950   0.104038
    24  H   -0.039784  -0.000314  -0.000894  -0.082278  -0.148358   0.107546
    25  C    0.068418  -0.022291  -0.002050  -0.673552   0.460020  -2.895116
    26  H    0.004456   0.000423  -0.000043   0.052432   0.007733  -0.006937
    27  O   -0.000267  -0.000279  -0.000059   0.043665  -0.015583  -0.006589
    28  C   -0.028625  -0.002467  -0.000532  -0.099321   0.091297  -0.262232
    29  H    0.001509   0.000072   0.000053   0.014963  -0.008876   0.022396
    30  H   -0.001415  -0.000117  -0.000006  -0.008016   0.010108  -0.024860
    31  H    0.002489   0.000079   0.000001   0.006725  -0.004860  -0.016850
              19         20         21         22         23         24
     1  C   -0.000536  -0.003676   0.022699  -0.002526  -0.000828  -0.000050
     2  H   -0.000006  -0.000336   0.001872   0.000201  -0.000041  -0.000002
     3  H   -0.000071  -0.000568   0.004370  -0.003508   0.000036  -0.000010
     4  C   -0.000176  -0.000987   0.003546   0.000386   0.000125  -0.000001
     5  H   -0.000013   0.000146  -0.000672  -0.000331  -0.000040   0.000001
     6  N    0.000043  -0.003835   0.011836   0.001513   0.000365   0.000001
     7  H    0.000440  -0.000795   0.000291   0.002927   0.000270   0.000032
     8  H    0.000018  -0.000520   0.001225   0.000208   0.000098   0.000000
     9  H    0.000004  -0.000010   0.000025   0.000051   0.000032   0.000000
    10  C   -0.001463  -0.209038   0.212268  -0.016479  -0.006798  -0.000283
    11  H    0.000618   0.005379  -0.018576  -0.000998  -0.001255   0.000003
    12  C   -0.168872  -0.018982   1.080948  -0.101574  -0.038556  -0.008700
    13  C   -0.013874  -0.786224  -0.155878  -0.003898  -0.061077  -0.039784
    14  H   -0.001882   0.032906  -0.079693  -0.016308  -0.003377  -0.000314
    15  O   -0.046015   0.035956  -0.028871  -0.008077   0.035590  -0.000894
    16  C    0.375227  -3.851164  -0.190473  -0.142324  -0.089809  -0.082278
    17  C    0.295564  -3.014892   2.919623  -0.076809   0.000950  -0.148358
    18  C    0.056443   5.123718  -7.036204   0.623633   0.104038   0.107546
    19  O    8.005120  -0.533999   0.001112  -0.000361   0.254810  -0.027045
    20  C   -0.533999  17.202686  -6.707998   0.114691   0.131809   0.756552
    21  C    0.001112  -6.707998  15.291226  -0.162485  -0.013667  -0.140835
    22  H   -0.000361   0.114691  -0.162485   0.533822   0.002043   0.003367
    23  H    0.254810   0.131809  -0.013667   0.002043   0.394633   0.003405
    24  H   -0.027045   0.756552  -0.140835   0.003367   0.003405   0.465545
    25  C    0.019098  -1.126995   0.359284   0.058857  -0.025134  -0.119502
    26  H    0.000523  -0.066259   0.506907  -0.018038   0.000351  -0.002210
    27  O   -0.001582  -0.682714   0.291845  -0.002920  -0.000260  -0.021452
    28  C    0.000163   0.087024  -0.203318   0.008088   0.000294   0.003981
    29  H    0.000016  -0.010776   0.017448  -0.000033  -0.000035  -0.000673
    30  H    0.000025   0.013856  -0.009522   0.000550   0.000041   0.000422
    31  H   -0.000072  -0.022716   0.037456   0.000363  -0.000109  -0.000238
              25         26         27         28         29         30
     1  C   -0.001258  -0.000267   0.000003   0.000003  -0.000002   0.000003
     2  H   -0.000011  -0.000011   0.000000   0.000005   0.000000   0.000000
     3  H    0.000475   0.000204  -0.000001  -0.000004   0.000002   0.000001
     4  C    0.000282   0.000040   0.000000   0.000009   0.000000   0.000000
     5  H   -0.000123   0.000018   0.000000  -0.000003   0.000000   0.000000
     6  N    0.001052  -0.000232  -0.000001   0.000033   0.000000   0.000001
     7  H    0.001028  -0.000209   0.000008   0.000093  -0.000001   0.000003
     8  H    0.000019  -0.000001   0.000000   0.000002   0.000000   0.000000
     9  H    0.000023   0.000000   0.000000   0.000000   0.000000   0.000000
    10  C    0.014208   0.004561   0.000537   0.002445   0.000173   0.000048
    11  H   -0.001091   0.000095   0.000017  -0.000046   0.000009  -0.000005
    12  C   -0.022451  -0.011434  -0.000626  -0.006343   0.000517   0.000369
    13  C    0.068418   0.004456  -0.000267  -0.028625   0.001509  -0.001415
    14  H   -0.022291   0.000423  -0.000279  -0.002467   0.000072  -0.000117
    15  O   -0.002050  -0.000043  -0.000059  -0.000532   0.000053  -0.000006
    16  C   -0.673552   0.052432   0.043665  -0.099321   0.014963  -0.008016
    17  C    0.460020   0.007733  -0.015583   0.091297  -0.008876   0.010108
    18  C   -2.895116  -0.006937  -0.006589  -0.262232   0.022396  -0.024860
    19  O    0.019098   0.000523  -0.001582   0.000163   0.000016   0.000025
    20  C   -1.126995  -0.066259  -0.682714   0.087024  -0.010776   0.013856
    21  C    0.359284   0.506907   0.291845  -0.203318   0.017448  -0.009522
    22  H    0.058857  -0.018038  -0.002920   0.008088  -0.000033   0.000550
    23  H   -0.025134   0.000351  -0.000260   0.000294  -0.000035   0.000041
    24  H   -0.119502  -0.002210  -0.021452   0.003981  -0.000673   0.000422
    25  C   10.121967  -0.144544   0.283611   0.132698  -0.054017   0.059526
    26  H   -0.144544   0.513629  -0.014606  -0.014055  -0.009015   0.001866
    27  O    0.283611  -0.014606   8.181469   0.203017  -0.029344  -0.067858
    28  C    0.132698  -0.014055   0.203017   5.250944   0.403757   0.394836
    29  H   -0.054017  -0.009015  -0.029344   0.403757   0.573102  -0.020570
    30  H    0.059526   0.001866  -0.067858   0.394836  -0.020570   0.462252
    31  H   -0.020693  -0.008924  -0.037531   0.400607  -0.065551  -0.021638
              31
     1  C    0.000002
     2  H   -0.000001
     3  H   -0.000007
     4  C   -0.000001
     5  H    0.000000
     6  N    0.000000
     7  H    0.000003
     8  H    0.000000
     9  H    0.000000
    10  C   -0.000314
    11  H    0.000001
    12  C   -0.000100
    13  C    0.002489
    14  H    0.000079
    15  O    0.000001
    16  C    0.006725
    17  C   -0.004860
    18  C   -0.016850
    19  O   -0.000072
    20  C   -0.022716
    21  C    0.037456
    22  H    0.000363
    23  H   -0.000109
    24  H   -0.000238
    25  C   -0.020693
    26  H   -0.008924
    27  O   -0.037531
    28  C    0.400607
    29  H   -0.065551
    30  H   -0.021638
    31  H    0.587517
 Mulliken charges:
               1
     1  C   -0.449306
     2  H    0.180238
     3  H    0.187754
     4  C   -0.349543
     5  H    0.182714
     6  N    0.140574
     7  H    0.183263
     8  H    0.157394
     9  H    0.160416
    10  C   -0.167709
    11  H    0.236226
    12  C   -0.191638
    13  C   -0.404726
    14  H    0.187194
    15  O   -0.363729
    16  C    1.369081
    17  C   -0.469703
    18  C   -0.453346
    19  O   -0.213259
    20  C   -0.462240
    21  C   -0.015786
    22  H    0.205971
    23  H    0.312097
    24  H    0.251771
    25  C   -0.471738
    26  H    0.203544
    27  O   -0.122502
    28  C   -0.362352
    29  H    0.164877
    30  H    0.210098
    31  H    0.164362
 Sum of Mulliken charges =   0.00000
 Mulliken charges with hydrogens summed into heavy atoms:
               1
     1  C    0.101950
     4  C    0.150981
     6  N    0.140574
    10  C    0.068517
    12  C   -0.004444
    13  C   -0.404726
    15  O   -0.363729
    16  C    1.369081
    17  C   -0.469703
    18  C   -0.247376
    19  O    0.098838
    20  C   -0.210469
    21  C    0.187759
    25  C   -0.471738
    27  O   -0.122502
    28  C    0.176986
 Electronic spatial extent (au):  <R**2>=           5672.2537
 Charge=              0.0000 electrons
 Dipole moment (field-independent basis, Debye):
    X=             -5.0346    Y=             -6.0615    Z=              0.2914  Tot=              7.8851
 Quadrupole moment (field-independent basis, Debye-Ang):
   XX=            -60.4302   YY=            -95.8818   ZZ=            -99.1716
   XY=             -2.2375   XZ=             -2.8769   YZ=              1.5299
 Traceless Quadrupole moment (field-independent basis, Debye-Ang):
   XX=             24.7310   YY=            -10.7206   ZZ=            -14.0104
   XY=             -2.2375   XZ=             -2.8769   YZ=              1.5299
 Octapole moment (field-independent basis, Debye-Ang**2):
  XXX=           -114.3421  YYY=            -21.0080  ZZZ=              4.2331  XYY=              4.3742
  XXY=            -63.1844  XXZ=            -13.5650  XZZ=             -5.4944  YZZ=             -6.9830
  YYZ=              3.9522  XYZ=              7.6445
 Hexadecapole moment (field-independent basis, Debye-Ang**3):
 XXXX=          -5018.0163 YYYY=          -1061.0909 ZZZZ=           -286.5628 XXXY=           -102.0452
 XXXZ=              3.8078 YYYX=            -33.5706 YYYZ=              1.9991 ZZZX=              1.7220
 ZZZY=             -2.2264 XXYY=          -1077.8024 XXZZ=          -1077.8777 YYZZ=           -229.4799
 XXYZ=            -21.3206 YYXZ=            -22.9567 ZZXY=             10.5910
 N-N= 1.045228027083D+03 E-N=-3.833180822488D+03  KE= 7.435833382469D+02
 1\1\GINC-SM3\FOpt\RwB97XD TD-FC\6-311++G(d,p)\C12H15N1O3\CA12053\06-De
 c-2016\0\\# wb97xd 6-311++g** opt td=(nstates=1,root=1)\\title\\0,1\C,
 3.4169029714,1.775250403,-0.7541793488\H,4.4789543334,1.9941717556,-0.
 6325484614\H,2.9203555487,2.6700745434,-1.1638290084\C,4.158640216,0.5
 614450105,-2.7452924508\H,3.948877628,1.3477178388,-3.4870995641\N,3.2
 622299393,0.6220208877,-1.6085695167\H,2.9975349901,1.5701160556,0.233
 4513044\H,4.0615779176,-0.4080819467,-3.2373415539\H,5.1917198691,0.66
 90235604,-2.4066747791\C,2.0023390687,0.0932118292,-1.7790041168\H,1.9
 470414356,-0.711719941,-2.5026756986\C,0.873635828,0.4484603607,-1.075
 5752549\C,-0.3350680981,-0.2374645666,-1.1949794399\H,0.8741223617,1.2
 759255968,-0.3756833362\O,-0.5381129011,-1.2802014519,-1.9619655692\C,
 -1.6277302189,0.1678492558,-0.6134102157\C,-2.4389564662,-0.794217228,
 0.0506365051\C,-2.0824727689,1.4916972171,-0.678625856\O,-2.1133535013
 ,-2.0931222344,0.0972450604\C,-3.5751639944,-0.3882930149,0.7306911417
 \C,-3.2087937987,1.9027730546,0.0094077742\H,-1.5043573016,2.210155974
 ,-1.2475471431\H,-1.4251168807,-2.2648310235,-0.5643910057\H,-4.175394
 1004,-1.1164346877,1.2602805307\C,-3.9579455144,0.9502294476,0.7197103
 999\H,-3.4994860124,2.9438255732,-0.0166225385\O,-5.0794679576,1.23882
 38137,1.4097725054\C,-5.556550644,2.569596245,1.4134854252\H,-5.795880
 6992,2.9094760773,0.4005498594\H,-6.4646637866,2.5579711197,2.01311110
 3\H,-4.830741855,3.2521370537,1.8682603022\\Version=ES64L-G09RevD.01\S
 tate=1-A\HF=-746.647031\RMSD=6.593e-09\RMSF=2.417e-05\Dipole=0.3751312
 ,1.8205878,0.1589936\PG=C01 [X(C12H15N1O3)]\\@


 ACHIEVEMENT--  THE MAN WHO ROWS THE BOAT GENERALLY 
                DOESN'T HAVE TIME TO ROCK IT.

                   -- FROM THE BACK OF A SUGAR PACKET
 Job cpu time:       4 days 18 hours  0 minutes 41.1 seconds.
 File lengths (MBytes):  RWF=    206 Int=      0 D2E=      0 Chk=     29 Scr=      1
 Normal termination of Gaussian 09 at Tue Dec  6 20:34:48 2016.
