 Entering Gaussian System, Link 0=g09
 Input=4_optS1_rotated.com
 Output=4_optS1_rotated.out
 Initial command:
 /share/apps/gaussian/g09_D01/g09/l1.exe "/tmp/3873445.1.smserial.q/Gau-1628.inp" -scrdir="/tmp/3873445.1.smserial.q/"
 Entering Link 1 = /share/apps/gaussian/g09_D01/g09/l1.exe PID=      1629.
  
 Copyright (c) 1988,1990,1992,1993,1995,1998,2003,2009,2013,
            Gaussian, Inc.  All Rights Reserved.
  
 This is part of the Gaussian(R) 09 program.  It is based on
 the Gaussian(R) 03 system (copyright 2003, Gaussian, Inc.),
 the Gaussian(R) 98 system (copyright 1998, Gaussian, Inc.),
 the Gaussian(R) 94 system (copyright 1995, Gaussian, Inc.),
 the Gaussian 92(TM) system (copyright 1992, Gaussian, Inc.),
 the Gaussian 90(TM) system (copyright 1990, Gaussian, Inc.),
 the Gaussian 88(TM) system (copyright 1988, Gaussian, Inc.),
 the Gaussian 86(TM) system (copyright 1986, Carnegie Mellon
 University), and the Gaussian 82(TM) system (copyright 1983,
 Carnegie Mellon University). Gaussian is a federally registered
 trademark of Gaussian, Inc.
  
 This software contains proprietary and confidential information,
 including trade secrets, belonging to Gaussian, Inc.
  
 This software is provided under written license and may be
 used, copied, transmitted, or stored only in accord with that
 written license.
  
 The following legend is applicable only to US Government
 contracts under FAR:
  
                    RESTRICTED RIGHTS LEGEND
  
 Use, reproduction and disclosure by the US Government is
 subject to restrictions as set forth in subparagraphs (a)
 and (c) of the Commercial Computer Software - Restricted
 Rights clause in FAR 52.227-19.
  
 Gaussian, Inc.
 340 Quinnipiac St., Bldg. 40, Wallingford CT 06492
  
  
 ---------------------------------------------------------------
 Warning -- This program may not be used in any manner that
 competes with the business of Gaussian, Inc. or will provide
 assistance to any competitor of Gaussian, Inc.  The licensee
 of this program is prohibited from giving any competitor of
 Gaussian, Inc. access to this program.  By using this program,
 the user acknowledges that Gaussian, Inc. is engaged in the
 business of creating and licensing software in the field of
 computational chemistry and represents and warrants to the
 licensee that it is not a competitor of Gaussian, Inc. and that
 it will not use this program in any manner prohibited above.
 ---------------------------------------------------------------
  

 Cite this work as:
 Gaussian 09, Revision D.01,
 M. J. Frisch, G. W. Trucks, H. B. Schlegel, G. E. Scuseria, 
 M. A. Robb, J. R. Cheeseman, G. Scalmani, V. Barone, B. Mennucci, 
 G. A. Petersson, H. Nakatsuji, M. Caricato, X. Li, H. P. Hratchian, 
 A. F. Izmaylov, J. Bloino, G. Zheng, J. L. Sonnenberg, M. Hada, 
 M. Ehara, K. Toyota, R. Fukuda, J. Hasegawa, M. Ishida, T. Nakajima, 
 Y. Honda, O. Kitao, H. Nakai, T. Vreven, J. A. Montgomery, Jr., 
 J. E. Peralta, F. Ogliaro, M. Bearpark, J. J. Heyd, E. Brothers, 
 K. N. Kudin, V. N. Staroverov, T. Keith, R. Kobayashi, J. Normand, 
 K. Raghavachari, A. Rendell, J. C. Burant, S. S. Iyengar, J. Tomasi, 
 M. Cossi, N. Rega, J. M. Millam, M. Klene, J. E. Knox, J. B. Cross, 
 V. Bakken, C. Adamo, J. Jaramillo, R. Gomperts, R. E. Stratmann, 
 O. Yazyev, A. J. Austin, R. Cammi, C. Pomelli, J. W. Ochterski, 
 R. L. Martin, K. Morokuma, V. G. Zakrzewski, G. A. Voth, 
 P. Salvador, J. J. Dannenberg, S. Dapprich, A. D. Daniels, 
 O. Farkas, J. B. Foresman, J. V. Ortiz, J. Cioslowski, 
 and D. J. Fox, Gaussian, Inc., Wallingford CT, 2013.
 
 ******************************************
 Gaussian 09:  ES64L-G09RevD.01 24-Apr-2013
                 1-Dec-2016 
 ******************************************
 %chk=4_optS1_rotated.chk
 %mem=12GB
 %nproc=4
 Will use up to    4 processors via shared memory.
 ---------------------------------------------
 # wb97xd 6-311++g** opt td=(nstates=1,root=1)
 ---------------------------------------------
 1/14=-1,18=20,19=15,26=3,38=1/1,3;
 2/9=110,12=2,17=6,18=5,40=1/2;
 3/5=4,6=6,7=1111,11=9,16=1,25=1,30=1,71=1,74=-58/1,2,8,3;
 4//1;
 5/5=2,38=5/2;
 8/6=1,10=2,107=1,108=1/1;
 9/8=1,15=2,41=1,42=1,70=2/14;
 10/5=4/2;
 6/7=2,8=2,9=2,10=2/1;
 7/12=6,13=5,14=1/1,2,3,16;
 1/14=-1,18=20,19=15,26=3/3(2);
 2/9=110/2;
 99//99;
 2/9=110/2;
 3/5=4,6=6,7=1111,11=9,16=1,25=1,30=1,71=1,74=-58/1,2,8,3;
 4/5=5,16=3,69=1/1;
 5/5=2,38=5/2;
 8/6=1,10=2,107=1,108=1/1;
 9/8=1,15=2,41=1,42=1,49=4,70=2/14;
 10/5=4/2;
 7/12=6,13=5,14=1/1,2,3,16;
 1/14=-1,18=20,19=15,26=3/3(-8);
 2/9=110/2;
 6/7=2,8=2,9=2,10=2/1;
 99//99;
 -----
 title
 -----
 Symbolic Z-matrix:
 Charge =  0 Multiplicity = 1
 C                     3.22362   0.64024   2.64301 
 H                     4.12883   0.65751   3.24996 
 H                     3.12598   1.60796   2.13175 
 C                     4.58135  -1.08251   1.48979 
 H                     5.30599  -0.3846    1.05045 
 N                     3.29727  -0.45137   1.70125 
 H                     2.36256   0.51542   3.30852 
 H                     4.46385  -1.9272    0.81126 
 H                     4.98801  -1.45315   2.43603 
 C                     2.24132  -0.74117   0.90449 
 H                     2.37774  -1.56235   0.20849 
 C                     1.02711  -0.1046    0.90494 
 C                    -0.00882  -0.5615    0.01293 
 H                     0.84603   0.73054   1.56786 
 O                     0.18279  -1.56998  -0.76365 
 C                    -1.29543   0.09821  -0.00199 
 C                    -2.32633  -0.39276   0.92935 
 C                    -1.67923   1.17344  -0.80694 
 O                    -2.03274  -1.39718   1.71203 
 C                    -3.61242   0.17084   1.00578 
 C                    -2.97483   1.70264  -0.69212 
 H                    -1.00966   1.6183   -1.52883 
 H                    -1.05876  -1.72747   1.50302 
 H                    -4.3071   -0.25273   1.7194 
 C                    -3.96297   1.24589   0.18487 
 F                    -3.27841   2.72379  -1.49147 
 H                    -4.93619   1.7145    0.20709 
 

 GradGradGradGradGradGradGradGradGradGradGradGradGradGradGradGradGradGrad
 Berny optimization.
 Initialization pass.
                           ----------------------------
                           !    Initial Parameters    !
                           ! (Angstroms and Degrees)  !
 --------------------------                            --------------------------
 ! Name  Definition              Value          Derivative Info.                !
 --------------------------------------------------------------------------------
 ! R1    R(1,2)                  1.09           estimate D2E/DX2                !
 ! R2    R(1,3)                  1.0988         estimate D2E/DX2                !
 ! R3    R(1,6)                  1.4436         estimate D2E/DX2                !
 ! R4    R(1,7)                  1.0954         estimate D2E/DX2                !
 ! R5    R(4,5)                  1.0978         estimate D2E/DX2                !
 ! R6    R(4,6)                  1.4464         estimate D2E/DX2                !
 ! R7    R(4,8)                  1.0898         estimate D2E/DX2                !
 ! R8    R(4,9)                  1.0946         estimate D2E/DX2                !
 ! R9    R(6,10)                 1.3542         estimate D2E/DX2                !
 ! R10   R(10,11)                1.0851         estimate D2E/DX2                !
 ! R11   R(10,12)                1.371          estimate D2E/DX2                !
 ! R12   R(12,13)                1.4414         estimate D2E/DX2                !
 ! R13   R(12,14)                1.0815         estimate D2E/DX2                !
 ! R14   R(13,15)                1.2872         estimate D2E/DX2                !
 ! R15   R(13,16)                1.446          estimate D2E/DX2                !
 ! R16   R(16,17)                1.4735         estimate D2E/DX2                !
 ! R17   R(16,18)                1.3969         estimate D2E/DX2                !
 ! R18   R(17,19)                1.3068         estimate D2E/DX2                !
 ! R19   R(17,20)                1.4062         estimate D2E/DX2                !
 ! R20   R(18,21)                1.4042         estimate D2E/DX2                !
 ! R21   R(18,22)                1.0804         estimate D2E/DX2                !
 ! R22   R(19,23)                1.0495         estimate D2E/DX2                !
 ! R23   R(20,24)                1.0822         estimate D2E/DX2                !
 ! R24   R(20,25)                1.3973         estimate D2E/DX2                !
 ! R25   R(21,25)                1.3979         estimate D2E/DX2                !
 ! R26   R(21,26)                1.3319         estimate D2E/DX2                !
 ! R27   R(25,27)                1.0804         estimate D2E/DX2                !
 ! A1    A(2,1,3)              108.5986         estimate D2E/DX2                !
 ! A2    A(2,1,6)              109.4439         estimate D2E/DX2                !
 ! A3    A(2,1,7)              108.4393         estimate D2E/DX2                !
 ! A4    A(3,1,6)              111.5281         estimate D2E/DX2                !
 ! A5    A(3,1,7)              108.2506         estimate D2E/DX2                !
 ! A6    A(6,1,7)              110.5049         estimate D2E/DX2                !
 ! A7    A(5,4,6)              111.5386         estimate D2E/DX2                !
 ! A8    A(5,4,8)              108.3455         estimate D2E/DX2                !
 ! A9    A(5,4,9)              108.4204         estimate D2E/DX2                !
 ! A10   A(6,4,8)              109.4828         estimate D2E/DX2                !
 ! A11   A(6,4,9)              110.5605         estimate D2E/DX2                !
 ! A12   A(8,4,9)              108.4111         estimate D2E/DX2                !
 ! A13   A(1,6,4)              118.0761         estimate D2E/DX2                !
 ! A14   A(1,6,10)             120.3898         estimate D2E/DX2                !
 ! A15   A(4,6,10)             120.8553         estimate D2E/DX2                !
 ! A16   A(6,10,11)            116.1882         estimate D2E/DX2                !
 ! A17   A(6,10,12)            126.2316         estimate D2E/DX2                !
 ! A18   A(11,10,12)           117.5784         estimate D2E/DX2                !
 ! A19   A(10,12,13)           119.2845         estimate D2E/DX2                !
 ! A20   A(10,12,14)           120.4658         estimate D2E/DX2                !
 ! A21   A(13,12,14)           120.2496         estimate D2E/DX2                !
 ! A22   A(12,13,15)           120.98           estimate D2E/DX2                !
 ! A23   A(12,13,16)           120.0837         estimate D2E/DX2                !
 ! A24   A(15,13,16)           118.9262         estimate D2E/DX2                !
 ! A25   A(13,16,17)           117.6449         estimate D2E/DX2                !
 ! A26   A(13,16,18)           126.9842         estimate D2E/DX2                !
 ! A27   A(17,16,18)           115.3696         estimate D2E/DX2                !
 ! A28   A(16,17,19)           118.5214         estimate D2E/DX2                !
 ! A29   A(16,17,20)           122.7291         estimate D2E/DX2                !
 ! A30   A(19,17,20)           118.7489         estimate D2E/DX2                !
 ! A31   A(16,18,21)           119.7662         estimate D2E/DX2                !
 ! A32   A(16,18,22)           122.1173         estimate D2E/DX2                !
 ! A33   A(21,18,22)           118.1159         estimate D2E/DX2                !
 ! A34   A(17,19,23)           109.337          estimate D2E/DX2                !
 ! A35   A(17,20,24)           117.7766         estimate D2E/DX2                !
 ! A36   A(17,20,25)           120.3881         estimate D2E/DX2                !
 ! A37   A(24,20,25)           121.8346         estimate D2E/DX2                !
 ! A38   A(18,21,25)           125.4761         estimate D2E/DX2                !
 ! A39   A(18,21,26)           116.7548         estimate D2E/DX2                !
 ! A40   A(25,21,26)           117.769          estimate D2E/DX2                !
 ! A41   A(20,25,21)           116.2702         estimate D2E/DX2                !
 ! A42   A(20,25,27)           123.203          estimate D2E/DX2                !
 ! A43   A(21,25,27)           120.5267         estimate D2E/DX2                !
 ! D1    D(2,1,6,4)            -14.4621         estimate D2E/DX2                !
 ! D2    D(2,1,6,10)           174.8977         estimate D2E/DX2                !
 ! D3    D(3,1,6,4)            105.7265         estimate D2E/DX2                !
 ! D4    D(3,1,6,10)           -64.9137         estimate D2E/DX2                !
 ! D5    D(7,1,6,4)           -133.8119         estimate D2E/DX2                !
 ! D6    D(7,1,6,10)            55.5479         estimate D2E/DX2                !
 ! D7    D(5,4,6,1)            -64.0787         estimate D2E/DX2                !
 ! D8    D(5,4,6,10)           106.516          estimate D2E/DX2                !
 ! D9    D(8,4,6,1)            176.0165         estimate D2E/DX2                !
 ! D10   D(8,4,6,10)           -13.3888         estimate D2E/DX2                !
 ! D11   D(9,4,6,1)             56.6426         estimate D2E/DX2                !
 ! D12   D(9,4,6,10)          -132.7627         estimate D2E/DX2                !
 ! D13   D(1,6,10,11)          178.8227         estimate D2E/DX2                !
 ! D14   D(1,6,10,12)           -1.6843         estimate D2E/DX2                !
 ! D15   D(4,6,10,11)            8.445          estimate D2E/DX2                !
 ! D16   D(4,6,10,12)         -172.062          estimate D2E/DX2                !
 ! D17   D(6,10,12,13)        -178.3552         estimate D2E/DX2                !
 ! D18   D(6,10,12,14)           1.5451         estimate D2E/DX2                !
 ! D19   D(11,10,12,13)          1.1314         estimate D2E/DX2                !
 ! D20   D(11,10,12,14)       -178.9682         estimate D2E/DX2                !
 ! D21   D(10,12,13,15)          1.2365         estimate D2E/DX2                !
 ! D22   D(10,12,13,16)       -179.9303         estimate D2E/DX2                !
 ! D23   D(14,12,13,15)       -178.6641         estimate D2E/DX2                !
 ! D24   D(14,12,13,16)          0.1692         estimate D2E/DX2                !
 ! D25   D(12,13,16,17)        -88.8571         estimate D2E/DX2                !
 ! D26   D(12,13,16,18)         90.7065         estimate D2E/DX2                !
 ! D27   D(15,13,16,17)         90.0            estimate D2E/DX2                !
 ! D28   D(15,13,16,18)        -90.4364         estimate D2E/DX2                !
 ! D29   D(13,16,17,19)         -0.3724         estimate D2E/DX2                !
 ! D30   D(13,16,17,20)        179.9102         estimate D2E/DX2                !
 ! D31   D(18,16,17,19)       -179.9866         estimate D2E/DX2                !
 ! D32   D(18,16,17,20)          0.296          estimate D2E/DX2                !
 ! D33   D(13,16,18,21)       -179.7791         estimate D2E/DX2                !
 ! D34   D(13,16,18,22)          0.5005         estimate D2E/DX2                !
 ! D35   D(17,16,18,21)         -0.2069         estimate D2E/DX2                !
 ! D36   D(17,16,18,22)       -179.9274         estimate D2E/DX2                !
 ! D37   D(16,17,19,23)         -2.2753         estimate D2E/DX2                !
 ! D38   D(20,17,19,23)        177.4535         estimate D2E/DX2                !
 ! D39   D(16,17,20,24)       -179.981          estimate D2E/DX2                !
 ! D40   D(16,17,20,25)         -0.2867         estimate D2E/DX2                !
 ! D41   D(19,17,20,24)          0.3022         estimate D2E/DX2                !
 ! D42   D(19,17,20,25)        179.9965         estimate D2E/DX2                !
 ! D43   D(16,18,21,25)          0.1241         estimate D2E/DX2                !
 ! D44   D(16,18,21,26)       -179.7723         estimate D2E/DX2                !
 ! D45   D(22,18,21,25)        179.8557         estimate D2E/DX2                !
 ! D46   D(22,18,21,26)         -0.0408         estimate D2E/DX2                !
 ! D47   D(17,20,25,21)          0.1739         estimate D2E/DX2                !
 ! D48   D(17,20,25,27)       -179.8731         estimate D2E/DX2                !
 ! D49   D(24,20,25,21)        179.8555         estimate D2E/DX2                !
 ! D50   D(24,20,25,27)         -0.1915         estimate D2E/DX2                !
 ! D51   D(18,21,25,20)         -0.0973         estimate D2E/DX2                !
 ! D52   D(18,21,25,27)        179.9484         estimate D2E/DX2                !
 ! D53   D(26,21,25,20)        179.7983         estimate D2E/DX2                !
 ! D54   D(26,21,25,27)         -0.1561         estimate D2E/DX2                !
 --------------------------------------------------------------------------------
 Trust Radius=3.00D-01 FncErr=1.00D-07 GrdErr=1.00D-06
 Number of steps in this run=    134 maximum allowed number of steps=    162.
 GradGradGradGradGradGradGradGradGradGradGradGradGradGradGradGradGradGrad

                          Input orientation:                          
 ---------------------------------------------------------------------
 Center     Atomic      Atomic             Coordinates (Angstroms)
 Number     Number       Type             X           Y           Z
 ---------------------------------------------------------------------
      1          6           0        3.223625    0.640237    2.643007
      2          1           0        4.128826    0.657505    3.249960
      3          1           0        3.125977    1.607962    2.131746
      4          6           0        4.581351   -1.082508    1.489786
      5          1           0        5.305995   -0.384604    1.050455
      6          7           0        3.297266   -0.451368    1.701255
      7          1           0        2.362559    0.515423    3.308523
      8          1           0        4.463847   -1.927205    0.811262
      9          1           0        4.988006   -1.453145    2.436034
     10          6           0        2.241317   -0.741170    0.904494
     11          1           0        2.377737   -1.562355    0.208494
     12          6           0        1.027106   -0.104600    0.904939
     13          6           0       -0.008818   -0.561496    0.012932
     14          1           0        0.846031    0.730537    1.567860
     15          8           0        0.182786   -1.569978   -0.763653
     16          6           0       -1.295425    0.098206   -0.001985
     17          6           0       -2.326325   -0.392760    0.929348
     18          6           0       -1.679233    1.173444   -0.806935
     19          8           0       -2.032736   -1.397184    1.712025
     20          6           0       -3.612423    0.170836    1.005779
     21          6           0       -2.974829    1.702635   -0.692116
     22          1           0       -1.009657    1.618299   -1.528827
     23          1           0       -1.058765   -1.727471    1.503018
     24          1           0       -4.307102   -0.252734    1.719404
     25          6           0       -3.962974    1.245890    0.184870
     26          9           0       -3.278413    2.723795   -1.491472
     27          1           0       -4.936189    1.714495    0.207092
 ---------------------------------------------------------------------
                    Distance matrix (angstroms):
                    1          2          3          4          5
     1  C    0.000000
     2  H    1.089990   0.000000
     3  H    1.098824   1.777492   0.000000
     4  C    2.478143   2.516076   3.125518   0.000000
     5  H    2.814745   2.703616   3.145154   1.097811   0.000000
     6  N    1.443580   2.078360   2.110807   1.446351   2.112579
     7  H    1.095411   1.772940   1.777991   3.283935   3.817426
     8  H    3.388982   3.569343   4.003871   1.089823   1.773709
     9  H    2.745566   2.419816   3.595849   1.094590   1.778406
    10  C    2.428095   3.319668   2.794136   2.436152   3.088801
    11  H    3.390249   4.152662   3.782813   2.593815   3.266601
    12  C    2.898337   3.962397   2.973749   3.732427   4.290509
    13  C    4.337066   5.392996   4.361521   4.849970   5.418024
    14  H    2.610948   3.689382   2.507189   4.152812   4.626287
    15  O    5.073173   6.053263   5.210087   4.966184   5.562676
    16  C    5.264180   6.349052   5.136240   6.177052   6.702200
    17  C    5.899632   6.939544   5.930957   6.964613   7.633285
    18  C    6.018673   7.103390   5.649310   7.039827   7.393972
    19  O    5.713767   6.674716   5.984930   6.625297   7.437739
    20  C    7.045027   8.074660   6.981344   8.303197   8.935810
    21  C    7.118466   8.191103   6.723317   8.343475   8.715800
    22  H    6.023411   7.082651   5.522986   6.904039   7.109977
    23  H    5.024388   5.970847   5.388179   5.676888   6.520603
    24  H    7.639521   8.621834   7.673518   8.930053   9.637246
    25  C    7.619479   8.672843   7.360343   8.951522   9.451007
    26  F    7.981956   9.034263   7.442378   9.227770   9.477109
    27  H    8.583139   9.620331   8.289400  10.002605  10.489033
                    6          7          8          9         10
     6  N    0.000000
     7  H    2.095632   0.000000
     8  H    2.081127   4.076537   0.000000
     9  H    2.098109   3.395508   1.771824   0.000000
    10  C    1.354194   2.715342   2.520914   3.224411   0.000000
    11  H    2.075611   3.731966   2.201885   3.433273   1.085067
    12  C    2.430637   2.818701   3.891252   4.455508   1.370959
    13  C    3.713860   4.200488   4.744177   5.624475   2.426988
    14  H    2.724565   2.318629   4.552431   4.762159   2.133730
    15  O    4.126384   5.067832   4.575527   5.774235   2.776182
    16  C    4.929084   4.951199   6.158966   6.916078   3.746305
    17  C    5.676624   5.335813   6.962391   7.542809   4.580978
    18  C    5.804875   5.805693   7.068947   7.865615   4.686731
    19  O    5.413281   5.052275   6.580112   7.058197   4.398862
    20  C    6.972420   6.412626   8.346601   8.868503   5.925225
    21  C    7.050328   6.775123   8.412477   9.118718   5.977418
    22  H    5.767715   5.999011   6.928626   7.818303   4.696486
    23  H    4.543428   4.471675   5.569349   6.124476   3.495934
    24  H    7.606984   6.899256   8.975417   9.399658   6.616981
    25  C    7.608627   7.092472   9.026195   9.616267   6.554349
    26  F    7.969612   7.728998   9.320781  10.060110   6.943634
    27  H    8.643684   8.020496  10.098894  10.653252   7.617956
                   11         12         13         14         15
    11  H    0.000000
    12  C    2.105775   0.000000
    13  C    2.595305   1.441377   0.000000
    14  H    3.074306   1.081530   2.194975   0.000000
    15  O    2.400612   2.375796   1.287180   3.341888   0.000000
    16  C    4.036569   2.501558   1.445955   2.729485   2.355437
    17  C    4.900590   3.365878   2.497825   3.425396   3.247728
    18  C    4.997469   3.447925   2.544108   3.494678   3.315924
    19  O    4.662635   3.418303   2.771558   3.582635   3.326767
    20  C    6.286624   4.648792   3.808941   4.528467   4.534858
    21  C    6.334131   4.672491   3.797447   4.544384   4.548148
    22  H    4.960774   3.611095   2.851352   3.717683   3.488914
    23  H    3.675949   2.709661   2.163848   3.110346   2.589218
    24  H    6.977466   5.398062   4.634935   5.248291   5.297150
    25  C    6.934798   5.219504   4.351041   5.030385   5.100602
    26  F    7.297465   5.681558   4.873050   5.508504   5.562922
    27  H    8.014441   6.273515   5.431097   6.021123   6.159060
                   16         17         18         19         20
    16  C    0.000000
    17  C    1.473494   0.000000
    18  C    1.396922   2.426191   0.000000
    19  O    2.391160   1.306769   3.616386   0.000000
    20  C    2.527715   1.406247   2.833439   2.335141   0.000000
    21  C    2.422988   2.727707   1.404206   4.034391   2.373980
    22  H    2.173383   3.438110   1.080443   4.543451   3.910725
    23  H    2.377843   1.928019   3.759810   1.049473   3.220558
    24  H    3.486622   2.137118   3.914341   2.546087   1.082243
    25  C    2.909968   2.432702   2.490863   3.611629   1.397325
    26  F    3.611721   4.059527   2.330140   5.366244   3.586840
    27  H    3.988893   3.431263   3.453802   4.514135   2.184752
                   21         22         23         24         25
    21  C    0.000000
    22  H    2.137545   0.000000
    23  H    4.500616   4.515381   0.000000
    24  H    3.378439   4.992486   3.573984   0.000000
    25  C    1.397910   3.434753   4.360369   2.172347   0.000000
    26  F    1.331879   2.524038   5.805822   4.497517   2.337296
    27  H    2.157695   4.294219   5.344247   2.559850   1.080385
                   26         27
    26  F    0.000000
    27  H    2.579152   0.000000
 Stoichiometry    C11H12FNO2
 Framework group  C1[X(C11H12FNO2)]
 Deg. of freedom    75
 Full point group                 C1      NOp   1
 Largest Abelian subgroup         C1      NOp   1
 Largest concise Abelian subgroup C1      NOp   1
                         Standard orientation:                         
 ---------------------------------------------------------------------
 Center     Atomic      Atomic             Coordinates (Angstroms)
 Number     Number       Type             X           Y           Z
 ---------------------------------------------------------------------
      1          6           0        3.707727   -0.668941   -1.697508
      2          1           0        4.708051   -0.705276   -2.128912
      3          1           0        3.247328   -1.661791   -1.795978
      4          6           0        5.092009   -0.292422    0.323182
      5          1           0        5.483992   -1.315819    0.387970
      6          7           0        3.794850   -0.260105   -0.315775
      7          1           0        3.108376    0.045639   -2.272034
      8          1           0        5.009633    0.107943    1.333448
      9          1           0        5.809950    0.318363   -0.233261
     10          6           0        2.670200   -0.041875    0.406291
     11          1           0        2.814675    0.243723    1.443080
     12          6           0        1.381652   -0.138577   -0.051771
     13          6           0        0.291336    0.162531    0.841601
     14          1           0        1.183410   -0.435854   -1.072572
     15          8           0        0.511733    0.542232    2.051594
     16          6           0       -1.074474    0.064719    0.377075
     17          6           0       -1.673767    1.260638   -0.240832
     18          6           0       -1.905250   -1.056552    0.439939
     19          8           0       -0.950296    2.345071   -0.331601
     20          6           0       -2.991798    1.283927   -0.730509
     21          6           0       -3.213725   -0.983867   -0.064447
     22          1           0       -1.577288   -1.990961    0.872000
     23          1           0       -0.015221    2.177326    0.114370
     24          1           0       -3.350544    2.205821   -1.169444
     25          6           0       -3.795654    0.143750   -0.650954
     26          9           0       -3.954971   -2.086346    0.030397
     27          1           0       -4.812606    0.110327   -1.014167
 ---------------------------------------------------------------------
 Rotational constants (GHZ):      1.2019231      0.2619906      0.2476545
 Standard basis: 6-311++G(d,p) (5D, 7F)
 There are   429 symmetry adapted cartesian basis functions of A   symmetry.
 There are   414 symmetry adapted basis functions of A   symmetry.
   414 basis functions,   648 primitive gaussians,   429 cartesian basis functions
    55 alpha electrons       55 beta electrons
       nuclear repulsion energy       940.5466983405 Hartrees.
 NAtoms=   27 NActive=   27 NUniq=   27 SFac= 1.00D+00 NAtFMM=   60 NAOKFM=F Big=F
 Integral buffers will be    131072 words long.
 Raffenetti 1 integral format.
 Two-electron integral symmetry is turned on.
 Nuclear repulsion after empirical dispersion term =      940.5310501230 Hartrees.
 One-electron integrals computed using PRISM.
 NBasis=   414 RedAO= T EigKep=  3.99D-06  NBF=   414
 NBsUse=   412 1.00D-06 EigRej=  9.17D-07 NBFU=   412
 ExpMin= 3.60D-02 ExpMax= 1.14D+04 ExpMxC= 1.72D+03 IAcc=3 IRadAn=         5 AccDes= 0.00D+00
 Harris functional with IExCor= 4639 and IRadAn=       5 diagonalized for initial guess.
 HarFok:  IExCor= 4639 AccDes= 0.00D+00 IRadAn=         5 IDoV= 1 UseB2=F ITyADJ=14
 ICtDFT=  3500011 ScaDFX=  1.000000  1.000000  1.000000  1.000000
 FoFCou: FMM=F IPFlag=           0 FMFlag=      100000 FMFlg1=           0
         NFxFlg=           0 DoJE=T BraDBF=F KetDBF=T FulRan=T
         wScrn=  0.000000 ICntrl=     500 IOpCl=  0 I1Cent=   200000004 NGrid=           0
         NMat0=    1 NMatS0=      1 NMatT0=    0 NMatD0=    1 NMtDS0=    0 NMtDT0=    0
 Petite list used in FoFCou.
 Requested convergence on RMS density matrix=1.00D-08 within 128 cycles.
 Requested convergence on MAX density matrix=1.00D-06.
 Requested convergence on             energy=1.00D-06.
 No special actions if energy rises.
 SCF Done:  E(RwB97XD) =  -731.351304659     A.U. after   18 cycles
            NFock= 18  Conv=0.26D-08     -V/T= 2.0042
 DoSCS=F DFT=T ScalE2(SS,OS)=  1.000000  1.000000
 ExpMin= 3.60D-02 ExpMax= 1.14D+04 ExpMxC= 1.72D+03 IAcc=3 IRadAn=         5 AccDes= 0.00D+00
 HarFok:  IExCor=  205 AccDes= 0.00D+00 IRadAn=         5 IDoV=-2 UseB2=F ITyADJ=14
 ICtDFT= 12500011 ScaDFX=  1.000000  1.000000  1.000000  1.000000
 Range of M.O.s used for correlation:    16   412
 NBasis=   414 NAE=    55 NBE=    55 NFC=    15 NFV=     0
 NROrb=    397 NOA=    40 NOB=    40 NVA=   357 NVB=   357

 **** Warning!!: The largest alpha MO coefficient is  0.84247057D+02

 Would need an additional         20568500000 words for in-memory AO integral storage.
 Orbital symmetries:
       Occupied  (A) (A) (A) (A) (A) (A) (A) (A) (A) (A) (A) (A)
                 (A) (A) (A) (A) (A) (A) (A) (A) (A) (A) (A) (A)
                 (A) (A) (A) (A) (A) (A) (A) (A) (A) (A) (A) (A)
                 (A) (A) (A) (A) (A) (A) (A) (A) (A) (A) (A) (A)
                 (A) (A) (A) (A) (A) (A) (A)
       Virtual   (A) (A) (A) (A) (A) (A) (A) (A) (A) (A) (A) (A)
                 (A) (A) (A) (A) (A) (A) (A) (A) (A) (A) (A) (A)
                 (A) (A) (A) (A) (A) (A) (A) (A) (A) (A) (A) (A)
                 (A) (A) (A) (A) (A) (A) (A) (A) (A) (A) (A) (A)
                 (A) (A) (A) (A) (A) (A) (A) (A) (A) (A) (A) (A)
                 (A) (A) (A) (A) (A) (A) (A) (A) (A) (A) (A) (A)
                 (A) (A) (A) (A) (A) (A) (A) (A) (A) (A) (A) (A)
                 (A) (A) (A) (A) (A) (A) (A) (A) (A) (A) (A) (A)
                 (A) (A) (A) (A) (A) (A) (A) (A) (A) (A) (A) (A)
                 (A) (A) (A) (A) (A) (A) (A) (A) (A) (A) (A) (A)
                 (A) (A) (A) (A) (A) (A) (A) (A) (A) (A) (A) (A)
                 (A) (A) (A) (A) (A) (A) (A) (A) (A) (A) (A) (A)
                 (A) (A) (A) (A) (A) (A) (A) (A) (A) (A) (A) (A)
                 (A) (A) (A) (A) (A) (A) (A) (A) (A) (A) (A) (A)
                 (A) (A) (A) (A) (A) (A) (A) (A) (A) (A) (A) (A)
                 (A) (A) (A) (A) (A) (A) (A) (A) (A) (A) (A) (A)
                 (A) (A) (A) (A) (A) (A) (A) (A) (A) (A) (A) (A)
                 (A) (A) (A) (A) (A) (A) (A) (A) (A) (A) (A) (A)
                 (A) (A) (A) (A) (A) (A) (A) (A) (A) (A) (A) (A)
                 (A) (A) (A) (A) (A) (A) (A) (A) (A) (A) (A) (A)
                 (A) (A) (A) (A) (A) (A) (A) (A) (A) (A) (A) (A)
                 (A) (A) (A) (A) (A) (A) (A) (A) (A) (A) (A) (A)
                 (A) (A) (A) (A) (A) (A) (A) (A) (A) (A) (A) (A)
                 (A) (A) (A) (A) (A) (A) (A) (A) (A) (A) (A) (A)
                 (A) (A) (A) (A) (A) (A) (A) (A) (A) (A) (A) (A)
                 (A) (A) (A) (A) (A) (A) (A) (A) (A) (A) (A) (A)
                 (A) (A) (A) (A) (A) (A) (A) (A) (A) (A) (A) (A)
                 (A) (A) (A) (A) (A) (A) (A) (A) (A) (A) (A) (A)
                 (A) (A) (A) (A) (A) (A) (A) (A) (A) (A) (A) (A)
                 (A) (A) (A) (A) (A) (A) (A) (A) (A)
     8 initial guesses have been made.
 Convergence on wavefunction:    0.000001000000000
 Iteration     1 Dimension     8 NMult     0 NNew      8
 CISAX will form     8 AO SS matrices at one time.
 Iteration     2 Dimension    12 NMult     8 NNew      4
 Iteration     3 Dimension    16 NMult    12 NNew      4
 Iteration     4 Dimension    20 NMult    16 NNew      4
 Iteration     5 Dimension    24 NMult    20 NNew      4
 Iteration     6 Dimension    28 NMult    24 NNew      4
 Iteration     7 Dimension    32 NMult    28 NNew      4
 Iteration     8 Dimension    36 NMult    32 NNew      4
 Iteration     9 Dimension    40 NMult    36 NNew      4
 Iteration    10 Dimension    44 NMult    40 NNew      4
 Iteration    11 Dimension    48 NMult    44 NNew      4
 Iteration    12 Dimension    52 NMult    48 NNew      4
 ***********************************************************************
 Excited states from <AA,BB:AA,BB> singles matrix:
 ***********************************************************************
 
 Ground to excited state transition densities written to RWF  633
 Ground to excited state transition electric dipole moments (Au):
       state          X           Y           Z        Dip. S.      Osc.
         1         0.0710     -0.0390     -0.0265      0.0073      0.0006
 Ground to excited state transition velocity dipole moments (Au):
       state          X           Y           Z        Dip. S.      Osc.
         1        -0.0082      0.0002      0.0060      0.0001      0.0005
 Ground to excited state transition magnetic dipole moments (Au):
       state          X           Y           Z
         1         0.1148      0.2158      0.7022
 Ground to excited state transition velocity quadrupole moments (Au):
       state          XX          YY          ZZ          XY          XZ          YZ
         1        -0.0849      0.0006      0.0093      0.0282      0.0037     -0.0012
 <0|del|b> * <b|rxdel|0> + <0|del|b> * <b|delr+rdel|0>
 Rotatory Strengths (R) in cgs (10**-40 erg-esu-cm/Gauss)
       state          XX          YY          ZZ    R(velocity)    E-M Angle
         1        11.9553      8.3834     -2.4248      5.9713       63.96
 1/2[<0|r|b>*<b|rxdel|0> + (<0|rxdel|b>*<b|r|0>)*]
 Rotatory Strengths (R) in cgs (10**-40 erg-esu-cm/Gauss)
       state          XX          YY          ZZ     R(length)
         1        -5.7631      5.9452     13.1774      4.4531
  1/2[<0|del|b>*<b|r|0> + (<0|r|b>*<b|del|0>)*] (Au)
       state          X           Y           Z        Dip. S.   Osc.(frdel)
         1        -0.0006      0.0000     -0.0002      0.0007      0.0005

 Excitation energies and oscillator strengths:
 
 Excited State   1:      Singlet-A      3.5446 eV  349.78 nm  f=0.0006  <S**2>=0.000
      52 -> 56        -0.30946
      53 -> 56         0.51155
      55 -> 56         0.32656
 This state for optimization and/or second-order correction.
 Total Energy, E(TD-HF/TD-KS) =  -731.221041931    
 Copying the excited state density for this state as the 1-particle RhoCI density.
 SavETr:  write IOETrn=   770 NScale= 10 NData=  16 NLR=1 NState=    1 LETran=      28.
          IDoAtm=111111111111111111111111111
          Differentiating once with respect to electric field.
                with respect to dipole field.
          Differentiating once with respect to nuclear coordinates.
          There are     1 degrees of freedom in the 1st order CPHF.  IDoFFX=0 NUNeed=     1.
 LinEq1:  Iter=  0 NonCon=     1 RMS=8.17D-03 Max=5.15D-01 NDo=     1
 AX will form     1 AO Fock derivatives at one time.
 LinEq1:  Iter=  1 NonCon=     1 RMS=2.32D-03 Max=8.13D-02 NDo=     1
 LinEq1:  Iter=  2 NonCon=     1 RMS=1.41D-03 Max=5.23D-02 NDo=     1
 LinEq1:  Iter=  3 NonCon=     1 RMS=7.16D-04 Max=3.96D-02 NDo=     1
 LinEq1:  Iter=  4 NonCon=     1 RMS=3.90D-04 Max=1.16D-02 NDo=     1
 LinEq1:  Iter=  5 NonCon=     1 RMS=1.57D-04 Max=5.59D-03 NDo=     1
 LinEq1:  Iter=  6 NonCon=     1 RMS=8.11D-05 Max=1.96D-03 NDo=     1
 LinEq1:  Iter=  7 NonCon=     1 RMS=4.13D-05 Max=1.05D-03 NDo=     1
 LinEq1:  Iter=  8 NonCon=     1 RMS=1.73D-05 Max=5.55D-04 NDo=     1
 LinEq1:  Iter=  9 NonCon=     1 RMS=8.87D-06 Max=3.13D-04 NDo=     1
 LinEq1:  Iter= 10 NonCon=     1 RMS=3.76D-06 Max=1.52D-04 NDo=     1
 LinEq1:  Iter= 11 NonCon=     1 RMS=1.65D-06 Max=6.27D-05 NDo=     1
 LinEq1:  Iter= 12 NonCon=     1 RMS=7.51D-07 Max=2.21D-05 NDo=     1
 LinEq1:  Iter= 13 NonCon=     1 RMS=4.06D-07 Max=1.31D-05 NDo=     1
 LinEq1:  Iter= 14 NonCon=     1 RMS=1.94D-07 Max=8.68D-06 NDo=     1
 LinEq1:  Iter= 15 NonCon=     1 RMS=9.20D-08 Max=2.54D-06 NDo=     1
 LinEq1:  Iter= 16 NonCon=     1 RMS=4.27D-08 Max=1.66D-06 NDo=     1
 LinEq1:  Iter= 17 NonCon=     1 RMS=2.03D-08 Max=4.58D-07 NDo=     1
 LinEq1:  Iter= 18 NonCon=     1 RMS=7.82D-09 Max=1.76D-07 NDo=     1
 LinEq1:  Iter= 19 NonCon=     1 RMS=3.82D-09 Max=6.37D-08 NDo=     1
 LinEq1:  Iter= 20 NonCon=     1 RMS=1.36D-09 Max=3.52D-08 NDo=     1
 LinEq1:  Iter= 21 NonCon=     1 RMS=4.79D-10 Max=1.16D-08 NDo=     1
 LinEq1:  Iter= 22 NonCon=     1 RMS=1.85D-10 Max=6.93D-09 NDo=     1
 LinEq1:  Iter= 23 NonCon=     1 RMS=9.44D-11 Max=2.85D-09 NDo=     1
 LinEq1:  Iter= 24 NonCon=     1 RMS=4.42D-11 Max=1.70D-09 NDo=     1
 LinEq1:  Iter= 25 NonCon=     0 RMS=1.71D-11 Max=2.94D-10 NDo=     1
 Linear equations converged to 1.000D-10 1.000D-09 after    25 iterations.
 End of Minotr F.D. properties file   721 does not exist.
 End of Minotr F.D. properties file   722 does not exist.
 End of Minotr F.D. properties file   788 does not exist.

 **********************************************************************

            Population analysis using the SCF density.

 **********************************************************************

 Orbital symmetries:
       Occupied  (A) (A) (A) (A) (A) (A) (A) (A) (A) (A) (A) (A)
                 (A) (A) (A) (A) (A) (A) (A) (A) (A) (A) (A) (A)
                 (A) (A) (A) (A) (A) (A) (A) (A) (A) (A) (A) (A)
                 (A) (A) (A) (A) (A) (A) (A) (A) (A) (A) (A) (A)
                 (A) (A) (A) (A) (A) (A) (A)
       Virtual   (A) (A) (A) (A) (A) (A) (A) (A) (A) (A) (A) (A)
                 (A) (A) (A) (A) (A) (A) (A) (A) (A) (A) (A) (A)
                 (A) (A) (A) (A) (A) (A) (A) (A) (A) (A) (A) (A)
                 (A) (A) (A) (A) (A) (A) (A) (A) (A) (A) (A) (A)
                 (A) (A) (A) (A) (A) (A) (A) (A) (A) (A) (A) (A)
                 (A) (A) (A) (A) (A) (A) (A) (A) (A) (A) (A) (A)
                 (A) (A) (A) (A) (A) (A) (A) (A) (A) (A) (A) (A)
                 (A) (A) (A) (A) (A) (A) (A) (A) (A) (A) (A) (A)
                 (A) (A) (A) (A) (A) (A) (A) (A) (A) (A) (A) (A)
                 (A) (A) (A) (A) (A) (A) (A) (A) (A) (A) (A) (A)
                 (A) (A) (A) (A) (A) (A) (A) (A) (A) (A) (A) (A)
                 (A) (A) (A) (A) (A) (A) (A) (A) (A) (A) (A) (A)
                 (A) (A) (A) (A) (A) (A) (A) (A) (A) (A) (A) (A)
                 (A) (A) (A) (A) (A) (A) (A) (A) (A) (A) (A) (A)
                 (A) (A) (A) (A) (A) (A) (A) (A) (A) (A) (A) (A)
                 (A) (A) (A) (A) (A) (A) (A) (A) (A) (A) (A) (A)
                 (A) (A) (A) (A) (A) (A) (A) (A) (A) (A) (A) (A)
                 (A) (A) (A) (A) (A) (A) (A) (A) (A) (A) (A) (A)
                 (A) (A) (A) (A) (A) (A) (A) (A) (A) (A) (A) (A)
                 (A) (A) (A) (A) (A) (A) (A) (A) (A) (A) (A) (A)
                 (A) (A) (A) (A) (A) (A) (A) (A) (A) (A) (A) (A)
                 (A) (A) (A) (A) (A) (A) (A) (A) (A) (A) (A) (A)
                 (A) (A) (A) (A) (A) (A) (A) (A) (A) (A) (A) (A)
                 (A) (A) (A) (A) (A) (A) (A) (A) (A) (A) (A) (A)
                 (A) (A) (A) (A) (A) (A) (A) (A) (A) (A) (A) (A)
                 (A) (A) (A) (A) (A) (A) (A) (A) (A) (A) (A) (A)
                 (A) (A) (A) (A) (A) (A) (A) (A) (A) (A) (A) (A)
                 (A) (A) (A) (A) (A) (A) (A) (A) (A) (A) (A) (A)
                 (A) (A) (A) (A) (A) (A) (A) (A) (A) (A) (A) (A)
                 (A) (A) (A) (A) (A) (A) (A) (A) (A)
 The electronic state is 1-A.
 Alpha  occ. eigenvalues --  -24.80683 -19.28513 -19.22152 -14.50334 -10.37631
 Alpha  occ. eigenvalues --  -10.36317 -10.36054 -10.35830 -10.34674 -10.34369
 Alpha  occ. eigenvalues --  -10.30569 -10.30027 -10.29670 -10.29062 -10.28591
 Alpha  occ. eigenvalues --   -1.32903  -1.17992  -1.10649  -1.09624  -0.95415
 Alpha  occ. eigenvalues --   -0.90281  -0.87408  -0.86092  -0.83266  -0.80939
 Alpha  occ. eigenvalues --   -0.75942  -0.70489  -0.69727  -0.66031  -0.64363
 Alpha  occ. eigenvalues --   -0.63763  -0.60920  -0.59712  -0.59266  -0.58289
 Alpha  occ. eigenvalues --   -0.55642  -0.55090  -0.53060  -0.52484  -0.52308
 Alpha  occ. eigenvalues --   -0.52105  -0.51531  -0.50324  -0.50149  -0.49942
 Alpha  occ. eigenvalues --   -0.47081  -0.46468  -0.45379  -0.42669  -0.41739
 Alpha  occ. eigenvalues --   -0.41435  -0.34671  -0.32912  -0.30486  -0.28169
 Alpha virt. eigenvalues --   -0.00106   0.02404   0.04231   0.04353   0.05085
 Alpha virt. eigenvalues --    0.05301   0.05704   0.06702   0.07004   0.07258
 Alpha virt. eigenvalues --    0.07610   0.07965   0.08424   0.09161   0.09972
 Alpha virt. eigenvalues --    0.11307   0.11622   0.12208   0.12813   0.13265
 Alpha virt. eigenvalues --    0.13741   0.14158   0.14462   0.14792   0.15253
 Alpha virt. eigenvalues --    0.15732   0.16064   0.16419   0.16636   0.17111
 Alpha virt. eigenvalues --    0.17310   0.17461   0.17887   0.18211   0.18771
 Alpha virt. eigenvalues --    0.19508   0.19541   0.19671   0.20318   0.20792
 Alpha virt. eigenvalues --    0.20899   0.21222   0.22089   0.22173   0.22415
 Alpha virt. eigenvalues --    0.22870   0.23310   0.23921   0.24433   0.24680
 Alpha virt. eigenvalues --    0.24967   0.25603   0.26179   0.27308   0.27560
 Alpha virt. eigenvalues --    0.28016   0.28404   0.29017   0.29499   0.29999
 Alpha virt. eigenvalues --    0.30540   0.30627   0.31036   0.31851   0.32108
 Alpha virt. eigenvalues --    0.32695   0.33038   0.33301   0.33626   0.34028
 Alpha virt. eigenvalues --    0.34987   0.35196   0.35541   0.35878   0.36345
 Alpha virt. eigenvalues --    0.36818   0.37834   0.38199   0.39067   0.39514
 Alpha virt. eigenvalues --    0.39820   0.40733   0.42131   0.42775   0.43768
 Alpha virt. eigenvalues --    0.44294   0.44820   0.45240   0.45756   0.46105
 Alpha virt. eigenvalues --    0.47056   0.47785   0.48190   0.49909   0.50200
 Alpha virt. eigenvalues --    0.50648   0.51221   0.52512   0.53771   0.54037
 Alpha virt. eigenvalues --    0.54671   0.55876   0.56970   0.60072   0.61020
 Alpha virt. eigenvalues --    0.61770   0.63710   0.63948   0.65115   0.65502
 Alpha virt. eigenvalues --    0.66245   0.67162   0.67378   0.67841   0.69392
 Alpha virt. eigenvalues --    0.69727   0.70147   0.70690   0.71043   0.71400
 Alpha virt. eigenvalues --    0.72147   0.72176   0.73866   0.74900   0.75598
 Alpha virt. eigenvalues --    0.76844   0.77270   0.77678   0.79305   0.80292
 Alpha virt. eigenvalues --    0.80968   0.81786   0.81910   0.82578   0.84344
 Alpha virt. eigenvalues --    0.84411   0.86703   0.87328   0.88399   0.90332
 Alpha virt. eigenvalues --    0.92295   0.93459   0.93763   0.94503   0.95786
 Alpha virt. eigenvalues --    0.96972   0.98859   0.99463   0.99690   1.01215
 Alpha virt. eigenvalues --    1.02330   1.02784   1.04333   1.04808   1.06098
 Alpha virt. eigenvalues --    1.07096   1.09837   1.11184   1.12521   1.13576
 Alpha virt. eigenvalues --    1.15404   1.16122   1.16508   1.18273   1.20585
 Alpha virt. eigenvalues --    1.22854   1.24888   1.26415   1.27886   1.28703
 Alpha virt. eigenvalues --    1.30155   1.32455   1.35605   1.35890   1.37688
 Alpha virt. eigenvalues --    1.38306   1.40671   1.41235   1.42645   1.44837
 Alpha virt. eigenvalues --    1.49896   1.50299   1.51392   1.52279   1.53405
 Alpha virt. eigenvalues --    1.55011   1.55115   1.57467   1.58005   1.58651
 Alpha virt. eigenvalues --    1.59736   1.61173   1.61806   1.62666   1.63557
 Alpha virt. eigenvalues --    1.65190   1.66490   1.66977   1.68345   1.69318
 Alpha virt. eigenvalues --    1.71172   1.71963   1.72802   1.74212   1.74713
 Alpha virt. eigenvalues --    1.75793   1.76510   1.77035   1.79132   1.79290
 Alpha virt. eigenvalues --    1.81412   1.82706   1.83428   1.83638   1.86561
 Alpha virt. eigenvalues --    1.88946   1.89892   1.91538   1.94411   1.96704
 Alpha virt. eigenvalues --    1.97309   2.00706   2.01409   2.02099   2.03122
 Alpha virt. eigenvalues --    2.04290   2.04653   2.06523   2.07151   2.08626
 Alpha virt. eigenvalues --    2.09775   2.10852   2.14781   2.15652   2.16402
 Alpha virt. eigenvalues --    2.17882   2.19264   2.20238   2.21296   2.22564
 Alpha virt. eigenvalues --    2.23231   2.26262   2.27679   2.31240   2.35248
 Alpha virt. eigenvalues --    2.38423   2.40508   2.41592   2.43375   2.46245
 Alpha virt. eigenvalues --    2.49830   2.50765   2.52590   2.53916   2.54836
 Alpha virt. eigenvalues --    2.58097   2.60357   2.61576   2.63294   2.64566
 Alpha virt. eigenvalues --    2.67002   2.69398   2.70200   2.70903   2.72297
 Alpha virt. eigenvalues --    2.74863   2.77259   2.79117   2.79908   2.80979
 Alpha virt. eigenvalues --    2.82201   2.82369   2.83774   2.84301   2.85289
 Alpha virt. eigenvalues --    2.87377   2.89097   2.91261   2.93047   2.93716
 Alpha virt. eigenvalues --    2.96318   2.97082   2.99824   3.01130   3.04105
 Alpha virt. eigenvalues --    3.07143   3.08989   3.10661   3.12044   3.13616
 Alpha virt. eigenvalues --    3.15408   3.21241   3.21585   3.24392   3.25528
 Alpha virt. eigenvalues --    3.30298   3.32406   3.33398   3.37377   3.40615
 Alpha virt. eigenvalues --    3.42755   3.49446   3.53766   3.55514   3.60417
 Alpha virt. eigenvalues --    3.62887   3.67103   3.67731   3.70881   3.76270
 Alpha virt. eigenvalues --    3.78502   3.79155   3.82670   3.83845   3.89149
 Alpha virt. eigenvalues --    3.91236   3.93541   3.94531   3.97377   4.00705
 Alpha virt. eigenvalues --    4.08074   4.10657   4.12602   4.17991   4.25207
 Alpha virt. eigenvalues --    4.26108   4.27195   4.37186   4.50406   4.89710
 Alpha virt. eigenvalues --    4.98147   4.99366   5.14422   5.15688   5.23731
 Alpha virt. eigenvalues --    5.35470   5.49011   5.84572   5.86801   6.45935
 Alpha virt. eigenvalues --    6.57853   6.89636  23.73066  23.92593  23.98086
 Alpha virt. eigenvalues --   24.03576  24.05093  24.06005  24.07260  24.13255
 Alpha virt. eigenvalues --   24.21533  24.25384  24.28064  35.67542  50.08325
 Alpha virt. eigenvalues --   50.14860  66.96014
          Condensed to atoms (all electrons):
               1          2          3          4          5          6
     1  C    5.239146   0.387418   0.416404  -0.077270   0.017951   0.247722
     2  H    0.387418   0.508406  -0.021393   0.011249  -0.006759  -0.048177
     3  H    0.416404  -0.021393   0.519765  -0.007049   0.001314  -0.052871
     4  C   -0.077270   0.011249  -0.007049   5.198219   0.413085   0.250616
     5  H    0.017951  -0.006759   0.001314   0.413085   0.552204  -0.043650
     6  N    0.247722  -0.048177  -0.052871   0.250616  -0.043650   6.814871
     7  H    0.410409  -0.022037  -0.049255   0.004972   0.001509  -0.040876
     8  H   -0.006051   0.003139  -0.000311   0.401905  -0.029842  -0.096026
     9  H   -0.015029  -0.002998   0.002509   0.409251  -0.059625  -0.046857
    10  C   -0.194262   0.038867   0.011119  -0.032741  -0.040607   0.258481
    11  H    0.010245   0.001743  -0.003609  -0.019386   0.003437  -0.051840
    12  C    0.216503  -0.018998  -0.004966  -0.214594   0.008268  -0.261487
    13  C   -0.119021  -0.009134  -0.000002  -0.033877  -0.005343  -0.033666
    14  H    0.016587  -0.002142  -0.010730  -0.007890   0.000079  -0.028532
    15  O   -0.001432   0.000303   0.000348   0.006366   0.000064   0.008873
    16  C   -0.124345  -0.006434   0.000533   0.027730  -0.001140  -0.028739
    17  C    0.021110   0.001626   0.000129   0.018419   0.000781   0.027567
    18  C   -0.005929  -0.000294  -0.000721  -0.008440  -0.001159  -0.011531
    19  O    0.003570   0.000315   0.000137  -0.000284   0.000039  -0.001236
    20  C    0.009096   0.000366  -0.001234   0.001347   0.000083   0.004078
    21  C   -0.001823   0.000153   0.001161  -0.001164  -0.000285  -0.001999
    22  H    0.001139   0.000173  -0.000592   0.000010   0.000008   0.000153
    23  H   -0.000035  -0.000204   0.000397   0.000167   0.000127   0.001192
    24  H    0.000307   0.000032  -0.000039  -0.000004   0.000000   0.000036
    25  C   -0.002871  -0.000221   0.001009   0.000658  -0.000035   0.000038
    26  F    0.000013   0.000001   0.000013   0.000000   0.000000   0.000002
    27  H   -0.000081  -0.000005   0.000019   0.000013  -0.000001  -0.000005
               7          8          9         10         11         12
     1  C    0.410409  -0.006051  -0.015029  -0.194262   0.010245   0.216503
     2  H   -0.022037   0.003139  -0.002998   0.038867   0.001743  -0.018998
     3  H   -0.049255  -0.000311   0.002509   0.011119  -0.003609  -0.004966
     4  C    0.004972   0.401905   0.409251  -0.032741  -0.019386  -0.214594
     5  H    0.001509  -0.029842  -0.059625  -0.040607   0.003437   0.008268
     6  N   -0.040876  -0.096026  -0.046857   0.258481  -0.051840  -0.261487
     7  H    0.525406  -0.002816  -0.000981  -0.024117   0.001785   0.002074
     8  H   -0.002816   0.539468  -0.022208   0.095753  -0.012300  -0.032449
     9  H   -0.000981  -0.022208   0.550976  -0.013348  -0.000345   0.020364
    10  C   -0.024117   0.095753  -0.013348   8.858525   0.368835  -2.825045
    11  H    0.001785  -0.012300  -0.000345   0.368835   0.470294  -0.004031
    12  C    0.002074  -0.032449   0.020364  -2.825045  -0.004031  11.812968
    13  C   -0.002132   0.007685   0.001162  -1.993766   0.008274   0.902796
    14  H    0.000716  -0.001745   0.001185  -0.203330   0.003735   0.548566
    15  O    0.000492  -0.000785  -0.000173   0.141339   0.035781  -0.558330
    16  C    0.005489   0.008043   0.000988   1.274697  -0.018716  -3.564952
    17  C    0.000881   0.000173  -0.001277   0.461690  -0.009109  -0.253661
    18  C    0.000404   0.001371   0.000918  -0.149891  -0.008593   0.277821
    19  O   -0.001784  -0.000193  -0.000068  -0.020885   0.003576   0.059992
    20  C    0.000735   0.000017  -0.000115   0.008737  -0.004719   0.169254
    21  C    0.000548   0.000192   0.000141   0.034727   0.001366   0.132868
    22  H    0.000127   0.000030  -0.000034  -0.005108   0.000762  -0.017204
    23  H   -0.000805   0.000078  -0.000061  -0.013227  -0.002107   0.025239
    24  H    0.000011  -0.000001  -0.000004  -0.001151   0.000080   0.005752
    25  C   -0.000094   0.000095   0.000036   0.062702  -0.001157  -0.047340
    26  F    0.000005   0.000000   0.000000  -0.000355  -0.000018   0.001664
    27  H    0.000005   0.000002   0.000001   0.002373  -0.000013  -0.003834
              13         14         15         16         17         18
     1  C   -0.119021   0.016587  -0.001432  -0.124345   0.021110  -0.005929
     2  H   -0.009134  -0.002142   0.000303  -0.006434   0.001626  -0.000294
     3  H   -0.000002  -0.010730   0.000348   0.000533   0.000129  -0.000721
     4  C   -0.033877  -0.007890   0.006366   0.027730   0.018419  -0.008440
     5  H   -0.005343   0.000079   0.000064  -0.001140   0.000781  -0.001159
     6  N   -0.033666  -0.028532   0.008873  -0.028739   0.027567  -0.011531
     7  H   -0.002132   0.000716   0.000492   0.005489   0.000881   0.000404
     8  H    0.007685  -0.001745  -0.000785   0.008043   0.000173   0.001371
     9  H    0.001162   0.001185  -0.000173   0.000988  -0.001277   0.000918
    10  C   -1.993766  -0.203330   0.141339   1.274697   0.461690  -0.149891
    11  H    0.008274   0.003735   0.035781  -0.018716  -0.009109  -0.008593
    12  C    0.902796   0.548566  -0.558330  -3.564952  -0.253661   0.277821
    13  C   10.540608   0.089534   0.586973  -0.684875  -1.630991  -0.481555
    14  H    0.089534   0.526585  -0.012491  -0.046347  -0.050780   0.009723
    15  O    0.586973  -0.012491   7.977467   0.270579  -0.160761   0.019979
    16  C   -0.684875  -0.046347   0.270579  13.258687  -0.662498  -1.889179
    17  C   -1.630991  -0.050780  -0.160761  -0.662498  12.467451  -3.073304
    18  C   -0.481555   0.009723   0.019979  -1.889179  -3.073304  12.747448
    19  O    0.021449  -0.001250  -0.001376   0.011773   0.267161   0.008864
    20  C   -0.760916   0.011219  -0.020323  -3.119473  -0.129140   2.118919
    21  C    0.073364  -0.027287  -0.005521  -0.643496  -0.763953   0.047634
    22  H   -0.049686  -0.000113  -0.002602   0.001571   0.086884   0.563974
    23  H   -0.052308   0.003605  -0.005653  -0.136963  -0.000139   0.042695
    24  H   -0.015128  -0.000258   0.000002  -0.108809  -0.114843   0.087496
    25  C   -0.003629  -0.009685   0.000686   0.936052   0.084927  -3.679351
    26  F    0.008469  -0.000938   0.000066  -0.040213  -0.000788  -0.261439
    27  H    0.003175  -0.000191   0.000101   0.087075   0.054470  -0.146832
              19         20         21         22         23         24
     1  C    0.003570   0.009096  -0.001823   0.001139  -0.000035   0.000307
     2  H    0.000315   0.000366   0.000153   0.000173  -0.000204   0.000032
     3  H    0.000137  -0.001234   0.001161  -0.000592   0.000397  -0.000039
     4  C   -0.000284   0.001347  -0.001164   0.000010   0.000167  -0.000004
     5  H    0.000039   0.000083  -0.000285   0.000008   0.000127   0.000000
     6  N   -0.001236   0.004078  -0.001999   0.000153   0.001192   0.000036
     7  H   -0.001784   0.000735   0.000548   0.000127  -0.000805   0.000011
     8  H   -0.000193   0.000017   0.000192   0.000030   0.000078  -0.000001
     9  H   -0.000068  -0.000115   0.000141  -0.000034  -0.000061  -0.000004
    10  C   -0.020885   0.008737   0.034727  -0.005108  -0.013227  -0.001151
    11  H    0.003576  -0.004719   0.001366   0.000762  -0.002107   0.000080
    12  C    0.059992   0.169254   0.132868  -0.017204   0.025239   0.005752
    13  C    0.021449  -0.760916   0.073364  -0.049686  -0.052308  -0.015128
    14  H   -0.001250   0.011219  -0.027287  -0.000113   0.003605  -0.000258
    15  O   -0.001376  -0.020323  -0.005521  -0.002602  -0.005653   0.000002
    16  C    0.011773  -3.119473  -0.643496   0.001571  -0.136963  -0.108809
    17  C    0.267161  -0.129140  -0.763953   0.086884  -0.000139  -0.114843
    18  C    0.008864   2.118919   0.047634   0.563974   0.042695   0.087496
    19  O    7.926216  -0.375339   0.014519  -0.002291   0.262067  -0.023768
    20  C   -0.375339   8.771226  -0.345633   0.073120   0.121811   0.541592
    21  C    0.014519  -0.345633   7.964406  -0.220399  -0.005596   0.026872
    22  H   -0.002291   0.073120  -0.220399   0.477474  -0.000408   0.003201
    23  H    0.262067   0.121811  -0.005596  -0.000408   0.399109   0.001419
    24  H   -0.023768   0.541592   0.026872   0.003201   0.001419   0.473224
    25  C    0.041411  -0.596546  -0.135527  -0.132465  -0.000191  -0.101948
    26  F    0.000228  -0.016519   0.519443  -0.021976   0.000184   0.000411
    27  H    0.001000  -0.116702  -0.145188  -0.003753  -0.000252  -0.014113
              25         26         27
     1  C   -0.002871   0.000013  -0.000081
     2  H   -0.000221   0.000001  -0.000005
     3  H    0.001009   0.000013   0.000019
     4  C    0.000658   0.000000   0.000013
     5  H   -0.000035   0.000000  -0.000001
     6  N    0.000038   0.000002  -0.000005
     7  H   -0.000094   0.000005   0.000005
     8  H    0.000095   0.000000   0.000002
     9  H    0.000036   0.000000   0.000001
    10  C    0.062702  -0.000355   0.002373
    11  H   -0.001157  -0.000018  -0.000013
    12  C   -0.047340   0.001664  -0.003834
    13  C   -0.003629   0.008469   0.003175
    14  H   -0.009685  -0.000938  -0.000191
    15  O    0.000686   0.000066   0.000101
    16  C    0.936052  -0.040213   0.087075
    17  C    0.084927  -0.000788   0.054470
    18  C   -3.679351  -0.261439  -0.146832
    19  O    0.041411   0.000228   0.001000
    20  C   -0.596546  -0.016519  -0.116702
    21  C   -0.135527   0.519443  -0.145188
    22  H   -0.132465  -0.021976  -0.003753
    23  H   -0.000191   0.000184  -0.000252
    24  H   -0.101948   0.000411  -0.014113
    25  C    9.112181  -0.175234   0.591647
    26  F   -0.175234   9.150752  -0.019450
    27  H    0.591647  -0.019450   0.472887
 Mulliken charges:
               1
     1  C   -0.449474
     2  H    0.185004
     3  H    0.197914
     4  C   -0.341311
     5  H    0.189497
     6  N    0.133864
     7  H    0.189329
     8  H    0.146777
     9  H    0.175590
    10  C   -0.100011
    11  H    0.226032
    12  C   -0.377238
    13  C   -0.367461
    14  H    0.192175
    15  O   -0.279971
    16  C    1.192961
    17  C   -0.642025
    18  C   -0.209027
    19  O   -0.193842
    20  C   -0.344939
    21  C   -0.519525
    22  H    0.248006
    23  H    0.359857
    24  H    0.239632
    25  C    0.054853
    26  F   -0.144319
    27  H    0.237651
 Sum of Mulliken charges =   0.00000
 Mulliken charges with hydrogens summed into heavy atoms:
               1
     1  C    0.122773
     4  C    0.170554
     6  N    0.133864
    10  C    0.126021
    12  C   -0.185063
    13  C   -0.367461
    15  O   -0.279971
    16  C    1.192961
    17  C   -0.642025
    18  C    0.038979
    19  O    0.166015
    20  C   -0.105307
    21  C   -0.519525
    25  C    0.292504
    26  F   -0.144319
 Electronic spatial extent (au):  <R**2>=           4459.1896
 Charge=              0.0000 electrons
 Dipole moment (field-independent basis, Debye):
    X=              7.0272    Y=             -0.8861    Z=             -3.3666  Tot=              7.8422
 Quadrupole moment (field-independent basis, Debye-Ang):
   XX=            -61.8905   YY=            -92.1128   ZZ=            -93.4022
   XY=             -6.7791   XZ=             -0.4219   YZ=             -1.2965
 Traceless Quadrupole moment (field-independent basis, Debye-Ang):
   XX=             20.5780   YY=             -9.6443   ZZ=            -10.9337
   XY=             -6.7791   XZ=             -0.4219   YZ=             -1.2965
 Octapole moment (field-independent basis, Debye-Ang**2):
  XXX=            126.6570  YYY=            -10.1339  ZZZ=            -19.7231  XYY=             14.2665
  XXY=             15.4906  XXZ=            -19.4205  XZZ=             10.1195  YZZ=            -10.1382
  YYZ=              3.2070  XYZ=              8.2173
 Hexadecapole moment (field-independent basis, Debye-Ang**3):
 XXXX=          -3879.2652 YYYY=           -716.3550 ZZZZ=           -537.8207 XXXY=           -125.5096
 XXXZ=             58.9873 YYYX=             26.6972 YYYZ=              1.9877 ZZZX=            -24.4430
 ZZZY=             -8.5139 XXYY=           -923.3470 XXZZ=           -788.6065 YYZZ=           -197.0030
 XXYZ=             -3.6741 YYXZ=              0.8263 ZZXY=              8.3790
 N-N= 9.405310501230D+02 E-N=-3.591644057295D+03  KE= 7.283088276106D+02
 Calling FoFJK, ICntrl=  10005127 FMM=F ISym2X=0 I1Cent= 0 IOpClX= 0 NMat=1 NMatS=1 NMatT=0.
 ***** Axes restored to original set *****
 -------------------------------------------------------------------
 Center     Atomic                   Forces (Hartrees/Bohr)
 Number     Number              X              Y              Z
 -------------------------------------------------------------------
      1        6          -0.000823157   -0.001170081   -0.002578224
      2        1          -0.000072607    0.000061988    0.000136861
      3        1           0.000073721    0.000530911    0.000487056
      4        6          -0.000890301    0.002593144   -0.000356713
      5        1           0.000691398   -0.000562729   -0.000424472
      6        7           0.008256471   -0.001654612    0.007487422
      7        1           0.000024245    0.000369877    0.000483904
      8        1           0.000205840   -0.000344872    0.000068823
      9        1           0.000147485   -0.000250273   -0.000064614
     10        6          -0.003347791   -0.002569674   -0.005741143
     11        1           0.003798923    0.000220923    0.001663701
     12        6          -0.005192509   -0.012614718   -0.013832925
     13        6           0.037890484    0.028363060    0.040126927
     14        1          -0.007115387    0.001357954   -0.002308059
     15        8          -0.007915705   -0.014230389   -0.018315810
     16        6          -0.062842077    0.005283204    0.011923436
     17        6           0.015328479    0.022597493   -0.035174425
     18        6          -0.015961249   -0.002444012    0.003657756
     19        8           0.052841686   -0.042870112    0.010453709
     20        6           0.006783852    0.005465420   -0.003733088
     21        6           0.009714313   -0.010144423    0.004908036
     22        1           0.002209887   -0.000485152   -0.000967275
     23        1          -0.053179750    0.022147839    0.010880482
     24        1          -0.001140735    0.000019499   -0.000260289
     25        6           0.025303965   -0.012528681   -0.000042587
     26        9          -0.003852472    0.013069577   -0.008621309
     27        1          -0.000937009   -0.000211161    0.000142819
 -------------------------------------------------------------------
 Cartesian Forces:  Max     0.062842077 RMS     0.016112650

 GradGradGradGradGradGradGradGradGradGradGradGradGradGradGradGradGradGrad
 Berny optimization.
 FormGI is forming the generalized inverse of G from B-inverse, IUseBI=4.
 Internal  Forces:  Max     0.058489830 RMS     0.008994208
 Search for a local minimum.
 Step number   1 out of a maximum of  134
 All quantities printed in internal units (Hartrees-Bohrs-Radians)
 Mixed Optimization -- RFO/linear search
 Second derivative matrix not updated -- first step.
 ITU=  0
     Eigenvalues ---    0.01079   0.01115   0.01449   0.01481   0.01483
     Eigenvalues ---    0.01513   0.01541   0.01647   0.01847   0.02008
     Eigenvalues ---    0.02060   0.02065   0.02076   0.02087   0.02103
     Eigenvalues ---    0.02120   0.02298   0.02387   0.02473   0.02925
     Eigenvalues ---    0.07400   0.07431   0.07612   0.07636   0.16000
     Eigenvalues ---    0.16000   0.16000   0.16000   0.16000   0.16000
     Eigenvalues ---    0.16000   0.16000   0.16000   0.16000   0.16000
     Eigenvalues ---    0.16000   0.22000   0.22000   0.22379   0.23507
     Eigenvalues ---    0.24579   0.24662   0.24778   0.24997   0.24999
     Eigenvalues ---    0.25000   0.25000   0.25000   0.33812   0.33925
     Eigenvalues ---    0.34195   0.34288   0.34489   0.34814   0.34833
     Eigenvalues ---    0.35389   0.35725   0.35810   0.35941   0.35948
     Eigenvalues ---    0.38727   0.38780   0.39098   0.39397   0.39950
     Eigenvalues ---    0.41367   0.43523   0.44766   0.45739   0.46101
     Eigenvalues ---    0.50793   0.54139   0.59064   0.65348   0.70883
 RFO step:  Lambda=-2.62913298D-02 EMin= 1.07864524D-02
 Linear search not attempted -- first point.
 Iteration  1 RMS(Cart)=  0.06229851 RMS(Int)=  0.00129104
 Iteration  2 RMS(Cart)=  0.00220666 RMS(Int)=  0.00024090
 Iteration  3 RMS(Cart)=  0.00000247 RMS(Int)=  0.00024089
 Iteration  4 RMS(Cart)=  0.00000000 RMS(Int)=  0.00024089
 Variable       Old X    -DE/DX   Delta X   Delta X   Delta X     New X
                                 (Linear)    (Quad)   (Total)
    R1        2.05978   0.00002   0.00000   0.00004   0.00004   2.05983
    R2        2.07648   0.00024   0.00000   0.00065   0.00065   2.07713
    R3        2.72797  -0.00107   0.00000  -0.00257  -0.00257   2.72540
    R4        2.07003   0.00023   0.00000   0.00063   0.00063   2.07066
    R5        2.07456   0.00027   0.00000   0.00074   0.00074   2.07531
    R6        2.73321  -0.00038   0.00000  -0.00091  -0.00091   2.73230
    R7        2.05947   0.00020   0.00000   0.00054   0.00054   2.06000
    R8        2.06848   0.00008   0.00000   0.00022   0.00022   2.06870
    R9        2.55906   0.00893   0.00000   0.01573   0.01573   2.57479
   R10        2.05048  -0.00076   0.00000  -0.00199  -0.00199   2.04849
   R11        2.59074   0.00842   0.00000   0.01577   0.01577   2.60651
   R12        2.72381  -0.01676   0.00000  -0.03988  -0.03988   2.68393
   R13        2.04380   0.00083   0.00000   0.00215   0.00215   2.04594
   R14        2.43242   0.02102   0.00000   0.02860   0.02860   2.46101
   R15        2.73246   0.02291   0.00000   0.05534   0.05534   2.78780
   R16        2.78450  -0.02963   0.00000  -0.07757  -0.07753   2.70697
   R17        2.63980  -0.00461   0.00000  -0.00925  -0.00913   2.63067
   R18        2.46944   0.02863   0.00000   0.04212   0.04212   2.51156
   R19        2.65742  -0.01314   0.00000  -0.02763  -0.02773   2.62969
   R20        2.65357  -0.02210   0.00000  -0.04668  -0.04658   2.60698
   R21        2.04174   0.00181   0.00000   0.00470   0.00470   2.04644
   R22        1.98322  -0.05849   0.00000  -0.13737  -0.13737   1.84585
   R23        2.04514   0.00055   0.00000   0.00145   0.00145   2.04659
   R24        2.64056  -0.00905   0.00000  -0.01878  -0.01892   2.62165
   R25        2.64167  -0.01140   0.00000  -0.02385  -0.02389   2.61778
   R26        2.51689   0.01607   0.00000   0.02605   0.02605   2.54294
   R27        2.04163   0.00076   0.00000   0.00196   0.00196   2.04359
    A1        1.89540  -0.00043   0.00000  -0.00254  -0.00254   1.89286
    A2        1.91016  -0.00015   0.00000  -0.00130  -0.00130   1.90886
    A3        1.89262  -0.00043   0.00000  -0.00304  -0.00304   1.88959
    A4        1.94653   0.00089   0.00000   0.00515   0.00515   1.95168
    A5        1.88933  -0.00055   0.00000  -0.00207  -0.00208   1.88725
    A6        1.92867   0.00062   0.00000   0.00347   0.00347   1.93214
    A7        1.94672   0.00130   0.00000   0.00762   0.00761   1.95432
    A8        1.89099  -0.00063   0.00000  -0.00321  -0.00322   1.88777
    A9        1.89229  -0.00041   0.00000  -0.00109  -0.00110   1.89119
   A10        1.91084   0.00002   0.00000  -0.00047  -0.00047   1.91036
   A11        1.92965   0.00006   0.00000   0.00028   0.00028   1.92992
   A12        1.89213  -0.00041   0.00000  -0.00349  -0.00349   1.88864
   A13        2.06082   0.00057   0.00000   0.00158   0.00155   2.06237
   A14        2.10120  -0.00131   0.00000  -0.00536  -0.00538   2.09582
   A15        2.10932   0.00067   0.00000   0.00190   0.00187   2.11119
   A16        2.02787  -0.00379   0.00000  -0.02083  -0.02083   2.00704
   A17        2.20316  -0.00079   0.00000  -0.00320  -0.00320   2.19996
   A18        2.05213   0.00457   0.00000   0.02404   0.02404   2.07617
   A19        2.08191   0.01175   0.00000   0.04770   0.04770   2.12961
   A20        2.10253   0.00185   0.00000   0.01761   0.01761   2.12013
   A21        2.09875  -0.01360   0.00000  -0.06530  -0.06531   2.03345
   A22        2.11150   0.00716   0.00000   0.02607   0.02595   2.13745
   A23        2.09586   0.01602   0.00000   0.05811   0.05800   2.15385
   A24        2.07565  -0.02316   0.00000  -0.08369  -0.08380   1.99185
   A25        2.05329   0.00002   0.00000  -0.00009  -0.00026   2.05303
   A26        2.21629  -0.01320   0.00000  -0.04793  -0.04808   2.16822
   A27        2.01358   0.01320   0.00000   0.04817   0.04824   2.06182
   A28        2.06859   0.01190   0.00000   0.04296   0.04281   2.11140
   A29        2.14203  -0.01080   0.00000  -0.03878  -0.03899   2.10303
   A30        2.07256  -0.00109   0.00000  -0.00404  -0.00415   2.06841
   A31        2.09031   0.00025   0.00000   0.00026   0.00044   2.09075
   A32        2.13135  -0.00180   0.00000  -0.00907  -0.00921   2.12214
   A33        2.06151   0.00155   0.00000   0.00888   0.00873   2.07024
   A34        1.90829  -0.00649   0.00000  -0.03481  -0.03481   1.87348
   A35        2.05559   0.00102   0.00000   0.00577   0.00589   2.06148
   A36        2.10117  -0.00025   0.00000  -0.00190  -0.00214   2.09903
   A37        2.12641  -0.00077   0.00000  -0.00386  -0.00374   2.12267
   A38        2.18997  -0.01339   0.00000  -0.05021  -0.05015   2.13982
   A39        2.03776   0.00746   0.00000   0.02787   0.02783   2.06559
   A40        2.05546   0.00593   0.00000   0.02235   0.02231   2.07777
   A41        2.02930   0.01099   0.00000   0.04255   0.04238   2.07168
   A42        2.15030  -0.00602   0.00000  -0.02408  -0.02399   2.12631
   A43        2.10359  -0.00497   0.00000  -0.01848  -0.01839   2.08520
    D1       -0.25241  -0.00030   0.00000  -0.00738  -0.00737  -0.25978
    D2        3.05254   0.00015   0.00000   0.00527   0.00526   3.05780
    D3        1.84528  -0.00037   0.00000  -0.00813  -0.00812   1.83715
    D4       -1.13296   0.00008   0.00000   0.00452   0.00450  -1.12845
    D5       -2.33546  -0.00006   0.00000  -0.00496  -0.00494  -2.34040
    D6        0.96949   0.00040   0.00000   0.00769   0.00768   0.97718
    D7       -1.11838   0.00008   0.00000   0.00198   0.00200  -1.11639
    D8        1.85906  -0.00057   0.00000  -0.01144  -0.01146   1.84760
    D9        3.07207   0.00002   0.00000   0.00147   0.00149   3.07355
   D10       -0.23368  -0.00063   0.00000  -0.01195  -0.01197  -0.24564
   D11        0.98860   0.00047   0.00000   0.00590   0.00592   0.99452
   D12       -2.31715  -0.00017   0.00000  -0.00752  -0.00753  -2.32468
   D13        3.12105  -0.00009   0.00000  -0.00333  -0.00330   3.11774
   D14       -0.02940   0.00008   0.00000  -0.00030  -0.00031  -0.02970
   D15        0.14739   0.00039   0.00000   0.00973   0.00974   0.15713
   D16       -3.00305   0.00056   0.00000   0.01276   0.01274  -2.99031
   D17       -3.11289   0.00023   0.00000   0.00417   0.00413  -3.10875
   D18        0.02697   0.00032   0.00000   0.00635   0.00636   0.03333
   D19        0.01975   0.00036   0.00000   0.00704   0.00703   0.02678
   D20       -3.12359   0.00045   0.00000   0.00921   0.00926  -3.11433
   D21        0.02158  -0.00013   0.00000  -0.00510  -0.00554   0.01605
   D22       -3.14038   0.00088   0.00000   0.02268   0.02306  -3.11731
   D23       -3.11828  -0.00024   0.00000  -0.00735  -0.00774  -3.12601
   D24        0.00295   0.00077   0.00000   0.02042   0.02086   0.02381
   D25       -1.55085  -0.00016   0.00000  -0.00106  -0.00036  -1.55121
   D26        1.58313   0.00095   0.00000   0.02407   0.02425   1.60738
   D27        1.57080   0.00117   0.00000   0.02738   0.02720   1.59799
   D28       -1.57841   0.00227   0.00000   0.05251   0.05181  -1.52660
   D29       -0.00650   0.00122   0.00000   0.02939   0.03022   0.02372
   D30        3.14003  -0.00027   0.00000  -0.00418  -0.00331   3.13671
   D31       -3.14136   0.00036   0.00000   0.00757   0.00755  -3.13381
   D32        0.00517  -0.00114   0.00000  -0.02599  -0.02598  -0.02082
   D33       -3.13774   0.00018   0.00000   0.00320   0.00378  -3.13395
   D34        0.00873  -0.00056   0.00000  -0.01285  -0.01236  -0.00363
   D35       -0.00361   0.00122   0.00000   0.02767   0.02833   0.02472
   D36       -3.14032   0.00047   0.00000   0.01161   0.01218  -3.12814
   D37       -0.03971   0.00141   0.00000   0.02198   0.02164  -0.01808
   D38        3.09715   0.00282   0.00000   0.05407   0.05442  -3.13162
   D39       -3.14126   0.00042   0.00000   0.00934   0.00895  -3.13231
   D40       -0.00500   0.00052   0.00000   0.01169   0.01145   0.00644
   D41        0.00528  -0.00112   0.00000  -0.02442  -0.02390  -0.01862
   D42        3.14153  -0.00102   0.00000  -0.02207  -0.02140   3.12013
   D43        0.00217  -0.00083   0.00000  -0.01760  -0.01716  -0.01499
   D44       -3.13762  -0.00115   0.00000  -0.02475  -0.02460   3.12097
   D45        3.13907  -0.00013   0.00000  -0.00223  -0.00154   3.13753
   D46       -0.00071  -0.00045   0.00000  -0.00938  -0.00898  -0.00969
   D47        0.00304   0.00007   0.00000   0.00117   0.00102   0.00406
   D48       -3.13938  -0.00001   0.00000  -0.00055  -0.00054  -3.13992
   D49        3.13907   0.00018   0.00000   0.00365   0.00364  -3.14048
   D50       -0.00334   0.00009   0.00000   0.00193   0.00207  -0.00127
   D51       -0.00170   0.00010   0.00000   0.00170   0.00178   0.00009
   D52        3.14069   0.00018   0.00000   0.00337   0.00332  -3.13918
   D53        3.13807   0.00042   0.00000   0.00892   0.00927  -3.13584
   D54       -0.00272   0.00050   0.00000   0.01060   0.01081   0.00808
         Item               Value     Threshold  Converged?
 Maximum Force            0.058490     0.000450     NO 
 RMS     Force            0.008994     0.000300     NO 
 Maximum Displacement     0.231932     0.001800     NO 
 RMS     Displacement     0.062458     0.001200     NO 
 Predicted change in Energy=-1.429055D-02
 GradGradGradGradGradGradGradGradGradGradGradGradGradGradGradGradGradGrad

                          Input orientation:                          
 ---------------------------------------------------------------------
 Center     Atomic      Atomic             Coordinates (Angstroms)
 Number     Number       Type             X           Y           Z
 ---------------------------------------------------------------------
      1          6           0        3.222882    0.601582    2.663899
      2          1           0        4.131243    0.631080    3.265679
      3          1           0        3.092514    1.581078    2.182481
      4          6           0        4.627106   -1.042269    1.453530
      5          1           0        5.328167   -0.313681    1.024899
      6          7           0        3.324931   -0.462379    1.695613
      7          1           0        2.372160    0.435121    3.334135
      8          1           0        4.530376   -1.872808    0.754117
      9          1           0        5.055999   -1.427033    2.384332
     10          6           0        2.265513   -0.757810    0.891364
     11          1           0        2.439923   -1.555881    0.178801
     12          6           0        1.030096   -0.145043    0.918552
     13          6           0       -0.029806   -0.549067    0.063833
     14          1           0        0.819480    0.672685    1.596143
     15          8           0        0.090932   -1.530505   -0.783645
     16          6           0       -1.352767    0.103460    0.046259
     17          6           0       -2.350752   -0.393772    0.945562
     18          6           0       -1.696306    1.154542   -0.799394
     19          8           0       -2.081282   -1.389524    1.783573
     20          6           0       -3.617353    0.181388    0.982821
     21          6           0       -2.960117    1.703545   -0.731936
     22          1           0       -0.989579    1.565407   -1.509653
     23          1           0       -1.156245   -1.660631    1.625751
     24          1           0       -4.339381   -0.219280    1.683569
     25          6           0       -3.929683    1.239774    0.142039
     26          9           0       -3.253351    2.734197   -1.545927
     27          1           0       -4.905157    1.706510    0.150893
 ---------------------------------------------------------------------
                    Distance matrix (angstroms):
                    1          2          3          4          5
     1  C    0.000000
     2  H    1.090014   0.000000
     3  H    1.099169   1.776168   0.000000
     4  C    2.477717   2.515922   3.125427   0.000000
     5  H    2.820682   2.710404   3.150913   1.098204   0.000000
     6  N    1.442222   2.076271   2.113475   1.445869   2.117764
     7  H    1.095744   1.771288   1.777199   3.286964   3.825082
     8  H    3.388128   3.568853   4.004623   1.090106   1.772194
     9  H    2.748409   2.422349   3.597881   1.094708   1.778113
    10  C    2.430304   3.323753   2.796660   2.444190   3.097568
    11  H    3.382807   4.143933   3.779037   2.583118   3.255902
    12  C    2.900344   3.965915   2.971628   3.745623   4.302692
    13  C    4.320222   5.381347   4.333021   4.884807   5.448572
    14  H    2.630875   3.709024   2.517073   4.178447   4.650537
    15  O    5.122545   6.115030   5.243028   5.081358   5.672753
    16  C    5.294973   6.381021   5.148527   6.249159   6.765104
    17  C    5.916825   6.960570   5.921077   7.026314   7.679747
    18  C    6.041405   7.124546   5.657411   7.063085   7.404521
    19  O    5.733553   6.698877   5.979278   6.725472   7.525487
    20  C    7.056303   8.090390   6.958494   8.348054   8.959308
    21  C    7.139712   8.210876   6.718866   8.359527   8.709266
    22  H    6.007689   7.063964   5.504142   6.864953   7.061787
    23  H    5.037074   5.991563   5.373134   5.818863   6.650029
    24  H    7.669595   8.658964   7.663111   9.007115   9.690420
    25  C    7.610930   8.666381   7.320597   8.952450   9.428703
    26  F    8.013256   9.061285   7.449880   9.239050   9.462619
    27  H    8.579108   9.618470   8.252625  10.005832  10.467377
                    6          7          8          9         10
     6  N    0.000000
     7  H    2.097148   0.000000
     8  H    2.080583   4.079329   0.000000
     9  H    2.097972   3.401872   1.769915   0.000000
    10  C    1.362520   2.720586   2.528174   3.234752   0.000000
    11  H    2.068745   3.731597   2.191215   3.424153   1.084013
    12  C    2.443520   2.823609   3.906939   4.472125   1.379303
    13  C    3.731552   4.175278   4.798338   5.658706   2.448852
    14  H    2.752371   2.342620   4.578132   4.793553   2.152682
    15  O    4.212643   5.101353   4.710684   5.890558   2.851582
    16  C    4.992134   4.979480   6.246445   6.991515   3.814177
    17  C    5.725440   5.357075   7.040890   7.615619   4.630915
    18  C    5.835435   5.844317   7.095760   7.899004   4.712935
    19  O    5.485843   5.056354   6.708753   7.162618   4.482157
    20  C    7.008410   6.439513   8.405803   8.931870   5.958068
    21  C    7.077149   6.824589   8.432445   9.152582   6.000048
    22  H    5.744619   6.003426   6.885919   7.788891   4.664530
    23  H    4.639140   4.445266   5.756945   6.262746   3.614255
    24  H    7.668176   6.942434   9.070316   9.498574   6.673997
    25  C    7.611855   7.109864   9.035231   9.637542   6.552273
    26  F    7.999967   7.794045   9.332797  10.089999   6.970822
    27  H    8.650120   8.044178  10.109633  10.678575   7.618378
                   11         12         13         14         15
    11  H    0.000000
    12  C    2.127277   0.000000
    13  C    2.669542   1.420273   0.000000
    14  H    3.098581   1.082667   2.135869   0.000000
    15  O    2.538643   2.387260   1.302312   3.323886   0.000000
    16  C    4.141918   2.549645   1.475238   2.728519   2.332992
    17  C    4.988887   3.390093   2.487640   3.407486   3.200647
    18  C    5.040997   3.474698   2.534692   3.507130   3.225514
    19  O    4.800444   3.460877   2.805784   3.564022   3.365858
    20  C    6.352571   4.659343   3.774731   4.505888   4.449984
    21  C    6.372890   4.697147   3.780771   4.557189   4.446420
    22  H    4.935059   3.591783   2.805000   3.703460   3.358461
    23  H    3.877765   2.752676   2.223516   3.057569   2.716168
    24  H    7.071761   5.424210   4.615706   5.236133   5.237761
    25  C    6.956215   5.207696   4.291283   4.999055   4.969576
    26  F    7.334360   5.719406   4.874668   5.541695   5.472932
    27  H    8.037050   6.264565   5.372546   5.994081   6.025988
                   16         17         18         19         20
    16  C    0.000000
    17  C    1.432467   0.000000
    18  C    1.392092   2.422901   0.000000
    19  O    2.403746   1.329059   3.645846   0.000000
[...]
 Alpha  occ. eigenvalues --   -0.40908  -0.34355  -0.32116  -0.30654  -0.30153
 Alpha virt. eigenvalues --   -0.01449   0.02701   0.04406   0.04873   0.05016
 Alpha virt. eigenvalues --    0.05624   0.05765   0.06901   0.07059   0.07581
 Alpha virt. eigenvalues --    0.07759   0.07975   0.08488   0.09806   0.10310
 Alpha virt. eigenvalues --    0.11709   0.12248   0.12533   0.12814   0.13101
 Alpha virt. eigenvalues --    0.13725   0.14624   0.14726   0.14944   0.15868
 Alpha virt. eigenvalues --    0.16023   0.16269   0.16602   0.16730   0.17306
 Alpha virt. eigenvalues --    0.17454   0.17906   0.18571   0.18751   0.19035
 Alpha virt. eigenvalues --    0.19707   0.19967   0.20029   0.20583   0.20943
 Alpha virt. eigenvalues --    0.21537   0.21707   0.21904   0.22435   0.22779
 Alpha virt. eigenvalues --    0.23218   0.23382   0.23907   0.24033   0.24882
 Alpha virt. eigenvalues --    0.25436   0.25689   0.25930   0.27133   0.27860
 Alpha virt. eigenvalues --    0.27909   0.28405   0.28801   0.29425   0.29826
 Alpha virt. eigenvalues --    0.30259   0.30544   0.30886   0.31740   0.32484
 Alpha virt. eigenvalues --    0.33081   0.33186   0.33616   0.34236   0.34271
 Alpha virt. eigenvalues --    0.35015   0.35373   0.36229   0.36870   0.36974
 Alpha virt. eigenvalues --    0.37439   0.37768   0.37846   0.38813   0.39216
 Alpha virt. eigenvalues --    0.39449   0.39672   0.40492   0.41351   0.41835
 Alpha virt. eigenvalues --    0.42399   0.44198   0.44736   0.45561   0.45984
 Alpha virt. eigenvalues --    0.46415   0.47134   0.47597   0.47872   0.49534
 Alpha virt. eigenvalues --    0.50170   0.51706   0.52754   0.53299   0.53599
 Alpha virt. eigenvalues --    0.56518   0.56918   0.58285   0.60537   0.61206
 Alpha virt. eigenvalues --    0.62376   0.63766   0.64786   0.65055   0.65979
 Alpha virt. eigenvalues --    0.66439   0.67265   0.67591   0.68459   0.68924
 Alpha virt. eigenvalues --    0.69392   0.69958   0.70416   0.71425   0.72190
 Alpha virt. eigenvalues --    0.72428   0.72855   0.74294   0.74854   0.75460
 Alpha virt. eigenvalues --    0.77039   0.77296   0.77845   0.79655   0.79993
 Alpha virt. eigenvalues --    0.80334   0.81024   0.81808   0.83008   0.84180
 Alpha virt. eigenvalues --    0.85241   0.85647   0.86416   0.89588   0.89950
 Alpha virt. eigenvalues --    0.91434   0.92607   0.93274   0.94014   0.95791
 Alpha virt. eigenvalues --    0.97063   0.97394   0.98110   0.99149   0.99472
 Alpha virt. eigenvalues --    1.01202   1.01651   1.02007   1.04577   1.05587
 Alpha virt. eigenvalues --    1.09220   1.11013   1.11389   1.12906   1.13867
 Alpha virt. eigenvalues --    1.14031   1.15970   1.16759   1.18465   1.20002
 Alpha virt. eigenvalues --    1.20104   1.23350   1.25615   1.26289   1.28189
 Alpha virt. eigenvalues --    1.30690   1.32421   1.33964   1.34625   1.36104
 Alpha virt. eigenvalues --    1.37315   1.38777   1.40167   1.42571   1.48682
 Alpha virt. eigenvalues --    1.49132   1.51954   1.52697   1.53023   1.53724
 Alpha virt. eigenvalues --    1.55500   1.56367   1.57889   1.58699   1.59962
 Alpha virt. eigenvalues --    1.61170   1.62047   1.62431   1.63346   1.63745
 Alpha virt. eigenvalues --    1.64249   1.65979   1.66672   1.67856   1.68795
 Alpha virt. eigenvalues --    1.70104   1.71721   1.72932   1.73802   1.74305
 Alpha virt. eigenvalues --    1.75667   1.76840   1.77612   1.80419   1.80861
 Alpha virt. eigenvalues --    1.81496   1.82169   1.83874   1.86371   1.86975
 Alpha virt. eigenvalues --    1.87947   1.90057   1.90605   1.92132   1.94969
 Alpha virt. eigenvalues --    1.98623   2.01203   2.01828   2.01960   2.03956
 Alpha virt. eigenvalues --    2.04424   2.05845   2.06615   2.07488   2.08864
 Alpha virt. eigenvalues --    2.11666   2.13350   2.13487   2.15760   2.17278
 Alpha virt. eigenvalues --    2.18603   2.18967   2.20549   2.21650   2.22292
 Alpha virt. eigenvalues --    2.24630   2.27306   2.29453   2.31162   2.35812
 Alpha virt. eigenvalues --    2.37177   2.41293   2.41918   2.43890   2.45742
 Alpha virt. eigenvalues --    2.49763   2.50898   2.52720   2.53986   2.55750
 Alpha virt. eigenvalues --    2.57517   2.59397   2.61935   2.65607   2.67267
 Alpha virt. eigenvalues --    2.69786   2.70491   2.71609   2.73135   2.74526
 Alpha virt. eigenvalues --    2.76071   2.78058   2.79232   2.79529   2.80909
 Alpha virt. eigenvalues --    2.81439   2.83021   2.83355   2.85932   2.87136
 Alpha virt. eigenvalues --    2.88551   2.90228   2.91468   2.92774   2.95194
 Alpha virt. eigenvalues --    2.95805   2.97867   2.99498   3.01934   3.03362
 Alpha virt. eigenvalues --    3.05407   3.06915   3.10426   3.11817   3.13559
 Alpha virt. eigenvalues --    3.15626   3.19086   3.21006   3.26079   3.28201
 Alpha virt. eigenvalues --    3.29135   3.29579   3.32834   3.35661   3.38689
 Alpha virt. eigenvalues --    3.45234   3.49270   3.51962   3.57617   3.61047
 Alpha virt. eigenvalues --    3.64017   3.65679   3.67238   3.68874   3.76904
 Alpha virt. eigenvalues --    3.78795   3.81514   3.83853   3.85629   3.88867
 Alpha virt. eigenvalues --    3.89934   3.91343   3.92277   3.96211   4.00711
 Alpha virt. eigenvalues --    4.08829   4.09607   4.14432   4.16735   4.23051
 Alpha virt. eigenvalues --    4.25990   4.27274   4.37160   4.58795   4.94294
 Alpha virt. eigenvalues --    4.97757   4.98001   5.12913   5.15207   5.22150
 Alpha virt. eigenvalues --    5.36975   5.55622   5.83906   5.89025   6.45794
 Alpha virt. eigenvalues --    6.57598   6.87913  23.69100  23.90699  24.01363
 Alpha virt. eigenvalues --   24.03164  24.05574  24.06311  24.09477  24.17235
 Alpha virt. eigenvalues --   24.22729  24.25560  24.31640  35.66920  50.08905
 Alpha virt. eigenvalues --   50.14086  66.95791
          Condensed to atoms (all electrons):
               1          2          3          4          5          6
     1  C    5.331887   0.385996   0.401644  -0.128886   0.011133   0.272528
     2  H    0.385996   0.515098  -0.028739   0.011308  -0.008101  -0.048052
     3  H    0.401644  -0.028739   0.529513  -0.014706   0.006191  -0.068288
     4  C   -0.128886   0.011308  -0.014706   5.269608   0.400425   0.276416
     5  H    0.011133  -0.008101   0.006191   0.400425   0.552290  -0.037569
     6  N    0.272528  -0.048052  -0.068288   0.276416  -0.037569   6.768724
     7  H    0.403047  -0.023673  -0.046276   0.008834   0.001397  -0.027333
     8  H    0.002655   0.003454   0.000593   0.400128  -0.033987  -0.072348
     9  H   -0.023685   0.004034   0.001507   0.412953  -0.058443  -0.049880
    10  C   -0.374979  -0.003381   0.090879  -0.159089  -0.054864   0.126791
    11  H   -0.001248  -0.001798  -0.002058  -0.023080   0.004708  -0.063925
    12  C    0.584097   0.025786  -0.100328  -0.124817   0.026347  -0.166521
    13  C   -0.296983  -0.012343   0.040656  -0.018132   0.000573  -0.019317
    14  H    0.048337   0.003853  -0.027501  -0.014926   0.000763  -0.026477
    15  O    0.002285   0.000379  -0.000781   0.005208  -0.000053   0.010461
    16  C   -0.160593  -0.000584   0.020563   0.046937  -0.002651  -0.024892
    17  C   -0.062870  -0.006896   0.009083   0.000582   0.000822   0.012455
    18  C    0.020391   0.001999  -0.002596   0.003108  -0.000115   0.000210
    19  O   -0.006767  -0.000570   0.001455  -0.001422   0.000026  -0.004326
    20  C    0.003320  -0.000608  -0.003447   0.002780   0.000252   0.007717
    21  C    0.006348   0.000406  -0.000569  -0.001278  -0.000040  -0.001119
    22  H   -0.001340  -0.000051   0.000194   0.000444  -0.000046   0.000161
    23  H    0.001534   0.000827   0.000602   0.001669   0.000001   0.005498
    24  H   -0.000209  -0.000010   0.000024   0.000054   0.000001   0.000047
    25  C   -0.003128  -0.000254   0.000444  -0.000012  -0.000018  -0.000822
    26  F   -0.000005   0.000000   0.000003   0.000000   0.000000   0.000000
    27  H   -0.000066  -0.000003   0.000027   0.000010  -0.000001  -0.000021
               7          8          9         10         11         12
     1  C    0.403047   0.002655  -0.023685  -0.374979  -0.001248   0.584097
     2  H   -0.023673   0.003454   0.004034  -0.003381  -0.001798   0.025786
     3  H   -0.046276   0.000593   0.001507   0.090879  -0.002058  -0.100328
     4  C    0.008834   0.400128   0.412953  -0.159089  -0.023080  -0.124817
     5  H    0.001397  -0.033987  -0.058443  -0.054864   0.004708   0.026347
     6  N   -0.027333  -0.072348  -0.049880   0.126791  -0.063925  -0.166521
     7  H    0.532835  -0.004152  -0.000832  -0.029512   0.002132   0.050401
     8  H   -0.004152   0.524908  -0.017500   0.064018  -0.003106  -0.042089
     9  H   -0.000832  -0.017500   0.555051   0.009418  -0.000963   0.002209
    10  C   -0.029512   0.064018   0.009418   9.478809   0.411021  -5.367711
    11  H    0.002132  -0.003106  -0.000963   0.411021   0.458590  -0.079692
    12  C    0.050401  -0.042089   0.002209  -5.367711  -0.079692  22.458147
    13  C   -0.039902   0.012908   0.003756   0.064556   0.068876  -2.503692
    14  H    0.010389  -0.001621  -0.000663  -0.325123   0.004388   0.935114
    15  O   -0.000381   0.000249  -0.000022   0.042233   0.014215  -0.182506
    16  C   -0.025711   0.011456   0.000935   2.198944   0.007904  -9.183102
    17  C    0.020089  -0.001125   0.000358   0.419821   0.007107  -1.013861
    18  C   -0.009086   0.000656   0.000133  -0.355860  -0.027442   0.192806
    19  O    0.002197   0.000129  -0.000044  -0.003360   0.001712  -0.052273
    20  C    0.004077  -0.000549   0.000053  -0.222952  -0.005419   0.387779
    21  C   -0.000718   0.000147  -0.000009   0.006826  -0.001773   0.524525
    22  H    0.000095   0.000143   0.000013   0.013094  -0.000667  -0.101409
    23  H   -0.004619   0.000056  -0.000073  -0.039239  -0.001652  -0.021099
    24  H    0.000041   0.000005   0.000001  -0.000223  -0.000129  -0.006972
    25  C    0.000080  -0.000019   0.000023   0.025209   0.002718   0.016885
    26  F   -0.000001   0.000000   0.000000  -0.000087   0.000001   0.001403
    27  H   -0.000015   0.000001   0.000000   0.002348   0.000051  -0.004531
              13         14         15         16         17         18
     1  C   -0.296983   0.048337   0.002285  -0.160593  -0.062870   0.020391
     2  H   -0.012343   0.003853   0.000379  -0.000584  -0.006896   0.001999
     3  H    0.040656  -0.027501  -0.000781   0.020563   0.009083  -0.002596
     4  C   -0.018132  -0.014926   0.005208   0.046937   0.000582   0.003108
     5  H    0.000573   0.000763  -0.000053  -0.002651   0.000822  -0.000115
     6  N   -0.019317  -0.026477   0.010461  -0.024892   0.012455   0.000210
     7  H   -0.039902   0.010389  -0.000381  -0.025711   0.020089  -0.009086
     8  H    0.012908  -0.001621   0.000249   0.011456  -0.001125   0.000656
     9  H    0.003756  -0.000663  -0.000022   0.000935   0.000358   0.000133
    10  C    0.064556  -0.325123   0.042233   2.198944   0.419821  -0.355860
    11  H    0.068876   0.004388   0.014215   0.007904   0.007107  -0.027442
    12  C   -2.503692   0.935114  -0.182506  -9.183102  -1.013861   0.192806
    13  C   11.700111  -0.039028   0.746803  -1.491192  -0.863772  -1.335783
    14  H   -0.039028   0.595015  -0.000627  -0.240002  -0.215566   0.066472
    15  O    0.746803  -0.000627   8.128637  -0.577236  -0.081864   0.128177
    16  C   -1.491192  -0.240002  -0.577236  20.109618  -0.229295  -2.099768
    17  C   -0.863772  -0.215566  -0.081864  -0.229295  16.596069  -5.299801
    18  C   -1.335783   0.066472   0.128177  -2.099768  -5.299801  15.221917
    19  O    0.085546   0.003957  -0.003020  -0.007591   0.473724  -0.055219
    20  C   -0.241358   0.050830   0.021731  -2.793993  -2.529627   3.014333
    21  C    0.534431   0.019127   0.082948  -1.885446   0.024740  -0.735578
    22  H   -0.108452  -0.004911  -0.008432   0.152930   0.094999   0.564096
    23  H   -0.038096  -0.013351   0.000088  -0.081510   0.020205   0.048858
    24  H   -0.022982  -0.000686   0.000034  -0.079123  -0.123083   0.095445
    25  C    0.357681   0.001665   0.011900   0.696335  -0.196667  -3.229740
    26  F    0.016291  -0.000155  -0.000017  -0.035435   0.011264  -0.194547
    27  H    0.003284  -0.000471  -0.000130   0.091035   0.025446  -0.124243
              19         20         21         22         23         24
     1  C   -0.006767   0.003320   0.006348  -0.001340   0.001534  -0.000209
     2  H   -0.000570  -0.000608   0.000406  -0.000051   0.000827  -0.000010
     3  H    0.001455  -0.003447  -0.000569   0.000194   0.000602   0.000024
     4  C   -0.001422   0.002780  -0.001278   0.000444   0.001669   0.000054
     5  H    0.000026   0.000252  -0.000040  -0.000046   0.000001   0.000001
     6  N   -0.004326   0.007717  -0.001119   0.000161   0.005498   0.000047
     7  H    0.002197   0.004077  -0.000718   0.000095  -0.004619   0.000041
     8  H    0.000129  -0.000549   0.000147   0.000143   0.000056   0.000005
     9  H   -0.000044   0.000053  -0.000009   0.000013  -0.000073   0.000001
    10  C   -0.003360  -0.222952   0.006826   0.013094  -0.039239  -0.000223
    11  H    0.001712  -0.005419  -0.001773  -0.000667  -0.001652  -0.000129
    12  C   -0.052273   0.387779   0.524525  -0.101409  -0.021099  -0.006972
    13  C    0.085546  -0.241358   0.534431  -0.108452  -0.038096  -0.022982
    14  H    0.003957   0.050830   0.019127  -0.004911  -0.013351  -0.000686
    15  O   -0.003020   0.021731   0.082948  -0.008432   0.000088   0.000034
    16  C   -0.007591  -2.793993  -1.885446   0.152930  -0.081510  -0.079123
    17  C    0.473724  -2.529627   0.024740   0.094999   0.020205  -0.123083
    18  C   -0.055219   3.014333  -0.735578   0.564096   0.048858   0.095445
    19  O    7.997395  -0.431129   0.006622  -0.000861   0.233609  -0.021654
    20  C   -0.431129   9.654128  -0.455491   0.048478   0.136142   0.540474
    21  C    0.006622  -0.455491   8.236446  -0.213845  -0.002078   0.024060
    22  H   -0.000861   0.048478  -0.213845   0.439396   0.001323   0.003110
    23  H    0.233609   0.136142  -0.002078   0.001323   0.443685   0.003177
    24  H   -0.021654   0.540474   0.024060   0.003110   0.003177   0.469009
    25  C    0.020913  -0.607301   0.038337  -0.131107  -0.011040  -0.104686
    26  F    0.000161  -0.025154   0.479539  -0.021269   0.000071   0.000608
    27  H    0.001038  -0.113667  -0.156073  -0.003518  -0.000376  -0.016037
              25         26         27
     1  C   -0.003128  -0.000005  -0.000066
     2  H   -0.000254   0.000000  -0.000003
     3  H    0.000444   0.000003   0.000027
     4  C   -0.000012   0.000000   0.000010
     5  H   -0.000018   0.000000  -0.000001
     6  N   -0.000822   0.000000  -0.000021
     7  H    0.000080  -0.000001  -0.000015
     8  H   -0.000019   0.000000   0.000001
     9  H    0.000023   0.000000   0.000000
    10  C    0.025209  -0.000087   0.002348
    11  H    0.002718   0.000001   0.000051
    12  C    0.016885   0.001403  -0.004531
    13  C    0.357681   0.016291   0.003284
    14  H    0.001665  -0.000155  -0.000471
    15  O    0.011900  -0.000017  -0.000130
    16  C    0.696335  -0.035435   0.091035
    17  C   -0.196667   0.011264   0.025446
    18  C   -3.229740  -0.194547  -0.124243
    19  O    0.020913   0.000161   0.001038
    20  C   -0.607301  -0.025154  -0.113667
    21  C    0.038337   0.479539  -0.156073
    22  H   -0.131107  -0.021269  -0.003518
    23  H   -0.011040   0.000071  -0.000376
    24  H   -0.104686   0.000608  -0.016037
    25  C    8.615388  -0.199556   0.598883
    26  F   -0.199556   9.151598  -0.019624
    27  H    0.598883  -0.019624   0.473439
 Mulliken charges:
               1
     1  C   -0.414442
     2  H    0.181925
     3  H    0.191912
     4  C   -0.354117
     5  H    0.190958
     6  N    0.129881
     7  H    0.176597
     8  H    0.154988
     9  H    0.161670
    10  C   -0.017586
    11  H    0.229527
    12  C   -0.254897
    13  C   -0.604439
    14  H    0.171196
    15  O   -0.340278
    16  C    1.581463
    17  C   -1.092339
    18  C    0.111179
    19  O   -0.240251
    20  C   -0.441399
    21  C   -0.530484
    22  H    0.277432
    23  H    0.315788
    24  H    0.239705
    25  C    0.097887
    26  F   -0.165091
    27  H    0.243215
 Sum of Mulliken charges =   0.00000
 Mulliken charges with hydrogens summed into heavy atoms:
               1
     1  C    0.135991
     4  C    0.153500
     6  N    0.129881
    10  C    0.211941
    12  C   -0.083700
    13  C   -0.604439
    15  O   -0.340278
    16  C    1.581463
    17  C   -1.092339
    18  C    0.388611
    19  O    0.075537
    20  C   -0.201694
    21  C   -0.530484
    25  C    0.341102
    26  F   -0.165091
 Electronic spatial extent (au):  <R**2>=           4487.2805
 Charge=              0.0000 electrons
 Dipole moment (field-independent basis, Debye):
    X=              6.2548    Y=              2.9931    Z=             -1.5177  Tot=              7.0982
 Quadrupole moment (field-independent basis, Debye-Ang):
   XX=            -63.2862   YY=            -93.8165   ZZ=            -90.2657
   XY=             -5.8904   XZ=             -3.0558   YZ=              1.0931
 Traceless Quadrupole moment (field-independent basis, Debye-Ang):
   XX=             19.1699   YY=            -11.3604   ZZ=             -7.8095
   XY=             -5.8904   XZ=             -3.0558   YZ=              1.0931
 Octapole moment (field-independent basis, Debye-Ang**2):
  XXX=            130.6417  YYY=             -0.5830  ZZZ=             -2.0379  XYY=              5.5391
  XXY=             24.1459  XXZ=             -7.4722  XZZ=              5.0528  YZZ=              0.4673
  YYZ=             -8.9285  XYZ=             -0.7520
 Hexadecapole moment (field-independent basis, Debye-Ang**3):
 XXXX=          -4140.2037 YYYY=           -882.9312 ZZZZ=           -225.8467 XXXY=           -168.4389
 XXXZ=            -47.3677 YYYX=             28.0309 YYYZ=             13.3755 ZZZX=             11.2389
 ZZZY=             11.2181 XXYY=           -870.1622 XXZZ=           -838.8324 YYZZ=           -188.8158
 XXYZ=            -41.2028 YYXZ=              3.8582 ZZXY=             16.0704
 N-N= 9.435580447375D+02 E-N=-3.597836437455D+03  KE= 7.284899927024D+02
 1\1\GINC-SM4\FOpt\RwB97XD TD-FC\6-311++G(d,p)\C11H12F1N1O2\CA12053\02-
 Dec-2016\0\\# wb97xd 6-311++g** opt td=(nstates=1,root=1)\\title\\0,1\
 C,3.0319010073,0.0032208585,2.9940531902\H,3.8686649955,-0.1736670765,
 3.6702818112\H,2.9296296752,1.0871151694,2.8367422934\C,4.640024809,-0
 .86155874,1.3373568594\H,5.0981843334,0.0972615723,1.0564884167\N,3.26
 10147244,-0.7068298278,1.7561055986\H,2.1230444618,-0.3620749097,3.479
 3140208\H,4.6886753957,-1.53131486,0.4775325584\H,5.2260619547,-1.3041
 15154,2.1459194272\C,2.2870465133,-0.7127128009,0.8005698024\H,2.57233
 78793,-1.1933108145,-0.1280219119\C,1.0156484381,-0.2102168105,0.94764
 5704\C,0.0620199585,-0.2469964046,-0.0979124337\H,0.7193460826,0.31592
 74663,1.8460539347\O,0.4526689372,-0.6410834732,-1.2851264757\C,-1.312
 5761529,0.2277283158,-0.0163228724\C,-2.0875019874,0.0790294165,1.1576
 826827\C,-1.9092504142,0.8170181203,-1.1466506511\O,-1.6324497585,-0.5
 638689838,2.2657470728\C,-3.3773353547,0.5849777772,1.2038865299\C,-3.
 1986011617,1.2933845883,-1.063503346\H,-1.3500968611,0.9362922409,-2.0
 650443794\H,-0.8500824675,-1.0758597868,2.0347381539\H,-3.943824073,0.
 457789255,2.1183369721\C,-3.945041701,1.2036516085,0.0964708491\F,-3.7
 457059612,1.8769191881,-2.1500193437\H,-4.9542616219,1.5939796171,0.12
 49670073\\Version=ES64L-G09RevD.01\State=1-A\HF=-731.3653876\RMSD=6.05
 2e-09\RMSF=7.944e-06\Dipole=1.8050209,-0.2511431,1.2340821\PG=C01 [X(C
 11H12F1N1O2)]\\@


 MY GROUP MEETINGS AREN'T VERY STRUCTURED.
     -- PROF. M. S. GORDON, OCT. 5, 1984
 Job cpu time:       3 days 21 hours 24 minutes 27.7 seconds.
 File lengths (MBytes):  RWF=    172 Int=      0 D2E=      0 Chk=     25 Scr=      1
 Normal termination of Gaussian 09 at Fri Dec  2 18:25:12 2016.
