 Entering Gaussian System, Link 0=g09
 Input=mon-2.com
 Output=mon-2.out
 Initial command:
 /share/apps/gaussian/g09_D01/g09/l1.exe "/tmp/165412.1.all.q/Gau-13367.inp" -scrdir="/tmp/165412.1.all.q/"
 Entering Link 1 = /share/apps/gaussian/g09_D01/g09/l1.exe PID=     13368.
  
 Copyright (c) 1988,1990,1992,1993,1995,1998,2003,2009,2013,
            Gaussian, Inc.  All Rights Reserved.
  
 This is part of the Gaussian(R) 09 program.  It is based on
 the Gaussian(R) 03 system (copyright 2003, Gaussian, Inc.),
 the Gaussian(R) 98 system (copyright 1998, Gaussian, Inc.),
 the Gaussian(R) 94 system (copyright 1995, Gaussian, Inc.),
 the Gaussian 92(TM) system (copyright 1992, Gaussian, Inc.),
 the Gaussian 90(TM) system (copyright 1990, Gaussian, Inc.),
 the Gaussian 88(TM) system (copyright 1988, Gaussian, Inc.),
 the Gaussian 86(TM) system (copyright 1986, Carnegie Mellon
 University), and the Gaussian 82(TM) system (copyright 1983,
 Carnegie Mellon University). Gaussian is a federally registered
 trademark of Gaussian, Inc.
  
 This software contains proprietary and confidential information,
 including trade secrets, belonging to Gaussian, Inc.
  
 This software is provided under written license and may be
 used, copied, transmitted, or stored only in accord with that
 written license.
  
 The following legend is applicable only to US Government
 contracts under FAR:
  
                    RESTRICTED RIGHTS LEGEND
  
 Use, reproduction and disclosure by the US Government is
 subject to restrictions as set forth in subparagraphs (a)
 and (c) of the Commercial Computer Software - Restricted
 Rights clause in FAR 52.227-19.
  
 Gaussian, Inc.
 340 Quinnipiac St., Bldg. 40, Wallingford CT 06492
  
  
 ---------------------------------------------------------------
 Warning -- This program may not be used in any manner that
 competes with the business of Gaussian, Inc. or will provide
 assistance to any competitor of Gaussian, Inc.  The licensee
 of this program is prohibited from giving any competitor of
 Gaussian, Inc. access to this program.  By using this program,
 the user acknowledges that Gaussian, Inc. is engaged in the
 business of creating and licensing software in the field of
 computational chemistry and represents and warrants to the
 licensee that it is not a competitor of Gaussian, Inc. and that
 it will not use this program in any manner prohibited above.
 ---------------------------------------------------------------
  

 Cite this work as:
 Gaussian 09, Revision D.01,
 M. J. Frisch, G. W. Trucks, H. B. Schlegel, G. E. Scuseria, 
 M. A. Robb, J. R. Cheeseman, G. Scalmani, V. Barone, B. Mennucci, 
 G. A. Petersson, H. Nakatsuji, M. Caricato, X. Li, H. P. Hratchian, 
 A. F. Izmaylov, J. Bloino, G. Zheng, J. L. Sonnenberg, M. Hada, 
 M. Ehara, K. Toyota, R. Fukuda, J. Hasegawa, M. Ishida, T. Nakajima, 
 Y. Honda, O. Kitao, H. Nakai, T. Vreven, J. A. Montgomery, Jr., 
 J. E. Peralta, F. Ogliaro, M. Bearpark, J. J. Heyd, E. Brothers, 
 K. N. Kudin, V. N. Staroverov, T. Keith, R. Kobayashi, J. Normand, 
 K. Raghavachari, A. Rendell, J. C. Burant, S. S. Iyengar, J. Tomasi, 
 M. Cossi, N. Rega, J. M. Millam, M. Klene, J. E. Knox, J. B. Cross, 
 V. Bakken, C. Adamo, J. Jaramillo, R. Gomperts, R. E. Stratmann, 
 O. Yazyev, A. J. Austin, R. Cammi, C. Pomelli, J. W. Ochterski, 
 R. L. Martin, K. Morokuma, V. G. Zakrzewski, G. A. Voth, 
 P. Salvador, J. J. Dannenberg, S. Dapprich, A. D. Daniels, 
 O. Farkas, J. B. Foresman, J. V. Ortiz, J. Cioslowski, 
 and D. J. Fox, Gaussian, Inc., Wallingford CT, 2013.
 
 ******************************************
 Gaussian 09:  ES64L-G09RevD.01 24-Apr-2013
                 7-Nov-2017 
 ******************************************
 %chk=mon-2.chk
 %nproc=4
 Will use up to    4 processors via shared memory.
 %mem=28GB
 --------------------------------------
 #p wb97xd 6-31G* td=(nstates=4) nosymm
 --------------------------------------
 1/38=1/1;
 2/12=2,15=1,17=6,18=5,40=1/2;
 3/5=1,6=6,7=1,11=9,16=1,25=1,30=1,74=-58/1,2,8,3;
 4//1;
 5/5=2,38=5/2;
 8/6=1,10=2,108=4/1;
 9/41=4,42=1,70=2/14;
 6/7=2,8=2,9=2,10=2/1;
 99/5=1,9=1/99;
 Leave Link    1 at Tue Nov  7 12:59:00 2017, MaxMem=  3758096384 cpu:         0.3
 (Enter /share/apps/gaussian/g09_D01/g09/l101.exe)
 -----
 mon-2
 -----
 Symbolic Z-matrix:
 Charge =  0 Multiplicity = 1
 H                     4.58656  -0.25743  -2.30297 
 C                     5.36906  -0.10649  -3.03645 
 C                     6.58724  -0.72423  -2.82659 
 C                     5.12976   0.68592  -4.17209 
 C                     7.61296  -0.56463  -3.76237 
 H                     6.73985  -1.32017  -1.93703 
 C                     6.17972   0.83406  -5.11117 
 C                     3.83443   1.36697  -4.413 
 C                     7.41132   0.20325  -4.8951 
 H                     8.57307  -1.04209  -3.59248 
 O                     6.04227   1.56854  -6.22392 
 C                     2.714     1.1472   -3.50688 
 O                     3.71134   2.1185   -5.40343 
 H                     8.19044   0.34684  -5.63481 
 H                     5.12866   1.95548  -6.16569 
 C                     1.55318   1.81683  -3.68791 
 H                     2.81627   0.42317  -2.70782 
 C                     0.32854   1.6657   -2.93403 
 H                     1.52605   2.5349   -4.50778 
 C                     0.16283   0.72462  -1.90255 
 C                    -0.78363   2.45623  -3.26071 
 C                    -1.03434   0.57982  -1.23935 
 H                     0.98653   0.08354  -1.60425 
 C                    -1.98821   2.34102  -2.59716 
 H                    -0.6947    3.18537  -4.05929 
 C                    -2.14634   1.39958  -1.55736 
 H                    -1.10406  -0.17146  -0.46382 
 H                    -2.81212   2.97646  -2.89181 
 N                    -3.32456   1.27871  -0.87648 
 C                    -3.42095   0.31093   0.19569 
 C                    -4.42836   2.17386  -1.15564 
 H                    -3.29309  -0.71345  -0.17224 
 H                    -4.39665   0.38042   0.66715 
 H                    -2.66934   0.4867    0.97224 
 H                    -4.15983   3.22322  -0.98015 
 H                    -5.2633    1.92675  -0.49893 
 H                    -4.776     2.0825   -2.19153 
 
 NAtoms=     37 NQM=       37 NQMF=       0 NMMI=      0 NMMIF=      0
                NMic=       0 NMicF=      0.
                    Isotopes and Nuclear Properties:
 (Nuclear quadrupole moments (NQMom) in fm**2, nuclear magnetic moments (NMagM)
  in nuclear magnetons)

  Atom         1           2           3           4           5           6           7           8           9          10
 IAtWgt=           1          12          12          12          12           1          12          12          12           1
 AtmWgt=   1.0078250  12.0000000  12.0000000  12.0000000  12.0000000   1.0078250  12.0000000  12.0000000  12.0000000   1.0078250
 NucSpn=           1           0           0           0           0           1           0           0           0           1
 AtZEff=   0.0000000   0.0000000   0.0000000   0.0000000   0.0000000   0.0000000   0.0000000   0.0000000   0.0000000   0.0000000
 NQMom=    0.0000000   0.0000000   0.0000000   0.0000000   0.0000000   0.0000000   0.0000000   0.0000000   0.0000000   0.0000000
 NMagM=    2.7928460   0.0000000   0.0000000   0.0000000   0.0000000   2.7928460   0.0000000   0.0000000   0.0000000   2.7928460
 AtZNuc=   1.0000000   6.0000000   6.0000000   6.0000000   6.0000000   1.0000000   6.0000000   6.0000000   6.0000000   1.0000000

  Atom        11          12          13          14          15          16          17          18          19          20
 IAtWgt=          16          12          16           1           1          12           1          12           1          12
 AtmWgt=  15.9949146  12.0000000  15.9949146   1.0078250   1.0078250  12.0000000   1.0078250  12.0000000   1.0078250  12.0000000
 NucSpn=           0           0           0           1           1           0           1           0           1           0
 AtZEff=   0.0000000   0.0000000   0.0000000   0.0000000   0.0000000   0.0000000   0.0000000   0.0000000   0.0000000   0.0000000
 NQMom=    0.0000000   0.0000000   0.0000000   0.0000000   0.0000000   0.0000000   0.0000000   0.0000000   0.0000000   0.0000000
 NMagM=    0.0000000   0.0000000   0.0000000   2.7928460   2.7928460   0.0000000   2.7928460   0.0000000   2.7928460   0.0000000
 AtZNuc=   8.0000000   6.0000000   8.0000000   1.0000000   1.0000000   6.0000000   1.0000000   6.0000000   1.0000000   6.0000000

  Atom        21          22          23          24          25          26          27          28          29          30
 IAtWgt=          12          12           1          12           1          12           1           1          14          12
 AtmWgt=  12.0000000  12.0000000   1.0078250  12.0000000   1.0078250  12.0000000   1.0078250   1.0078250  14.0030740  12.0000000
 NucSpn=           0           0           1           0           1           0           1           1           2           0
 AtZEff=   0.0000000   0.0000000   0.0000000   0.0000000   0.0000000   0.0000000   0.0000000   0.0000000   0.0000000   0.0000000
 NQMom=    0.0000000   0.0000000   0.0000000   0.0000000   0.0000000   0.0000000   0.0000000   0.0000000   2.0440000   0.0000000
 NMagM=    0.0000000   0.0000000   2.7928460   0.0000000   2.7928460   0.0000000   2.7928460   2.7928460   0.4037610   0.0000000
 AtZNuc=   6.0000000   6.0000000   1.0000000   6.0000000   1.0000000   6.0000000   1.0000000   1.0000000   7.0000000   6.0000000

  Atom        31          32          33          34          35          36          37
 IAtWgt=          12           1           1           1           1           1           1
 AtmWgt=  12.0000000   1.0078250   1.0078250   1.0078250   1.0078250   1.0078250   1.0078250
 NucSpn=           0           1           1           1           1           1           1
 AtZEff=   0.0000000   0.0000000   0.0000000   0.0000000   0.0000000   0.0000000   0.0000000
 NQMom=    0.0000000   0.0000000   0.0000000   0.0000000   0.0000000   0.0000000   0.0000000
 NMagM=    0.0000000   2.7928460   2.7928460   2.7928460   2.7928460   2.7928460   2.7928460
 AtZNuc=   6.0000000   1.0000000   1.0000000   1.0000000   1.0000000   1.0000000   1.0000000
 Leave Link  101 at Tue Nov  7 12:59:00 2017, MaxMem=  3758096384 cpu:         0.3
 (Enter /share/apps/gaussian/g09_D01/g09/l202.exe)
                          Input orientation:                          
 ---------------------------------------------------------------------
 Center     Atomic      Atomic             Coordinates (Angstroms)
 Number     Number       Type             X           Y           Z
 ---------------------------------------------------------------------
      1          1           0        4.586562   -0.257428   -2.302973
      2          6           0        5.369065   -0.106492   -3.036445
      3          6           0        6.587239   -0.724225   -2.826585
      4          6           0        5.129762    0.685921   -4.172085
      5          6           0        7.612955   -0.564627   -3.762370
      6          1           0        6.739848   -1.320168   -1.937033
      7          6           0        6.179721    0.834057   -5.111168
      8          6           0        3.834426    1.366965   -4.413002
      9          6           0        7.411315    0.203251   -4.895100
     10          1           0        8.573074   -1.042087   -3.592484
     11          8           0        6.042273    1.568535   -6.223921
     12          6           0        2.713999    1.147196   -3.506876
     13          8           0        3.711335    2.118505   -5.403431
     14          1           0        8.190439    0.346837   -5.634811
     15          1           0        5.128658    1.955482   -6.165692
     16          6           0        1.553180    1.816832   -3.687907
     17          1           0        2.816266    0.423167   -2.707822
     18          6           0        0.328537    1.665698   -2.934030
     19          1           0        1.526054    2.534904   -4.507779
     20          6           0        0.162830    0.724619   -1.902547
     21          6           0       -0.783628    2.456231   -3.260710
     22          6           0       -1.034337    0.579822   -1.239351
     23          1           0        0.986531    0.083543   -1.604250
     24          6           0       -1.988207    2.341016   -2.597160
     25          1           0       -0.694703    3.185366   -4.059292
     26          6           0       -2.146340    1.399583   -1.557364
     27          1           0       -1.104064   -0.171463   -0.463821
     28          1           0       -2.812123    2.976462   -2.891809
     29          7           0       -3.324563    1.278708   -0.876482
     30          6           0       -3.420947    0.310926    0.195687
     31          6           0       -4.428357    2.173857   -1.155642
     32          1           0       -3.293094   -0.713452   -0.172237
     33          1           0       -4.396650    0.380419    0.667154
     34          1           0       -2.669344    0.486702    0.972238
     35          1           0       -4.159833    3.223223   -0.980153
     36          1           0       -5.263302    1.926751   -0.498926
     37          1           0       -4.775999    2.082495   -2.191528
 ---------------------------------------------------------------------
                    Distance matrix (angstroms):
                    1          2          3          4          5
     1  H    0.000000
     2  C    1.083085   0.000000
     3  C    2.120089   1.381877   0.000000
     4  C    2.162996   1.405298   2.433746   0.000000
     5  C    3.373910   2.402477   1.397590   2.810335   0.000000
     6  H    2.428985   2.135594   1.081545   3.407672   2.159864
     7  C    3.408145   2.417906   2.795288   1.416416   2.414484
     8  C    2.767053   2.533989   3.803653   1.483158   4.293210
     9  C    3.861422   2.778727   2.412067   2.441558   1.383247
    10  H    4.262723   3.383813   2.152017   3.895940   1.085660
    11  O    4.563668   3.663185   4.134686   2.412823   3.616166
    12  C    2.632270   2.973620   4.355112   2.547781   5.195708
    13  O    4.002989   3.647095   4.795005   2.362297   5.011479
    14  H    4.945120   3.862274   3.406399   3.409148   2.161085
    15  H    4.484578   3.755226   4.523044   2.363526   4.277691
    16  C    3.927086   4.322564   5.704437   3.782238   6.511357
    17  H    1.939345   2.627797   3.943457   2.750522   5.009594
    18  C    4.714597   5.343975   6.700345   5.054157   7.663109
    19  H    4.693080   4.889839   6.250114   4.064251   6.871178
    20  C    4.549084   5.392713   6.650265   5.461018   7.786235
    21  C    6.092630   6.668844   8.039493   6.239614   8.937553
    22  C    5.781590   6.686115   7.893559   6.827027   9.080256
    23  H    3.683028   4.614531   5.789173   4.911517   6.999079
    24  C    7.075736   7.766126   9.109699   7.475641  10.098653
    25  H    6.544406   6.975086   8.356503   6.339112   9.119638
    26  C    6.973779   7.806232   9.077273   7.764518  10.196274
    27  H    5.981061   6.965918   8.065007   7.303897   9.328527
    28  H    8.096006   8.743990  10.101849   8.364163  11.044430
    29  N    8.184161   9.064402  10.298469   9.093295  11.461044
    30  C    8.407528   9.374712  10.505687   9.608989  11.754990
    31  C    9.407246  10.233616  11.512354  10.132646  12.620916
    32  H    8.175388   9.143582  10.230672   9.428761  11.482731
    33  H    9.482964  10.455760  11.578958  10.689438  12.835280
    34  H    7.995556   9.002080  10.078776   9.345042  11.368706
    35  H    9.506009  10.301225  11.597035  10.145093  12.676241
    36  H   10.249148  11.118467  12.364505  11.092679  13.514993
    37  H    9.651177  10.412871  11.721952  10.197898  12.765617
                    6          7          8          9         10
     6  H    0.000000
     7  C    3.876798   0.000000
     8  C    4.668253   2.504363   0.000000
     9  C    3.394383   1.400509   3.792200   0.000000
    10  H    2.485672   3.399185   5.378807   2.144145   0.000000
    11  O    5.216189   1.340362   2.862629   2.346069   4.488292
    12  C    4.975917   3.831845   1.457642   4.988284   6.255322
    13  O    5.745631   2.797884   1.249365   4.197196   6.074980
    14  H    4.307747   2.134144   4.637707   1.083893   2.499324
    15  H    5.586356   1.863960   2.256836   3.145670   5.241261
    16  C    6.309347   4.939271   2.435616   6.195055   7.580332
    17  H    4.362090   4.154243   2.198873   5.093822   6.005867
    18  C    7.142430   6.298247   3.816786   7.493350   8.702761
    19  H    6.975239   4.991350   2.588754   6.342154   7.955697
    20  C    6.887634   6.819839   4.493953   7.859245   8.758387
    21  C    8.521502   7.385382   4.882694   8.654724   9.994807
    22  C    8.033348   8.191351   5.864854   9.210610  10.023481
    23  H    5.931425   6.311178   4.200805   7.219548   7.923115
    24  C    9.487833   8.677915   6.176497   9.909671  11.134483
    25  H    8.948540   7.341172   4.893332   8.677506  10.197105
    26  C    9.300835   9.070426   6.627616  10.194139  11.180756
    27  H    8.063302   8.698415   6.507801   9.606681  10.207523
    28  H   10.517261   9.506246   7.005792  10.780657  12.093899
    29  N   10.448507  10.414494   7.985355  11.513686  12.422420
    30  C   10.509554  10.982222   8.660004  11.969361  12.650590
    31  C   11.728068  11.400551   8.918243  12.571582  13.613144
    32  H   10.205025  10.794538   8.550659  11.735849  12.353624
    33  H   11.562672  12.060448   9.722750  13.053662  13.725224
    34  H   10.013068  10.744042   8.489682  11.667291  12.229712
    35  H   11.847408  11.387703   8.895972  12.583263  13.680061
    36  H   12.517438  12.385860   9.919779  13.525632  14.485489
    37  H   12.010729  11.406608   8.921118  12.624242  13.781271
                   11         12         13         14         15
    11  O    0.000000
    12  C    4.317090   0.000000
    13  O    2.531589   2.352667   0.000000
    14  H    2.540514   5.929593   4.822314   0.000000
    15  H    0.993887   3.681468   1.617536   3.499154   0.000000
    16  C    5.161877   1.352289   2.773385   7.071388   4.352320
    17  H    4.907335   1.083127   3.307813   6.120035   4.433059
    18  C    6.593906   2.507474   4.212635   8.416835   5.793857
    19  H    4.926992   2.082968   2.398131   7.104355   4.007887
    20  C    7.345360   3.043174   5.176002   8.860870   6.659495
    21  C    7.494101   3.742668   4.990992   9.519442   6.606421
    22  C    8.712170   4.417421   6.498347  10.221098   8.008981
    23  H    7.007645   2.781275   5.098961   8.258997   6.439575
    24  C    8.845266   4.935943   6.356843  10.807817   7.970748
    25  H    7.258554   4.009807   4.728432   9.459665   6.313562
    26  C    9.426488   5.242823   7.044248  11.161669   8.629676
    27  H    9.342188   5.057336   7.268546  10.648735   8.711030
    28  H    9.564808   5.853422   7.042715  11.640247   8.649665
    29  N   10.789658   6.587906   8.408471  12.494213   9.994534
    30  C   11.504151   7.214283   9.245913  12.993086  10.782739
    31  C   11.648517   7.589175   9.181577  13.514251  10.792814
    32  H   11.356911   7.118075   9.189526  12.760700  10.675702
    33  H   12.564619   8.280809  10.276788  14.076601  11.827937
    34  H   11.351094   7.034138   9.166515  12.712496  10.673153
    35  H   11.589567   7.612081   9.096212  13.508096  10.713218
    36  H   12.677536   8.561121  10.229127  14.487118  11.836634
    37  H   11.556788   7.661918   9.074825  13.527647  10.672973
                   16         17         18         19         20
    16  C    0.000000
    17  H    2.120909   0.000000
    18  C    1.446002   2.789955   0.000000
    19  H    1.090208   3.060053   2.160151   0.000000
    20  C    2.512670   2.789277   1.406075   3.452933   0.000000
    21  C    2.460081   4.171123   1.403059   2.626024   2.395594
    22  C    3.771056   4.124087   2.430738   4.589180   1.376228
    23  H    2.768936   2.163596   2.168983   3.838064   1.085561
    24  C    3.742448   5.174297   2.436563   4.004758   2.778882
    25  H    2.657779   4.667239   2.150029   2.357118   3.382630
    26  C    4.289494   5.186945   2.844476   4.845656   2.430431
    27  H    4.626985   4.556107   3.395503   5.531323   2.116109
    28  H    4.586326   6.183197   3.403473   4.650388   3.860024
    29  N    5.655622   6.464947   4.210511   6.188120   3.677191
    30  C    6.487834   6.880828   5.068448   7.179240   4.173390
    31  C    6.505276   7.613064   5.103815   6.842674   4.872079
    32  H    6.499896   6.711585   5.138489   7.250719   4.123764
    33  H    7.512011   7.963570   6.078475   8.154763   5.245064
    34  H    6.427745   6.605967   5.063225   7.199103   4.042549
    35  H    6.476757   7.713048   5.137021   6.726607   5.077327
    36  H    7.526361   8.509959   6.104633   7.907977   5.732206
    37  H    6.509089   7.788608   5.175067   6.729455   5.130241
                   21         22         23         24         25
    21  C    0.000000
    22  C    2.769415   0.000000
    23  H    3.392193   2.112665   0.000000
    24  C    1.380067   2.419776   3.864081   0.000000
    25  H    1.085025   3.854384   4.298265   2.126948   0.000000
    26  C    2.423814   1.417636   3.398388   1.411552   3.399399
    27  H    3.850979   1.082006   2.395035   3.412535   4.935918
    28  H    2.126387   3.411015   4.945357   1.081410   2.426958
    29  N    3.677969   2.421828   4.532505   2.423856   4.547723
    30  C    4.848140   2.797775   4.766271   3.738182   5.813747
    31  C    4.218423   3.750643   5.821656   2.839058   4.836787
    32  H    5.087531   2.813054   4.582691   4.112512   6.087825
    33  H    5.726346   3.870358   5.850303   4.505584   6.626570
    34  H    5.035158   2.751917   4.490685   4.079587   6.041381
    35  H    4.145839   4.101643   6.060705   2.847624   4.635694
    36  H    5.289166   4.499621   6.609052   3.911579   5.927260
    37  H    4.149922   4.143030   6.127598   2.828985   4.621887
                   26         27         28         29         30
    26  C    0.000000
    27  H    2.179532   0.000000
    28  H    2.170382   4.326895   0.000000
    29  N    1.366170   2.684008   2.684494   0.000000
    30  C    2.425487   2.456745   4.124122   1.447563   0.000000
    31  C    2.443048   4.126750   2.504129   1.448304   2.512265
    32  H    2.774624   2.273901   4.608999   2.113209   1.095931
    33  H    3.324315   3.524883   4.681494   2.083052   1.085867
    34  H    2.739666   2.223859   4.598929   2.115266   1.094914
    35  H    2.777227   4.596544   2.351944   2.118859   3.226457
    36  H    3.333714   4.658647   3.582745   2.078754   2.547086
    37  H    2.789917   4.642026   2.268563   2.117094   3.267020
                   31         32         33         34         35
    31  C    0.000000
    32  H    3.254606   0.000000
    33  H    2.557344   1.766060   0.000000
    34  H    3.235505   1.771795   1.757259   0.000000
    35  H    1.097301   4.111128   3.294122   3.677218   0.000000
    36  H    1.090628   3.310456   2.121785   3.311598   1.769198
    37  H    1.096477   3.754179   3.348586   4.122374   1.774359
                   36         37
    36  H    0.000000
    37  H    1.768226   0.000000
 Symmetry turned off by external request.
 Stoichiometry    C17H17NO2
 Framework group  C1[X(C17H17NO2)]
 Deg. of freedom   105
 Full point group                 C1      NOp   1
 Rotational constants (GHZ):      1.0992233      0.1076448      0.0983327
 Leave Link  202 at Tue Nov  7 12:59:00 2017, MaxMem=  3758096384 cpu:         0.0
 (Enter /share/apps/gaussian/g09_D01/g09/l301.exe)
 Standard basis: 6-31G(d) (6D, 7F)
 Ernie: Thresh=  0.10000D-02 Tol=  0.10000D-05 Strict=F.
   334 basis functions,   628 primitive gaussians,   334 cartesian basis functions
    71 alpha electrons       71 beta electrons
       nuclear repulsion energy      1362.0151950836 Hartrees.
 IExCor= 4639 DFT=T Ex+Corr=wB97XD ExCW=0 ScaHFX=  1.000000
 ScaDFX=  1.000000  1.000000  1.000000  1.000000 ScalE2=  1.000000  1.000000
 IRadAn=      0 IRanWt=     -1 IRanGd=            0 ICorTp=0 IEmpDi=121
  HFx wShort=  0.000000 wLong=  0.200000 cFull=  0.222036 cShort=  0.000000 cLong=  0.777964
  DFx wShort=  0.000000 wLong=  0.200000 cFull=  0.000000 cShort=  0.000000 cLong=  1.000000
 NAtoms=   37 NActive=   37 NUniq=   37 SFac= 1.00D+00 NAtFMM=   60 NAOKFM=F Big=F
 Integral buffers will be    131072 words long.
 Raffenetti 1 integral format.
 Two-electron integral symmetry is turned off.
 R6Disp:  Grimme-D2 Dispersion energy=       -0.0228842950 Hartrees.
 Nuclear repulsion after empirical dispersion term =     1361.9923107886 Hartrees.
 Leave Link  301 at Tue Nov  7 12:59:00 2017, MaxMem=  3758096384 cpu:         0.1
 (Enter /share/apps/gaussian/g09_D01/g09/l302.exe)
 NPDir=0 NMtPBC=     1 NCelOv=     1 NCel=       1 NClECP=     1 NCelD=      1
         NCelK=      1 NCelE2=     1 NClLst=     1 CellRange=     0.0.
 One-electron integrals computed using PRISM.
 NBasis=   334 RedAO= T EigKep=  3.71D-04  NBF=   334
 NBsUse=   334 1.00D-06 EigRej= -1.00D+00 NBFU=   334
 Precomputing XC quadrature grid using
 IXCGrd= 4 IRadAn=           0 IRanWt=          -1 IRanGd=           0 AccXCQ= 0.00D+00.
 Generated NRdTot=       0 NPtTot=           0 NUsed=           0 NTot=          32
 NSgBfM=   326   326   326   326   326 MxSgAt=    37 MxSgA2=    37.
 Leave Link  302 at Tue Nov  7 12:59:00 2017, MaxMem=  3758096384 cpu:         1.5
 (Enter /share/apps/gaussian/g09_D01/g09/l308.exe)
 Leave Link  308 at Tue Nov  7 12:59:00 2017, MaxMem=  3758096384 cpu:         0.1
 (Enter /share/apps/gaussian/g09_D01/g09/l303.exe)
 DipDrv:  MaxL=1.
 Leave Link  303 at Tue Nov  7 12:59:00 2017, MaxMem=  3758096384 cpu:         0.1
 (Enter /share/apps/gaussian/g09_D01/g09/l401.exe)
 ExpMin= 1.61D-01 ExpMax= 5.48D+03 ExpMxC= 8.25D+02 IAcc=1 IRadAn=         1 AccDes= 0.00D+00
 Harris functional with IExCor= 4639 and IRadAn=       1 diagonalized for initial guess.
 HarFok:  IExCor= 4639 AccDes= 0.00D+00 IRadAn=         1 IDoV= 1 UseB2=F ITyADJ=14
 ICtDFT=  3500011 ScaDFX=  1.000000  1.000000  1.000000  1.000000
 FoFCou: FMM=F IPFlag=           0 FMFlag=      100000 FMFlg1=           0
         NFxFlg=           0 DoJE=T BraDBF=F KetDBF=T FulRan=T
         wScrn=  0.000000 ICntrl=     500 IOpCl=  0 I1Cent=   200000004 NGrid=           0
         NMat0=    1 NMatS0=      1 NMatT0=    0 NMatD0=    1 NMtDS0=    0 NMtDT0=    0
 Symmetry not used in FoFCou.
 Harris En= -825.236327263729    
 JPrj=0 DoOrth=F DoCkMO=F.
 Leave Link  401 at Tue Nov  7 12:59:01 2017, MaxMem=  3758096384 cpu:         3.6
 (Enter /share/apps/gaussian/g09_D01/g09/l502.exe)
 Closed shell SCF:
 Using DIIS extrapolation, IDIIS=  1040.
 Two-electron integral symmetry not used.
 Keep R1 ints in memory in canonical form, NReq=3149053790.
 IVT=      357300 IEndB=      357300 NGot=  3758096384 MDV=   627840115
 LenX=   627840115 LenY=   627728118
 Requested convergence on RMS density matrix=1.00D-08 within 128 cycles.
 Requested convergence on MAX density matrix=1.00D-06.
 Requested convergence on             energy=1.00D-06.
 No special actions if energy rises.
 FoFCou: FMM=F IPFlag=           0 FMFlag=           0 FMFlg1=           0
         NFxFlg=           0 DoJE=F BraDBF=F KetDBF=F FulRan=T
         wScrn=  0.000000 ICntrl=     600 IOpCl=  0 I1Cent=           0 NGrid=           0
         NMat0=    1 NMatS0=  55945 NMatT0=    0 NMatD0=    1 NMtDS0=    0 NMtDT0=    0
 Symmetry not used in FoFCou.
 Integral accuracy reduced to 1.0D-05 until final iterations.

 Cycle   1  Pass 0  IDiag  1:
 E= -862.705387927100    
 DIIS: error= 6.35D-02 at cycle   1 NSaved=   1.
 NSaved= 1 IEnMin= 1 EnMin= -862.705387927100     IErMin= 1 ErrMin= 6.35D-02
 ErrMax= 6.35D-02  0.00D+00 EMaxC= 1.00D-01 BMatC= 8.34D-01 BMatP= 8.34D-01
 IDIUse=3 WtCom= 3.65D-01 WtEn= 6.35D-01
 Coeff-Com:  0.100D+01
 Coeff-En:   0.100D+01
 Coeff:      0.100D+01
 Gap=     0.297 Goal=   None    Shift=    0.000
 GapD=    0.297 DampG=1.000 DampE=0.500 DampFc=0.5000 IDamp=-1.
 Damping current iteration by 5.00D-01
 RMSDP=2.99D-03 MaxDP=1.12D-01              OVMax= 1.82D-01

 Cycle   2  Pass 0  IDiag  1:
 E= -862.817813632490     Delta-E=       -0.112425705390 Rises=F Damp=T
 DIIS: error= 3.32D-02 at cycle   2 NSaved=   2.
 NSaved= 2 IEnMin= 2 EnMin= -862.817813632490     IErMin= 2 ErrMin= 3.32D-02
 ErrMax= 3.32D-02  0.00D+00 EMaxC= 1.00D-01 BMatC= 1.76D-01 BMatP= 8.34D-01
 IDIUse=3 WtCom= 6.68D-01 WtEn= 3.32D-01
 Coeff-Com: -0.445D+00 0.145D+01
 Coeff-En:   0.000D+00 0.100D+01
 Coeff:     -0.297D+00 0.130D+01
 Gap=     0.281 Goal=   None    Shift=    0.000
 RMSDP=1.31D-03 MaxDP=4.26D-02 DE=-1.12D-01 OVMax= 1.70D-01

 Cycle   3  Pass 0  IDiag  1:
 E= -862.906796033568     Delta-E=       -0.088982401079 Rises=F Damp=F
 DIIS: error= 1.16D-02 at cycle   3 NSaved=   3.
 NSaved= 3 IEnMin= 3 EnMin= -862.906796033568     IErMin= 3 ErrMin= 1.16D-02
 ErrMax= 1.16D-02  0.00D+00 EMaxC= 1.00D-01 BMatC= 5.02D-02 BMatP= 1.76D-01
 IDIUse=3 WtCom= 8.84D-01 WtEn= 1.16D-01
 Coeff-Com: -0.314D+00 0.651D+00 0.663D+00
 Coeff-En:   0.000D+00 0.000D+00 0.100D+01
 Coeff:     -0.278D+00 0.576D+00 0.702D+00
 Gap=     0.266 Goal=   None    Shift=    0.000
 RMSDP=8.10D-04 MaxDP=3.75D-02 DE=-8.90D-02 OVMax= 7.23D-02

 Cycle   4  Pass 0  IDiag  1:
 E= -862.948845706885     Delta-E=       -0.042049673316 Rises=F Damp=F
 DIIS: error= 2.92D-03 at cycle   4 NSaved=   4.
 NSaved= 4 IEnMin= 4 EnMin= -862.948845706885     IErMin= 4 ErrMin= 2.92D-03
 ErrMax= 2.92D-03  0.00D+00 EMaxC= 1.00D-01 BMatC= 3.79D-03 BMatP= 5.02D-02
 IDIUse=3 WtCom= 9.71D-01 WtEn= 2.92D-02
 Coeff-Com: -0.136D+00 0.277D+00 0.382D+00 0.477D+00
 Coeff-En:   0.000D+00 0.000D+00 0.000D+00 0.100D+01
 Coeff:     -0.132D+00 0.269D+00 0.370D+00 0.493D+00
 Gap=     0.251 Goal=   None    Shift=    0.000
 RMSDP=1.80D-04 MaxDP=9.57D-03 DE=-4.20D-02 OVMax= 1.22D-02

 Cycle   5  Pass 0  IDiag  1:
 E= -862.952021026330     Delta-E=       -0.003175319445 Rises=F Damp=F
 DIIS: error= 3.81D-04 at cycle   5 NSaved=   5.
 NSaved= 5 IEnMin= 5 EnMin= -862.952021026330     IErMin= 5 ErrMin= 3.81D-04
 ErrMax= 3.81D-04  0.00D+00 EMaxC= 1.00D-01 BMatC= 8.39D-05 BMatP= 3.79D-03
 IDIUse=3 WtCom= 9.96D-01 WtEn= 3.81D-03
 Coeff-Com: -0.106D-02 0.945D-03 0.356D-01 0.135D+00 0.829D+00
 Coeff-En:   0.000D+00 0.000D+00 0.000D+00 0.000D+00 0.100D+01
 Coeff:     -0.106D-02 0.941D-03 0.354D-01 0.135D+00 0.830D+00
 Gap=     0.251 Goal=   None    Shift=    0.000
 RMSDP=5.47D-05 MaxDP=2.02D-03 DE=-3.18D-03 OVMax= 6.52D-03

 Cycle   6  Pass 0  IDiag  1:
 E= -862.952157242619     Delta-E=       -0.000136216289 Rises=F Damp=F
 DIIS: error= 2.36D-04 at cycle   6 NSaved=   6.
 NSaved= 6 IEnMin= 6 EnMin= -862.952157242619     IErMin= 6 ErrMin= 2.36D-04
 ErrMax= 2.36D-04  0.00D+00 EMaxC= 1.00D-01 BMatC= 2.61D-05 BMatP= 8.39D-05
 IDIUse=3 WtCom= 9.98D-01 WtEn= 2.36D-03
 Coeff-Com:  0.311D-01-0.640D-01-0.691D-01-0.537D-01 0.403D+00 0.753D+00
 Coeff-En:   0.000D+00 0.000D+00 0.000D+00 0.000D+00 0.000D+00 0.100D+01
 Coeff:      0.311D-01-0.639D-01-0.689D-01-0.536D-01 0.402D+00 0.753D+00
 Gap=     0.252 Goal=   None    Shift=    0.000
 RMSDP=2.98D-05 MaxDP=1.08D-03 DE=-1.36D-04 OVMax= 5.01D-03

 Cycle   7  Pass 0  IDiag  1:
 E= -862.952204857004     Delta-E=       -0.000047614385 Rises=F Damp=F
 DIIS: error= 1.03D-04 at cycle   7 NSaved=   7.
 NSaved= 7 IEnMin= 7 EnMin= -862.952204857004     IErMin= 7 ErrMin= 1.03D-04
 ErrMax= 1.03D-04  0.00D+00 EMaxC= 1.00D-01 BMatC= 2.38D-06 BMatP= 2.61D-05
 IDIUse=3 WtCom= 9.99D-01 WtEn= 1.03D-03
 Coeff-Com:  0.793D-02-0.162D-01-0.199D-01-0.247D-01 0.231D-01 0.239D+00
 Coeff-Com:  0.791D+00
 Coeff-En:   0.000D+00 0.000D+00 0.000D+00 0.000D+00 0.000D+00 0.000D+00
 Coeff-En:   0.100D+01
 Coeff:      0.793D-02-0.162D-01-0.199D-01-0.247D-01 0.231D-01 0.239D+00
 Coeff:      0.791D+00
 Gap=     0.252 Goal=   None    Shift=    0.000
 RMSDP=1.04D-05 MaxDP=2.54D-04 DE=-4.76D-05 OVMax= 1.53D-03

 Cycle   8  Pass 0  IDiag  1:
 E= -862.952209949820     Delta-E=       -0.000005092816 Rises=F Damp=F
 DIIS: error= 3.48D-05 at cycle   8 NSaved=   8.
 NSaved= 8 IEnMin= 8 EnMin= -862.952209949820     IErMin= 8 ErrMin= 3.48D-05
 ErrMax= 3.48D-05  0.00D+00 EMaxC= 1.00D-01 BMatC= 5.93D-07 BMatP= 2.38D-06
 IDIUse=1 WtCom= 1.00D+00 WtEn= 0.00D+00
 Coeff-Com: -0.310D-02 0.650D-02 0.599D-02 0.358D-03-0.877D-01-0.523D-01
 Coeff-Com:  0.350D+00 0.780D+00
 Coeff:     -0.310D-02 0.650D-02 0.599D-02 0.358D-03-0.877D-01-0.523D-01
 Coeff:      0.350D+00 0.780D+00
 Gap=     0.252 Goal=   None    Shift=    0.000
 RMSDP=5.78D-06 MaxDP=1.23D-04 DE=-5.09D-06 OVMax= 1.07D-03

 Initial convergence to 1.0D-05 achieved.  Increase integral accuracy.
 Cycle   9  Pass 1  IDiag  1:
 E= -862.951280387406     Delta-E=        0.000929562413 Rises=F Damp=F
 DIIS: error= 1.14D-04 at cycle   1 NSaved=   1.
 NSaved= 1 IEnMin= 1 EnMin= -862.951280387406     IErMin= 1 ErrMin= 1.14D-04
 ErrMax= 1.14D-04  0.00D+00 EMaxC= 1.00D-01 BMatC= 6.90D-06 BMatP= 6.90D-06
 IDIUse=3 WtCom= 9.99D-01 WtEn= 1.14D-03
 Coeff-Com:  0.100D+01
 Coeff-En:   0.100D+01
 Coeff:      0.100D+01
 Gap=     0.252 Goal=   None    Shift=    0.000
 RMSDP=5.78D-06 MaxDP=1.23D-04 DE= 9.30D-04 OVMax= 2.74D-04

 Cycle  10  Pass 1  IDiag  1:
 E= -862.951285673682     Delta-E=       -0.000005286276 Rises=F Damp=F
 DIIS: error= 1.31D-05 at cycle   2 NSaved=   2.
 NSaved= 2 IEnMin= 2 EnMin= -862.951285673682     IErMin= 2 ErrMin= 1.31D-05
 ErrMax= 1.31D-05  0.00D+00 EMaxC= 1.00D-01 BMatC= 1.70D-07 BMatP= 6.90D-06
 IDIUse=1 WtCom= 1.00D+00 WtEn= 0.00D+00
 Coeff-Com: -0.387D-01 0.104D+01
 Coeff:     -0.387D-01 0.104D+01
 Gap=     0.252 Goal=   None    Shift=    0.000
 RMSDP=2.55D-06 MaxDP=7.73D-05 DE=-5.29D-06 OVMax= 2.63D-04

 Cycle  11  Pass 1  IDiag  1:
 E= -862.951285766555     Delta-E=       -0.000000092872 Rises=F Damp=F
 DIIS: error= 2.04D-05 at cycle   3 NSaved=   3.
 NSaved= 3 IEnMin= 3 EnMin= -862.951285766555     IErMin= 2 ErrMin= 1.31D-05
 ErrMax= 2.04D-05  0.00D+00 EMaxC= 1.00D-01 BMatC= 1.62D-07 BMatP= 1.70D-07
 IDIUse=1 WtCom= 1.00D+00 WtEn= 0.00D+00
 Coeff-Com: -0.405D-01 0.532D+00 0.509D+00
 Coeff:     -0.405D-01 0.532D+00 0.509D+00
 Gap=     0.252 Goal=   None    Shift=    0.000
 RMSDP=1.29D-06 MaxDP=4.27D-05 DE=-9.29D-08 OVMax= 8.00D-05

 Cycle  12  Pass 1  IDiag  1:
 E= -862.951285908184     Delta-E=       -0.000000141629 Rises=F Damp=F
 DIIS: error= 3.36D-06 at cycle   4 NSaved=   4.
 NSaved= 4 IEnMin= 4 EnMin= -862.951285908184     IErMin= 4 ErrMin= 3.36D-06
 ErrMax= 3.36D-06  0.00D+00 EMaxC= 1.00D-01 BMatC= 5.49D-09 BMatP= 1.62D-07
 IDIUse=1 WtCom= 1.00D+00 WtEn= 0.00D+00
 Coeff-Com: -0.537D-02 0.428D-02 0.126D+00 0.875D+00
 Coeff:     -0.537D-02 0.428D-02 0.126D+00 0.875D+00
 Gap=     0.252 Goal=   None    Shift=    0.000
 RMSDP=4.34D-07 MaxDP=1.50D-05 DE=-1.42D-07 OVMax= 6.43D-05

 Cycle  13  Pass 1  IDiag  1:
 E= -862.951285917722     Delta-E=       -0.000000009538 Rises=F Damp=F
 DIIS: error= 1.82D-06 at cycle   5 NSaved=   5.
 NSaved= 5 IEnMin= 5 EnMin= -862.951285917722     IErMin= 5 ErrMin= 1.82D-06
 ErrMax= 1.82D-06  0.00D+00 EMaxC= 1.00D-01 BMatC= 1.57D-09 BMatP= 5.49D-09
 IDIUse=1 WtCom= 1.00D+00 WtEn= 0.00D+00
 Coeff-Com:  0.203D-02-0.551D-01-0.291D-02 0.399D+00 0.657D+00
 Coeff:      0.203D-02-0.551D-01-0.291D-02 0.399D+00 0.657D+00
 Gap=     0.252 Goal=   None    Shift=    0.000
 RMSDP=1.96D-07 MaxDP=6.48D-06 DE=-9.54D-09 OVMax= 2.72D-05

 Cycle  14  Pass 1  IDiag  1:
 E= -862.951285920139     Delta-E=       -0.000000002417 Rises=F Damp=F
 DIIS: error= 8.47D-07 at cycle   6 NSaved=   6.
 NSaved= 6 IEnMin= 6 EnMin= -862.951285920139     IErMin= 6 ErrMin= 8.47D-07
 ErrMax= 8.47D-07  0.00D+00 EMaxC= 1.00D-01 BMatC= 2.52D-10 BMatP= 1.57D-09
 IDIUse=1 WtCom= 1.00D+00 WtEn= 0.00D+00
 Coeff-Com:  0.208D-02-0.227D-01-0.350D-01-0.462D-01 0.239D+00 0.863D+00
 Coeff:      0.208D-02-0.227D-01-0.350D-01-0.462D-01 0.239D+00 0.863D+00
 Gap=     0.252 Goal=   None    Shift=    0.000
 RMSDP=1.29D-07 MaxDP=3.39D-06 DE=-2.42D-09 OVMax= 2.10D-05

 Cycle  15  Pass 1  IDiag  1:
 E= -862.951285920873     Delta-E=       -0.000000000734 Rises=F Damp=F
 DIIS: error= 2.90D-07 at cycle   7 NSaved=   7.
 NSaved= 7 IEnMin= 7 EnMin= -862.951285920873     IErMin= 7 ErrMin= 2.90D-07
 ErrMax= 2.90D-07  0.00D+00 EMaxC= 1.00D-01 BMatC= 5.09D-11 BMatP= 2.52D-10
 IDIUse=1 WtCom= 1.00D+00 WtEn= 0.00D+00
 Coeff-Com:  0.502D-03 0.705D-03-0.146D-01-0.860D-01-0.266D-01 0.342D+00
 Coeff-Com:  0.784D+00
 Coeff:      0.502D-03 0.705D-03-0.146D-01-0.860D-01-0.266D-01 0.342D+00
 Coeff:      0.784D+00
 Gap=     0.252 Goal=   None    Shift=    0.000
 RMSDP=5.94D-08 MaxDP=1.25D-06 DE=-7.34D-10 OVMax= 1.10D-05

 Cycle  16  Pass 1  IDiag  1:
 E= -862.951285921047     Delta-E=       -0.000000000174 Rises=F Damp=F
 DIIS: error= 2.23D-07 at cycle   8 NSaved=   8.
 NSaved= 8 IEnMin= 8 EnMin= -862.951285921047     IErMin= 8 ErrMin= 2.23D-07
 ErrMax= 2.23D-07  0.00D+00 EMaxC= 1.00D-01 BMatC= 9.36D-12 BMatP= 5.09D-11
 IDIUse=1 WtCom= 1.00D+00 WtEn= 0.00D+00
 Coeff-Com: -0.294D-03 0.517D-02 0.269D-02-0.151D-01-0.676D-01-0.934D-01
 Coeff-Com:  0.279D+00 0.889D+00
 Coeff:     -0.294D-03 0.517D-02 0.269D-02-0.151D-01-0.676D-01-0.934D-01
 Coeff:      0.279D+00 0.889D+00
 Gap=     0.252 Goal=   None    Shift=    0.000
 RMSDP=2.84D-08 MaxDP=4.74D-07 DE=-1.74D-10 OVMax= 4.89D-06

 Cycle  17  Pass 1  IDiag  1:
 E= -862.951285921057     Delta-E=       -0.000000000010 Rises=F Damp=F
 DIIS: error= 3.92D-08 at cycle   9 NSaved=   9.
 NSaved= 9 IEnMin= 9 EnMin= -862.951285921057     IErMin= 9 ErrMin= 3.92D-08
 ErrMax= 3.92D-08  0.00D+00 EMaxC= 1.00D-01 BMatC= 8.26D-13 BMatP= 9.36D-12
 IDIUse=1 WtCom= 1.00D+00 WtEn= 0.00D+00
 Coeff-Com: -0.154D-03 0.179D-02 0.225D-02 0.306D-02-0.218D-01-0.667D-01
 Coeff-Com:  0.187D-01 0.291D+00 0.771D+00
 Coeff:     -0.154D-03 0.179D-02 0.225D-02 0.306D-02-0.218D-01-0.667D-01
 Coeff:      0.187D-01 0.291D+00 0.771D+00
 Gap=     0.252 Goal=   None    Shift=    0.000
 RMSDP=7.23D-09 MaxDP=1.17D-07 DE=-1.00D-11 OVMax= 1.09D-06

 SCF Done:  E(RwB97XD) =  -862.951285921     A.U. after   17 cycles
            NFock= 17  Conv=0.72D-08     -V/T= 2.0092
 KE= 8.550672826706D+02 PE=-4.729146677787D+03 EE= 1.649135798406D+03
 Leave Link  502 at Tue Nov  7 13:00:25 2017, MaxMem=  3758096384 cpu:       219.3
 (Enter /share/apps/gaussian/g09_D01/g09/l801.exe)
 DoSCS=F DFT=T ScalE2(SS,OS)=  1.000000  1.000000
 ExpMin= 1.61D-01 ExpMax= 5.48D+03 ExpMxC= 8.25D+02 IAcc=3 IRadAn=         5 AccDes= 0.00D+00
 HarFok:  IExCor=  205 AccDes= 0.00D+00 IRadAn=         5 IDoV=-2 UseB2=F ITyADJ=14
 ICtDFT= 12500011 ScaDFX=  1.000000  1.000000  1.000000  1.000000
 Largest valence mixing into a core orbital is  7.27D-05
 Largest core mixing into a valence orbital is  1.52D-05
 Range of M.O.s used for correlation:    21   334
 NBasis=   334 NAE=    71 NBE=    71 NFC=    20 NFV=     0
 NROrb=    314 NOA=    51 NOB=    51 NVA=   263 NVB=   263
 Leave Link  801 at Tue Nov  7 13:00:26 2017, MaxMem=  3758096384 cpu:         1.1
 (Enter /share/apps/gaussian/g09_D01/g09/l914.exe)
 RHF ground state
 MDV=  3758096384 DFT=T DoStab=F Mixed=T DoRPA=T DoScal=F NonHer=T
 Would need an additional          5672200000 words for in-memory AO integral storage.
 Making orbital integer symmetry assigments:
    16 initial guesses have been made.
 Convergence on wavefunction:    0.001000000000000
 Davidson Disk Diagonalization:  ConvIn= 1.00D-03 SkipCon=T Conv= 1.00D-03.
 Max sub-space:   200 roots to seek:    16 dimension of matrix:        26826
 Iteration     1 Dimension    16 NMult     0 NNew     16
 CISAX will form    16 AO SS matrices at one time.
 NMat=    16 NSing=    16 JSym2X= 0.
 FoFJK:  IHMeth= 1 ICntrl=       0 DoSepK=T KAlg= 0 I1Cent=   0 FoldK=F
 IRaf=         1 NMat=  32 IRICut=       1 DoRegI=T DoRafI=F ISym2E= 0.
 FoFCou: FMM=F IPFlag=           0 FMFlag=      100000 FMFlg1=           0
         NFxFlg=           0 DoJE=F BraDBF=F KetDBF=F FulRan=T
         wScrn=  0.000000 ICntrl=     500 IOpCl=  0 I1Cent=           0 NGrid=           0
         NMat0=   16 NMatS0=     16 NMatT0=    0 NMatD0=   16 NMtDS0=    0 NMtDT0=    0
 Symmetry not used in FoFCou.
 New state      2 was old state      5
 New state      3 was old state      2
 New state      4 was old state      7
 Excitation Energies [eV] at current iteration:
 Root      1 :     4.083512511972251
 Root      2 :     4.284652331097203
 Root      3 :     4.747147937907774
 Root      4 :     5.070750801371064
 Root      5 :     5.784542308737024
 Root      6 :     6.173340422411134
 Root      7 :     6.353139185231495
 Root      8 :     6.426490706090362
 Root      9 :     6.604450597812895
 Root     10 :     6.909050808162214
 Root     11 :     7.184913990869296
 Root     12 :     7.429719721069349
 Root     13 :     7.714881127328662
 Root     14 :     7.905170652328643
 Root     15 :     8.217145681144640
 Root     16 :     8.287428184415287
 Iteration     2 Dimension    24 NMult    16 NNew      8
 CISAX will form     8 AO SS matrices at one time.
 NMat=     8 NSing=     8 JSym2X= 0.
 Root      1 not converged, maximum delta is    0.055102952835905
 Root      2 not converged, maximum delta is    0.115185233172674
 Root      3 not converged, maximum delta is    0.118871703912436
 Root      4 not converged, maximum delta is    0.070986009980328
 Excitation Energies [eV] at current iteration:
 Root      1 :     3.699331564894942   Change is   -0.384180947077310
 Root      2 :     3.939789562866247   Change is   -0.344862768230957
 Root      3 :     4.225217111491602   Change is   -0.521930826416172
 Root      4 :     4.761434217896342   Change is   -0.309316583474722
 Iteration     3 Dimension    32 NMult    24 NNew      8
 CISAX will form     8 AO SS matrices at one time.
 NMat=     8 NSing=     8 JSym2X= 0.
 Root      1 not converged, maximum delta is    0.015087834321236
 Root      2 not converged, maximum delta is    0.013349850205622
 Root      3 not converged, maximum delta is    0.039348552323625
 Root      4 not converged, maximum delta is    0.037569168625319
 Excitation Energies [eV] at current iteration:
 Root      1 :     3.670591299488008   Change is   -0.028740265406934
 Root      2 :     3.923416278717407   Change is   -0.016373284148840
 Root      3 :     4.176594725457011   Change is   -0.048622386034590
 Root      4 :     4.722329686673961   Change is   -0.039104531222381
 Iteration     4 Dimension    40 NMult    32 NNew      8
 CISAX will form     8 AO SS matrices at one time.
 NMat=     8 NSing=     8 JSym2X= 0.
 Root      1 not converged, maximum delta is    0.007928126240848
 Root      2 not converged, maximum delta is    0.003001454585463
 Root      3 not converged, maximum delta is    0.017082702536974
 Root      4 not converged, maximum delta is    0.004866147053296
 Excitation Energies [eV] at current iteration:
 Root      1 :     3.666958903583501   Change is   -0.003632395904508
 Root      2 :     3.921938694944553   Change is   -0.001477583772854
 Root      3 :     4.168155040382966   Change is   -0.008439685074046
 Root      4 :     4.720175599699453   Change is   -0.002154086974509
 Iteration     5 Dimension    48 NMult    40 NNew      8
 CISAX will form     8 AO SS matrices at one time.
 NMat=     8 NSing=     8 JSym2X= 0.
 Root      1 not converged, maximum delta is    0.001831376658170
 Root      2 has converged.
 Root      3 not converged, maximum delta is    0.003304197413615
 Root      4 not converged, maximum delta is    0.001673216729979
 Excitation Energies [eV] at current iteration:
 Root      1 :     3.666680162933513   Change is   -0.000278740649988
 Root      2 :     3.921834983284016   Change is   -0.000103711660538
 Root      3 :     4.167243421262423   Change is   -0.000911619120543
 Root      4 :     4.719995834269730   Change is   -0.000179765429723
 Iteration     6 Dimension    54 NMult    48 NNew      6
 CISAX will form     6 AO SS matrices at one time.
 NMat=     6 NSing=     6 JSym2X= 0.
 Root      1 has converged.
 Root      2 has converged.
 Root      3 has converged.
 Root      4 has converged.
 Excitation Energies [eV] at current iteration:
 Root      1 :     3.666655327993033   Change is   -0.000024834940479
 Root      2 :     3.921833685122606   Change is   -0.000001298161410
 Root      3 :     4.167165038974320   Change is   -0.000078382288103
 Root      4 :     4.719978675161021   Change is   -0.000017159108709
 Convergence achieved on expansion vectors.
 ***********************************************************************
 Excited states from <AA,BB:AA,BB> singles matrix:
 ***********************************************************************
 
 1PDM for each excited state written to RWF  633
 Ground to excited state transition densities written to RWF  633
 Ground to excited state transition electric dipole moments (Au):
       state          X           Y           Z        Dip. S.      Osc.
         1         3.3570     -0.2882     -1.3066     13.0593      1.1731
         2        -0.2857      0.0275      0.0982      0.0920      0.0088
         3         0.3406      0.0954     -0.1797      0.1574      0.0161
         4         0.3574     -0.3025      0.1437      0.2399      0.0277
 Ground to excited state transition velocity dipole moments (Au):
       state          X           Y           Z        Dip. S.      Osc.
         1        -0.4428      0.0357      0.1760      0.2283      1.1296
         2         0.0398     -0.0019     -0.0134      0.0018      0.0082
         3        -0.0492     -0.0113      0.0211      0.0030      0.0130
         4        -0.0594      0.0588     -0.0326      0.0080      0.0309
 Ground to excited state transition magnetic dipole moments (Au):
       state          X           Y           Z
         1         0.7383      2.3862      1.4598
         2        -0.1064      0.0823     -0.6036
         3         0.3555      1.1861      0.6988
         4         0.3102      0.5567      0.4077
 Ground to excited state transition velocity quadrupole moments (Au):
       state          XX          YY          ZZ          XY          XZ          YZ
         1        -2.8156      0.1569     -1.9239     -0.6037      2.8860      0.1339
         2         0.3072      0.0009      0.1368      0.0501     -0.2689     -0.0128
         3         1.7405     -0.0664      0.1860     -0.2143     -0.6886      0.2070
         4         0.0314      0.3064      0.1512     -0.3145      0.4240     -0.2736
 <0|del|b> * <b|rxdel|0> + <0|del|b> * <b|delr+rdel|0>
 Rotatory Strengths (R) in cgs (10**-40 erg-esu-cm/Gauss)
       state          XX          YY          ZZ    R(velocity)    E-M Angle
         1       348.6399    -60.2557   -208.9203     26.4879       89.37
         2        16.6645      9.9340     -8.2862      6.1041       81.75
         3       -25.0659    -19.2465    -29.7890    -24.7005      101.91
         4         9.7021    -52.3998     46.8299      1.3774       89.14
 1/2[<0|r|b>*<b|rxdel|0> + (<0|rxdel|b>*<b|r|0>)*]
 Rotatory Strengths (R) in cgs (10**-40 erg-esu-cm/Gauss)
       state          XX          YY          ZZ     R(length)
         1     -1752.5805    486.3097   1348.8051     27.5114
         2       -21.4915     -1.5985     41.9114      6.2738
         3       -85.6227    -80.0476     88.7903    -25.6266
         4       -78.3971    119.1021    -41.4239     -0.2397
  1/2[<0|del|b>*<b|r|0> + (<0|r|b>*<b|del|0>)*] (Au)
       state          X           Y           Z        Dip. S.   Osc.(frdel)
         1        -1.4864     -0.0103     -0.2300      1.7266      1.1511
         2        -0.0114     -0.0001     -0.0013      0.0127      0.0085
         3        -0.0167     -0.0011     -0.0038      0.0216      0.0144
         4        -0.0212     -0.0178     -0.0047      0.0437      0.0291

 Excitation energies and oscillator strengths:
 
 Excited state symmetry could not be determined.
 Excited State   1:      Singlet-?Sym    3.6667 eV  338.14 nm  f=1.1731  <S**2>=0.000
      66 -> 72        -0.10415
      70 -> 72        -0.17858
      70 -> 73         0.11919
      71 -> 72         0.64391
 This state for optimization and/or second-order correction.
 Total Energy, E(TD-HF/TD-KS) =  -862.816538811    
 Copying the excited state density for this state as the 1-particle RhoCI density.
 
 Excited state symmetry could not be determined.
 Excited State   2:      Singlet-?Sym    3.9218 eV  316.14 nm  f=0.0088  <S**2>=0.000
      68 -> 72         0.66291
      68 -> 73        -0.12299
      68 -> 76        -0.12587
 
 Excited state symmetry could not be determined.
 Excited State   3:      Singlet-?Sym    4.1672 eV  297.53 nm  f=0.0161  <S**2>=0.000
      69 -> 75        -0.10556
      70 -> 72         0.62433
      70 -> 73        -0.20472
      71 -> 72         0.18114
      71 -> 73         0.11427
 
 Excited state symmetry could not be determined.
 Excited State   4:      Singlet-?Sym    4.7200 eV  262.68 nm  f=0.0277  <S**2>=0.000
      67 -> 72        -0.30020
      67 -> 73        -0.16107
      71 -> 73        -0.16462
      71 -> 74         0.57426
 SavETr:  write IOETrn=   770 NScale= 10 NData=  16 NLR=1 NState=    4 LETran=      82.
 Leave Link  914 at Tue Nov  7 13:03:10 2017, MaxMem=  3758096384 cpu:       657.3
 (Enter /share/apps/gaussian/g09_D01/g09/l601.exe)
 Copying SCF densities to generalized density rwf, IOpCl= 0 IROHF=0.

 **********************************************************************

            Population analysis using the SCF density.

 **********************************************************************

 Alpha  occ. eigenvalues --  -19.27142 -19.25391 -14.48762 -10.38697 -10.36150
 Alpha  occ. eigenvalues --  -10.35532 -10.34174 -10.34046 -10.31933 -10.31128
 Alpha  occ. eigenvalues --  -10.31028 -10.30743 -10.30581 -10.30466 -10.30324
 Alpha  occ. eigenvalues --  -10.30209 -10.30135 -10.29561 -10.29156 -10.28975
 Alpha  occ. eigenvalues --   -1.15307  -1.11930  -1.06891  -0.96161  -0.95052
 Alpha  occ. eigenvalues --   -0.90005  -0.86414  -0.86154  -0.84011  -0.83427
 Alpha  occ. eigenvalues --   -0.83143  -0.78127  -0.73874  -0.71402  -0.70664
 Alpha  occ. eigenvalues --   -0.68711  -0.67157  -0.63829  -0.62541  -0.60640
 Alpha  occ. eigenvalues --   -0.59639  -0.58056  -0.56898  -0.56848  -0.54888
 Alpha  occ. eigenvalues --   -0.54567  -0.53472  -0.51935  -0.51735  -0.50962
 Alpha  occ. eigenvalues --   -0.50783  -0.50700  -0.50294  -0.49109  -0.47862
 Alpha  occ. eigenvalues --   -0.47272  -0.46290  -0.46235  -0.45857  -0.44952
 Alpha  occ. eigenvalues --   -0.44543  -0.42051  -0.41479  -0.41375  -0.40218
 Alpha  occ. eigenvalues --   -0.34107  -0.33644  -0.33231  -0.32714  -0.28710
 Alpha  occ. eigenvalues --   -0.26101
 Alpha virt. eigenvalues --   -0.00893   0.05388   0.06684   0.08932   0.12015
 Alpha virt. eigenvalues --    0.15668   0.16572   0.17572   0.17842   0.19183
 Alpha virt. eigenvalues --    0.19353   0.20327   0.22784   0.23740   0.24055
 Alpha virt. eigenvalues --    0.24190   0.24468   0.25149   0.25381   0.26275
 Alpha virt. eigenvalues --    0.26302   0.27250   0.28018   0.28242   0.29599
 Alpha virt. eigenvalues --    0.31916   0.32650   0.32997   0.33465   0.35249
 Alpha virt. eigenvalues --    0.37818   0.38275   0.40455   0.41131   0.41778
 Alpha virt. eigenvalues --    0.42446   0.43355   0.45256   0.48120   0.48829
 Alpha virt. eigenvalues --    0.52753   0.53040   0.56587   0.56791   0.58753
 Alpha virt. eigenvalues --    0.59226   0.59921   0.60693   0.60947   0.61283
 Alpha virt. eigenvalues --    0.62921   0.63512   0.63962   0.64705   0.65691
 Alpha virt. eigenvalues --    0.66480   0.66808   0.66907   0.67095   0.67616
 Alpha virt. eigenvalues --    0.68095   0.68598   0.69594   0.69735   0.70313
 Alpha virt. eigenvalues --    0.70439   0.71545   0.71988   0.72782   0.73149
 Alpha virt. eigenvalues --    0.73859   0.75899   0.76434   0.77275   0.78990
 Alpha virt. eigenvalues --    0.79303   0.81456   0.82335   0.82766   0.83107
 Alpha virt. eigenvalues --    0.86832   0.87670   0.88507   0.89160   0.90473
 Alpha virt. eigenvalues --    0.90812   0.91765   0.92354   0.93691   0.94517
 Alpha virt. eigenvalues --    0.94784   0.95541   0.95704   0.96425   0.97892
 Alpha virt. eigenvalues --    0.98915   0.99855   1.01143   1.01603   1.02759
 Alpha virt. eigenvalues --    1.03594   1.03791   1.04520   1.05806   1.06410
 Alpha virt. eigenvalues --    1.08025   1.08052   1.08317   1.09392   1.11017
 Alpha virt. eigenvalues --    1.11753   1.12035   1.13899   1.15103   1.15875
 Alpha virt. eigenvalues --    1.17605   1.19665   1.21243   1.22044   1.26135
 Alpha virt. eigenvalues --    1.26742   1.27837   1.28189   1.31152   1.32223
 Alpha virt. eigenvalues --    1.33021   1.34038   1.36332   1.37985   1.38154
 Alpha virt. eigenvalues --    1.38730   1.40704   1.42482   1.44539   1.45073
 Alpha virt. eigenvalues --    1.47081   1.48315   1.49399   1.49779   1.51996
 Alpha virt. eigenvalues --    1.53196   1.53383   1.54137   1.55896   1.56719
 Alpha virt. eigenvalues --    1.56890   1.58359   1.59079   1.59932   1.61530
 Alpha virt. eigenvalues --    1.65596   1.66759   1.69556   1.73172   1.80006
 Alpha virt. eigenvalues --    1.82070   1.82807   1.85480   1.86046   1.86458
 Alpha virt. eigenvalues --    1.87806   1.89288   1.89667   1.90176   1.92674
 Alpha virt. eigenvalues --    1.93729   1.94710   1.95305   1.98454   1.99149
 Alpha virt. eigenvalues --    2.00348   2.00617   2.02581   2.03861   2.04276
 Alpha virt. eigenvalues --    2.06012   2.07815   2.08174   2.09228   2.09438
 Alpha virt. eigenvalues --    2.11329   2.12226   2.15001   2.16812   2.18301
 Alpha virt. eigenvalues --    2.19194   2.19357   2.20804   2.22843   2.23339
 Alpha virt. eigenvalues --    2.24004   2.25345   2.27537   2.29496   2.31195
 Alpha virt. eigenvalues --    2.31797   2.32690   2.35107   2.36903   2.37783
 Alpha virt. eigenvalues --    2.39453   2.40169   2.40562   2.40694   2.41086
 Alpha virt. eigenvalues --    2.46818   2.47481   2.49087   2.51307   2.56034
 Alpha virt. eigenvalues --    2.57464   2.60611   2.62168   2.62829   2.63373
 Alpha virt. eigenvalues --    2.64672   2.68176   2.68967   2.70024   2.70963
 Alpha virt. eigenvalues --    2.72254   2.75031   2.77917   2.78700   2.79455
 Alpha virt. eigenvalues --    2.81655   2.83548   2.87737   2.90835   2.93280
 Alpha virt. eigenvalues --    2.95504   2.98852   3.00461   3.02505   3.05646
 Alpha virt. eigenvalues --    3.06767   3.13903   3.18103   3.24326   3.33159
 Alpha virt. eigenvalues --    3.38572   3.52799   3.55234   4.09445   4.12719
 Alpha virt. eigenvalues --    4.13197   4.19055   4.20329   4.21915   4.23212
 Alpha virt. eigenvalues --    4.24141   4.30954   4.34121   4.36226   4.40025
 Alpha virt. eigenvalues --    4.43068   4.45269   4.48982   4.54112   4.60958
 Alpha virt. eigenvalues --    4.79035   4.86149   4.89384
          Condensed to atoms (all electrons):
               1          2          3          4          5          6
     1  H    0.544239   0.360210  -0.037900  -0.035313   0.004195  -0.004268
     2  C    0.360210   4.986031   0.544320   0.492631  -0.037899  -0.034676
     3  C   -0.037900   0.544320   4.903346  -0.025920   0.535914   0.370999
     4  C   -0.035313   0.492631  -0.025920   5.154967  -0.029178   0.002697
     5  C    0.004195  -0.037899   0.535914  -0.029178   4.861133  -0.037078
     6  H   -0.004268  -0.034676   0.370999   0.002697  -0.037078   0.539042
     7  C    0.002828  -0.036236  -0.035219   0.439294  -0.020765   0.000650
     8  C   -0.009702  -0.048663   0.004856   0.333495   0.000082  -0.000118
     9  C    0.000397  -0.036871  -0.039212  -0.059214   0.547102   0.003484
    10  H   -0.000171   0.004132  -0.037934   0.000451   0.368214  -0.003835
    11  O   -0.000041   0.004178   0.000055  -0.064644   0.003216   0.000002
    12  C    0.003438  -0.003557   0.000332  -0.098356  -0.000007   0.000013
    13  O   -0.000004   0.004098  -0.000030  -0.078260  -0.000015   0.000000
    14  H    0.000013   0.000212   0.003797   0.005783  -0.038135  -0.000124
    15  H   -0.000002   0.000001   0.000001  -0.015847  -0.000165   0.000000
    16  C    0.000453   0.000241  -0.000012   0.010527   0.000001   0.000000
    17  H    0.004483   0.002971   0.000545  -0.007971  -0.000008  -0.000004
    18  C   -0.000029  -0.000017   0.000000  -0.000060   0.000000   0.000000
    19  H   -0.000002  -0.000020   0.000000   0.001048   0.000000   0.000000
    20  C    0.000000   0.000005   0.000000   0.000004   0.000000   0.000000
    21  C    0.000000   0.000000   0.000000  -0.000001   0.000000   0.000000
    22  C    0.000000   0.000000   0.000000   0.000000   0.000000   0.000000
    23  H   -0.000004  -0.000024   0.000000   0.000014   0.000000   0.000000
    24  C    0.000000   0.000000   0.000000   0.000000   0.000000   0.000000
    25  H    0.000000   0.000000   0.000000   0.000000   0.000000   0.000000
    26  C    0.000000   0.000000   0.000000   0.000000   0.000000   0.000000
    27  H    0.000000   0.000000   0.000000   0.000000   0.000000   0.000000
    28  H    0.000000   0.000000   0.000000   0.000000   0.000000   0.000000
    29  N    0.000000   0.000000   0.000000   0.000000   0.000000   0.000000
    30  C    0.000000   0.000000   0.000000   0.000000   0.000000   0.000000
    31  C    0.000000   0.000000   0.000000   0.000000   0.000000   0.000000
    32  H    0.000000   0.000000   0.000000   0.000000   0.000000   0.000000
    33  H    0.000000   0.000000   0.000000   0.000000   0.000000   0.000000
    34  H    0.000000   0.000000   0.000000   0.000000   0.000000   0.000000
    35  H    0.000000   0.000000   0.000000   0.000000   0.000000   0.000000
    36  H    0.000000   0.000000   0.000000   0.000000   0.000000   0.000000
    37  H    0.000000   0.000000   0.000000   0.000000   0.000000   0.000000
               7          8          9         10         11         12
     1  H    0.002828  -0.009702   0.000397  -0.000171  -0.000041   0.003438
     2  C   -0.036236  -0.048663  -0.036871   0.004132   0.004178  -0.003557
     3  C   -0.035219   0.004856  -0.039212  -0.037934   0.000055   0.000332
     4  C    0.439294   0.333495  -0.059214   0.000451  -0.064644  -0.098356
     5  C   -0.020765   0.000082   0.547102   0.368214   0.003216  -0.000007
     6  H    0.000650  -0.000118   0.003484  -0.003835   0.000002   0.000013
     7  C    4.535374  -0.036934   0.527180   0.003240   0.341333   0.006673
     8  C   -0.036934   4.507003   0.005124   0.000004  -0.002768   0.374390
     9  C    0.527180   0.005124   4.993651  -0.035001  -0.060634  -0.000172
    10  H    0.003240   0.000004  -0.035001   0.533110  -0.000055   0.000000
    11  O    0.341333  -0.002768  -0.060634  -0.000055   8.284220  -0.000131
    12  C    0.006673   0.374390  -0.000172   0.000000  -0.000131   5.280418
    13  O   -0.001353   0.480661   0.000539   0.000000  -0.048247  -0.105032
    14  H   -0.029531  -0.000093   0.357902  -0.004425   0.000165   0.000002
    15  H   -0.020869  -0.004942   0.004500   0.000003   0.211616   0.002255
    16  C   -0.000206  -0.004076   0.000000   0.000000   0.000016   0.514094
    17  H   -0.000110  -0.028988   0.000004   0.000000   0.000003   0.357003
    18  C    0.000000   0.003117   0.000000   0.000000   0.000000  -0.032408
    19  H   -0.000004  -0.006824   0.000000   0.000000   0.000009  -0.056283
    20  C    0.000000   0.000442   0.000000   0.000000   0.000000  -0.012180
    21  C    0.000000  -0.000231   0.000000   0.000000   0.000000   0.006348
    22  C    0.000000  -0.000004   0.000000   0.000000   0.000000   0.000140
    23  H    0.000000   0.000109   0.000000   0.000000   0.000000   0.004690
    24  C    0.000000   0.000001   0.000000   0.000000   0.000000  -0.000264
    25  H    0.000000  -0.000002   0.000000   0.000000   0.000000   0.000231
    26  C    0.000000   0.000000   0.000000   0.000000   0.000000   0.000015
    27  H    0.000000   0.000000   0.000000   0.000000   0.000000   0.000005
    28  H    0.000000   0.000000   0.000000   0.000000   0.000000   0.000002
    29  N    0.000000   0.000000   0.000000   0.000000   0.000000   0.000000
    30  C    0.000000   0.000000   0.000000   0.000000   0.000000   0.000000
    31  C    0.000000   0.000000   0.000000   0.000000   0.000000   0.000000
    32  H    0.000000   0.000000   0.000000   0.000000   0.000000   0.000000
    33  H    0.000000   0.000000   0.000000   0.000000   0.000000   0.000000
    34  H    0.000000   0.000000   0.000000   0.000000   0.000000   0.000000
    35  H    0.000000   0.000000   0.000000   0.000000   0.000000   0.000000
    36  H    0.000000   0.000000   0.000000   0.000000   0.000000   0.000000
    37  H    0.000000   0.000000   0.000000   0.000000   0.000000   0.000000
              13         14         15         16         17         18
     1  H   -0.000004   0.000013  -0.000002   0.000453   0.004483  -0.000029
     2  C    0.004098   0.000212   0.000001   0.000241   0.002971  -0.000017
     3  C   -0.000030   0.003797   0.000001  -0.000012   0.000545   0.000000
     4  C   -0.078260   0.005783  -0.015847   0.010527  -0.007971  -0.000060
     5  C   -0.000015  -0.038135  -0.000165   0.000001  -0.000008   0.000000
     6  H    0.000000  -0.000124   0.000000   0.000000  -0.000004   0.000000
     7  C   -0.001353  -0.029531  -0.020869  -0.000206  -0.000110   0.000000
     8  C    0.480661  -0.000093  -0.004942  -0.004076  -0.028988   0.003117
     9  C    0.000539   0.357902   0.004500   0.000000   0.000004   0.000000
    10  H    0.000000  -0.004425   0.000003   0.000000   0.000000   0.000000
    11  O   -0.048247   0.000165   0.211616   0.000016   0.000003   0.000000
    12  C   -0.105032   0.000002   0.002255   0.514094   0.357003  -0.032408
    13  O    8.226388   0.000010   0.081863   0.003019   0.002443   0.001194
    14  H    0.000010   0.522830   0.000025   0.000000   0.000000   0.000000
    15  H    0.081863   0.000025   0.274030  -0.000073  -0.000058  -0.000002
    16  C    0.003019   0.000000  -0.000073   5.036828  -0.042886   0.375356
    17  H    0.002443   0.000000  -0.000058  -0.042886   0.547977  -0.008792
    18  C    0.001194   0.000000  -0.000002   0.375356  -0.008792   4.663975
    19  H    0.017239   0.000000  -0.000068   0.368009   0.004542  -0.041609
    20  C    0.000006   0.000000   0.000000  -0.056849   0.003783   0.541088
    21  C   -0.000032   0.000000   0.000000  -0.039868   0.000095   0.528291
    22  C    0.000000   0.000000   0.000000   0.006826   0.000183  -0.030703
    23  H    0.000001   0.000000   0.000000  -0.010781   0.003704  -0.032732
    24  C    0.000000   0.000000   0.000000   0.007137   0.000011  -0.032770
    25  H   -0.000005   0.000000   0.000000  -0.005508   0.000006  -0.039670
    26  C    0.000000   0.000000   0.000000   0.000313  -0.000009  -0.023259
    27  H    0.000000   0.000000   0.000000  -0.000175   0.000004   0.002634
    28  H    0.000000   0.000000   0.000000  -0.000161   0.000000   0.002507
    29  N    0.000000   0.000000   0.000000  -0.000001   0.000000   0.000323
    30  C    0.000000   0.000000   0.000000   0.000000   0.000000   0.000003
    31  C    0.000000   0.000000   0.000000   0.000000   0.000000   0.000003
    32  H    0.000000   0.000000   0.000000   0.000000   0.000000  -0.000008
    33  H    0.000000   0.000000   0.000000   0.000000   0.000000   0.000000
    34  H    0.000000   0.000000   0.000000   0.000000   0.000000  -0.000008
    35  H    0.000000   0.000000   0.000000   0.000000   0.000000  -0.000008
    36  H    0.000000   0.000000   0.000000   0.000000   0.000000   0.000000
    37  H    0.000000   0.000000   0.000000   0.000000   0.000000  -0.000006
              19         20         21         22         23         24
     1  H   -0.000002   0.000000   0.000000   0.000000  -0.000004   0.000000
     2  C   -0.000020   0.000005   0.000000   0.000000  -0.000024   0.000000
     3  C    0.000000   0.000000   0.000000   0.000000   0.000000   0.000000
     4  C    0.001048   0.000004  -0.000001   0.000000   0.000014   0.000000
     5  C    0.000000   0.000000   0.000000   0.000000   0.000000   0.000000
     6  H    0.000000   0.000000   0.000000   0.000000   0.000000   0.000000
     7  C   -0.000004   0.000000   0.000000   0.000000   0.000000   0.000000
     8  C   -0.006824   0.000442  -0.000231  -0.000004   0.000109   0.000001
     9  C    0.000000   0.000000   0.000000   0.000000   0.000000   0.000000
    10  H    0.000000   0.000000   0.000000   0.000000   0.000000   0.000000
    11  O    0.000009   0.000000   0.000000   0.000000   0.000000   0.000000
    12  C   -0.056283  -0.012180   0.006348   0.000140   0.004690  -0.000264
    13  O    0.017239   0.000006  -0.000032   0.000000   0.000001   0.000000
    14  H    0.000000   0.000000   0.000000   0.000000   0.000000   0.000000
    15  H   -0.000068   0.000000   0.000000   0.000000   0.000000   0.000000
    16  C    0.368009  -0.056849  -0.039868   0.006826  -0.010781   0.007137
    17  H    0.004542   0.003783   0.000095   0.000183   0.003704   0.000011
    18  C   -0.041609   0.541088   0.528291  -0.030703  -0.032732  -0.032770
    19  H    0.509445   0.004725  -0.005495  -0.000098  -0.000035   0.000344
    20  C    0.004725   4.963267  -0.050693   0.529356   0.359175  -0.043069
    21  C   -0.005495  -0.050693   4.987608  -0.047020   0.005304   0.509696
    22  C   -0.000098   0.529356  -0.047020   5.034447  -0.039441  -0.048800
    23  H   -0.000035   0.359175   0.005304  -0.039441   0.546295   0.000372
    24  C    0.000344  -0.043069   0.509696  -0.048800   0.000372   5.044098
    25  H    0.005372   0.004857   0.363879   0.000498  -0.000146  -0.035962
    26  C   -0.000007  -0.019105  -0.016917   0.528806   0.002962   0.537267
    27  H    0.000002  -0.033516   0.000505   0.362335  -0.004713   0.004289
    28  H   -0.000009   0.000469  -0.031892   0.004430   0.000015   0.361389
    29  N    0.000000   0.005237   0.005197  -0.074893  -0.000101  -0.075557
    30  C    0.000000   0.000055  -0.000093  -0.008670  -0.000006   0.005046
    31  C    0.000000  -0.000088  -0.000016   0.005058   0.000002  -0.008270
    32  H    0.000000   0.000132  -0.000002   0.002830  -0.000003  -0.000039
    33  H    0.000000  -0.000006   0.000002   0.000572   0.000000  -0.000111
    34  H    0.000000   0.000161  -0.000002   0.004065  -0.000002   0.000000
    35  H    0.000000  -0.000003   0.000060   0.000030   0.000000   0.004024
    36  H    0.000000   0.000002  -0.000003  -0.000111   0.000000   0.000461
    37  H    0.000000  -0.000001   0.000117  -0.000084   0.000000   0.002946
              25         26         27         28         29         30
     1  H    0.000000   0.000000   0.000000   0.000000   0.000000   0.000000
     2  C    0.000000   0.000000   0.000000   0.000000   0.000000   0.000000
     3  C    0.000000   0.000000   0.000000   0.000000   0.000000   0.000000
     4  C    0.000000   0.000000   0.000000   0.000000   0.000000   0.000000
     5  C    0.000000   0.000000   0.000000   0.000000   0.000000   0.000000
     6  H    0.000000   0.000000   0.000000   0.000000   0.000000   0.000000
     7  C    0.000000   0.000000   0.000000   0.000000   0.000000   0.000000
     8  C   -0.000002   0.000000   0.000000   0.000000   0.000000   0.000000
     9  C    0.000000   0.000000   0.000000   0.000000   0.000000   0.000000
    10  H    0.000000   0.000000   0.000000   0.000000   0.000000   0.000000
    11  O    0.000000   0.000000   0.000000   0.000000   0.000000   0.000000
    12  C    0.000231   0.000015   0.000005   0.000002   0.000000   0.000000
    13  O   -0.000005   0.000000   0.000000   0.000000   0.000000   0.000000
    14  H    0.000000   0.000000   0.000000   0.000000   0.000000   0.000000
    15  H    0.000000   0.000000   0.000000   0.000000   0.000000   0.000000
    16  C   -0.005508   0.000313  -0.000175  -0.000161  -0.000001   0.000000
    17  H    0.000006  -0.000009   0.000004   0.000000   0.000000   0.000000
    18  C   -0.039670  -0.023259   0.002634   0.002507   0.000323   0.000003
    19  H    0.005372  -0.000007   0.000002  -0.000009   0.000000   0.000000
    20  C    0.004857  -0.019105  -0.033516   0.000469   0.005237   0.000055
    21  C    0.363879  -0.016917   0.000505  -0.031892   0.005197  -0.000093
    22  C    0.000498   0.528806   0.362335   0.004430  -0.074893  -0.008670
    23  H   -0.000146   0.002962  -0.004713   0.000015  -0.000101  -0.000006
    24  C   -0.035962   0.537267   0.004289   0.361389  -0.075557   0.005046
    25  H    0.533604   0.002706   0.000015  -0.004372  -0.000099   0.000002
    26  C    0.002706   4.437464  -0.035343  -0.035525   0.339304  -0.044864
    27  H    0.000015  -0.035343   0.544029  -0.000127  -0.010860   0.007954
    28  H   -0.004372  -0.035525  -0.000127   0.542179  -0.010644  -0.000062
    29  N   -0.000099   0.339304  -0.010860  -0.010644   6.955561   0.305477
    30  C    0.000002  -0.044864   0.007954  -0.000062   0.305477   5.005687
    31  C   -0.000004  -0.042240  -0.000067   0.007620   0.303814  -0.052126
    32  H    0.000000  -0.004135  -0.000299  -0.000001  -0.045436   0.382789
    33  H    0.000000   0.003436   0.000177  -0.000002  -0.030903   0.382651
    34  H    0.000000  -0.004482  -0.000373  -0.000002  -0.045784   0.379344
    35  H   -0.000001  -0.003291  -0.000002  -0.000279  -0.046558   0.002485
    36  H    0.000000   0.003333  -0.000002   0.000123  -0.031369  -0.005940
    37  H   -0.000001  -0.004138  -0.000001   0.000040  -0.044303   0.002877
              31         32         33         34         35         36
     1  H    0.000000   0.000000   0.000000   0.000000   0.000000   0.000000
     2  C    0.000000   0.000000   0.000000   0.000000   0.000000   0.000000
     3  C    0.000000   0.000000   0.000000   0.000000   0.000000   0.000000
     4  C    0.000000   0.000000   0.000000   0.000000   0.000000   0.000000
     5  C    0.000000   0.000000   0.000000   0.000000   0.000000   0.000000
     6  H    0.000000   0.000000   0.000000   0.000000   0.000000   0.000000
     7  C    0.000000   0.000000   0.000000   0.000000   0.000000   0.000000
     8  C    0.000000   0.000000   0.000000   0.000000   0.000000   0.000000
     9  C    0.000000   0.000000   0.000000   0.000000   0.000000   0.000000
    10  H    0.000000   0.000000   0.000000   0.000000   0.000000   0.000000
    11  O    0.000000   0.000000   0.000000   0.000000   0.000000   0.000000
    12  C    0.000000   0.000000   0.000000   0.000000   0.000000   0.000000
    13  O    0.000000   0.000000   0.000000   0.000000   0.000000   0.000000
    14  H    0.000000   0.000000   0.000000   0.000000   0.000000   0.000000
    15  H    0.000000   0.000000   0.000000   0.000000   0.000000   0.000000
    16  C    0.000000   0.000000   0.000000   0.000000   0.000000   0.000000
    17  H    0.000000   0.000000   0.000000   0.000000   0.000000   0.000000
    18  C    0.000003  -0.000008   0.000000  -0.000008  -0.000008   0.000000
    19  H    0.000000   0.000000   0.000000   0.000000   0.000000   0.000000
    20  C   -0.000088   0.000132  -0.000006   0.000161  -0.000003   0.000002
    21  C   -0.000016  -0.000002   0.000002  -0.000002   0.000060  -0.000003
    22  C    0.005058   0.002830   0.000572   0.004065   0.000030  -0.000111
    23  H    0.000002  -0.000003   0.000000  -0.000002   0.000000   0.000000
    24  C   -0.008270  -0.000039  -0.000111   0.000000   0.004024   0.000461
    25  H   -0.000004   0.000000   0.000000   0.000000  -0.000001   0.000000
    26  C   -0.042240  -0.004135   0.003436  -0.004482  -0.003291   0.003333
    27  H   -0.000067  -0.000299   0.000177  -0.000373  -0.000002  -0.000002
    28  H    0.007620  -0.000001  -0.000002  -0.000002  -0.000279   0.000123
    29  N    0.303814  -0.045436  -0.030903  -0.045784  -0.046558  -0.031369
    30  C   -0.052126   0.382789   0.382651   0.379344   0.002485  -0.005940
    31  C    5.004445   0.002796  -0.005822   0.002594   0.380111   0.383010
    32  H    0.002796   0.550623  -0.025708  -0.047054  -0.000329   0.000190
    33  H   -0.005822  -0.025708   0.514284  -0.026089   0.000207   0.005147
    34  H    0.002594  -0.047054  -0.026089   0.556081   0.000541   0.000149
    35  H    0.380111  -0.000329   0.000207   0.000541   0.552899  -0.025850
    36  H    0.383010   0.000190   0.005147   0.000149  -0.025850   0.514779
    37  H    0.381220   0.000372   0.000131  -0.000323  -0.046251  -0.025331
              37
     1  H    0.000000
     2  C    0.000000
     3  C    0.000000
     4  C    0.000000
     5  C    0.000000
     6  H    0.000000
     7  C    0.000000
     8  C    0.000000
     9  C    0.000000
    10  H    0.000000
    11  O    0.000000
    12  C    0.000000
    13  O    0.000000
    14  H    0.000000
    15  H    0.000000
    16  C    0.000000
    17  H    0.000000
    18  C   -0.000006
    19  H    0.000000
    20  C   -0.000001
    21  C    0.000117
    22  C   -0.000084
    23  H    0.000000
    24  C    0.002946
    25  H   -0.000001
    26  C   -0.004138
    27  H   -0.000001
    28  H    0.000040
    29  N   -0.044303
    30  C    0.002877
    31  C    0.381220
    32  H    0.000372
    33  H    0.000131
    34  H   -0.000323
    35  H   -0.046251
    36  H   -0.025331
    37  H    0.549075
 Mulliken charges:
               1
     1  H    0.167178
     2  C   -0.201066
     3  C   -0.187940
     4  C   -0.026146
     5  C   -0.156607
     6  H    0.163217
     7  C    0.324656
     8  C    0.434062
     9  C   -0.208779
    10  H    0.172269
    11  O   -0.668291
    12  C   -0.241658
    13  O   -0.584483
    14  H    0.181568
    15  H    0.467733
    16  C   -0.162224
    17  H    0.161070
    18  C    0.123589
    19  H    0.199720
    20  C   -0.197258
    21  C   -0.214838
    22  C   -0.229752
    23  H    0.165344
    24  C   -0.232238
    25  H    0.174601
    26  C    0.377711
    27  H    0.163528
    28  H    0.164302
    29  N   -0.498405
    30  C   -0.362607
    31  C   -0.362040
    32  H    0.183282
    33  H    0.182034
    34  H    0.181183
    35  H    0.182213
    36  H    0.181412
    37  H    0.183661
 Sum of Mulliken charges =   0.00000
 Mulliken charges with hydrogens summed into heavy atoms:
               1
     2  C   -0.033888
     3  C   -0.024723
     4  C   -0.026146
     5  C    0.015662
     7  C    0.324656
     8  C    0.434062
     9  C   -0.027211
    11  O   -0.200558
    12  C   -0.080588
    13  O   -0.584483
    16  C    0.037496
    18  C    0.123589
    20  C   -0.031913
    21  C   -0.040237
    22  C   -0.066224
    24  C   -0.067936
    26  C    0.377711
    29  N   -0.498405
    30  C    0.183891
    31  C    0.185245
 Electronic spatial extent (au):  <R**2>=          17469.8724
 Charge=              0.0000 electrons
 Dipole moment (field-independent basis, Debye):
    X=             -5.9764    Y=             -1.3587    Z=              5.1561  Tot=              8.0093
 Quadrupole moment (field-independent basis, Debye-Ang):
   XX=           -110.2120   YY=           -117.3056   ZZ=           -149.0954
   XY=            -19.0552   XZ=             24.7950   YZ=              6.0443
 Traceless Quadrupole moment (field-independent basis, Debye-Ang):
   XX=             15.3257   YY=              8.2320   ZZ=            -23.5577
   XY=            -19.0552   XZ=             24.7950   YZ=              6.0443
 Octapole moment (field-independent basis, Debye-Ang**2):
  XXX=           -714.0753  YYY=           -362.0027  ZZZ=           1271.0489  XYY=           -255.2220
  XXY=           -174.9006  XXZ=            451.1118  XZZ=           -385.3239  YZZ=           -164.2958
  YYZ=            362.0351  XYZ=             70.8088
 Hexadecapole moment (field-independent basis, Debye-Ang**3):
 XXXX=         -12454.3979 YYYY=          -1533.3401 ZZZZ=          -9915.4941 XXXY=           -689.1157
 XXXZ=           4131.3541 YYYX=            -67.7079 YYYZ=           1159.2752 ZZZX=           4909.1914
 ZZZY=           1476.9273 XXYY=          -2546.4455 XXZZ=          -4433.6082 YYZZ=          -1761.5808
 XXYZ=            707.4443 YYXZ=           1442.2720 ZZXY=           -359.9322
 N-N= 1.361992310789D+03 E-N=-4.729146673470D+03  KE= 8.550672826706D+02
 Leave Link  601 at Tue Nov  7 13:03:10 2017, MaxMem=  3758096384 cpu:         0.2
 (Enter /share/apps/gaussian/g09_D01/g09/l9999.exe)
 1\1\GINC-NXV42\SP\RwB97XD TD-FC\6-31G(d)\C17H17N1O2\BTX008\07-Nov-2017
 \0\\#p wb97xd 6-31G* td=(nstates=4) nosymm\\mon-2\\0,1\H,0,4.586562,-0
 .257428,-2.302973\C,0,5.369065,-0.106492,-3.036445\C,0,6.587239,-0.724
 225,-2.826585\C,0,5.129762,0.685921,-4.172085\C,0,7.612955,-0.564627,-
 3.76237\H,0,6.739848,-1.320168,-1.937033\C,0,6.179721,0.834057,-5.1111
 68\C,0,3.834426,1.366965,-4.413002\C,0,7.411315,0.203251,-4.8951\H,0,8
 .573074,-1.042087,-3.592484\O,0,6.042273,1.568535,-6.223921\C,0,2.7139
 99,1.147196,-3.506876\O,0,3.711335,2.118505,-5.403431\H,0,8.190439,0.3
 46837,-5.634811\H,0,5.128658,1.955482,-6.165692\C,0,1.55318,1.816832,-
 3.687907\H,0,2.816266,0.423167,-2.707822\C,0,0.328537,1.665698,-2.9340
 3\H,0,1.526054,2.534904,-4.507779\C,0,0.16283,0.724619,-1.902547\C,0,-
 0.783628,2.456231,-3.26071\C,0,-1.034337,0.579822,-1.239351\H,0,0.9865
 31,0.083543,-1.60425\C,0,-1.988207,2.341016,-2.59716\H,0,-0.694703,3.1
 85366,-4.059292\C,0,-2.14634,1.399583,-1.557364\H,0,-1.104064,-0.17146
 3,-0.463821\H,0,-2.812123,2.976462,-2.891809\N,0,-3.324563,1.278708,-0
 .876482\C,0,-3.420947,0.310926,0.195687\C,0,-4.428357,2.173857,-1.1556
 42\H,0,-3.293094,-0.713452,-0.172237\H,0,-4.39665,0.380419,0.667154\H,
 0,-2.669344,0.486702,0.972238\H,0,-4.159833,3.223223,-0.980153\H,0,-5.
 263302,1.926751,-0.498926\H,0,-4.775999,2.082495,-2.191528\\Version=ES
 64L-G09RevD.01\HF=-862.9512859\RMSD=7.229e-09\PG=C01 [X(C17H17N1O2)]\\
 @


 SACRED COWS MAKE GREAT HAMBURGERS -- ROBERT REISNER
 Job cpu time:       0 days  0 hours 14 minutes 44.6 seconds.
 File lengths (MBytes):  RWF=    231 Int=      0 D2E=      0 Chk=     22 Scr=      1
 Normal termination of Gaussian 09 at Tue Nov  7 13:03:10 2017.
