 Entering Gaussian System, Link 0=g09
 Input=mon-1.com
 Output=mon-1.out
 Initial command:
 /share/apps/gaussian/g09_D01/g09/l1.exe "/tmp/165411.1.all.q/Gau-8122.inp" -scrdir="/tmp/165411.1.all.q/"
 Entering Link 1 = /share/apps/gaussian/g09_D01/g09/l1.exe PID=      8123.
  
 Copyright (c) 1988,1990,1992,1993,1995,1998,2003,2009,2013,
            Gaussian, Inc.  All Rights Reserved.
  
 This is part of the Gaussian(R) 09 program.  It is based on
 the Gaussian(R) 03 system (copyright 2003, Gaussian, Inc.),
 the Gaussian(R) 98 system (copyright 1998, Gaussian, Inc.),
 the Gaussian(R) 94 system (copyright 1995, Gaussian, Inc.),
 the Gaussian 92(TM) system (copyright 1992, Gaussian, Inc.),
 the Gaussian 90(TM) system (copyright 1990, Gaussian, Inc.),
 the Gaussian 88(TM) system (copyright 1988, Gaussian, Inc.),
 the Gaussian 86(TM) system (copyright 1986, Carnegie Mellon
 University), and the Gaussian 82(TM) system (copyright 1983,
 Carnegie Mellon University). Gaussian is a federally registered
 trademark of Gaussian, Inc.
  
 This software contains proprietary and confidential information,
 including trade secrets, belonging to Gaussian, Inc.
  
 This software is provided under written license and may be
 used, copied, transmitted, or stored only in accord with that
 written license.
  
 The following legend is applicable only to US Government
 contracts under FAR:
  
                    RESTRICTED RIGHTS LEGEND
  
 Use, reproduction and disclosure by the US Government is
 subject to restrictions as set forth in subparagraphs (a)
 and (c) of the Commercial Computer Software - Restricted
 Rights clause in FAR 52.227-19.
  
 Gaussian, Inc.
 340 Quinnipiac St., Bldg. 40, Wallingford CT 06492
  
  
 ---------------------------------------------------------------
 Warning -- This program may not be used in any manner that
 competes with the business of Gaussian, Inc. or will provide
 assistance to any competitor of Gaussian, Inc.  The licensee
 of this program is prohibited from giving any competitor of
 Gaussian, Inc. access to this program.  By using this program,
 the user acknowledges that Gaussian, Inc. is engaged in the
 business of creating and licensing software in the field of
 computational chemistry and represents and warrants to the
 licensee that it is not a competitor of Gaussian, Inc. and that
 it will not use this program in any manner prohibited above.
 ---------------------------------------------------------------
  

 Cite this work as:
 Gaussian 09, Revision D.01,
 M. J. Frisch, G. W. Trucks, H. B. Schlegel, G. E. Scuseria, 
 M. A. Robb, J. R. Cheeseman, G. Scalmani, V. Barone, B. Mennucci, 
 G. A. Petersson, H. Nakatsuji, M. Caricato, X. Li, H. P. Hratchian, 
 A. F. Izmaylov, J. Bloino, G. Zheng, J. L. Sonnenberg, M. Hada, 
 M. Ehara, K. Toyota, R. Fukuda, J. Hasegawa, M. Ishida, T. Nakajima, 
 Y. Honda, O. Kitao, H. Nakai, T. Vreven, J. A. Montgomery, Jr., 
 J. E. Peralta, F. Ogliaro, M. Bearpark, J. J. Heyd, E. Brothers, 
 K. N. Kudin, V. N. Staroverov, T. Keith, R. Kobayashi, J. Normand, 
 K. Raghavachari, A. Rendell, J. C. Burant, S. S. Iyengar, J. Tomasi, 
 M. Cossi, N. Rega, J. M. Millam, M. Klene, J. E. Knox, J. B. Cross, 
 V. Bakken, C. Adamo, J. Jaramillo, R. Gomperts, R. E. Stratmann, 
 O. Yazyev, A. J. Austin, R. Cammi, C. Pomelli, J. W. Ochterski, 
 R. L. Martin, K. Morokuma, V. G. Zakrzewski, G. A. Voth, 
 P. Salvador, J. J. Dannenberg, S. Dapprich, A. D. Daniels, 
 O. Farkas, J. B. Foresman, J. V. Ortiz, J. Cioslowski, 
 and D. J. Fox, Gaussian, Inc., Wallingford CT, 2013.
 
 ******************************************
 Gaussian 09:  ES64L-G09RevD.01 24-Apr-2013
                 7-Nov-2017 
 ******************************************
 %chk=mon-1.chk
 %nproc=4
 Will use up to    4 processors via shared memory.
 %mem=28GB
 --------------------------------------
 #p wb97xd 6-31G* td=(nstates=4) nosymm
 --------------------------------------
 1/38=1/1;
 2/12=2,15=1,17=6,18=5,40=1/2;
 3/5=1,6=6,7=1,11=9,16=1,25=1,30=1,74=-58/1,2,8,3;
 4//1;
 5/5=2,38=5/2;
 8/6=1,10=2,108=4/1;
 9/41=4,42=1,70=2/14;
 6/7=2,8=2,9=2,10=2/1;
 99/5=1,9=1/99;
 Leave Link    1 at Tue Nov  7 12:59:00 2017, MaxMem=  3758096384 cpu:         0.2
 (Enter /share/apps/gaussian/g09_D01/g09/l101.exe)
 -----
 mon-1
 -----
 Symbolic Z-matrix:
 Charge =  0 Multiplicity = 1
 C                     3.46964  -0.76214   0.4261 
 C                     4.69485  -0.12317   0.63983 
 C                     2.43566  -0.67023   1.38924 
 O                     3.31284  -1.44232  -0.72254 
 C                     4.90431   0.60537   1.79681 
 H                     5.4611   -0.22464  -0.12003 
 C                     2.6899    0.07205   2.55547 
 C                     1.14155  -1.34494   1.13827 
 H                     2.42156  -1.87445  -0.64407 
 C                     3.89872   0.70837   2.76097 
 H                     5.85715   1.09684   1.96622 
 H                     1.92512   0.15598   3.31556 
 C                     0.01917  -1.15268   2.05354 
 O                     1.00751  -2.06225   0.12369 
 H                     4.06591   1.27432   3.66663 
 C                    -1.13054  -1.83978   1.87322 
 H                     0.112    -0.42846   2.85319 
 C                    -2.36194  -1.70592   2.62344 
 H                    -1.14874  -2.55418   1.04973 
 C                    -2.54713  -0.77289   3.65722 
 C                    -3.46767  -2.49362   2.27394 
 C                    -3.75792  -0.63135   4.29794 
 H                    -1.72705  -0.13761   3.97409 
 C                    -4.68534  -2.38142   2.91386 
 H                    -3.36305  -3.21747   1.47431 
 C                    -4.86438  -1.44594   3.95458 
 H                    -3.84633   0.11953   5.07026 
 H                    -5.50196  -3.01507   2.59904 
 N                    -6.05803  -1.32895   4.6113 
 C                    -6.17552  -0.39239   5.70751 
 C                    -7.14932  -2.23276   4.31158 
 H                    -6.05718   0.64332   5.36907 
 H                    -7.15699  -0.49391   6.162 
 H                    -5.43095  -0.58962   6.48664 
 H                    -6.88603  -3.27762   4.51965 
 H                    -8.01137  -1.97221   4.92681 
 H                    -7.45593  -2.15998   3.26224 
 
 NAtoms=     37 NQM=       37 NQMF=       0 NMMI=      0 NMMIF=      0
                NMic=       0 NMicF=      0.
                    Isotopes and Nuclear Properties:
 (Nuclear quadrupole moments (NQMom) in fm**2, nuclear magnetic moments (NMagM)
  in nuclear magnetons)

  Atom         1           2           3           4           5           6           7           8           9          10
 IAtWgt=          12          12          12          16          12           1          12          12           1          12
 AtmWgt=  12.0000000  12.0000000  12.0000000  15.9949146  12.0000000   1.0078250  12.0000000  12.0000000   1.0078250  12.0000000
 NucSpn=           0           0           0           0           0           1           0           0           1           0
 AtZEff=   0.0000000   0.0000000   0.0000000   0.0000000   0.0000000   0.0000000   0.0000000   0.0000000   0.0000000   0.0000000
 NQMom=    0.0000000   0.0000000   0.0000000   0.0000000   0.0000000   0.0000000   0.0000000   0.0000000   0.0000000   0.0000000
 NMagM=    0.0000000   0.0000000   0.0000000   0.0000000   0.0000000   2.7928460   0.0000000   0.0000000   2.7928460   0.0000000
 AtZNuc=   6.0000000   6.0000000   6.0000000   8.0000000   6.0000000   1.0000000   6.0000000   6.0000000   1.0000000   6.0000000

  Atom        11          12          13          14          15          16          17          18          19          20
 IAtWgt=           1           1          12          16           1          12           1          12           1          12
 AtmWgt=   1.0078250   1.0078250  12.0000000  15.9949146   1.0078250  12.0000000   1.0078250  12.0000000   1.0078250  12.0000000
 NucSpn=           1           1           0           0           1           0           1           0           1           0
 AtZEff=   0.0000000   0.0000000   0.0000000   0.0000000   0.0000000   0.0000000   0.0000000   0.0000000   0.0000000   0.0000000
 NQMom=    0.0000000   0.0000000   0.0000000   0.0000000   0.0000000   0.0000000   0.0000000   0.0000000   0.0000000   0.0000000
 NMagM=    2.7928460   2.7928460   0.0000000   0.0000000   2.7928460   0.0000000   2.7928460   0.0000000   2.7928460   0.0000000
 AtZNuc=   1.0000000   1.0000000   6.0000000   8.0000000   1.0000000   6.0000000   1.0000000   6.0000000   1.0000000   6.0000000

  Atom        21          22          23          24          25          26          27          28          29          30
 IAtWgt=          12          12           1          12           1          12           1           1          14          12
 AtmWgt=  12.0000000  12.0000000   1.0078250  12.0000000   1.0078250  12.0000000   1.0078250   1.0078250  14.0030740  12.0000000
 NucSpn=           0           0           1           0           1           0           1           1           2           0
 AtZEff=   0.0000000   0.0000000   0.0000000   0.0000000   0.0000000   0.0000000   0.0000000   0.0000000   0.0000000   0.0000000
 NQMom=    0.0000000   0.0000000   0.0000000   0.0000000   0.0000000   0.0000000   0.0000000   0.0000000   2.0440000   0.0000000
 NMagM=    0.0000000   0.0000000   2.7928460   0.0000000   2.7928460   0.0000000   2.7928460   2.7928460   0.4037610   0.0000000
 AtZNuc=   6.0000000   6.0000000   1.0000000   6.0000000   1.0000000   6.0000000   1.0000000   1.0000000   7.0000000   6.0000000

  Atom        31          32          33          34          35          36          37
 IAtWgt=          12           1           1           1           1           1           1
 AtmWgt=  12.0000000   1.0078250   1.0078250   1.0078250   1.0078250   1.0078250   1.0078250
 NucSpn=           0           1           1           1           1           1           1
 AtZEff=   0.0000000   0.0000000   0.0000000   0.0000000   0.0000000   0.0000000   0.0000000
 NQMom=    0.0000000   0.0000000   0.0000000   0.0000000   0.0000000   0.0000000   0.0000000
 NMagM=    0.0000000   2.7928460   2.7928460   2.7928460   2.7928460   2.7928460   2.7928460
 AtZNuc=   6.0000000   1.0000000   1.0000000   1.0000000   1.0000000   1.0000000   1.0000000
 Leave Link  101 at Tue Nov  7 12:59:00 2017, MaxMem=  3758096384 cpu:         0.3
 (Enter /share/apps/gaussian/g09_D01/g09/l202.exe)
                          Input orientation:                          
 ---------------------------------------------------------------------
 Center     Atomic      Atomic             Coordinates (Angstroms)
 Number     Number       Type             X           Y           Z
 ---------------------------------------------------------------------
      1          6           0        3.469637   -0.762135    0.426097
      2          6           0        4.694846   -0.123167    0.639832
      3          6           0        2.435655   -0.670227    1.389238
      4          8           0        3.312841   -1.442316   -0.722541
      5          6           0        4.904305    0.605365    1.796811
      6          1           0        5.461105   -0.224636   -0.120030
      7          6           0        2.689903    0.072047    2.555468
      8          6           0        1.141554   -1.344944    1.138267
      9          1           0        2.421564   -1.874450   -0.644066
     10          6           0        3.898719    0.708372    2.760969
     11          1           0        5.857150    1.096835    1.966215
     12          1           0        1.925122    0.155975    3.315560
     13          6           0        0.019172   -1.152682    2.053535
     14          8           0        1.007505   -2.062253    0.123686
     15          1           0        4.065909    1.274317    3.666625
     16          6           0       -1.130542   -1.839782    1.873217
     17          1           0        0.112004   -0.428463    2.853188
     18          6           0       -2.361938   -1.705922    2.623443
     19          1           0       -1.148735   -2.554182    1.049733
     20          6           0       -2.547126   -0.772889    3.657215
     21          6           0       -3.467667   -2.493615    2.273935
     22          6           0       -3.757917   -0.631349    4.297941
     23          1           0       -1.727048   -0.137611    3.974085
     24          6           0       -4.685337   -2.381422    2.913860
     25          1           0       -3.363046   -3.217472    1.474305
     26          6           0       -4.864384   -1.445940    3.954581
     27          1           0       -3.846333    0.119529    5.070263
     28          1           0       -5.501955   -3.015075    2.599042
     29          7           0       -6.058026   -1.328952    4.611296
     30          6           0       -6.175522   -0.392391    5.707507
     31          6           0       -7.149324   -2.232755    4.311584
     32          1           0       -6.057178    0.643319    5.369066
     33          1           0       -7.156988   -0.493911    6.162005
     34          1           0       -5.430953   -0.589622    6.486644
     35          1           0       -6.886034   -3.277620    4.519652
     36          1           0       -8.011369   -1.972206    4.926811
     37          1           0       -7.455926   -2.159977    3.262240
 ---------------------------------------------------------------------
                    Distance matrix (angstroms):
                    1          2          3          4          5
     1  C    0.000000
     2  C    1.398249   0.000000
     3  C    1.416053   2.442300   0.000000
     4  O    1.344098   2.346519   2.413542   0.000000
     5  C    2.409810   1.383196   2.808466   3.615645   0.000000
     6  H    2.133801   1.083900   3.410248   2.541811   2.161760
     7  C    2.416209   2.779850   1.405598   3.664245   2.400743
     8  C    2.503362   3.790391   1.480853   2.861219   4.289019
     9  H    1.865731   3.143755   2.363192   0.993616   4.274502
    10  C    2.792513   2.413400   2.433667   4.135644   1.396930
    11  H    3.395284   2.144446   3.893846   4.488898   1.085428
    12  H    3.402565   3.861193   2.157306   4.559228   3.374030
    13  C    3.834943   4.992032   2.552145   4.317261   5.198188
    14  O    2.800688   4.197969   2.361984   2.532784   5.010048
    15  H    3.873461   3.392639   3.409614   5.216511   2.155599
    16  C    4.941369   6.197028   3.784159   5.161356   6.511832
    17  H    4.156418   5.098489   2.756983   4.905007   5.015065
    18  C    6.302883   7.499202   5.060911   6.593043   7.669658
    19  H    4.992966   6.342341   4.063545   4.927764   6.868781
    20  C    6.829471   7.872287   5.475616   7.346401   7.802853
    21  C    7.385033   8.655399   6.241526   7.487282   8.939868
    22  C    8.200355   9.224381   6.842689   8.709680   9.100506
    23  H    6.323273   7.235895   4.928814   7.011493   7.019072
    24  C    8.678402   9.912555   7.480721   8.836073  10.105935
    25  H    7.335733   8.671833   6.334085   7.248778   9.114120
    26  C    9.075996  10.203733   7.776457   9.420323  10.212302
    27  H    8.710283   9.624934   7.323731   9.340755   9.355490
    28  H    9.501941  10.778515   8.364663   9.550242  11.047235
    29  N   10.421782  11.526088   9.108139  10.783126  11.481969
    30  C   11.002686  11.996613   9.637272  11.509861  11.792015
    31  C   11.402722  12.578414  10.141668  11.637186  12.636019
    32  H   10.824438  11.771116   9.470620  11.369028  11.528944
    33  H   12.078814  13.080436  10.715838  12.566374  12.873932
    34  H   10.769424  11.701906   9.374090  11.364566  11.412278
    35  H   11.415988  12.614292  10.173096  11.613181  12.708404
    36  H   12.390892  13.536803  11.106299  12.666242  13.537186
    37  H   11.373900  12.596304  10.176977  11.504776  12.750291
                    6          7          8          9         10
     6  H    0.000000
     7  C    3.863401   0.000000
     8  C    4.636477   2.532530   0.000000
     9  H    3.497901   3.754714   2.257324   0.000000
    10  C    3.407596   1.381440   3.801477   4.521860   0.000000
    11  H    2.501111   3.380660   5.374442   5.238831   2.148951
    12  H    4.944828   1.081515   2.758141   4.477468   2.123158
    13  C    5.932983   2.980722   1.460966   3.683679   4.360604
    14  O    4.823980   3.646815   1.249750   1.619962   4.794866
    15  H    4.304903   2.138578   4.669580   5.585755   1.080953
    16  C    7.073298   4.326240   2.438737   4.353777   5.707421
    17  H    6.123271   2.642860   2.200197   4.433478   3.954758
    18  C    8.421452   5.356015   3.822370   5.795421   6.711450
    19  H    7.105288   4.888707   2.591432   4.009741   6.248950
    20  C    8.871298   5.417955   4.503188   6.663508   6.674302
    21  C    9.518524   6.676642   4.884066   6.601601   8.046960
    22  C   10.231043   6.716052   5.873464   8.009664   7.923459
    23  H    8.272780   4.643909   4.210510   6.446310   5.816923
    24  C   10.807706   7.780882   6.178970   7.963912   9.124485
    25  H    9.453286   6.973381   4.889857   6.304991   8.354698
    26  C   11.167352   7.831287   6.634238   8.626483   9.102623
    27  H   10.662363   7.003487   6.517997   8.712981   8.103419
    28  H   11.634801   8.754357   7.004242   8.637183  10.112515
    29  N   12.501813   9.094806   7.993506   9.990988  10.330110
    30  C   13.015353   9.420553   8.678993  10.791148  10.553866
    31  C   13.516459  10.257019   8.921704  10.783726  11.537499
    32  H   12.788837   9.206200   8.583390  10.695138  10.292050
    33  H   14.097969  10.501842   9.737967  11.831194  11.629324
    34  H   12.744343   9.046560   8.507261  10.684560  10.129572
    35  H   13.538804  10.333289   8.922509  10.736119  11.631509
    36  H   14.492486  11.149864   9.925851  11.827524  12.398652
    37  H   13.492034  10.412459   8.893380  10.625703  11.722059
                   11         12         13         14         15
    11  H    0.000000
    12  H    4.262252   0.000000
    13  C    6.256991   2.633996   0.000000
    14  O    6.074027   3.993822   2.351263   0.000000
    15  H    2.476174   2.440677   4.986829   5.747952   0.000000
    16  C    7.580251   3.924345   1.351467   2.771569   6.317992
    17  H    6.009988   1.960294   1.082846   3.304750   4.381153
    18  C    8.708663   4.724888   2.510091   4.210570   7.161513
    19  H    7.953131   4.682683   2.082265   2.397692   6.978398
    20  C    8.774235   4.580450   3.049905   5.175296   6.922671
    21  C    9.996911   6.098154   3.742289   4.983654   8.537662
    22  C   10.043559   5.820815   4.424426   6.494701   8.077275
    23  H    7.942006   3.722659   2.787143   5.099765   5.970463
    24  C   11.141828   7.092102   4.937850   6.347865   9.513958
    25  H   10.191528   6.537208   4.004780   4.718095   8.953871
    26  C   11.196901   7.005132   5.248723   7.038088   9.339853
    27  H   10.234638   6.032413   5.065698   7.265572   8.118332
    28  H   12.097005   8.107430   5.852258   7.029106  10.539575
    29  N   12.443967   8.222809   6.595874   8.402268  10.495879
    30  C   12.688588   8.464192   7.232136   9.250047  10.574972
    31  C   13.629207   9.436295   7.592936   9.170683  11.768474
    32  H   12.399044   8.256604   7.151251   9.205644  10.284617
    33  H   13.766006   9.539881   8.295226  10.275210  11.632152
    34  H   12.275980   8.045093   7.047933   9.171130  10.080534
    35  H   13.712937   9.532884   7.634066   9.116446  11.890872
    36  H   14.509306  10.288787   8.568368  10.218523  12.569353
    37  H   13.766790   9.662843   7.638894   9.027167  12.029571
                   16         17         18         19         20
    16  C    0.000000
    17  H    2.120397   0.000000
    18  C    1.448135   2.793756   0.000000
    19  H    1.090332   3.059509   2.160548   0.000000
    20  C    2.515476   2.799297   1.404824   3.453616   0.000000
    21  C    2.459721   4.173060   1.401875   2.622934   2.392019
    22  C    3.773950   4.135790   2.430516   4.588679   1.377163
    23  H    2.768908   2.173273   2.164929   3.837460   1.084672
    24  C    3.743378   5.179982   2.436970   4.001546   2.777031
    25  H    2.653532   4.664318   2.146513   2.350189   3.377397
    26  C    4.292874   5.197380   2.846358   4.844831   2.431277
    27  H    4.629851   4.569918   3.394500   5.530861   2.116850
    28  H    4.584472   6.186412   3.402085   4.643631   3.857220
    29  N    5.660223   6.478510   4.213636   6.187654   3.680475
    30  C    6.499888   6.905174   5.077424   7.185874   4.184941
    31  C    6.505828   7.622944   5.103571   6.837401   4.872334
    32  H    6.531347   6.748123   5.168382   7.278287   4.154100
    33  H    7.518186   7.986914   6.081356   8.153474   5.253820
    34  H    6.429630   6.629657   5.058587   7.194226   4.044220
    35  H    6.495898   7.737398   5.151047   6.743908   5.083660
    36  H    7.529127   8.524802   6.106757   7.903555   5.736566
    37  H    6.484011   7.774254   5.153925   6.695614   5.116281
                   21         22         23         24         25
    21  C    0.000000
    22  C    2.765661   0.000000
    23  H    3.386889   2.114968   0.000000
    24  C    1.380149   2.416308   3.861378   0.000000
    25  H    1.083662   3.849269   4.290796   2.125971   0.000000
    26  C    2.423430   1.416236   3.399262   1.410774   3.397662
    27  H    3.845954   1.080794   2.399812   3.407163   4.929509
    28  H    2.125075   3.407356   4.941707   1.080505   2.425063
    29  N    3.678268   2.423911   4.536816   2.423480   4.546442
    30  C    4.851498   2.808699   4.781065   3.739166   5.814732
    31  C    4.216000   3.750510   5.822767   2.836718   4.832776
    32  H    5.111336   2.838783   4.615826   4.130259   6.110091
    33  H    5.720751   3.879086   5.864997   4.496910   6.617123
    34  H    5.022609   2.755215   4.498464   4.065867   6.025394
    35  H    4.164510   4.103294   6.064028   2.867892   4.657167
    36  H    5.287234   4.503913   6.615596   3.909209   5.922617
    37  H    4.122411   4.133358   6.116922   2.801173   4.589845
                   26         27         28         29         30
    26  C    0.000000
    27  H    2.175286   0.000000
    28  H    2.169370   4.321315   0.000000
    29  N    1.367385   2.683344   2.683541   0.000000
    30  C    2.429362   2.468454   4.122465   1.446593   0.000000
    31  C    2.442843   4.125359   2.501729   1.448316   2.506757
    32  H    2.790794   2.291610   4.622245   2.112834   1.096012
    33  H    3.321914   3.539583   4.667988   2.075984   1.086347
    34  H    2.732329   2.240547   4.582719   2.111104   1.095599
    35  H    2.785934   4.591686   2.381879   2.119269   3.200058
    36  H    3.335521   4.662988   3.578162   2.080595   2.544727
    37  H    2.775838   4.636190   2.233613   2.112979   3.277671
                   31         32         33         34         35
    31  C    0.000000
    32  H    3.253130   0.000000
    33  H    2.539231   1.769640   0.000000
    34  H    3.222355   1.777999   1.758905   0.000000
    35  H    1.097432   4.096617   3.243420   3.634784   0.000000
    36  H    1.090647   3.294757   2.107374   3.317102   1.770950
    37  H    1.095639   3.775405   3.357645   4.118654   1.776229
                   36         37
    36  H    0.000000
    37  H    1.764815   0.000000
 Symmetry turned off by external request.
 Stoichiometry    C17H17NO2
 Framework group  C1[X(C17H17NO2)]
 Deg. of freedom   105
 Full point group                 C1      NOp   1
 Rotational constants (GHZ):      1.1036607      0.1073078      0.0981716
 Leave Link  202 at Tue Nov  7 12:59:00 2017, MaxMem=  3758096384 cpu:         0.0
 (Enter /share/apps/gaussian/g09_D01/g09/l301.exe)
 Standard basis: 6-31G(d) (6D, 7F)
 Ernie: Thresh=  0.10000D-02 Tol=  0.10000D-05 Strict=F.
   334 basis functions,   628 primitive gaussians,   334 cartesian basis functions
    71 alpha electrons       71 beta electrons
       nuclear repulsion energy      1361.5864904900 Hartrees.
 IExCor= 4639 DFT=T Ex+Corr=wB97XD ExCW=0 ScaHFX=  1.000000
 ScaDFX=  1.000000  1.000000  1.000000  1.000000 ScalE2=  1.000000  1.000000
 IRadAn=      0 IRanWt=     -1 IRanGd=            0 ICorTp=0 IEmpDi=121
  HFx wShort=  0.000000 wLong=  0.200000 cFull=  0.222036 cShort=  0.000000 cLong=  0.777964
  DFx wShort=  0.000000 wLong=  0.200000 cFull=  0.000000 cShort=  0.000000 cLong=  1.000000
 NAtoms=   37 NActive=   37 NUniq=   37 SFac= 1.00D+00 NAtFMM=   60 NAOKFM=F Big=F
 Integral buffers will be    131072 words long.
 Raffenetti 1 integral format.
 Two-electron integral symmetry is turned off.
 R6Disp:  Grimme-D2 Dispersion energy=       -0.0228850443 Hartrees.
 Nuclear repulsion after empirical dispersion term =     1361.5636054457 Hartrees.
 Leave Link  301 at Tue Nov  7 12:59:00 2017, MaxMem=  3758096384 cpu:         0.1
 (Enter /share/apps/gaussian/g09_D01/g09/l302.exe)
 NPDir=0 NMtPBC=     1 NCelOv=     1 NCel=       1 NClECP=     1 NCelD=      1
         NCelK=      1 NCelE2=     1 NClLst=     1 CellRange=     0.0.
 One-electron integrals computed using PRISM.
 NBasis=   334 RedAO= T EigKep=  3.70D-04  NBF=   334
 NBsUse=   334 1.00D-06 EigRej= -1.00D+00 NBFU=   334
 Precomputing XC quadrature grid using
 IXCGrd= 4 IRadAn=           0 IRanWt=          -1 IRanGd=           0 AccXCQ= 0.00D+00.
 Generated NRdTot=       0 NPtTot=           0 NUsed=           0 NTot=          32
 NSgBfM=   326   326   326   326   326 MxSgAt=    37 MxSgA2=    37.
 Leave Link  302 at Tue Nov  7 12:59:00 2017, MaxMem=  3758096384 cpu:         1.5
 (Enter /share/apps/gaussian/g09_D01/g09/l308.exe)
 Leave Link  308 at Tue Nov  7 12:59:01 2017, MaxMem=  3758096384 cpu:         0.1
 (Enter /share/apps/gaussian/g09_D01/g09/l303.exe)
 DipDrv:  MaxL=1.
 Leave Link  303 at Tue Nov  7 12:59:01 2017, MaxMem=  3758096384 cpu:         0.1
 (Enter /share/apps/gaussian/g09_D01/g09/l401.exe)
 ExpMin= 1.61D-01 ExpMax= 5.48D+03 ExpMxC= 8.25D+02 IAcc=1 IRadAn=         1 AccDes= 0.00D+00
 Harris functional with IExCor= 4639 and IRadAn=       1 diagonalized for initial guess.
 HarFok:  IExCor= 4639 AccDes= 0.00D+00 IRadAn=         1 IDoV= 1 UseB2=F ITyADJ=14
 ICtDFT=  3500011 ScaDFX=  1.000000  1.000000  1.000000  1.000000
 FoFCou: FMM=F IPFlag=           0 FMFlag=      100000 FMFlg1=           0
         NFxFlg=           0 DoJE=T BraDBF=F KetDBF=T FulRan=T
         wScrn=  0.000000 ICntrl=     500 IOpCl=  0 I1Cent=   200000004 NGrid=           0
         NMat0=    1 NMatS0=      1 NMatT0=    0 NMatD0=    1 NMtDS0=    0 NMtDT0=    0
 Symmetry not used in FoFCou.
 Harris En= -825.235769670288    
 JPrj=0 DoOrth=F DoCkMO=F.
 Leave Link  401 at Tue Nov  7 12:59:01 2017, MaxMem=  3758096384 cpu:         3.7
 (Enter /share/apps/gaussian/g09_D01/g09/l502.exe)
 Closed shell SCF:
 Using DIIS extrapolation, IDIIS=  1040.
 Two-electron integral symmetry not used.
 Keep R1 ints in memory in canonical form, NReq=3149053790.
 IVT=      357300 IEndB=      357300 NGot=  3758096384 MDV=   627840115
 LenX=   627840115 LenY=   627728118
 Requested convergence on RMS density matrix=1.00D-08 within 128 cycles.
 Requested convergence on MAX density matrix=1.00D-06.
 Requested convergence on             energy=1.00D-06.
 No special actions if energy rises.
 FoFCou: FMM=F IPFlag=           0 FMFlag=           0 FMFlg1=           0
         NFxFlg=           0 DoJE=F BraDBF=F KetDBF=F FulRan=T
         wScrn=  0.000000 ICntrl=     600 IOpCl=  0 I1Cent=           0 NGrid=           0
         NMat0=    1 NMatS0=  55945 NMatT0=    0 NMatD0=    1 NMtDS0=    0 NMtDT0=    0
 Symmetry not used in FoFCou.
 Integral accuracy reduced to 1.0D-05 until final iterations.

 Cycle   1  Pass 0  IDiag  1:
 E= -862.706131103194    
 DIIS: error= 6.18D-02 at cycle   1 NSaved=   1.
 NSaved= 1 IEnMin= 1 EnMin= -862.706131103194     IErMin= 1 ErrMin= 6.18D-02
 ErrMax= 6.18D-02  0.00D+00 EMaxC= 1.00D-01 BMatC= 8.34D-01 BMatP= 8.34D-01
 IDIUse=3 WtCom= 3.82D-01 WtEn= 6.18D-01
 Coeff-Com:  0.100D+01
 Coeff-En:   0.100D+01
 Coeff:      0.100D+01
 Gap=     0.298 Goal=   None    Shift=    0.000
 GapD=    0.298 DampG=1.000 DampE=0.500 DampFc=0.5000 IDamp=-1.
 Damping current iteration by 5.00D-01
 RMSDP=2.98D-03 MaxDP=1.12D-01              OVMax= 1.81D-01

 Cycle   2  Pass 0  IDiag  1:
 E= -862.818273524738     Delta-E=       -0.112142421544 Rises=F Damp=T
 DIIS: error= 3.24D-02 at cycle   2 NSaved=   2.
 NSaved= 2 IEnMin= 2 EnMin= -862.818273524738     IErMin= 2 ErrMin= 3.24D-02
 ErrMax= 3.24D-02  0.00D+00 EMaxC= 1.00D-01 BMatC= 1.76D-01 BMatP= 8.34D-01
 IDIUse=3 WtCom= 6.76D-01 WtEn= 3.24D-01
 Coeff-Com: -0.448D+00 0.145D+01
 Coeff-En:   0.000D+00 0.100D+01
 Coeff:     -0.303D+00 0.130D+01
 Gap=     0.281 Goal=   None    Shift=    0.000
 RMSDP=1.31D-03 MaxDP=4.27D-02 DE=-1.12D-01 OVMax= 1.69D-01

 Cycle   3  Pass 0  IDiag  1:
 E= -862.906194630009     Delta-E=       -0.087921105271 Rises=F Damp=F
 DIIS: error= 1.00D-02 at cycle   3 NSaved=   3.
 NSaved= 3 IEnMin= 3 EnMin= -862.906194630009     IErMin= 3 ErrMin= 1.00D-02
 ErrMax= 1.00D-02  0.00D+00 EMaxC= 1.00D-01 BMatC= 5.08D-02 BMatP= 1.76D-01
 IDIUse=3 WtCom= 9.00D-01 WtEn= 1.00D-01
 Coeff-Com: -0.317D+00 0.656D+00 0.661D+00
 Coeff-En:   0.000D+00 0.000D+00 0.100D+01
 Coeff:     -0.285D+00 0.590D+00 0.695D+00
 Gap=     0.266 Goal=   None    Shift=    0.000
 RMSDP=8.01D-04 MaxDP=3.72D-02 DE=-8.79D-02 OVMax= 7.16D-02

 Cycle   4  Pass 0  IDiag  1:
 E= -862.949028794260     Delta-E=       -0.042834164251 Rises=F Damp=F
 DIIS: error= 2.83D-03 at cycle   4 NSaved=   4.
 NSaved= 4 IEnMin= 4 EnMin= -862.949028794260     IErMin= 4 ErrMin= 2.83D-03
 ErrMax= 2.83D-03  0.00D+00 EMaxC= 1.00D-01 BMatC= 3.38D-03 BMatP= 5.08D-02
 IDIUse=3 WtCom= 9.72D-01 WtEn= 2.83D-02
 Coeff-Com: -0.139D+00 0.283D+00 0.376D+00 0.480D+00
 Coeff-En:   0.000D+00 0.000D+00 0.000D+00 0.100D+01
 Coeff:     -0.135D+00 0.275D+00 0.365D+00 0.495D+00
 Gap=     0.251 Goal=   None    Shift=    0.000
 RMSDP=1.70D-04 MaxDP=9.28D-03 DE=-4.28D-02 OVMax= 1.11D-02

 Cycle   5  Pass 0  IDiag  1:
 E= -862.951857523141     Delta-E=       -0.002828728880 Rises=F Damp=F
 DIIS: error= 4.08D-04 at cycle   5 NSaved=   5.
 NSaved= 5 IEnMin= 5 EnMin= -862.951857523141     IErMin= 5 ErrMin= 4.08D-04
 ErrMax= 4.08D-04  0.00D+00 EMaxC= 1.00D-01 BMatC= 8.39D-05 BMatP= 3.38D-03
 IDIUse=3 WtCom= 9.96D-01 WtEn= 4.08D-03
 Coeff-Com: -0.272D-02 0.431D-02 0.371D-01 0.137D+00 0.824D+00
 Coeff-En:   0.000D+00 0.000D+00 0.000D+00 0.000D+00 0.100D+01
 Coeff:     -0.271D-02 0.429D-02 0.370D-01 0.137D+00 0.824D+00
 Gap=     0.251 Goal=   None    Shift=    0.000
 RMSDP=5.41D-05 MaxDP=1.98D-03 DE=-2.83D-03 OVMax= 6.40D-03

 Cycle   6  Pass 0  IDiag  1:
 E= -862.951991987118     Delta-E=       -0.000134463977 Rises=F Damp=F
 DIIS: error= 2.48D-04 at cycle   6 NSaved=   6.
 NSaved= 6 IEnMin= 6 EnMin= -862.951991987118     IErMin= 6 ErrMin= 2.48D-04
 ErrMax= 2.48D-04  0.00D+00 EMaxC= 1.00D-01 BMatC= 2.57D-05 BMatP= 8.39D-05
 IDIUse=3 WtCom= 9.98D-01 WtEn= 2.48D-03
 Coeff-Com:  0.315D-01-0.647D-01-0.679D-01-0.548D-01 0.399D+00 0.757D+00
 Coeff-En:   0.000D+00 0.000D+00 0.000D+00 0.000D+00 0.000D+00 0.100D+01
 Coeff:      0.314D-01-0.646D-01-0.678D-01-0.546D-01 0.398D+00 0.758D+00
 Gap=     0.252 Goal=   None    Shift=    0.000
 RMSDP=2.98D-05 MaxDP=1.10D-03 DE=-1.34D-04 OVMax= 5.02D-03

 Cycle   7  Pass 0  IDiag  1:
 E= -862.952039282886     Delta-E=       -0.000047295768 Rises=F Damp=F
 DIIS: error= 1.05D-04 at cycle   7 NSaved=   7.
 NSaved= 7 IEnMin= 7 EnMin= -862.952039282886     IErMin= 7 ErrMin= 1.05D-04
 ErrMax= 1.05D-04  0.00D+00 EMaxC= 1.00D-01 BMatC= 2.36D-06 BMatP= 2.57D-05
 IDIUse=3 WtCom= 9.99D-01 WtEn= 1.05D-03
 Coeff-Com:  0.815D-02-0.167D-01-0.197D-01-0.250D-01 0.229D-01 0.241D+00
 Coeff-Com:  0.790D+00
 Coeff-En:   0.000D+00 0.000D+00 0.000D+00 0.000D+00 0.000D+00 0.000D+00
 Coeff-En:   0.100D+01
 Coeff:      0.815D-02-0.166D-01-0.197D-01-0.250D-01 0.228D-01 0.240D+00
 Coeff:      0.790D+00
 Gap=     0.252 Goal=   None    Shift=    0.000
 RMSDP=1.03D-05 MaxDP=2.51D-04 DE=-4.73D-05 OVMax= 1.52D-03

 Cycle   8  Pass 0  IDiag  1:
 E= -862.952044308573     Delta-E=       -0.000005025687 Rises=F Damp=F
 DIIS: error= 3.57D-05 at cycle   8 NSaved=   8.
 NSaved= 8 IEnMin= 8 EnMin= -862.952044308573     IErMin= 8 ErrMin= 3.57D-05
 ErrMax= 3.57D-05  0.00D+00 EMaxC= 1.00D-01 BMatC= 5.89D-07 BMatP= 2.36D-06
 IDIUse=1 WtCom= 1.00D+00 WtEn= 0.00D+00
 Coeff-Com: -0.308D-02 0.647D-02 0.584D-02 0.495D-03-0.870D-01-0.526D-01
 Coeff-Com:  0.350D+00 0.780D+00
 Coeff:     -0.308D-02 0.647D-02 0.584D-02 0.495D-03-0.870D-01-0.526D-01
 Coeff:      0.350D+00 0.780D+00
 Gap=     0.252 Goal=   None    Shift=    0.000
 RMSDP=5.74D-06 MaxDP=1.23D-04 DE=-5.03D-06 OVMax= 1.06D-03

 Initial convergence to 1.0D-05 achieved.  Increase integral accuracy.
 Cycle   9  Pass 1  IDiag  1:
 E= -862.951207117032     Delta-E=        0.000837191541 Rises=F Damp=F
 DIIS: error= 1.05D-04 at cycle   1 NSaved=   1.
 NSaved= 1 IEnMin= 1 EnMin= -862.951207117032     IErMin= 1 ErrMin= 1.05D-04
 ErrMax= 1.05D-04  0.00D+00 EMaxC= 1.00D-01 BMatC= 6.75D-06 BMatP= 6.75D-06
 IDIUse=3 WtCom= 9.99D-01 WtEn= 1.05D-03
 Coeff-Com:  0.100D+01
 Coeff-En:   0.100D+01
 Coeff:      0.100D+01
 Gap=     0.252 Goal=   None    Shift=    0.000
 RMSDP=5.74D-06 MaxDP=1.23D-04 DE= 8.37D-04 OVMax= 2.78D-04

 Cycle  10  Pass 1  IDiag  1:
 E= -862.951212346828     Delta-E=       -0.000005229796 Rises=F Damp=F
 DIIS: error= 1.42D-05 at cycle   2 NSaved=   2.
 NSaved= 2 IEnMin= 2 EnMin= -862.951212346828     IErMin= 2 ErrMin= 1.42D-05
 ErrMax= 1.42D-05  0.00D+00 EMaxC= 1.00D-01 BMatC= 1.85D-07 BMatP= 6.75D-06
 IDIUse=1 WtCom= 1.00D+00 WtEn= 0.00D+00
 Coeff-Com: -0.312D-01 0.103D+01
 Coeff:     -0.312D-01 0.103D+01
 Gap=     0.252 Goal=   None    Shift=    0.000
 RMSDP=2.73D-06 MaxDP=9.67D-05 DE=-5.23D-06 OVMax= 2.75D-04

 Cycle  11  Pass 1  IDiag  1:
 E= -862.951212426522     Delta-E=       -0.000000079694 Rises=F Damp=F
 DIIS: error= 2.16D-05 at cycle   3 NSaved=   3.
 NSaved= 3 IEnMin= 3 EnMin= -862.951212426522     IErMin= 2 ErrMin= 1.42D-05
 ErrMax= 2.16D-05  0.00D+00 EMaxC= 1.00D-01 BMatC= 1.94D-07 BMatP= 1.85D-07
 IDIUse=1 WtCom= 1.00D+00 WtEn= 0.00D+00
 Coeff-Com: -0.409D-01 0.540D+00 0.501D+00
 Coeff:     -0.409D-01 0.540D+00 0.501D+00
 Gap=     0.252 Goal=   None    Shift=    0.000
 RMSDP=1.40D-06 MaxDP=5.16D-05 DE=-7.97D-08 OVMax= 8.57D-05

 Cycle  12  Pass 1  IDiag  1:
 E= -862.951212596422     Delta-E=       -0.000000169900 Rises=F Damp=F
 DIIS: error= 3.17D-06 at cycle   4 NSaved=   4.
 NSaved= 4 IEnMin= 4 EnMin= -862.951212596422     IErMin= 4 ErrMin= 3.17D-06
 ErrMax= 3.17D-06  0.00D+00 EMaxC= 1.00D-01 BMatC= 5.37D-09 BMatP= 1.85D-07
 IDIUse=1 WtCom= 1.00D+00 WtEn= 0.00D+00
 Coeff-Com: -0.588D-02 0.501D-02 0.116D+00 0.885D+00
 Coeff:     -0.588D-02 0.501D-02 0.116D+00 0.885D+00
 Gap=     0.252 Goal=   None    Shift=    0.000
 RMSDP=4.33D-07 MaxDP=1.57D-05 DE=-1.70D-07 OVMax= 6.34D-05

 Cycle  13  Pass 1  IDiag  1:
 E= -862.951212605736     Delta-E=       -0.000000009314 Rises=F Damp=F
 DIIS: error= 1.85D-06 at cycle   5 NSaved=   5.
 NSaved= 5 IEnMin= 5 EnMin= -862.951212605736     IErMin= 5 ErrMin= 1.85D-06
 ErrMax= 1.85D-06  0.00D+00 EMaxC= 1.00D-01 BMatC= 1.56D-09 BMatP= 5.37D-09
 IDIUse=1 WtCom= 1.00D+00 WtEn= 0.00D+00
 Coeff-Com:  0.157D-02-0.509D-01-0.147D-02 0.403D+00 0.648D+00
 Coeff:      0.157D-02-0.509D-01-0.147D-02 0.403D+00 0.648D+00
 Gap=     0.252 Goal=   None    Shift=    0.000
 RMSDP=1.94D-07 MaxDP=6.98D-06 DE=-9.31D-09 OVMax= 2.64D-05

 Cycle  14  Pass 1  IDiag  1:
 E= -862.951212608035     Delta-E=       -0.000000002300 Rises=F Damp=F
 DIIS: error= 8.47D-07 at cycle   6 NSaved=   6.
 NSaved= 6 IEnMin= 6 EnMin= -862.951212608035     IErMin= 6 ErrMin= 8.47D-07
 ErrMax= 8.47D-07  0.00D+00 EMaxC= 1.00D-01 BMatC= 2.78D-10 BMatP= 1.56D-09
 IDIUse=1 WtCom= 1.00D+00 WtEn= 0.00D+00
 Coeff-Com:  0.224D-02-0.234D-01-0.354D-01-0.573D-01 0.257D+00 0.857D+00
 Coeff:      0.224D-02-0.234D-01-0.354D-01-0.573D-01 0.257D+00 0.857D+00
 Gap=     0.252 Goal=   None    Shift=    0.000
 RMSDP=1.31D-07 MaxDP=3.36D-06 DE=-2.30D-09 OVMax= 2.09D-05

 Cycle  15  Pass 1  IDiag  1:
 E= -862.951212608801     Delta-E=       -0.000000000766 Rises=F Damp=F
 DIIS: error= 2.69D-07 at cycle   7 NSaved=   7.
 NSaved= 7 IEnMin= 7 EnMin= -862.951212608801     IErMin= 7 ErrMin= 2.69D-07
 ErrMax= 2.69D-07  0.00D+00 EMaxC= 1.00D-01 BMatC= 4.00D-11 BMatP= 2.78D-10
 IDIUse=1 WtCom= 1.00D+00 WtEn= 0.00D+00
 Coeff-Com:  0.487D-03 0.444D-03-0.124D-01-0.765D-01-0.217D-01 0.274D+00
 Coeff-Com:  0.835D+00
 Coeff:      0.487D-03 0.444D-03-0.124D-01-0.765D-01-0.217D-01 0.274D+00
 Coeff:      0.835D+00
 Gap=     0.252 Goal=   None    Shift=    0.000
 RMSDP=5.75D-08 MaxDP=1.10D-06 DE=-7.66D-10 OVMax= 1.06D-05

 Cycle  16  Pass 1  IDiag  1:
 E= -862.951212608974     Delta-E=       -0.000000000172 Rises=F Damp=F
 DIIS: error= 2.50D-07 at cycle   8 NSaved=   8.
 NSaved= 8 IEnMin= 8 EnMin= -862.951212608974     IErMin= 8 ErrMin= 2.50D-07
 ErrMax= 2.50D-07  0.00D+00 EMaxC= 1.00D-01 BMatC= 1.05D-11 BMatP= 4.00D-11
 IDIUse=1 WtCom= 1.00D+00 WtEn= 0.00D+00
 Coeff-Com: -0.323D-03 0.543D-02 0.314D-02-0.125D-01-0.727D-01-0.108D+00
 Coeff-Com:  0.347D+00 0.838D+00
 Coeff:     -0.323D-03 0.543D-02 0.314D-02-0.125D-01-0.727D-01-0.108D+00
 Coeff:      0.347D+00 0.838D+00
 Gap=     0.252 Goal=   None    Shift=    0.000
 RMSDP=2.74D-08 MaxDP=4.79D-07 DE=-1.72D-10 OVMax= 4.68D-06

 Cycle  17  Pass 1  IDiag  1:
 E= -862.951212608966     Delta-E=        0.000000000007 Rises=F Damp=F
 DIIS: error= 4.41D-08 at cycle   9 NSaved=   9.
 NSaved= 9 IEnMin= 8 EnMin= -862.951212608974     IErMin= 9 ErrMin= 4.41D-08
 ErrMax= 4.41D-08  0.00D+00 EMaxC= 1.00D-01 BMatC= 8.24D-13 BMatP= 1.05D-11
 IDIUse=1 WtCom= 1.00D+00 WtEn= 0.00D+00
 Coeff-Com: -0.160D-03 0.190D-02 0.218D-02 0.256D-02-0.257D-01-0.669D-01
 Coeff-Com:  0.424D-01 0.270D+00 0.774D+00
 Coeff:     -0.160D-03 0.190D-02 0.218D-02 0.256D-02-0.257D-01-0.669D-01
 Coeff:      0.424D-01 0.270D+00 0.774D+00
 Gap=     0.252 Goal=   None    Shift=    0.000
 RMSDP=7.66D-09 MaxDP=1.40D-07 DE= 7.28D-12 OVMax= 1.13D-06

 SCF Done:  E(RwB97XD) =  -862.951212609     A.U. after   17 cycles
            NFock= 17  Conv=0.77D-08     -V/T= 2.0092
 KE= 8.550786681337D+02 PE=-4.728302560556D+03 EE= 1.648709074368D+03
 Leave Link  502 at Tue Nov  7 13:00:40 2017, MaxMem=  3758096384 cpu:       234.2
 (Enter /share/apps/gaussian/g09_D01/g09/l801.exe)
 DoSCS=F DFT=T ScalE2(SS,OS)=  1.000000  1.000000
 ExpMin= 1.61D-01 ExpMax= 5.48D+03 ExpMxC= 8.25D+02 IAcc=3 IRadAn=         5 AccDes= 0.00D+00
 HarFok:  IExCor=  205 AccDes= 0.00D+00 IRadAn=         5 IDoV=-2 UseB2=F ITyADJ=14
 ICtDFT= 12500011 ScaDFX=  1.000000  1.000000  1.000000  1.000000
 Largest valence mixing into a core orbital is  7.27D-05
 Largest core mixing into a valence orbital is  1.52D-05
 Range of M.O.s used for correlation:    21   334
 NBasis=   334 NAE=    71 NBE=    71 NFC=    20 NFV=     0
 NROrb=    314 NOA=    51 NOB=    51 NVA=   263 NVB=   263
 Leave Link  801 at Tue Nov  7 13:00:41 2017, MaxMem=  3758096384 cpu:         2.0
 (Enter /share/apps/gaussian/g09_D01/g09/l914.exe)
 RHF ground state
 MDV=  3758096384 DFT=T DoStab=F Mixed=T DoRPA=T DoScal=F NonHer=T
 Would need an additional          5672200000 words for in-memory AO integral storage.
 Making orbital integer symmetry assigments:
    16 initial guesses have been made.
 Convergence on wavefunction:    0.001000000000000
 Davidson Disk Diagonalization:  ConvIn= 1.00D-03 SkipCon=T Conv= 1.00D-03.
 Max sub-space:   200 roots to seek:    16 dimension of matrix:        26826
 Iteration     1 Dimension    16 NMult     0 NNew     16
 CISAX will form    16 AO SS matrices at one time.
 NMat=    16 NSing=    16 JSym2X= 0.
 FoFJK:  IHMeth= 1 ICntrl=       0 DoSepK=T KAlg= 0 I1Cent=   0 FoldK=F
 IRaf=         1 NMat=  32 IRICut=       1 DoRegI=T DoRafI=F ISym2E= 0.
 FoFCou: FMM=F IPFlag=           0 FMFlag=      100000 FMFlg1=           0
         NFxFlg=           0 DoJE=F BraDBF=F KetDBF=F FulRan=T
         wScrn=  0.000000 ICntrl=     500 IOpCl=  0 I1Cent=           0 NGrid=           0
         NMat0=   16 NMatS0=     16 NMatT0=    0 NMatD0=   16 NMtDS0=    0 NMtDT0=    0
 Symmetry not used in FoFCou.
 New state      2 was old state      5
 New state      3 was old state      2
 New state      4 was old state      7
 Excitation Energies [eV] at current iteration:
 Root      1 :     4.091468719950049
 Root      2 :     4.284684067279188
 Root      3 :     4.759216411772075
 Root      4 :     5.074053811463507
 Root      5 :     5.791351384588529
 Root      6 :     6.164686121138311
 Root      7 :     6.351346837314319
 Root      8 :     6.427784381140976
 Root      9 :     6.608868678778043
 Root     10 :     6.916098292368670
 Root     11 :     7.188881946715152
 Root     12 :     7.427876922375409
 Root     13 :     7.746283022503061
 Root     14 :     7.900347006461983
 Root     15 :     8.212768792308198
 Root     16 :     8.260491775248994
 Iteration     2 Dimension    24 NMult    16 NNew      8
 CISAX will form     8 AO SS matrices at one time.
 NMat=     8 NSing=     8 JSym2X= 0.
 Root      1 not converged, maximum delta is    0.056040449909187
 Root      2 not converged, maximum delta is    0.113955116781374
 Root      3 not converged, maximum delta is    0.118831019601985
 Root      4 not converged, maximum delta is    0.071896772613122
 Excitation Energies [eV] at current iteration:
 Root      1 :     3.709104067238482   Change is   -0.382364652711567
 Root      2 :     3.938706359574524   Change is   -0.345977707704664
 Root      3 :     4.233964241635362   Change is   -0.525252170136713
 Root      4 :     4.765407002700549   Change is   -0.308646808762958
 Iteration     3 Dimension    32 NMult    24 NNew      8
 CISAX will form     8 AO SS matrices at one time.
 NMat=     8 NSing=     8 JSym2X= 0.
 Root      1 not converged, maximum delta is    0.015020996364934
 Root      2 not converged, maximum delta is    0.013209050893852
 Root      3 not converged, maximum delta is    0.040403571169633
 Root      4 not converged, maximum delta is    0.037699365916422
 Excitation Energies [eV] at current iteration:
 Root      1 :     3.680480119616858   Change is   -0.028623947621625
 Root      2 :     3.921474395788625   Change is   -0.017231963785899
 Root      3 :     4.184266883621186   Change is   -0.049697358014176
 Root      4 :     4.726243935228266   Change is   -0.039163067472284
 Iteration     4 Dimension    40 NMult    32 NNew      8
 CISAX will form     8 AO SS matrices at one time.
 NMat=     8 NSing=     8 JSym2X= 0.
 Root      1 not converged, maximum delta is    0.007905844401138
 Root      2 not converged, maximum delta is    0.002269146525198
 Root      3 not converged, maximum delta is    0.016744992270516
 Root      4 not converged, maximum delta is    0.004828482275174
 Excitation Energies [eV] at current iteration:
 Root      1 :     3.676887834304931   Change is   -0.003592285311927
 Root      2 :     3.919874557500962   Change is   -0.001599838287663
 Root      3 :     4.176302462253957   Change is   -0.007964421367229
 Root      4 :     4.724076965580074   Change is   -0.002166969648192
 Iteration     5 Dimension    48 NMult    40 NNew      8
 CISAX will form     8 AO SS matrices at one time.
 NMat=     8 NSing=     8 JSym2X= 0.
 Root      1 not converged, maximum delta is    0.001843458157509
 Root      2 has converged.
 Root      3 not converged, maximum delta is    0.003224812869365
 Root      4 not converged, maximum delta is    0.001713255645279
 Excitation Energies [eV] at current iteration:
 Root      1 :     3.676613233834011   Change is   -0.000274600470920
 Root      2 :     3.919760776358337   Change is   -0.000113781142625
 Root      3 :     4.175432976933457   Change is   -0.000869485320500
 Root      4 :     4.723893943930770   Change is   -0.000183021649304
 Iteration     6 Dimension    54 NMult    48 NNew      6
 CISAX will form     6 AO SS matrices at one time.
 NMat=     6 NSing=     6 JSym2X= 0.
 Root      1 has converged.
 Root      2 has converged.
 Root      3 has converged.
 Root      4 has converged.
 Excitation Energies [eV] at current iteration:
 Root      1 :     3.676588914617532   Change is   -0.000024319216479
 Root      2 :     3.919759511755035   Change is   -0.000001264603302
 Root      3 :     4.175363299287870   Change is   -0.000069677645586
 Root      4 :     4.723876112811863   Change is   -0.000017831118908
 Convergence achieved on expansion vectors.
 ***********************************************************************
 Excited states from <AA,BB:AA,BB> singles matrix:
 ***********************************************************************
 
 1PDM for each excited state written to RWF  633
 Ground to excited state transition densities written to RWF  633
 Ground to excited state transition electric dipole moments (Au):
       state          X           Y           Z        Dip. S.      Osc.
         1         3.3419      0.3297     -1.2879     12.9354      1.1652
         2         0.3147      0.0375     -0.1046      0.1114      0.0107
         3         0.3432     -0.1051     -0.1604      0.1545      0.0158
         4         0.3523      0.3001      0.1503      0.2368      0.0274
 Ground to excited state transition velocity dipole moments (Au):
       state          X           Y           Z        Dip. S.      Osc.
         1        -0.4421     -0.0416      0.1742      0.2275      1.1224
         2        -0.0433     -0.0030      0.0144      0.0021      0.0097
         3        -0.0496      0.0129      0.0183      0.0030      0.0129
         4        -0.0584     -0.0582     -0.0337      0.0079      0.0305
 Ground to excited state transition magnetic dipole moments (Au):
       state          X           Y           Z
         1        -0.3309     -1.3856     -1.2873
         2        -0.0938     -0.4275     -0.6230
         3        -0.4959      0.7874     -0.7233
         4         0.3137     -0.2287     -0.1128
 Ground to excited state transition velocity quadrupole moments (Au):
       state          XX          YY          ZZ          XY          XZ          YZ
         1         1.7280      0.1834      1.7258      0.7949     -2.6368     -0.5296
         2         0.0841      0.0031      0.1483      0.0599     -0.2251     -0.0375
         3         2.2387     -0.0629      0.6027      0.1988     -1.3135     -0.0943
         4         0.6173      0.3147     -0.5454      0.6088     -0.0120     -0.3272
 <0|del|b> * <b|rxdel|0> + <0|del|b> * <b|delr+rdel|0>
 Rotatory Strengths (R) in cgs (10**-40 erg-esu-cm/Gauss)
       state          XX          YY          ZZ    R(velocity)    E-M Angle
         1      -360.5362     46.3928    207.7238    -35.4732       91.27
         2       -18.3653    -10.1280     10.8173     -5.8920       95.93
         3        40.4988     28.5585     30.2128     33.0900       70.38
         4        -8.3738     51.1538    -47.6701     -1.6300       91.91
 1/2[<0|r|b>*<b|rxdel|0> + (<0|rxdel|b>*<b|r|0>)*]
 Rotatory Strengths (R) in cgs (10**-40 erg-esu-cm/Gauss)
       state          XX          YY          ZZ     R(length)
         1       781.9104    323.0773  -1172.3687    -22.4603
         2        20.8677     11.3475    -46.0673     -4.6174
         3       120.3540     58.5001    -82.0530     32.2670
         4       -78.1415     48.5320     11.9887     -5.8736
  1/2[<0|del|b>*<b|r|0> + (<0|r|b>*<b|del|0>)*] (Au)
       state          X           Y           Z        Dip. S.   Osc.(frdel)
         1        -1.4773     -0.0137     -0.2243      1.7153      1.1435
         2        -0.0136     -0.0001     -0.0015      0.0152      0.0102
         3        -0.0170     -0.0014     -0.0029      0.0213      0.0142
         4        -0.0206     -0.0175     -0.0051      0.0431      0.0287

 Excitation energies and oscillator strengths:
 
 Excited state symmetry could not be determined.
 Excited State   1:      Singlet-?Sym    3.6766 eV  337.23 nm  f=1.1652  <S**2>=0.000
      66 -> 72         0.10286
      70 -> 72        -0.18223
      70 -> 73         0.11809
      71 -> 72         0.64148
 This state for optimization and/or second-order correction.
 Total Energy, E(TD-HF/TD-KS) =  -862.816100447    
 Copying the excited state density for this state as the 1-particle RhoCI density.
 
 Excited state symmetry could not be determined.
 Excited State   2:      Singlet-?Sym    3.9198 eV  316.31 nm  f=0.0107  <S**2>=0.000
      68 -> 72         0.65504
      68 -> 73        -0.11892
      68 -> 76        -0.12483
 
 Excited state symmetry could not be determined.
 Excited State   3:      Singlet-?Sym    4.1754 eV  296.94 nm  f=0.0158  <S**2>=0.000
      69 -> 75        -0.10646
      70 -> 72         0.62243
      70 -> 73        -0.20534
      71 -> 72         0.18463
      71 -> 73         0.11381
 
 Excited state symmetry could not be determined.
 Excited State   4:      Singlet-?Sym    4.7239 eV  262.46 nm  f=0.0274  <S**2>=0.000
      67 -> 72        -0.29960
      67 -> 73        -0.16390
      71 -> 73        -0.16195
      71 -> 74         0.57493
 SavETr:  write IOETrn=   770 NScale= 10 NData=  16 NLR=1 NState=    4 LETran=      82.
 Leave Link  914 at Tue Nov  7 13:03:26 2017, MaxMem=  3758096384 cpu:       661.4
 (Enter /share/apps/gaussian/g09_D01/g09/l601.exe)
 Copying SCF densities to generalized density rwf, IOpCl= 0 IROHF=0.

 **********************************************************************

            Population analysis using the SCF density.

 **********************************************************************

 Alpha  occ. eigenvalues --  -19.27111 -19.25425 -14.48681 -10.38750 -10.36168
 Alpha  occ. eigenvalues --  -10.35480 -10.34116 -10.34012 -10.31932 -10.31093
 Alpha  occ. eigenvalues --  -10.30957 -10.30788 -10.30621 -10.30444 -10.30289
 Alpha  occ. eigenvalues --  -10.30259 -10.30084 -10.29602 -10.29208 -10.29020
 Alpha  occ. eigenvalues --   -1.15213  -1.11892  -1.06838  -0.96158  -0.95136
 Alpha  occ. eigenvalues --   -0.89987  -0.86457  -0.86104  -0.84045  -0.83369
 Alpha  occ. eigenvalues --   -0.83214  -0.78083  -0.73906  -0.71415  -0.70660
 Alpha  occ. eigenvalues --   -0.68745  -0.67131  -0.63836  -0.62514  -0.60622
 Alpha  occ. eigenvalues --   -0.59638  -0.57999  -0.56918  -0.56843  -0.54897
 Alpha  occ. eigenvalues --   -0.54586  -0.53456  -0.51963  -0.51669  -0.51093
 Alpha  occ. eigenvalues --   -0.50798  -0.50654  -0.50280  -0.49124  -0.47778
 Alpha  occ. eigenvalues --   -0.47275  -0.46373  -0.46267  -0.45752  -0.44970
 Alpha  occ. eigenvalues --   -0.44517  -0.42043  -0.41597  -0.41272  -0.40199
 Alpha  occ. eigenvalues --   -0.34099  -0.33593  -0.33264  -0.32760  -0.28790
 Alpha  occ. eigenvalues --   -0.26108
 Alpha virt. eigenvalues --   -0.00885   0.05342   0.06707   0.08877   0.11995
 Alpha virt. eigenvalues --    0.15694   0.16697   0.17638   0.17748   0.19186
 Alpha virt. eigenvalues --    0.19358   0.20366   0.22782   0.23645   0.24025
 Alpha virt. eigenvalues --    0.24329   0.24482   0.25197   0.25340   0.26292
 Alpha virt. eigenvalues --    0.26351   0.27251   0.27979   0.28286   0.29581
 Alpha virt. eigenvalues --    0.31979   0.32556   0.33015   0.33482   0.35207
 Alpha virt. eigenvalues --    0.37719   0.38269   0.40419   0.41032   0.41728
 Alpha virt. eigenvalues --    0.42440   0.43309   0.45233   0.48092   0.48725
 Alpha virt. eigenvalues --    0.52167   0.53004   0.56637   0.56738   0.58883
 Alpha virt. eigenvalues --    0.59141   0.60054   0.60668   0.61021   0.61318
 Alpha virt. eigenvalues --    0.62862   0.63550   0.63925   0.64674   0.65614
 Alpha virt. eigenvalues --    0.66455   0.66772   0.66963   0.67089   0.67634
 Alpha virt. eigenvalues --    0.68175   0.68636   0.69619   0.69702   0.70318
 Alpha virt. eigenvalues --    0.70413   0.71525   0.71928   0.72804   0.73165
 Alpha virt. eigenvalues --    0.74083   0.75860   0.76373   0.77284   0.79027
 Alpha virt. eigenvalues --    0.79255   0.81435   0.82352   0.82639   0.83099
 Alpha virt. eigenvalues --    0.86731   0.87753   0.88456   0.89211   0.90503
 Alpha virt. eigenvalues --    0.90937   0.91851   0.92439   0.93680   0.94504
 Alpha virt. eigenvalues --    0.94776   0.95584   0.95655   0.96394   0.97934
 Alpha virt. eigenvalues --    0.99031   0.99835   1.01093   1.01580   1.02753
 Alpha virt. eigenvalues --    1.03578   1.03727   1.04564   1.05837   1.06384
 Alpha virt. eigenvalues --    1.07805   1.08054   1.08350   1.09359   1.10793
 Alpha virt. eigenvalues --    1.11580   1.12053   1.13855   1.14879   1.15681
 Alpha virt. eigenvalues --    1.17581   1.19609   1.21056   1.21436   1.25698
 Alpha virt. eigenvalues --    1.26739   1.27399   1.28060   1.30643   1.32102
 Alpha virt. eigenvalues --    1.32976   1.33825   1.36051   1.37715   1.38194
 Alpha virt. eigenvalues --    1.38683   1.40526   1.42374   1.44195   1.44982
 Alpha virt. eigenvalues --    1.47027   1.48309   1.49322   1.49674   1.52064
 Alpha virt. eigenvalues --    1.53266   1.53305   1.54081   1.55818   1.56728
 Alpha virt. eigenvalues --    1.57171   1.58361   1.59205   1.59928   1.61183
 Alpha virt. eigenvalues --    1.65575   1.66880   1.69446   1.72942   1.79565
 Alpha virt. eigenvalues --    1.82394   1.82587   1.85561   1.85949   1.86521
 Alpha virt. eigenvalues --    1.87823   1.89403   1.89544   1.90128   1.92635
 Alpha virt. eigenvalues --    1.93657   1.94602   1.95373   1.98689   1.99340
 Alpha virt. eigenvalues --    2.00419   2.00695   2.02548   2.03861   2.04263
 Alpha virt. eigenvalues --    2.06117   2.07779   2.08113   2.09185   2.09544
 Alpha virt. eigenvalues --    2.11468   2.12282   2.14993   2.16742   2.18292
 Alpha virt. eigenvalues --    2.19198   2.19458   2.20796   2.22859   2.23376
 Alpha virt. eigenvalues --    2.24060   2.25401   2.27618   2.29518   2.31061
 Alpha virt. eigenvalues --    2.31880   2.32662   2.35133   2.36556   2.37811
 Alpha virt. eigenvalues --    2.39392   2.40099   2.40434   2.40733   2.41056
 Alpha virt. eigenvalues --    2.46638   2.47244   2.48955   2.51291   2.55930
 Alpha virt. eigenvalues --    2.57523   2.60441   2.61903   2.62822   2.63660
 Alpha virt. eigenvalues --    2.64811   2.68105   2.68821   2.69805   2.71002
 Alpha virt. eigenvalues --    2.72251   2.75176   2.77822   2.78552   2.79373
 Alpha virt. eigenvalues --    2.81477   2.83387   2.87523   2.90756   2.93309
 Alpha virt. eigenvalues --    2.95265   2.98820   3.00482   3.02346   3.05542
 Alpha virt. eigenvalues --    3.06692   3.13603   3.18075   3.24110   3.33067
 Alpha virt. eigenvalues --    3.38455   3.52974   3.55319   4.09319   4.12886
 Alpha virt. eigenvalues --    4.13064   4.19068   4.20300   4.21942   4.23198
 Alpha virt. eigenvalues --    4.24022   4.31019   4.33882   4.36215   4.39946
 Alpha virt. eigenvalues --    4.43144   4.45218   4.48704   4.54032   4.60933
 Alpha virt. eigenvalues --    4.78126   4.86022   4.89192
          Condensed to atoms (all electrons):
               1          2          3          4          5          6
     1  C    4.536622   0.528328   0.439511   0.339593  -0.020624  -0.029319
     2  C    0.528328   4.992575  -0.059711  -0.060517   0.546230   0.358021
     3  C    0.439511  -0.059711   5.152403  -0.064381  -0.029063   0.005732
     4  O    0.339593  -0.060517  -0.064381   8.286801   0.003223   0.000121
     5  C   -0.020624   0.546230  -0.029063   0.003223   4.862218  -0.038022
     6  H   -0.029319   0.358021   0.005732   0.000121  -0.038022   0.521622
     7  C   -0.035619  -0.037074   0.492658   0.004189  -0.037601   0.000208
     8  C   -0.037337   0.005149   0.333119  -0.002973   0.000081  -0.000092
     9  H   -0.020697   0.004481  -0.015822   0.211514  -0.000166   0.000031
    10  C   -0.035346  -0.039315  -0.026411   0.000061   0.536162   0.003768
    11  H    0.003248  -0.034911   0.000471  -0.000056   0.368173  -0.004389
    12  H    0.002930   0.000398  -0.035701  -0.000042   0.004189   0.000013
    13  C    0.006580  -0.000167  -0.098321  -0.000140  -0.000007   0.000002
    14  O   -0.001529   0.000535  -0.077463  -0.047803  -0.000014   0.000010
    15  H    0.000643   0.003507   0.002657   0.000002  -0.037268  -0.000125
    16  C   -0.000201   0.000000   0.010331   0.000016   0.000001   0.000000
    17  H   -0.000107   0.000003  -0.007250   0.000004  -0.000007   0.000000
    18  C    0.000000   0.000000  -0.000058   0.000000   0.000000   0.000000
    19  H   -0.000004   0.000000   0.001040   0.000009   0.000000   0.000000
    20  C    0.000000   0.000000   0.000003   0.000000   0.000000   0.000000
    21  C    0.000000   0.000000  -0.000001   0.000000   0.000000   0.000000
    22  C    0.000000   0.000000   0.000000   0.000000   0.000000   0.000000
    23  H    0.000000   0.000000   0.000013   0.000000   0.000000   0.000000
    24  C    0.000000   0.000000   0.000000   0.000000   0.000000   0.000000
    25  H    0.000000   0.000000   0.000000   0.000000   0.000000   0.000000
    26  C    0.000000   0.000000   0.000000   0.000000   0.000000   0.000000
    27  H    0.000000   0.000000   0.000000   0.000000   0.000000   0.000000
    28  H    0.000000   0.000000   0.000000   0.000000   0.000000   0.000000
    29  N    0.000000   0.000000   0.000000   0.000000   0.000000   0.000000
    30  C    0.000000   0.000000   0.000000   0.000000   0.000000   0.000000
    31  C    0.000000   0.000000   0.000000   0.000000   0.000000   0.000000
    32  H    0.000000   0.000000   0.000000   0.000000   0.000000   0.000000
    33  H    0.000000   0.000000   0.000000   0.000000   0.000000   0.000000
    34  H    0.000000   0.000000   0.000000   0.000000   0.000000   0.000000
    35  H    0.000000   0.000000   0.000000   0.000000   0.000000   0.000000
    36  H    0.000000   0.000000   0.000000   0.000000   0.000000   0.000000
    37  H    0.000000   0.000000   0.000000   0.000000   0.000000   0.000000
               7          8          9         10         11         12
     1  C   -0.035619  -0.037337  -0.020697  -0.035346   0.003248   0.002930
     2  C   -0.037074   0.005149   0.004481  -0.039315  -0.034911   0.000398
     3  C    0.492658   0.333119  -0.015822  -0.026411   0.000471  -0.035701
     4  O    0.004189  -0.002973   0.211514   0.000061  -0.000056  -0.000042
     5  C   -0.037601   0.000081  -0.000166   0.536162   0.368173   0.004189
     6  H    0.000208  -0.000092   0.000031   0.003768  -0.004389   0.000013
     7  C    4.986286  -0.049077  -0.000004   0.543903   0.004151   0.360318
     8  C   -0.049077   4.510250  -0.005019   0.004880   0.000004  -0.009680
     9  H   -0.000004  -0.005019   0.274907   0.000001   0.000003  -0.000002
    10  C    0.543903   0.004880   0.000001   4.902903  -0.038088  -0.037632
    11  H    0.004151   0.000004   0.000003  -0.038088   0.533195  -0.000170
    12  H    0.360318  -0.009680  -0.000002  -0.037632  -0.000170   0.544028
    13  C   -0.003577   0.373888   0.002270   0.000317   0.000000   0.003970
    14  O    0.004083   0.480946   0.081503  -0.000033   0.000000   0.000002
    15  H   -0.034451  -0.000116   0.000000   0.371245  -0.003920  -0.004185
    16  C    0.000232  -0.004651  -0.000070  -0.000011   0.000000   0.000417
    17  H    0.002816  -0.029280  -0.000058   0.000508   0.000000   0.004193
    18  C   -0.000016   0.003105  -0.000002   0.000000   0.000000  -0.000026
    19  H   -0.000021  -0.006845  -0.000068   0.000000   0.000000  -0.000002
    20  C    0.000005   0.000426   0.000000   0.000000   0.000000   0.000000
    21  C    0.000000  -0.000229   0.000000   0.000000   0.000000   0.000000
    22  C    0.000000  -0.000004   0.000000   0.000000   0.000000   0.000000
    23  H   -0.000022   0.000105   0.000000   0.000000   0.000000  -0.000003
    24  C    0.000000   0.000001   0.000000   0.000000   0.000000   0.000000
    25  H    0.000000  -0.000002   0.000000   0.000000   0.000000   0.000000
    26  C    0.000000   0.000000   0.000000   0.000000   0.000000   0.000000
    27  H    0.000000   0.000000   0.000000   0.000000   0.000000   0.000000
    28  H    0.000000   0.000000   0.000000   0.000000   0.000000   0.000000
    29  N    0.000000   0.000000   0.000000   0.000000   0.000000   0.000000
    30  C    0.000000   0.000000   0.000000   0.000000   0.000000   0.000000
    31  C    0.000000   0.000000   0.000000   0.000000   0.000000   0.000000
    32  H    0.000000   0.000000   0.000000   0.000000   0.000000   0.000000
    33  H    0.000000   0.000000   0.000000   0.000000   0.000000   0.000000
    34  H    0.000000   0.000000   0.000000   0.000000   0.000000   0.000000
    35  H    0.000000   0.000000   0.000000   0.000000   0.000000   0.000000
    36  H    0.000000   0.000000   0.000000   0.000000   0.000000   0.000000
    37  H    0.000000   0.000000   0.000000   0.000000   0.000000   0.000000
              13         14         15         16         17         18
     1  C    0.006580  -0.001529   0.000643  -0.000201  -0.000107   0.000000
     2  C   -0.000167   0.000535   0.003507   0.000000   0.000003   0.000000
     3  C   -0.098321  -0.077463   0.002657   0.010331  -0.007250  -0.000058
     4  O   -0.000140  -0.047803   0.000002   0.000016   0.000004   0.000000
     5  C   -0.000007  -0.000014  -0.037268   0.000001  -0.000007   0.000000
     6  H    0.000002   0.000010  -0.000125   0.000000   0.000000   0.000000
     7  C   -0.003577   0.004083  -0.034451   0.000232   0.002816  -0.000016
     8  C    0.373888   0.480946  -0.000116  -0.004651  -0.029280   0.003105
     9  H    0.002270   0.081503   0.000000  -0.000070  -0.000058  -0.000002
    10  C    0.000317  -0.000033   0.371245  -0.000011   0.000508   0.000000
    11  H    0.000000   0.000000  -0.003920   0.000000   0.000000   0.000000
    12  H    0.003970   0.000002  -0.004185   0.000417   0.004193  -0.000026
    13  C    5.280673  -0.105399   0.000012   0.515477   0.356839  -0.032024
    14  O   -0.105399   8.223959   0.000000   0.002917   0.002430   0.001193
    15  H    0.000012   0.000000   0.538123   0.000000  -0.000004   0.000000
    16  C    0.515477   0.002917   0.000000   5.035065  -0.042086   0.374906
    17  H    0.356839   0.002430  -0.000004  -0.042086   0.547190  -0.008746
    18  C   -0.032024   0.001193   0.000000   0.374906  -0.008746   4.662141
    19  H   -0.056454   0.017154   0.000000   0.368215   0.004565  -0.041600
    20  C   -0.012036   0.000006   0.000000  -0.057082   0.003691   0.541805
    21  C    0.006366  -0.000032   0.000000  -0.039769   0.000096   0.528512
    22  C    0.000125   0.000000   0.000000   0.006782   0.000175  -0.030557
    23  H    0.004799   0.000002   0.000000  -0.010892   0.003674  -0.032848
    24  C   -0.000266   0.000000   0.000000   0.007128   0.000011  -0.032724
    25  H    0.000236  -0.000005   0.000000  -0.005612   0.000006  -0.039949
    26  C    0.000016   0.000000   0.000000   0.000306  -0.000009  -0.023279
    27  H    0.000004   0.000000   0.000000  -0.000172   0.000004   0.002637
    28  H    0.000002   0.000000   0.000000  -0.000160   0.000000   0.002536
    29  N    0.000000   0.000000   0.000000  -0.000001   0.000000   0.000320
    30  C    0.000000   0.000000   0.000000   0.000000   0.000000   0.000002
    31  C    0.000000   0.000000   0.000000   0.000000   0.000000   0.000003
    32  H    0.000000   0.000000   0.000000   0.000000   0.000000  -0.000007
    33  H    0.000000   0.000000   0.000000   0.000000   0.000000   0.000000
    34  H    0.000000   0.000000   0.000000   0.000000   0.000000  -0.000008
    35  H    0.000000   0.000000   0.000000   0.000000   0.000000  -0.000007
    36  H    0.000000   0.000000   0.000000   0.000000   0.000000   0.000000
    37  H    0.000000   0.000000   0.000000   0.000000   0.000000  -0.000007
              19         20         21         22         23         24
     1  C   -0.000004   0.000000   0.000000   0.000000   0.000000   0.000000
     2  C    0.000000   0.000000   0.000000   0.000000   0.000000   0.000000
     3  C    0.001040   0.000003  -0.000001   0.000000   0.000013   0.000000
     4  O    0.000009   0.000000   0.000000   0.000000   0.000000   0.000000
     5  C    0.000000   0.000000   0.000000   0.000000   0.000000   0.000000
     6  H    0.000000   0.000000   0.000000   0.000000   0.000000   0.000000
     7  C   -0.000021   0.000005   0.000000   0.000000  -0.000022   0.000000
     8  C   -0.006845   0.000426  -0.000229  -0.000004   0.000105   0.000001
     9  H   -0.000068   0.000000   0.000000   0.000000   0.000000   0.000000
    10  C    0.000000   0.000000   0.000000   0.000000   0.000000   0.000000
    11  H    0.000000   0.000000   0.000000   0.000000   0.000000   0.000000
    12  H   -0.000002   0.000000   0.000000   0.000000  -0.000003   0.000000
    13  C   -0.056454  -0.012036   0.006366   0.000125   0.004799  -0.000266
    14  O    0.017154   0.000006  -0.000032   0.000000   0.000002   0.000000
    15  H    0.000000   0.000000   0.000000   0.000000   0.000000   0.000000
    16  C    0.368215  -0.057082  -0.039769   0.006782  -0.010892   0.007128
    17  H    0.004565   0.003691   0.000096   0.000175   0.003674   0.000011
    18  C   -0.041600   0.541805   0.528512  -0.030557  -0.032848  -0.032724
    19  H    0.509745   0.004710  -0.005512  -0.000098  -0.000036   0.000351
    20  C    0.004710   4.963821  -0.050861   0.529136   0.359241  -0.043441
    21  C   -0.005512  -0.050861   4.988426  -0.047460   0.005404   0.509900
    22  C   -0.000098   0.529136  -0.047460   5.034048  -0.039409  -0.049066
    23  H   -0.000036   0.359241   0.005404  -0.039409   0.546515   0.000374
    24  C    0.000351  -0.043441   0.509900  -0.049066   0.000374   5.044492
    25  H    0.005443   0.004947   0.363929   0.000506  -0.000150  -0.036053
    26  C   -0.000008  -0.018692  -0.016802   0.529579   0.002939   0.537138
    27  H    0.000002  -0.033621   0.000503   0.362412  -0.004685   0.004387
    28  H   -0.000009   0.000471  -0.031993   0.004479   0.000015   0.361483
    29  N    0.000000   0.005207   0.005195  -0.074704  -0.000100  -0.075624
    30  C    0.000000   0.000033  -0.000092  -0.008588  -0.000006   0.005072
    31  C    0.000000  -0.000088  -0.000001   0.005030   0.000002  -0.008265
    32  H    0.000000   0.000121  -0.000001   0.002559  -0.000003  -0.000058
    33  H    0.000000  -0.000005   0.000003   0.000544   0.000000  -0.000114
    34  H    0.000000   0.000148  -0.000003   0.004410  -0.000001   0.000022
    35  H    0.000000  -0.000003   0.000034   0.000046   0.000000   0.003926
    36  H    0.000000   0.000002  -0.000003  -0.000110   0.000000   0.000460
    37  H    0.000000   0.000000   0.000156  -0.000100   0.000000   0.003019
              25         26         27         28         29         30
     1  C    0.000000   0.000000   0.000000   0.000000   0.000000   0.000000
     2  C    0.000000   0.000000   0.000000   0.000000   0.000000   0.000000
     3  C    0.000000   0.000000   0.000000   0.000000   0.000000   0.000000
     4  O    0.000000   0.000000   0.000000   0.000000   0.000000   0.000000
     5  C    0.000000   0.000000   0.000000   0.000000   0.000000   0.000000
     6  H    0.000000   0.000000   0.000000   0.000000   0.000000   0.000000
     7  C    0.000000   0.000000   0.000000   0.000000   0.000000   0.000000
     8  C   -0.000002   0.000000   0.000000   0.000000   0.000000   0.000000
     9  H    0.000000   0.000000   0.000000   0.000000   0.000000   0.000000
    10  C    0.000000   0.000000   0.000000   0.000000   0.000000   0.000000
    11  H    0.000000   0.000000   0.000000   0.000000   0.000000   0.000000
    12  H    0.000000   0.000000   0.000000   0.000000   0.000000   0.000000
    13  C    0.000236   0.000016   0.000004   0.000002   0.000000   0.000000
    14  O   -0.000005   0.000000   0.000000   0.000000   0.000000   0.000000
    15  H    0.000000   0.000000   0.000000   0.000000   0.000000   0.000000
    16  C   -0.005612   0.000306  -0.000172  -0.000160  -0.000001   0.000000
    17  H    0.000006  -0.000009   0.000004   0.000000   0.000000   0.000000
    18  C   -0.039949  -0.023279   0.002637   0.002536   0.000320   0.000002
    19  H    0.005443  -0.000008   0.000002  -0.000009   0.000000   0.000000
    20  C    0.004947  -0.018692  -0.033621   0.000471   0.005207   0.000033
    21  C    0.363929  -0.016802   0.000503  -0.031993   0.005195  -0.000092
    22  C    0.000506   0.529579   0.362412   0.004479  -0.074704  -0.008588
    23  H   -0.000150   0.002939  -0.004685   0.000015  -0.000100  -0.000006
    24  C   -0.036053   0.537138   0.004387   0.361483  -0.075624   0.005072
    25  H    0.534440   0.002725   0.000015  -0.004425  -0.000099   0.000002
    26  C    0.002725   4.436397  -0.035524  -0.035699   0.338929  -0.044314
    27  H    0.000015  -0.035524   0.544178  -0.000129  -0.010838   0.007889
    28  H   -0.004425  -0.035699  -0.000129   0.542669  -0.010664  -0.000061
    29  N   -0.000099   0.338929  -0.010838  -0.010664   6.958578   0.304686
    30  C    0.000002  -0.044314   0.007889  -0.000061   0.304686   5.005440
    31  C   -0.000004  -0.042323  -0.000065   0.007545   0.304100  -0.052965
    32  H    0.000000  -0.004001  -0.000220  -0.000001  -0.045395   0.383232
    33  H    0.000000   0.003468   0.000162  -0.000002  -0.031540   0.383067
    34  H    0.000000  -0.004348  -0.000370  -0.000001  -0.046678   0.378885
    35  H   -0.000001  -0.002907  -0.000002  -0.000211  -0.047621   0.002336
    36  H    0.000000   0.003334  -0.000002   0.000122  -0.031359  -0.006182
    37  H   -0.000001  -0.004658  -0.000001   0.000006  -0.043602   0.003101
              31         32         33         34         35         36
     1  C    0.000000   0.000000   0.000000   0.000000   0.000000   0.000000
     2  C    0.000000   0.000000   0.000000   0.000000   0.000000   0.000000
     3  C    0.000000   0.000000   0.000000   0.000000   0.000000   0.000000
     4  O    0.000000   0.000000   0.000000   0.000000   0.000000   0.000000
     5  C    0.000000   0.000000   0.000000   0.000000   0.000000   0.000000
     6  H    0.000000   0.000000   0.000000   0.000000   0.000000   0.000000
     7  C    0.000000   0.000000   0.000000   0.000000   0.000000   0.000000
     8  C    0.000000   0.000000   0.000000   0.000000   0.000000   0.000000
     9  H    0.000000   0.000000   0.000000   0.000000   0.000000   0.000000
    10  C    0.000000   0.000000   0.000000   0.000000   0.000000   0.000000
    11  H    0.000000   0.000000   0.000000   0.000000   0.000000   0.000000
    12  H    0.000000   0.000000   0.000000   0.000000   0.000000   0.000000
    13  C    0.000000   0.000000   0.000000   0.000000   0.000000   0.000000
    14  O    0.000000   0.000000   0.000000   0.000000   0.000000   0.000000
    15  H    0.000000   0.000000   0.000000   0.000000   0.000000   0.000000
    16  C    0.000000   0.000000   0.000000   0.000000   0.000000   0.000000
    17  H    0.000000   0.000000   0.000000   0.000000   0.000000   0.000000
    18  C    0.000003  -0.000007   0.000000  -0.000008  -0.000007   0.000000
    19  H    0.000000   0.000000   0.000000   0.000000   0.000000   0.000000
    20  C   -0.000088   0.000121  -0.000005   0.000148  -0.000003   0.000002
    21  C   -0.000001  -0.000001   0.000003  -0.000003   0.000034  -0.000003
    22  C    0.005030   0.002559   0.000544   0.004410   0.000046  -0.000110
    23  H    0.000002  -0.000003   0.000000  -0.000001   0.000000   0.000000
    24  C   -0.008265  -0.000058  -0.000114   0.000022   0.003926   0.000460
    25  H   -0.000004   0.000000   0.000000   0.000000  -0.000001   0.000000
    26  C   -0.042323  -0.004001   0.003468  -0.004348  -0.002907   0.003334
    27  H   -0.000065  -0.000220   0.000162  -0.000370  -0.000002  -0.000002
    28  H    0.007545  -0.000001  -0.000002  -0.000001  -0.000211   0.000122
    29  N    0.304100  -0.045395  -0.031540  -0.046678  -0.047621  -0.031359
    30  C   -0.052965   0.383232   0.383067   0.378885   0.002336  -0.006182
    31  C    5.005079   0.002873  -0.006034   0.002619   0.380126   0.383093
    32  H    0.002873   0.549011  -0.025724  -0.046118  -0.000339   0.000260
    33  H   -0.006034  -0.025724   0.515247  -0.025843   0.000249   0.005181
    34  H    0.002619  -0.046118  -0.025843   0.556341   0.000628   0.000097
    35  H    0.380126  -0.000339   0.000249   0.000628   0.554825  -0.026626
    36  H    0.383093   0.000260   0.005181   0.000097  -0.026626   0.515403
    37  H    0.381340   0.000321   0.000123  -0.000325  -0.045774  -0.024922
              37
     1  C    0.000000
     2  C    0.000000
     3  C    0.000000
     4  O    0.000000
     5  C    0.000000
     6  H    0.000000
     7  C    0.000000
     8  C    0.000000
     9  H    0.000000
    10  C    0.000000
    11  H    0.000000
    12  H    0.000000
    13  C    0.000000
    14  O    0.000000
    15  H    0.000000
    16  C    0.000000
    17  H    0.000000
    18  C   -0.000007
    19  H    0.000000
    20  C    0.000000
    21  C    0.000156
    22  C   -0.000100
    23  H    0.000000
    24  C    0.003019
    25  H   -0.000001
    26  C   -0.004658
    27  H   -0.000001
    28  H    0.000006
    29  N   -0.043602
    30  C    0.003101
    31  C    0.381340
    32  H    0.000321
    33  H    0.000123
    34  H   -0.000325
    35  H   -0.045774
    36  H   -0.024922
    37  H    0.546960
 Mulliken charges:
               1
     1  C    0.323328
     2  C   -0.207532
     3  C   -0.023757
     4  O   -0.669620
     5  C   -0.157503
     6  H    0.182419
     7  C   -0.201389
     8  C    0.433351
     9  H    0.467198
    10  C   -0.186911
    11  H    0.172290
    12  H    0.166987
    13  C   -0.243184
    14  O   -0.582460
    15  H    0.163882
    16  C   -0.161086
    17  H    0.161343
    18  C    0.124699
    19  H    0.199424
    20  C   -0.197944
    21  C   -0.215764
    22  C   -0.229735
    23  H    0.165074
    24  C   -0.232153
    25  H    0.174053
    26  C    0.377731
    27  H    0.163436
    28  H    0.164029
    29  N   -0.498789
    30  C   -0.361537
    31  C   -0.362065
    32  H    0.183490
    33  H    0.181218
    34  H    0.180544
    35  H    0.181319
    36  H    0.181252
    37  H    0.184363
 Sum of Mulliken charges =   0.00000
 Mulliken charges with hydrogens summed into heavy atoms:
               1
     1  C    0.323328
     2  C   -0.025113
     3  C   -0.023757
     4  O   -0.202421
     5  C    0.014787
     7  C   -0.034402
     8  C    0.433351
    10  C   -0.023029
    13  C   -0.081841
    14  O   -0.582460
    16  C    0.038338
    18  C    0.124699
    20  C   -0.032871
    21  C   -0.041711
    22  C   -0.066300
    24  C   -0.068124
    26  C    0.377731
    29  N   -0.498789
    30  C    0.183715
    31  C    0.184869
 Electronic spatial extent (au):  <R**2>=          14356.2825
 Charge=              0.0000 electrons
 Dipole moment (field-independent basis, Debye):
    X=             -5.8511    Y=              1.1607    Z=              5.1853  Tot=              7.9038
 Quadrupole moment (field-independent basis, Debye-Ang):
   XX=            -77.4886   YY=           -116.7350   ZZ=            -92.3255
   XY=             15.3875   XZ=            -21.5416   YZ=              1.1149
 Traceless Quadrupole moment (field-independent basis, Debye-Ang):
   XX=             18.0278   YY=            -21.2187   ZZ=              3.1909
   XY=             15.3875   XZ=            -21.5416   YZ=              1.1149
 Octapole moment (field-independent basis, Debye-Ang**2):
  XXX=             49.0337  YYY=            363.1035  ZZZ=           -733.2017  XYY=             63.4812
  XXY=             80.2826  XXZ=            -77.4917  XZZ=            -40.7056  YZZ=            138.2938
  YYZ=           -288.0789  XYZ=             32.1437
 Hexadecapole moment (field-independent basis, Debye-Ang**3):
 XXXX=          -9113.5087 YYYY=          -1548.5402 ZZZZ=          -5687.4243 XXXY=           -378.1371
 XXXZ=           1171.1903 YYYX=           -977.5787 YYYZ=            877.4178 ZZZX=           1762.7731
 ZZZY=            948.2771 XXYY=          -2024.1598 XXZZ=          -1918.6956 YYZZ=          -1351.1037
 XXYZ=             86.1526 YYXZ=            798.1585 ZZXY=           -228.9287
 N-N= 1.361563605446D+03 E-N=-4.728302562384D+03  KE= 8.550786681337D+02
 Leave Link  601 at Tue Nov  7 13:03:26 2017, MaxMem=  3758096384 cpu:         0.2
 (Enter /share/apps/gaussian/g09_D01/g09/l9999.exe)
 1\1\GINC-NXV21\SP\RwB97XD TD-FC\6-31G(d)\C17H17N1O2\BTX008\07-Nov-2017
 \0\\#p wb97xd 6-31G* td=(nstates=4) nosymm\\mon-1\\0,1\C,0,3.469637,-0
 .762135,0.426097\C,0,4.694846,-0.123167,0.639832\C,0,2.435655,-0.67022
 7,1.389238\O,0,3.312841,-1.442316,-0.722541\C,0,4.904305,0.605365,1.79
 6811\H,0,5.461105,-0.224636,-0.12003\C,0,2.689903,0.072047,2.555468\C,
 0,1.141554,-1.344944,1.138267\H,0,2.421564,-1.87445,-0.644066\C,0,3.89
 8719,0.708372,2.760969\H,0,5.85715,1.096835,1.966215\H,0,1.925122,0.15
 5975,3.31556\C,0,0.019172,-1.152682,2.053535\O,0,1.007505,-2.062253,0.
 123686\H,0,4.065909,1.274317,3.666625\C,0,-1.130542,-1.839782,1.873217
 \H,0,0.112004,-0.428463,2.853188\C,0,-2.361938,-1.705922,2.623443\H,0,
 -1.148735,-2.554182,1.049733\C,0,-2.547126,-0.772889,3.657215\C,0,-3.4
 67667,-2.493615,2.273935\C,0,-3.757917,-0.631349,4.297941\H,0,-1.72704
 8,-0.137611,3.974085\C,0,-4.685337,-2.381422,2.91386\H,0,-3.363046,-3.
 217472,1.474305\C,0,-4.864384,-1.44594,3.954581\H,0,-3.846333,0.119529
 ,5.070263\H,0,-5.501955,-3.015075,2.599042\N,0,-6.058026,-1.328952,4.6
 11296\C,0,-6.175522,-0.392391,5.707507\C,0,-7.149324,-2.232755,4.31158
 4\H,0,-6.057178,0.643319,5.369066\H,0,-7.156988,-0.493911,6.162005\H,0
 ,-5.430953,-0.589622,6.486644\H,0,-6.886034,-3.27762,4.519652\H,0,-8.0
 11369,-1.972206,4.926811\H,0,-7.455926,-2.159977,3.26224\\Version=ES64
 L-G09RevD.01\HF=-862.9512126\RMSD=7.658e-09\PG=C01 [X(C17H17N1O2)]\\@


 ONLY THE DAY DAWNS TO WHICH YOU ARE AWAKE.

                                 -- THOREAU
 Job cpu time:       0 days  0 hours 15 minutes  4.7 seconds.
 File lengths (MBytes):  RWF=    231 Int=      0 D2E=      0 Chk=     22 Scr=      1
 Normal termination of Gaussian 09 at Tue Nov  7 13:03:27 2017.
