
     Program PWSCF v.6.1 (svn rev. 13369) starts on  4Oct2017 at 18:34:18 

     This program is part of the open-source Quantum ESPRESSO suite
     for quantum simulation of materials; please cite
         "P. Giannozzi et al., J. Phys.:Condens. Matter 21 395502 (2009);
          URL http://www.quantum-espresso.org", 
     in publications or presentations arising from this work. More details at
     http://www.quantum-espresso.org/quote

     Parallel version (MPI), running on     1 processors
     Waiting for input...
     Reading input from standard input

     Current dimensions of program PWSCF are:
     Max number of different atomic species (ntypx) = 10
     Max number of k-points (npk) =  40000
     Max angular momentum in pseudopotentials (lmaxx) =  3
     Message from routine iosys:
     london is obsolete, use "vdw_corr='grimme-d2'" instead

     IMPORTANT: XC functional enforced from input :
     Exchange-correlation      = PBE ( 1  4  3  4 0 0)
     Any further DFT definition will be discarded
     Please, verify this is what you really want

               file C.pbe-rrkjus.UPF: wavefunction(s)  2S 2P renormalized
               file H.pbe-rrkjus.UPF: wavefunction(s)  1S renormalized
               file O.pbe-rrkjus.UPF: wavefunction(s)  2S renormalized
               file N.pbe-rrkjus.UPF: wavefunction(s)  2S renormalized

     -------------------------------------
     Parameters for Dispersion Correction:
     -------------------------------------
       atom      VdW radius       C_6     

        C          2.744         60.710
        H          1.892          4.857
        O          2.536         24.284
        N          2.640         42.670

     Subspace diagonalization in iterative solution of the eigenvalue problem:
     a serial algorithm will be used

 
     G-vector sticks info
     --------------------
     sticks:   dense  smooth     PW     G-vecs:    dense   smooth      PW
     Sum        3227    3227    911               152537   152537   22677
 


     bravais-lattice index     =            0
     lattice parameter (alat)  =      16.9391  a.u.
     unit-cell volume          =    6867.9197 (a.u.)^3
     number of atoms/cell      =          108
     number of atomic types    =            4
     number of electrons       =       296.00
     number of Kohn-Sham states=          148
     kinetic-energy cutoff     =      30.0000  Ry
     charge density cutoff     =     120.0000  Ry
     convergence threshold     =      1.0E-07
     mixing beta               =       0.7000
     number of iterations used =            8  plain     mixing
     Exchange-correlation      = PBE ( 1  4  3  4 0 0)
     nstep                     =           50


     celldm(1)=  16.939128  celldm(2)=   0.000000  celldm(3)=   0.000000
     celldm(4)=   0.000000  celldm(5)=   0.000000  celldm(6)=   0.000000

     crystal axes: (cart. coord. in units of alat)
               a(1) = (   1.000000   0.000000   0.000000 )  
               a(2) = (   0.000000   1.173609   0.000000 )  
               a(3) = (  -0.432282   0.000000   1.204006 )  

     reciprocal axes: (cart. coord. in units 2 pi/alat)
               b(1) = (  1.000000  0.000000  0.359037 )  
               b(2) = (  0.000000  0.852072  0.000000 )  
               b(3) = (  0.000000  0.000000  0.830561 )  


     PseudoPot. # 1 for C  read from file:
     /data/home/btx156/espresso/pseudo/C.pbe-rrkjus.UPF
     MD5 check sum: 00fb224312de0c5b6853bd333518df6f
     Pseudo is Ultrasoft, Zval =  4.0
     Generated by new atomic code, or converted to UPF format
     Using radial grid of  627 points,  4 beta functions with: 
                l(1) =   0
                l(2) =   0
                l(3) =   1
                l(4) =   1
     Q(r) pseudized with 0 coefficients 


     PseudoPot. # 2 for H  read from file:
     /data/home/btx156/espresso/pseudo/H.pbe-rrkjus.UPF
     MD5 check sum: 7cc9d459525c9a0585f487a71c3c9563
     Pseudo is Ultrasoft, Zval =  1.0
     Generated by new atomic code, or converted to UPF format
     Using radial grid of 1061 points,  2 beta functions with: 
                l(1) =   0
                l(2) =   0
     Q(r) pseudized with 0 coefficients 


     PseudoPot. # 3 for O  read from file:
     /data/home/btx156/espresso/pseudo/O.pbe-rrkjus.UPF
     MD5 check sum: 390ba29e75625707450f3bd3f0eb6be9
     Pseudo is Ultrasoft, Zval =  6.0
     Generated by new atomic code, or converted to UPF format
     Using radial grid of 1269 points,  4 beta functions with: 
                l(1) =   0
                l(2) =   0
                l(3) =   1
                l(4) =   1
     Q(r) pseudized with 0 coefficients 


     PseudoPot. # 4 for N  read from file:
     /data/home/btx156/espresso/pseudo/N.pbe-rrkjus.UPF
     MD5 check sum: 0c3fbe5807a93f9ba59d5a7019aa238b
     Pseudo is Ultrasoft, Zval =  5.0
     Generated by new atomic code, or converted to UPF format
     Using radial grid of 1257 points,  4 beta functions with: 
                l(1) =   0
                l(2) =   0
                l(3) =   1
                l(4) =   1
     Q(r) pseudized with 0 coefficients 


     atomic species   valence    mass     pseudopotential
        C              4.00    12.00000     C ( 1.00)
        H              1.00     1.00790     H ( 1.00)
        O              6.00    15.99940     O ( 1.00)
        N              5.00    14.00670     N ( 1.00)

      2 Sym. Ops., with inversion, found



   Cartesian axes

     site n.     atom                  positions (alat units)
         1           C   tau(   1) = (   0.0581442   0.2704524   0.3982087  )
         2           C   tau(   2) = (   0.5095736   0.9031570   0.8057968  )
         3           C   tau(   3) = (   0.2257032   0.8572673   0.2038109  )
         4           C   tau(   4) = (   0.3420146   0.3163420   1.0001946  )
         5           C   tau(   5) = (  -0.0882879   0.2341486   0.4685292  )
         6           C   tau(   6) = (   0.6560057   0.9394609   0.7354762  )
         7           C   tau(   7) = (   0.3721351   0.8209534   0.1334721  )
         8           C   tau(   8) = (   0.1955827   0.3526560   1.0705335  )
         9           C   tau(   9) = (   0.1585774   0.3698550   0.4750031  )
        10           C   tau(  10) = (   0.4091404   0.8037544   0.7290024  )
        11           C   tau(  11) = (   0.1252332   0.9566326   0.1270183  )
        12           C   tau(  12) = (   0.4424845   0.2169768   1.0769873  )
        13           C   tau(  13) = (   0.8047532   0.1443040   0.3894468  )
        14           C   tau(  14) = (  -0.2370354   1.0293053   0.8145587  )
        15           C   tau(  15) = (   0.4791010   0.7311201   0.2125596  )
        16           C   tau(  16) = (   0.0886168   0.4424892   0.9914459  )
        17           C   tau(  17) = (   0.1051528   0.2107790   0.2583677  )
        18           C   tau(  18) = (   0.4625650   0.9628304   0.9456379  )
        19           C   tau(  19) = (   0.1786776   0.7975840   0.3436413  )
        20           C   tau(  20) = (   0.3890402   0.3760253   0.8603643  )
        21           C   tau(  21) = (   0.3006429   0.4036806   0.4134610  )
        22           C   tau(  22) = (   0.2670749   0.7699288   0.7905445  )
        23           C   tau(  23) = (  -0.0168370   0.9904624   0.1885438  )
        24           C   tau(  24) = (   0.5845548   0.1831469   1.0154618  )
        25           C   tau(  25) = (   0.6711278   0.1036118   0.4586769  )
        26           C   tau(  26) = (  -0.1034100   1.0699975   0.7453286  )
        27           C   tau(  27) = (   0.6127216   0.6904201   0.1433212  )
        28           C   tau(  28) = (  -0.0450038   0.4831892   1.0606843  )
        29           C   tau(  29) = (   0.3425384   0.3435090   0.2749285  )
        30           C   tau(  30) = (   0.2251794   0.8301004   0.9290770  )
        31           C   tau(  31) = (  -0.0587532   0.9302852   0.3270649  )
        32           C   tau(  32) = (   0.6264709   0.2433242   0.8769407  )
        33           C   tau(  33) = (   0.5616263   1.1525089   0.2403002  )
        34           C   tau(  34) = (   0.0060915   0.0211004   0.9637053  )
        35           C   tau(  35) = (   0.7222039   0.5656991   0.3616926  )
        36           C   tau(  36) = (  -0.1544861   0.6079103   0.8423130  )
        37           C   tau(  37) = (   0.2442747   0.2476025   0.1962677  )
        38           C   tau(  38) = (   0.3234431   0.9260069   1.0077378  )
        39           C   tau(  39) = (   0.0395396   0.8344011   0.4057188  )
        40           C   tau(  40) = (   0.5281782   0.3392083   0.7982867  )
        41           C   tau(  41) = (   0.4243462   1.1625386   0.4832044  )
        42           C   tau(  42) = (   0.1433716   0.0110707   0.7208011  )
        43           C   tau(  43) = (   0.8595063   0.5757377   0.1188117  )
        44           C   tau(  44) = (  -0.2917885   0.5978716   1.0851938  )
        45           O   tau(  45) = (  -0.1157834   0.2870103   0.6012705  )
        46           O   tau(  46) = (   0.6835018   0.8865992   0.6027350  )
        47           O   tau(  47) = (   0.3996126   0.8738272   0.0007347  )
        48           O   tau(  48) = (   0.1681048   0.2997822   1.2032708  )
        49           O   tau(  49) = (   0.1183644   0.4330774   0.6068480  )
        50           O   tau(  50) = (   0.4493534   0.7405319   0.5971575  )
        51           O   tau(  51) = (  -0.2668776   1.0198592   1.1991712  )
        52           O   tau(  52) = (   0.8345954   0.1537501   0.0048344  )
        53           H   tau(  53) = (   0.0137984   0.3820448   0.6276125  )
        54           H   tau(  54) = (   0.5539194   0.7915646   0.5763931  )
        55           H   tau(  55) = (  -0.1623370   0.9688534   1.1783526  )
        56           H   tau(  56) = (   0.7300548   0.2047560   0.0256530  )
        57           H   tau(  57) = (   0.8291050   0.1099109   0.2746878  )
        58           H   tau(  58) = (  -0.2613872   1.0636984   0.9293177  )
        59           H   tau(  59) = (   0.4547392   0.6967208   0.3273152  )
        60           H   tau(  60) = (   0.1129786   0.4768886   0.8766903  )
        61           H   tau(  61) = (   0.0310070   0.1359771   0.1960852  )
        62           H   tau(  62) = (   0.5367108   1.0376323   1.0079203  )
        63           H   tau(  63) = (   0.2528275   0.7227930   0.4059360  )
        64           H   tau(  64) = (   0.3148903   0.4508164   0.7980696  )
        65           H   tau(  65) = (   0.3750243   0.4776439   0.4773392  )
        66           H   tau(  66) = (   0.1926935   0.6959654   0.7266663  )
        67           H   tau(  67) = (   0.9088049   1.0644362   0.1246498  )
        68           H   tau(  68) = (  -0.3410871   0.1091731   1.0793558  )
        69           H   tau(  69) = (   0.6536103   0.1369233   0.5758254  )
        70           H   tau(  70) = (  -0.0858925   1.0366861   0.6281801  )
        71           H   tau(  71) = (   0.6302373   0.7237308   0.0261728  )
        72           H   tau(  72) = (  -0.0625195   0.4498786   1.1778327  )
        73           H   tau(  73) = (   0.4516234   0.3710144   0.2250148  )
        74           H   tau(  74) = (   0.1160944   0.8025950   0.9789907  )
        75           H   tau(  75) = (   0.8321751   0.9578100   0.3769904  )
        76           H   tau(  76) = (  -0.2644573   0.2157994   0.8270151  )
        77           H   tau(  77) = (   0.6064982   0.0704752   0.1704111  )
        78           H   tau(  78) = (  -0.0387804   1.1031342   1.0335944  )
        79           H   tau(  79) = (   0.6773388   0.6572772   0.4315811  )
        80           H   tau(  80) = (  -0.1096210   0.5163322   0.7724244  )
        81           H   tau(  81) = (   0.4465842   1.1276271   0.2026988  )
        82           H   tau(  82) = (   0.1211336   0.0459822   1.0013067  )
        83           H   tau(  83) = (   0.8372464   0.5408173   0.3992965  )
        84           H   tau(  84) = (  -0.2695286   0.6327920   0.8047090  )
        85           H   tau(  85) = (   0.6308476   1.0501953   0.2266401  )
        86           H   tau(  86) = (  -0.0631298   0.1234141   0.9773654  )
        87           H   tau(  87) = (   0.6529792   0.4633891   0.3753487  )
        88           H   tau(  88) = (  -0.0852614   0.7102202   0.8286568  )
        89           H   tau(  89) = (   0.2778241   0.2013974   0.0875894  )
        90           H   tau(  90) = (   0.2898937   0.9722120   1.1164161  )
        91           H   tau(  91) = (   0.0060047   0.7881991   0.5144015  )
        92           H   tau(  92) = (   0.5617131   0.3854103   0.6896041  )
        93           H   tau(  93) = (   0.4380959   0.0316615   0.5983641  )
        94           H   tau(  94) = (   0.1296219   1.1419479   0.6056414  )
        95           H   tau(  95) = (   0.8457798   0.6184736   0.0036503  )
        96           H   tau(  96) = (  -0.2780620   0.5551358   1.2003552  )
        97           H   tau(  97) = (   0.4077363   1.0392147   0.4860590  )
        98           H   tau(  98) = (   0.1599815   0.1343947   0.7179465  )
        99           H   tau(  99) = (   0.8761122   0.4524127   0.1159496  )
       100           H   tau( 100) = (  -0.3083944   0.7211966   1.0880559  )
       101           H   tau( 101) = (   0.3252843   0.0437793   0.4313308  )
       102           H   tau( 102) = (   0.2424335   1.1298301   0.7726747  )
       103           H   tau( 103) = (  -0.0414356   0.6305724   0.1707209  )
       104           H   tau( 104) = (   0.6091534   0.5430369   1.0332846  )
       105           N   tau( 105) = (   0.5575382   0.0268234   0.3967905  )
       106           N   tau( 106) = (   0.0101796   1.1467859   0.8072150  )
       107           N   tau( 107) = (   0.7263018   0.6136236   0.2052022  )
       108           N   tau( 108) = (  -0.1585840   0.5599858   0.9988033  )

     number of k points=     8
                       cart. coord. in units 2pi/alat
        k(    1) = (   0.0000000   0.0000000   0.0000000), wk =   0.2500000
        k(    2) = (   0.0000000   0.0000000  -0.4152805), wk =   0.2500000
        k(    3) = (   0.0000000  -0.4260361   0.0000000), wk =   0.2500000
        k(    4) = (   0.0000000  -0.4260361  -0.4152805), wk =   0.2500000
        k(    5) = (  -0.5000000   0.0000000  -0.1795183), wk =   0.2500000
        k(    6) = (  -0.5000000   0.0000000  -0.5947988), wk =   0.2500000
        k(    7) = (  -0.5000000  -0.4260361  -0.1795183), wk =   0.2500000
        k(    8) = (  -0.5000000  -0.4260361  -0.5947988), wk =   0.2500000

     Dense  grid:   152537 G-vectors     FFT dimensions: (  60,  72,  75)

     Estimated max dynamical RAM per process >     994.40MB

     Initial potential from superposition of free atoms

     starting charge  290.99502, renormalised to  296.00000
     Starting wfc are  276 randomized atomic wfcs

     total cpu time spent up to now is      121.2 secs

     per-process dynamical memory:   767.4 Mb

     Self-consistent Calculation

     iteration #  1     ecut=    30.00 Ry     beta=0.70
     Davidson diagonalization with overlap
     ethr =  1.00E-02,  avg # of iterations =  2.0

     total cpu time spent up to now is      358.1 secs

     total energy              =    -892.37326143 Ry
     Harris-Foulkes estimate   =    -904.24629444 Ry
     estimated scf accuracy    <      18.35597281 Ry

     iteration #  2     ecut=    30.00 Ry     beta=0.70
     Davidson diagonalization with overlap
     ethr =  6.20E-03,  avg # of iterations =  4.0

     total cpu time spent up to now is      605.8 secs

     total energy              =    -893.32110225 Ry
     Harris-Foulkes estimate   =    -900.72720535 Ry
     estimated scf accuracy    <      13.84088307 Ry

     iteration #  3     ecut=    30.00 Ry     beta=0.70
     Davidson diagonalization with overlap
     ethr =  4.68E-03,  avg # of iterations =  4.0

     total cpu time spent up to now is      836.2 secs

     total energy              =    -896.70419366 Ry
     Harris-Foulkes estimate   =    -898.13915139 Ry
     estimated scf accuracy    <       3.08415528 Ry

     iteration #  4     ecut=    30.00 Ry     beta=0.70
     Davidson diagonalization with overlap
     ethr =  1.04E-03,  avg # of iterations =  4.0

     total cpu time spent up to now is     1059.2 secs

     total energy              =    -897.30677175 Ry
     Harris-Foulkes estimate   =    -897.52221097 Ry
     estimated scf accuracy    <       0.45640836 Ry

     iteration #  5     ecut=    30.00 Ry     beta=0.70
     Davidson diagonalization with overlap
     ethr =  1.54E-04,  avg # of iterations =  4.0

     total cpu time spent up to now is     1290.7 secs

     total energy              =    -897.40057553 Ry
     Harris-Foulkes estimate   =    -897.42152171 Ry
     estimated scf accuracy    <       0.04330981 Ry

     iteration #  6     ecut=    30.00 Ry     beta=0.70
     Davidson diagonalization with overlap
     ethr =  1.46E-05,  avg # of iterations =  4.0

     total cpu time spent up to now is     1519.0 secs

     total energy              =    -897.41131541 Ry
     Harris-Foulkes estimate   =    -897.41390941 Ry
     estimated scf accuracy    <       0.00612951 Ry

     iteration #  7     ecut=    30.00 Ry     beta=0.70
     Davidson diagonalization with overlap
     ethr =  2.07E-06,  avg # of iterations =  4.0

     total cpu time spent up to now is     1748.0 secs

     total energy              =    -897.41252688 Ry
     Harris-Foulkes estimate   =    -897.41295745 Ry
     estimated scf accuracy    <       0.00096912 Ry

     iteration #  8     ecut=    30.00 Ry     beta=0.70
     Davidson diagonalization with overlap
     ethr =  3.27E-07,  avg # of iterations =  3.1

     total cpu time spent up to now is     1977.5 secs

     total energy              =    -897.41275224 Ry
     Harris-Foulkes estimate   =    -897.41282964 Ry
     estimated scf accuracy    <       0.00018181 Ry

     iteration #  9     ecut=    30.00 Ry     beta=0.70
     Davidson diagonalization with overlap
     ethr =  6.14E-08,  avg # of iterations =  3.6

     total cpu time spent up to now is     2194.1 secs

     total energy              =    -897.41279021 Ry
     Harris-Foulkes estimate   =    -897.41280531 Ry
     estimated scf accuracy    <       0.00003463 Ry

     iteration # 10     ecut=    30.00 Ry     beta=0.70
     Davidson diagonalization with overlap
     ethr =  1.17E-08,  avg # of iterations =  3.0

     total cpu time spent up to now is     2407.0 secs

     total energy              =    -897.41279703 Ry
     Harris-Foulkes estimate   =    -897.41279752 Ry
     estimated scf accuracy    <       0.00000113 Ry

     iteration # 11     ecut=    30.00 Ry     beta=0.70
     Davidson diagonalization with overlap
     ethr =  3.82E-10,  avg # of iterations =  4.0

     total cpu time spent up to now is     2656.1 secs

     total energy              =    -897.41279740 Ry
     Harris-Foulkes estimate   =    -897.41279753 Ry
     estimated scf accuracy    <       0.00000032 Ry

     iteration # 12     ecut=    30.00 Ry     beta=0.70
     Davidson diagonalization with overlap
     ethr =  1.09E-10,  avg # of iterations =  3.6

     total cpu time spent up to now is     2870.4 secs

     End of self-consistent calculation

          k = 0.0000 0.0000 0.0000 ( 19075 PWs)   bands (ev):

   -20.1483 -20.1439 -20.1424 -20.1391 -18.9814 -18.9793 -18.9751 -18.9717
   -18.1298 -18.1296 -18.1295 -18.1267 -14.9061 -14.8885 -14.8790 -14.8714
   -13.3562 -13.3250 -13.3010 -13.2728 -12.6184 -12.5912 -12.5792 -12.5540
   -12.0727 -12.0682 -12.0225 -12.0052 -11.9941 -11.9569 -11.9530 -11.9514
   -11.0855 -11.0482 -11.0360 -10.9808  -9.6008  -9.5717  -9.5231  -9.5081
    -8.7953  -8.6408  -8.6278  -8.5974  -8.4498  -8.3440  -8.3222  -8.2740
    -7.4548  -7.4437  -7.3978  -7.3732  -6.9231  -6.8736  -6.8570  -6.6538
    -6.4060  -6.3417  -6.3320  -6.2793  -6.1720  -6.0177  -5.9988  -5.9464
    -5.8689  -5.8567  -5.8328  -5.6598  -5.5986  -5.5926  -5.5507  -5.5146
    -5.2498  -5.1505  -5.1004  -5.0827  -4.7287  -4.5107  -4.5094  -4.5077
    -4.5020  -4.4827  -4.3907  -4.3443  -4.2991  -4.2193  -4.2134  -4.1259
    -4.1098  -4.0831  -4.0473  -4.0408  -3.9404  -3.8756  -3.8060  -3.7967
    -3.6928  -3.6581  -3.6464  -3.6174  -3.3765  -3.3403  -3.3178  -3.2744
    -3.2603  -3.2282  -3.2262  -3.1333  -3.0645  -3.0319  -3.0177  -2.9633
    -2.9326  -2.9215  -2.8861  -2.8765  -2.7366  -2.7019  -2.6828  -2.6762
    -2.1841  -2.1015  -2.0623  -2.0356  -2.0116  -1.9049  -1.8911  -1.8395
    -1.7728  -1.7175  -1.6613  -1.6440  -0.4490  -0.4156  -0.2791  -0.2742
     0.0164   0.0588   0.1077   0.1564   0.4380   0.4525   0.4672   0.4929
     0.8137   0.8300   0.9576   0.9882

          k = 0.0000 0.0000-0.4153 ( 19074 PWs)   bands (ev):

   -20.1465 -20.1458 -20.1410 -20.1404 -18.9808 -18.9799 -18.9738 -18.9730
   -18.1299 -18.1299 -18.1280 -18.1280 -14.8974 -14.8973 -14.8749 -14.8748
   -13.3446 -13.3443 -13.2833 -13.2831 -12.6064 -12.6060 -12.5661 -12.5658
   -12.0871 -12.0870 -12.0069 -12.0068 -11.9670 -11.9669 -11.9509 -11.9509
   -11.0710 -11.0706 -11.0025 -11.0022  -9.5561  -9.5559  -9.5475  -9.5474
    -8.7265  -8.7264  -8.6124  -8.6122  -8.4016  -8.4013  -8.2963  -8.2961
    -7.4126  -7.4125  -7.4085  -7.4085  -6.9061  -6.9058  -6.7293  -6.7288
    -6.3828  -6.3826  -6.3689  -6.3687  -6.0852  -6.0848  -5.9914  -5.9909
    -5.7618  -5.7615  -5.7158  -5.7157  -5.5789  -5.5787  -5.5750  -5.5749
    -5.2595  -5.2593  -5.1281  -5.1279  -4.6276  -4.6270  -4.5350  -4.5345
    -4.4497  -4.4495  -4.3426  -4.3422  -4.2677  -4.2673  -4.1848  -4.1846
    -4.1100  -4.1096  -4.0272  -4.0270  -3.8596  -3.8594  -3.7695  -3.7694
    -3.7362  -3.7362  -3.6081  -3.6081  -3.3489  -3.3486  -3.3143  -3.3139
    -3.2407  -3.2402  -3.1876  -3.1876  -3.0459  -3.0457  -2.9804  -2.9803
    -2.9353  -2.9352  -2.8702  -2.8701  -2.7014  -2.7014  -2.6593  -2.6592
    -2.1298  -2.1297  -2.0505  -2.0502  -2.0062  -2.0057  -1.8929  -1.8929
    -1.7478  -1.7477  -1.6551  -1.6550  -0.4354  -0.4353  -0.2779  -0.2778
     0.0610   0.0620   0.1083   0.1092   0.4638   0.4640   0.4835   0.4839
     0.8229   0.8229   0.9756   0.9757

          k = 0.0000-0.4260 0.0000 ( 19058 PWs)   bands (ev):

   -20.1466 -20.1461 -20.1407 -20.1402 -18.9791 -18.9785 -18.9753 -18.9747
   -18.1297 -18.1297 -18.1281 -18.1281 -14.8933 -14.8931 -14.8796 -14.8794
   -13.3298 -13.3293 -13.2993 -13.2988 -12.6022 -12.6020 -12.5670 -12.5668
   -12.0729 -12.0725 -12.0080 -12.0077 -11.9799 -11.9793 -11.9535 -11.9535
   -11.0638 -11.0634 -11.0131 -11.0127  -9.5829  -9.5829  -9.5148  -9.5148
    -8.7164  -8.7164  -8.6274  -8.6273  -8.3942  -8.3939  -8.2900  -8.2899
    -7.4409  -7.4408  -7.3984  -7.3983  -6.9348  -6.9344  -6.7142  -6.7138
    -6.3846  -6.3844  -6.2925  -6.2924  -6.1157  -6.1154  -5.9696  -5.9694
    -5.8609  -5.8606  -5.7246  -5.7243  -5.5993  -5.5992  -5.5581  -5.5580
    -5.2019  -5.2017  -5.0769  -5.0766  -4.5682  -4.5682  -4.4970  -4.4969
    -4.4570  -4.4570  -4.3666  -4.3665  -4.3375  -4.3375  -4.2378  -4.2373
    -4.1447  -4.1443  -4.0325  -4.0316  -3.8233  -3.8231  -3.7550  -3.7550
    -3.7214  -3.7212  -3.6452  -3.6451  -3.3512  -3.3509  -3.3111  -3.3105
    -3.2512  -3.2509  -3.1423  -3.1417  -3.0518  -3.0516  -2.9910  -2.9909
    -2.9469  -2.9468  -2.8528  -2.8527  -2.7404  -2.7400  -2.6682  -2.6678
    -2.1191  -2.1191  -2.0594  -2.0594  -1.9847  -1.9846  -1.8510  -1.8508
    -1.7265  -1.7263  -1.6739  -1.6737  -0.3786  -0.3784  -0.3315  -0.3313
     0.0326   0.0330   0.1360   0.1363   0.4429   0.4431   0.4910   0.4912
     0.8761   0.8762   0.9056   0.9058

          k = 0.0000-0.4260-0.4153 ( 19068 PWs)   bands (ev):

   -20.1459 -20.1452 -20.1416 -20.1409 -18.9787 -18.9778 -18.9759 -18.9751
   -18.1296 -18.1296 -18.1282 -18.1282 -14.8887 -14.8881 -14.8843 -14.8838
   -13.3294 -13.3289 -13.2999 -13.2993 -12.5964 -12.5960 -12.5739 -12.5736
   -12.0853 -12.0851 -12.0087 -12.0086 -11.9632 -11.9629 -11.9562 -11.9560
   -11.0596 -11.0591 -11.0155 -11.0151  -9.5520  -9.5519  -9.5473  -9.5472
    -8.6882  -8.6879  -8.6587  -8.6584  -8.3924  -8.3920  -8.2997  -8.2995
    -7.4219  -7.4218  -7.4034  -7.4033  -6.9099  -6.9095  -6.7221  -6.7216
    -6.3872  -6.3869  -6.3607  -6.3604  -6.1008  -6.1002  -5.9802  -5.9797
    -5.7615  -5.7611  -5.7172  -5.7167  -5.5831  -5.5829  -5.5776  -5.5774
    -5.2106  -5.2101  -5.1730  -5.1723  -4.5897  -4.5892  -4.5407  -4.5404
    -4.3938  -4.3936  -4.3858  -4.3856  -4.3048  -4.3046  -4.2029  -4.2028
    -4.1029  -4.1023  -4.0439  -4.0429  -3.8407  -3.8405  -3.8170  -3.8169
    -3.6649  -3.6647  -3.6537  -3.6536  -3.3475  -3.3473  -3.3196  -3.3190
    -3.2295  -3.2289  -3.1299  -3.1291  -3.0252  -3.0249  -3.0178  -3.0174
    -2.9250  -2.9249  -2.9147  -2.9144  -2.6792  -2.6787  -2.6761  -2.6756
    -2.1480  -2.1479  -2.0309  -2.0306  -1.9742  -1.9736  -1.9084  -1.9078
    -1.7104  -1.7099  -1.7041  -1.7037  -0.3708  -0.3704  -0.3445  -0.3442
     0.0630   0.0641   0.1054   0.1063   0.4693   0.4699   0.4848   0.4853
     0.8913   0.8918   0.8969   0.8974

          k =-0.5000 0.0000-0.1795 ( 19044 PWs)   bands (ev):

   -20.1457 -20.1450 -20.1417 -20.1410 -18.9789 -18.9782 -18.9759 -18.9751
   -18.1316 -18.1316 -18.1259 -18.1259 -14.9014 -14.9013 -14.8762 -14.8762
   -13.3066 -13.3061 -13.2961 -13.2957 -12.6092 -12.6092 -12.5763 -12.5763
   -12.0657 -12.0654 -12.0211 -12.0210 -11.9757 -11.9754 -11.9663 -11.9662
   -11.0813 -11.0808 -10.9880 -10.9876  -9.5726  -9.5725  -9.5286  -9.5285
    -8.7088  -8.7086  -8.6051  -8.6048  -8.4010  -8.4006  -8.3276  -8.3274
    -7.4113  -7.4112  -7.3986  -7.3984  -6.9027  -6.9024  -6.7592  -6.7588
    -6.3752  -6.3749  -6.3210  -6.3207  -6.0624  -6.0621  -6.0030  -6.0028
    -5.8168  -5.8162  -5.7025  -5.7021  -5.6390  -5.6389  -5.5384  -5.5383
    -5.2331  -5.2327  -5.1317  -5.1312  -4.5855  -4.5851  -4.5293  -4.5292
    -4.4564  -4.4563  -4.3790  -4.3789  -4.2193  -4.2190  -4.1613  -4.1613
    -4.1227  -4.1221  -4.0608  -4.0604  -3.8415  -3.8413  -3.8008  -3.8006
    -3.7402  -3.7400  -3.5863  -3.5862  -3.3773  -3.3769  -3.2773  -3.2772
    -3.2248  -3.2246  -3.1234  -3.1229  -3.0942  -3.0942  -2.9719  -2.9716
    -2.9608  -2.9606  -2.9298  -2.9297  -2.7473  -2.7472  -2.7194  -2.7190
    -2.1265  -2.1265  -2.0247  -2.0246  -1.9440  -1.9440  -1.8784  -1.8783
    -1.7980  -1.7978  -1.6125  -1.6122  -0.4822  -0.4822  -0.2776  -0.2775
     0.0566   0.0577   0.0971   0.0981   0.4784   0.4787   0.5297   0.5300
     0.8971   0.8972   0.9787   0.9789

          k =-0.5000 0.0000-0.5948 ( 19094 PWs)   bands (ev):

   -20.1472 -20.1436 -20.1430 -20.1398 -18.9789 -18.9779 -18.9773 -18.9740
   -18.1327 -18.1302 -18.1263 -18.1259 -14.9028 -14.8991 -14.8788 -14.8739
   -13.3092 -13.3000 -13.2992 -13.2957 -12.6275 -12.6041 -12.5891 -12.5502
   -12.0811 -12.0592 -12.0528 -12.0228 -11.9886 -11.9699 -11.9460 -11.9366
   -11.0976 -11.0630 -10.9966 -10.9784  -9.6249  -9.5686  -9.5206  -9.4901
    -8.7326  -8.6462  -8.6361  -8.5920  -8.4827  -8.4309  -8.2751  -8.2694
    -7.4428  -7.4221  -7.3788  -7.3611  -6.9318  -6.8595  -6.8481  -6.7295
    -6.4039  -6.3644  -6.3468  -6.3204  -6.1584  -6.0550  -6.0198  -5.9907
    -5.8458  -5.7330  -5.6736  -5.6576  -5.6517  -5.5698  -5.5266  -5.4976
    -5.3929  -5.2725  -5.0259  -5.0208  -4.6280  -4.5873  -4.5178  -4.5152
    -4.4378  -4.4353  -4.4125  -4.3886  -4.3519  -4.2752  -4.1928  -4.1603
    -4.1159  -4.0806  -3.9997  -3.9693  -3.9273  -3.8973  -3.7787  -3.7659
    -3.6902  -3.6380  -3.6350  -3.6347  -3.3687  -3.3466  -3.3274  -3.2806
    -3.2591  -3.2108  -3.2073  -3.1156  -3.1128  -3.0809  -3.0637  -3.0432
    -2.9556  -2.8784  -2.8703  -2.8353  -2.7823  -2.7264  -2.6417  -2.6133
    -2.2700  -2.1092  -2.1069  -2.0763  -2.0480  -1.9879  -1.8514  -1.7686
    -1.7418  -1.7189  -1.6717  -1.5986  -0.4867  -0.4676  -0.2834  -0.2736
     0.0538   0.0557   0.0892   0.1088   0.4764   0.4787   0.4960   0.5773
     0.8610   0.9363   0.9717   0.9902

          k =-0.5000-0.4260-0.1795 ( 19060 PWs)   bands (ev):

   -20.1461 -20.1455 -20.1412 -20.1405 -18.9810 -18.9801 -18.9739 -18.9731
   -18.1316 -18.1315 -18.1260 -18.1260 -14.8919 -14.8914 -14.8864 -14.8858
   -13.3054 -13.3049 -13.2964 -13.2959 -12.6024 -12.6021 -12.5847 -12.5844
   -12.0675 -12.0672 -11.9989 -11.9985 -11.9957 -11.9953 -11.9676 -11.9674
   -11.0781 -11.0777 -10.9901 -10.9897  -9.5653  -9.5652  -9.5347  -9.5346
    -8.6801  -8.6797  -8.6412  -8.6409  -8.3937  -8.3933  -8.3306  -8.3304
    -7.4054  -7.4053  -7.4007  -7.4006  -6.8992  -6.8988  -6.7681  -6.7676
    -6.3508  -6.3505  -6.3455  -6.3453  -6.0727  -6.0723  -6.0085  -6.0083
    -5.7975  -5.7968  -5.7108  -5.7105  -5.6219  -5.6216  -5.5510  -5.5510
    -5.2008  -5.2003  -5.1477  -5.1471  -4.5918  -4.5915  -4.5485  -4.5484
    -4.3919  -4.3916  -4.3354  -4.3353  -4.3166  -4.3166  -4.1860  -4.1856
    -4.1371  -4.1364  -4.0254  -4.0245  -3.8474  -3.8473  -3.8441  -3.8440
    -3.6727  -3.6726  -3.6332  -3.6330  -3.3574  -3.3571  -3.2920  -3.2914
    -3.2111  -3.2107  -3.1669  -3.1663  -3.0344  -3.0341  -3.0061  -3.0058
    -2.9268  -2.9265  -2.9150  -2.9148  -2.7727  -2.7721  -2.7076  -2.7071
    -2.1171  -2.1170  -2.0417  -2.0416  -1.9140  -1.9134  -1.8808  -1.8800
    -1.7784  -1.7780  -1.6586  -1.6581  -0.3865  -0.3862  -0.3735  -0.3731
     0.0542   0.0553   0.1009   0.1019   0.4898   0.4904   0.5129   0.5135
     0.9263   0.9267   0.9546   0.9551

          k =-0.5000-0.4260-0.5948 ( 19064 PWs)   bands (ev):

   -20.1466 -20.1461 -20.1406 -20.1401 -18.9811 -18.9802 -18.9738 -18.9730
   -18.1315 -18.1314 -18.1261 -18.1261 -14.8917 -14.8912 -14.8863 -14.8858
   -13.3055 -13.3050 -13.2960 -13.2955 -12.6192 -12.6190 -12.5677 -12.5675
   -12.0737 -12.0735 -12.0351 -12.0348 -11.9690 -11.9687 -11.9517 -11.9517
   -11.0797 -11.0792 -10.9874 -10.9870  -9.5996  -9.5995  -9.5014  -9.5014
    -8.6754  -8.6751  -8.6375  -8.6373  -8.4528  -8.4526  -8.2696  -8.2696
    -7.4304  -7.4304  -7.3692  -7.3691  -6.9193  -6.9188  -6.7657  -6.7652
    -6.3826  -6.3825  -6.3431  -6.3430  -6.1168  -6.1164  -6.0102  -6.0098
    -5.7719  -5.7714  -5.6797  -5.6797  -5.5628  -5.5624  -5.5477  -5.5476
    -5.3252  -5.3251  -5.0151  -5.0150  -4.6174  -4.6174  -4.5248  -4.5247
    -4.4205  -4.4204  -4.3473  -4.3473  -4.2948  -4.2947  -4.2503  -4.2503
    -4.1637  -4.1636  -3.9862  -3.9862  -3.8472  -3.8469  -3.7938  -3.7937
    -3.6805  -3.6802  -3.6265  -3.6265  -3.3536  -3.3535  -3.3036  -3.3035
    -3.2466  -3.2464  -3.1655  -3.1653  -3.1004  -3.1001  -3.0177  -3.0176
    -2.9163  -2.9162  -2.8580  -2.8579  -2.7536  -2.7534  -2.6186  -2.6185
    -2.1845  -2.1843  -2.0820  -2.0819  -2.0169  -2.0169  -1.7991  -1.7989
    -1.7389  -1.7388  -1.6598  -1.6593  -0.3845  -0.3845  -0.3698  -0.3698
     0.0538   0.0549   0.0996   0.1005   0.4777   0.4778   0.5322   0.5323
     0.9132   0.9134   0.9708   0.9711

     highest occupied level (ev):     0.9902

!    total energy              =    -897.41279747 Ry
     Harris-Foulkes estimate   =    -897.41279748 Ry
     estimated scf accuracy    <       0.00000003 Ry

     The total energy is the sum of the following terms:

     one-electron contribution =    -690.61495905 Ry
     hartree contribution      =     445.38527486 Ry
     xc contribution           =    -266.09465256 Ry
     ewald contribution        =    -385.62406942 Ry
     Dispersion Correction     =      -0.46439130 Ry

     convergence has been achieved in  12 iterations

     Forces acting on atoms (cartesian axes, Ry/au):

     atom    1 type  1   force =     0.00891660    0.00247250   -0.00381368
     atom    2 type  1   force =    -0.00891660   -0.00247250    0.00381368
     atom    3 type  1   force =    -0.01047773    0.00235933    0.00584797
     atom    4 type  1   force =     0.01047773   -0.00235933   -0.00584797
     atom    5 type  1   force =    -0.00586106   -0.00195975    0.00320573
     atom    6 type  1   force =     0.00586106    0.00195975   -0.00320573
     atom    7 type  1   force =     0.00684666   -0.00187356   -0.00520102
     atom    8 type  1   force =    -0.00684666    0.00187356    0.00520102
     atom    9 type  1   force =     0.00667675   -0.00008590   -0.00615119
     atom   10 type  1   force =    -0.00667675    0.00008590    0.00615119
     atom   11 type  1   force =    -0.00801713    0.00026409    0.00793101
     atom   12 type  1   force =     0.00801713   -0.00026409   -0.00793101
     atom   13 type  1   force =    -0.00705563    0.00194553    0.01282545
     atom   14 type  1   force =     0.00705563   -0.00194553   -0.01282545
     atom   15 type  1   force =     0.00601662    0.00224946   -0.01443355
     atom   16 type  1   force =    -0.00601662   -0.00224946    0.01443355
     atom   17 type  1   force =     0.01209479    0.01171633    0.00375464
     atom   18 type  1   force =    -0.01209479   -0.01171633   -0.00375464
     atom   19 type  1   force =    -0.00983301    0.01157447   -0.00685189
     atom   20 type  1   force =     0.00983301   -0.01157447    0.00685189
     atom   21 type  1   force =    -0.00951757   -0.00861522   -0.00601133
     atom   22 type  1   force =     0.00951757    0.00861522    0.00601133
     atom   23 type  1   force =     0.00771614   -0.00879731    0.00914967
     atom   24 type  1   force =    -0.00771614    0.00879731   -0.00914967
     atom   25 type  1   force =    -0.00112552   -0.00345664   -0.01169306
     atom   26 type  1   force =     0.00112552    0.00345664    0.01169306
     atom   27 type  1   force =     0.00195045   -0.00412415    0.01202841
     atom   28 type  1   force =    -0.00195045    0.00412415   -0.01202841
     atom   29 type  1   force =    -0.01309703   -0.00090982    0.00583070
     atom   30 type  1   force =     0.01309703    0.00090982   -0.00583070
     atom   31 type  1   force =     0.01134388   -0.00041149   -0.00673548
     atom   32 type  1   force =    -0.01134388    0.00041149    0.00673548
     atom   33 type  1   force =    -0.00054520    0.00281520   -0.00026518
     atom   34 type  1   force =     0.00054520   -0.00281520    0.00026518
     atom   35 type  1   force =     0.00164404    0.00180839   -0.00062525
     atom   36 type  1   force =    -0.00164404   -0.00180839    0.00062525
     atom   37 type  1   force =    -0.00349100    0.00339733    0.01437896
     atom   38 type  1   force =     0.00349100   -0.00339733   -0.01437896
     atom   39 type  1   force =     0.00523206    0.00329840   -0.01753810
     atom   40 type  1   force =    -0.00523206   -0.00329840    0.01753810
     atom   41 type  1   force =    -0.00226461    0.00132874    0.00026757
     atom   42 type  1   force =     0.00226461   -0.00132874   -0.00026757
     atom   43 type  1   force =     0.00331897    0.00204202   -0.00193252
     atom   44 type  1   force =    -0.00331897   -0.00204202    0.00193252
     atom   45 type  3   force =     0.01070763   -0.00937924   -0.02757383
     atom   46 type  3   force =    -0.01070763    0.00937924    0.02757383
     atom   47 type  3   force =    -0.01149447   -0.01035229    0.03079813
     atom   48 type  3   force =     0.01149447    0.01035229   -0.03079813
     atom   49 type  3   force =    -0.00056616   -0.01525330   -0.01789418
     atom   50 type  3   force =     0.00056616    0.01525330    0.01789418
     atom   51 type  3   force =     0.00078698   -0.01477313    0.01339923
     atom   52 type  3   force =    -0.00078698    0.01477313   -0.01339923
     atom   53 type  2   force =     0.00430790   -0.00014743    0.00020194
     atom   54 type  2   force =    -0.00430790    0.00014743   -0.00020194
     atom   55 type  2   force =    -0.00427165   -0.00013081   -0.00015085
     atom   56 type  2   force =     0.00427165    0.00013081    0.00015085
     atom   57 type  2   force =    -0.00405180    0.00273261    0.01443289
     atom   58 type  2   force =     0.00405180   -0.00273261   -0.01443289
     atom   59 type  2   force =     0.00407368    0.00270671   -0.01447442
     atom   60 type  2   force =    -0.00407368   -0.00270671    0.01447442
     atom   61 type  2   force =     0.00811248    0.00715434    0.00628163
     atom   62 type  2   force =    -0.00811248   -0.00715434   -0.00628163
     atom   63 type  2   force =    -0.00812641    0.00715963   -0.00627999
     atom   64 type  2   force =     0.00812641   -0.00715963    0.00627999
     atom   65 type  2   force =    -0.00862357   -0.00580436   -0.00794358
     atom   66 type  2   force =     0.00862357    0.00580436    0.00794358
     atom   67 type  2   force =     0.00861768   -0.00582416    0.00797294
     atom   68 type  2   force =    -0.00861768    0.00582416   -0.00797294
     atom   69 type  2   force =     0.00191093   -0.00434876   -0.01356930
     atom   70 type  2   force =    -0.00191093    0.00434876    0.01356930
     atom   71 type  2   force =    -0.00192275   -0.00434269    0.01358537
     atom   72 type  2   force =     0.00192275    0.00434269   -0.01358537
     atom   73 type  2   force =    -0.01324289   -0.00413428    0.00698574
     atom   74 type  2   force =     0.01324289    0.00413428   -0.00698574
     atom   75 type  2   force =     0.01327588   -0.00418419   -0.00699898
     atom   76 type  2   force =    -0.01327588    0.00418419    0.00699898
     atom   77 type  2   force =    -0.00504342   -0.01295290    0.00797004
     atom   78 type  2   force =     0.00504342    0.01295290   -0.00797004
     atom   79 type  2   force =     0.00504128   -0.01296808   -0.00798550
     atom   80 type  2   force =    -0.00504128    0.01296808    0.00798550
     atom   81 type  2   force =     0.01336099    0.00231870    0.00603316
     atom   82 type  2   force =    -0.01336099   -0.00231870   -0.00603316
     atom   83 type  2   force =    -0.01338878    0.00231453   -0.00604083
     atom   84 type  2   force =     0.01338878   -0.00231453    0.00604083
     atom   85 type  2   force =    -0.00836485    0.01326842    0.00183445
     atom   86 type  2   force =     0.00836485   -0.01326842   -0.00183445
     atom   87 type  2   force =     0.00835895    0.01326643   -0.00184745
     atom   88 type  2   force =    -0.00835895   -0.01326643    0.00184745
     atom   89 type  2   force =    -0.00379437    0.00455297    0.01289059
     atom   90 type  2   force =     0.00379437   -0.00455297   -0.01289059
     atom   91 type  2   force =     0.00377432    0.00453999   -0.01291118
     atom   92 type  2   force =    -0.00377432   -0.00453999    0.01291118
     atom   93 type  2   force =    -0.00216891   -0.00727681   -0.01290767
     atom   94 type  2   force =     0.00216891    0.00727681    0.01290767
     atom   95 type  2   force =     0.00217146   -0.00726729    0.01291980
     atom   96 type  2   force =    -0.00217146    0.00726729   -0.01291980
     atom   97 type  2   force =     0.00224575    0.01858061   -0.00104117
     atom   98 type  2   force =    -0.00224575   -0.01858061    0.00104117
     atom   99 type  2   force =    -0.00225329    0.01861032    0.00103350
     atom  100 type  2   force =     0.00225329   -0.01861032   -0.00103350
     atom  101 type  2   force =     0.01302447   -0.01038546    0.00658732
     atom  102 type  2   force =    -0.01302447    0.01038546   -0.00658732
     atom  103 type  2   force =    -0.01305705   -0.01038840   -0.00664263
     atom  104 type  2   force =     0.01305705    0.01038840    0.00664263
     atom  105 type  4   force =     0.01593297    0.00696467    0.00317510
     atom  106 type  4   force =    -0.01593297   -0.00696467   -0.00317510
     atom  107 type  4   force =    -0.01556903    0.00711192   -0.00614451
     atom  108 type  4   force =     0.01556903   -0.00711192    0.00614451

     Total force =     0.160110     Total SCF correction =     0.000285

     BFGS Geometry Optimization

     number of scf cycles    =   1
     number of bfgs steps    =   0

     energy   new            =    -897.4127974711 Ry

     new trust radius        =       0.0344647350 bohr
     new conv_thr            =       0.0000001000 Ry


ATOMIC_POSITIONS (angstrom)
C        0.525911724   2.425589286   3.567445649
C        4.562997656   8.094410320   7.225019621
C        2.017613432   7.685621683   1.830015129
C        3.071295466   2.834378032   8.962450570
C       -0.794496949   2.097823843   4.201498857
C        5.883405773   8.422176808   6.590965623
C        3.339367506   7.357870737   1.193664588
C        1.749541523   3.162129826   9.598801092
C        1.424988927   3.315260639   4.254578092
C        3.663920069   7.204739217   6.537887137
C        1.118323209   8.575203133   1.142763646
C        3.970585570   1.944796553   9.649702317
C        7.209913337   1.294542016   3.497710397
C       -2.121004202   9.225457618   7.294754793
C        4.297749683   6.554805330   1.897704343
C        0.791159161   3.965194490   8.894760849
C        0.948969290   1.895580577   2.317942941
C        4.139939715   8.624419255   8.474522234
C        1.596426623   7.155508742   3.076706333
C        3.492482237   3.364491032   7.715759306
C        2.689866602   3.613952974   3.703001191
C        2.399042417   6.906046885   7.089464047
C       -0.146840307   8.873652310   1.694910586
C        5.235749191   1.646347752   9.097555279
C        6.015260090   0.926926356   4.105300473
C       -0.926351099   9.593073517   6.687164486
C        5.493346087   6.186605735   1.291067900
C       -0.404437199   4.333394221   9.501397281
C        3.063515258   3.078664507   2.467489911
C        2.025394050   7.441335417   8.324975381
C       -0.520648642   8.338672704   2.928180045
C        5.609557294   2.181327048   7.864285541
C        5.034017898  10.332349475   2.153863075
C        0.054891190   0.187650460   8.638601916
C        6.474562020   5.071770438   3.241808970
C       -1.385652926   5.448229565   7.550656104
C        2.187781926   2.221256881   1.766913952
C        2.901127076   8.298743257   9.025551488
C        0.357193426   7.481150469   3.627501922
C        4.731715595   3.038849732   7.164963791
C        3.802556007  10.421467370   4.331489671
C        1.286353064   0.098532592   6.460975510
C        7.706199165   5.161878632   1.063981961
C       -2.617290173   5.358121365   9.728483064
O       -1.032193250   2.567739363   5.375077705
O        6.121107565   7.952261227   5.417387933
O        3.575965279   7.827334158   0.022882989
O        1.512940806   2.692665818  10.769581909
O        1.060694949   3.873947500   5.430195016
O        4.028213959   6.646052272   5.362270262
O       -2.391821525   9.133996601  10.756221874
O        7.480730005   1.386003246   0.036244229
H        0.125965685   3.424495434   5.625900031
H        4.962943382   7.095505078   5.166565770
H       -1.457417263   8.684539449  10.562437847
H        6.546325766   1.835460803   0.230027891
H        7.429787331   0.986665748   2.469883827
H       -2.340878133   9.533334184   8.322581260
H        4.078346934   6.246698125   2.926328867
H        1.010562204   4.273301762   7.866136430
H        0.282233488   1.222657105   1.760992440
H        4.806675542   9.297342759   9.031472748
H        2.261994979   6.482760612   3.635405685
H        2.826914102   4.037239375   7.157059903
H        3.357079635   4.278433352   4.274569890
H        1.731829493   6.241566409   6.517895311
H        8.150906162   9.538311703   1.121554859
H       -3.061997225   0.981688145   9.670910672
H        5.859843914   1.225051795   5.154403301
H       -0.770934695   9.294948136   5.638061656
H        5.648303977   6.485080245   0.241796818
H       -0.559395185   4.034919753  10.550668369
H        4.041254451   3.323510881   2.020684710
H        1.047654784   7.196489100   8.771780391
H        7.466476644   8.583403091   3.375563327
H       -2.377567914   1.936596902   7.416902274
H        5.433859654   0.624871174   1.531748362
H       -0.344950559   9.895128818   9.260716707
H        6.074197947   5.884839116   3.864381449
H       -0.985288853   4.635160904   6.928083595
H        4.010161930  10.109051608   1.820144366
H        1.078747154   0.410948330   8.972320652
H        7.497824944   4.849003499   3.576017687
H       -2.408915795   5.670996552   7.216447257
H        5.650365666   9.420762375   2.032527451
H       -0.561456423   1.099237630   8.759937671
H        5.857598891   4.160747918   3.363573483
H       -0.768689699   6.359252039   7.428891677
H        2.488352061   1.807695151   0.791955415
H        2.600556857   8.712304884  10.000510067
H        0.055821998   7.067661808   4.604159769
H        5.033086974   3.452338168   6.188305795
H        3.925856748   0.279956392   5.356786151
H        1.163052601  10.240043578   5.435679002
H        7.582550285   5.540027860   0.039557563
H       -2.493641234   4.979972173  10.752907469
H        3.656055487   9.325145246   4.356384804
H        1.432853662   1.194854705   6.436080305
H        7.852102534   4.065185474   1.039896235
H       -2.763193545   6.454814517   9.752568779
H        2.922675633   0.386933126   3.869849008
H        2.166233433  10.133066962   6.922616309
H       -0.378330194   5.646828010   1.526793319
H        5.467239146   4.873171996   9.265671791
N        5.006092425   0.244125300   3.558430705
N        0.082816454  10.275874728   7.234034243
N        6.502185701   5.504162865   1.836139745
N       -1.413276629   5.015837260   8.956325358



     Writing output data file 2HP-1.save
     charge density from previous step

     total cpu time spent up to now is     2927.5 secs

     per-process dynamical memory:   790.8 Mb

     Self-consistent Calculation

     iteration #  1     ecut=    30.00 Ry     beta=0.70
     Davidson diagonalization with overlap
     ethr =  1.00E-06,  avg # of iterations =  6.0

     total cpu time spent up to now is     3362.2 secs

     total energy              =    -897.26283187 Ry
     Harris-Foulkes estimate   =    -897.58999230 Ry
     estimated scf accuracy    <       0.42453760 Ry

     iteration #  2     ecut=    30.00 Ry     beta=0.70
     Davidson diagonalization with overlap
     ethr =  1.43E-04,  avg # of iterations =  3.0

     total cpu time spent up to now is     3597.4 secs

     total energy              =    -897.34879481 Ry
     Harris-Foulkes estimate   =    -897.51774803 Ry
     estimated scf accuracy    <       0.31292180 Ry

     iteration #  3     ecut=    30.00 Ry     beta=0.70
     Davidson diagonalization with overlap
     ethr =  1.06E-04,  avg # of iterations =  3.0

     total cpu time spent up to now is     3814.5 secs

     total energy              =    -897.42183245 Ry
     Harris-Foulkes estimate   =    -897.43419278 Ry
     estimated scf accuracy    <       0.02464673 Ry

     iteration #  4     ecut=    30.00 Ry     beta=0.70
     Davidson diagonalization with overlap
     ethr =  8.33E-06,  avg # of iterations =  3.0

     total cpu time spent up to now is     4031.6 secs

     total energy              =    -897.42782214 Ry
     Harris-Foulkes estimate   =    -897.42916435 Ry
     estimated scf accuracy    <       0.00279801 Ry

     iteration #  5     ecut=    30.00 Ry     beta=0.70
     Davidson diagonalization with overlap
     ethr =  9.45E-07,  avg # of iterations =  4.0

     total cpu time spent up to now is     4255.3 secs

     total energy              =    -897.42843823 Ry
     Harris-Foulkes estimate   =    -897.42861272 Ry
     estimated scf accuracy    <       0.00038242 Ry

     iteration #  6     ecut=    30.00 Ry     beta=0.70
     Davidson diagonalization with overlap
     ethr =  1.29E-07,  avg # of iterations =  4.0

     total cpu time spent up to now is     4478.0 secs

     total energy              =    -897.42851814 Ry
     Harris-Foulkes estimate   =    -897.42853587 Ry
     estimated scf accuracy    <       0.00004019 Ry

     iteration #  7     ecut=    30.00 Ry     beta=0.70
     Davidson diagonalization with overlap
     ethr =  1.36E-08,  avg # of iterations =  4.0

     total cpu time spent up to now is     4707.1 secs

     total energy              =    -897.42852800 Ry
     Harris-Foulkes estimate   =    -897.42853252 Ry
     estimated scf accuracy    <       0.00001176 Ry

     iteration #  8     ecut=    30.00 Ry     beta=0.70
     Davidson diagonalization with overlap
     ethr =  3.97E-09,  avg # of iterations =  4.0

     total cpu time spent up to now is     4921.2 secs

     total energy              =    -897.42853014 Ry
     Harris-Foulkes estimate   =    -897.42853095 Ry
     estimated scf accuracy    <       0.00000179 Ry

     iteration #  9     ecut=    30.00 Ry     beta=0.70
     Davidson diagonalization with overlap
     ethr =  6.05E-10,  avg # of iterations =  4.0

     total cpu time spent up to now is     5142.1 secs

     total energy              =    -897.42853054 Ry
     Harris-Foulkes estimate   =    -897.42853069 Ry
     estimated scf accuracy    <       0.00000037 Ry

     iteration # 10     ecut=    30.00 Ry     beta=0.70
     Davidson diagonalization with overlap
     ethr =  1.26E-10,  avg # of iterations =  4.0

     total cpu time spent up to now is     5352.2 secs

     End of self-consistent calculation

          k = 0.0000 0.0000 0.0000 ( 19075 PWs)   bands (ev):

   -20.2544 -20.2493 -20.2403 -20.2356 -19.1924 -19.1863 -19.1739 -19.1677
   -18.1864 -18.1841 -18.1813 -18.1784 -14.9659 -14.9510 -14.9387 -14.9332
   -13.3717 -13.3373 -13.3179 -13.2876 -12.6275 -12.6091 -12.5960 -12.5695
   -12.1133 -12.1109 -12.0520 -12.0448 -12.0272 -11.9974 -11.9875 -11.9859
   -11.1572 -11.1166 -11.1013 -11.0496  -9.6126  -9.5841  -9.5364  -9.5247
    -8.7968  -8.6382  -8.6291  -8.5958  -8.4968  -8.3963  -8.3777  -8.3331
    -7.4828  -7.4668  -7.4272  -7.3988  -6.9652  -6.9101  -6.8973  -6.6869
    -6.4444  -6.3875  -6.3596  -6.3118  -6.1973  -6.0566  -6.0274  -5.9838
    -5.8963  -5.8620  -5.8413  -5.6815  -5.6388  -5.6264  -5.5904  -5.5527
    -5.2760  -5.1807  -5.1184  -5.0958  -4.7784  -4.5555  -4.5368  -4.5253
    -4.5212  -4.4914  -4.3981  -4.3930  -4.3173  -4.2586  -4.2454  -4.1741
    -4.1634  -4.0916  -4.0741  -4.0710  -4.0132  -3.9458  -3.8655  -3.8590
    -3.7619  -3.7332  -3.7318  -3.6818  -3.4074  -3.3619  -3.3519  -3.3359
    -3.3147  -3.2588  -3.2458  -3.1436  -3.0708  -3.0593  -3.0559  -2.9881
    -2.9306  -2.9039  -2.8743  -2.8557  -2.7617  -2.7028  -2.6972  -2.6922
    -2.1568  -2.1017  -2.0910  -2.0906  -2.0267  -1.9186  -1.8752  -1.8572
    -1.8466  -1.7624  -1.7429  -1.7177  -0.4608  -0.4277  -0.2883  -0.2811
     0.0272   0.0707   0.1184   0.1675   0.4430   0.4538   0.4746   0.4936
     0.8163   0.8354   0.9619   0.9870

          k = 0.0000 0.0000-0.4153 ( 19074 PWs)   bands (ev):

   -20.2540 -20.2491 -20.2407 -20.2358 -19.1923 -19.1862 -19.1740 -19.1679
   -18.1863 -18.1840 -18.1810 -18.1788 -14.9590 -14.9577 -14.9365 -14.9352
   -13.3593 -13.3588 -13.2986 -13.2980 -12.6230 -12.6173 -12.5846 -12.5790
   -12.1256 -12.1254 -12.0466 -12.0452 -12.0016 -11.9994 -11.9878 -11.9868
   -11.1428 -11.1378 -11.0727 -11.0676  -9.5717  -9.5687  -9.5614  -9.5583
    -8.7280  -8.7270  -8.6122  -8.6116  -8.4536  -8.4499  -8.3536  -8.3496
    -7.4392  -7.4381  -7.4354  -7.4346  -6.9495  -6.9489  -6.7681  -6.7680
    -6.4118  -6.4075  -6.4058  -6.4020  -6.1139  -6.1132  -6.0278  -6.0266
    -5.7791  -5.7785  -5.7413  -5.7411  -5.6166  -5.6158  -5.6098  -5.6091
    -5.2758  -5.2744  -5.1510  -5.1484  -4.6650  -4.6641  -4.5701  -4.5689
    -4.4710  -4.4704  -4.3759  -4.3752  -4.3019  -4.3017  -4.1979  -4.1957
    -4.1577  -4.1516  -4.0618  -4.0582  -3.9267  -3.9262  -3.8315  -3.8298
    -3.8138  -3.8119  -3.6762  -3.6728  -3.3972  -3.3953  -3.3629  -3.3604
    -3.2593  -3.2583  -3.2092  -3.2084  -3.0657  -3.0620  -2.9812  -2.9793
    -2.9363  -2.9362  -2.8834  -2.8831  -2.7133  -2.7131  -2.6672  -2.6664
    -2.1211  -2.1198  -2.0865  -2.0854  -2.0295  -2.0262  -1.8730  -1.8721
    -1.8194  -1.8156  -1.7356  -1.7349  -0.4486  -0.4466  -0.2868  -0.2844
     0.0714   0.0720   0.1194   0.1204   0.4687   0.4700   0.4844   0.4857
     0.8268   0.8274   0.9773   0.9774

          k = 0.0000-0.4260 0.0000 ( 19058 PWs)   bands (ev):

   -20.2536 -20.2500 -20.2396 -20.2362 -19.1899 -19.1888 -19.1716 -19.1701
   -18.1863 -18.1837 -18.1812 -18.1788 -14.9552 -14.9529 -14.9417 -14.9394
   -13.3462 -13.3452 -13.3131 -13.3120 -12.6172 -12.6126 -12.5860 -12.5816
   -12.1147 -12.1132 -12.0463 -12.0434 -12.0143 -12.0075 -11.9927 -11.9902
   -11.1372 -11.1304 -11.0831 -11.0763  -9.5955  -9.5952  -9.5301  -9.5296
    -8.7181  -8.7179  -8.6279  -8.6273  -8.4405  -8.4389  -8.3498  -8.3472
    -7.4690  -7.4675  -7.4249  -7.4234  -6.9743  -6.9735  -6.7515  -6.7514
    -6.4246  -6.4231  -6.3241  -6.3225  -6.1491  -6.1480  -6.0029  -6.0026
    -5.8752  -5.8749  -5.7405  -5.7386  -5.6382  -5.6374  -5.5970  -5.5964
    -5.2291  -5.2287  -5.0941  -5.0938  -4.6156  -4.6142  -4.5188  -4.5181
    -4.4693  -4.4675  -4.4162  -4.4159  -4.3692  -4.3681  -4.2588  -4.2575
    -4.1627  -4.1615  -4.0742  -4.0731  -3.8921  -3.8895  -3.8262  -3.8261
    -3.7901  -3.7877  -3.7195  -3.7155  -3.3977  -3.3954  -3.3303  -3.3292
    -3.2983  -3.2958  -3.1722  -3.1683  -3.0678  -3.0659  -3.0244  -3.0237
    -2.9287  -2.9286  -2.8427  -2.8420  -2.7556  -2.7551  -2.6777  -2.6757
    -2.1108  -2.1104  -2.0966  -2.0955  -1.9845  -1.9834  -1.8693  -1.8679
    -1.8014  -1.7993  -1.7367  -1.7353  -0.3921  -0.3845  -0.3459  -0.3382
     0.0438   0.0441   0.1471   0.1475   0.4457   0.4469   0.4948   0.4962
     0.8790   0.8793   0.9079   0.9088

          k = 0.0000-0.4260-0.4153 ( 19068 PWs)   bands (ev):

   -20.2534 -20.2497 -20.2400 -20.2364 -19.1899 -19.1886 -19.1717 -19.1701
   -18.1862 -18.1838 -18.1812 -18.1789 -14.9527 -14.9485 -14.9459 -14.9417
   -13.3457 -13.3446 -13.3138 -13.3127 -12.6130 -12.6071 -12.5926 -12.5869
   -12.1248 -12.1240 -12.0476 -12.0459 -12.0007 -11.9955 -11.9932 -11.9890
   -11.1331 -11.1263 -11.0856 -11.0788  -9.5680  -9.5642  -9.5621  -9.5582
    -8.6879  -8.6872  -8.6616  -8.6605  -8.4420  -8.4387  -8.3574  -8.3532
    -7.4487  -7.4471  -7.4309  -7.4292  -6.9529  -6.9520  -6.7612  -6.7610
    -6.4218  -6.4176  -6.3925  -6.3882  -6.1335  -6.1327  -6.0127  -6.0122
    -5.7793  -5.7784  -5.7418  -5.7412  -5.6199  -5.6189  -5.6126  -5.6120
    -5.2292  -5.2274  -5.1940  -5.1907  -4.6247  -4.6247  -4.5822  -4.5791
    -4.4239  -4.4220  -4.4167  -4.4148  -4.3241  -4.3219  -4.2221  -4.2187
    -4.1443  -4.1418  -4.0858  -4.0846  -3.9080  -3.9044  -3.8741  -3.8737
    -3.7362  -3.7342  -3.7336  -3.7281  -3.3925  -3.3900  -3.3698  -3.3665
    -3.2449  -3.2443  -3.1724  -3.1701  -3.0476  -3.0445  -3.0053  -3.0031
    -2.9399  -2.9356  -2.9075  -2.9042  -2.6936  -2.6923  -2.6861  -2.6833
    -2.1386  -2.1349  -2.0767  -2.0754  -1.9963  -1.9939  -1.8791  -1.8781
    -1.7900  -1.7855  -1.7804  -1.7778  -0.3845  -0.3754  -0.3600  -0.3507
     0.0735   0.0743   0.1165   0.1175   0.4717   0.4746   0.4874   0.4901
     0.8923   0.8927   0.9016   0.9026

          k =-0.5000 0.0000-0.1795 ( 19044 PWs)   bands (ev):

   -20.2532 -20.2498 -20.2397 -20.2366 -19.1900 -19.1888 -19.1718 -19.1703
   -18.1871 -18.1833 -18.1816 -18.1776 -14.9626 -14.9614 -14.9377 -14.9365
   -13.3210 -13.3199 -13.3129 -13.3120 -12.6272 -12.6262 -12.5877 -12.5867
   -12.1086 -12.1074 -12.0560 -12.0545 -12.0138 -12.0108 -12.0042 -12.0011
   -11.1527 -11.1464 -11.0571 -11.0504  -9.5874  -9.5820  -9.5461  -9.5406
    -8.7093  -8.7086  -8.6057  -8.6056  -8.4523  -8.4493  -8.3860  -8.3821
    -7.4404  -7.4397  -7.4239  -7.4236  -6.9440  -6.9435  -6.7988  -6.7987
    -6.4071  -6.4045  -6.3585  -6.3560  -6.0878  -6.0858  -6.0379  -6.0370
    -5.8338  -5.8329  -5.7297  -5.7286  -5.6702  -5.6692  -5.5755  -5.5754
    -5.2508  -5.2498  -5.1539  -5.1519  -4.6172  -4.6164  -4.5701  -4.5683
    -4.4917  -4.4912  -4.4028  -4.4025  -4.2293  -4.2270  -4.1990  -4.1984
    -4.1564  -4.1529  -4.0995  -4.0955  -3.9118  -3.9113  -3.8673  -3.8672
    -3.8135  -3.8091  -3.6592  -3.6546  -3.4184  -3.4155  -3.3297  -3.3266
    -3.2525  -3.2525  -3.1753  -3.1746  -3.1072  -3.1071  -3.0007  -2.9999
    -2.9398  -2.9381  -2.9128  -2.9103  -2.7573  -2.7566  -2.7204  -2.7188
    -2.1340  -2.1333  -2.0519  -2.0485  -1.9504  -1.9490  -1.8805  -1.8782
    -1.8513  -1.8496  -1.6990  -1.6963  -0.4944  -0.4942  -0.2863  -0.2861
     0.0670   0.0678   0.1087   0.1096   0.4792   0.4803   0.5290   0.5303
     0.9003   0.9005   0.9796   0.9798

          k =-0.5000 0.0000-0.5948 ( 19094 PWs)   bands (ev):

   -20.2534 -20.2500 -20.2396 -20.2364 -19.1900 -19.1889 -19.1718 -19.1702
   -18.1873 -18.1829 -18.1817 -18.1778 -14.9634 -14.9599 -14.9396 -14.9349
   -13.3224 -13.3170 -13.3141 -13.3120 -12.6453 -12.6146 -12.6055 -12.5623
   -12.1214 -12.1015 -12.0917 -12.0544 -12.0233 -12.0096 -11.9808 -11.9737
   -11.1644 -11.1333 -11.0616 -11.0454  -9.6349  -9.5823  -9.5347  -9.5065
    -8.7351  -8.6439  -8.6357  -8.5952  -8.5335  -8.4841  -8.3290  -8.3228
    -7.4734  -7.4470  -7.4047  -7.3881  -6.9719  -6.9023  -6.8842  -6.7681
    -6.4262  -6.4028  -6.3739  -6.3687  -6.1747  -6.0887  -6.0522  -6.0250
    -5.8613  -5.7721  -5.6885  -5.6810  -5.6794  -5.6101  -5.5608  -5.5304
    -5.4123  -5.2930  -5.0456  -5.0450  -4.6547  -4.6228  -4.5521  -4.5442
    -4.4822  -4.4643  -4.4619  -4.4183  -4.3643  -4.2809  -4.2298  -4.1924
    -4.1558  -4.0895  -4.0353  -4.0130  -4.0075  -3.9595  -3.8315  -3.8237
    -3.7723  -3.7133  -3.7052  -3.7029  -3.3968  -3.3899  -3.3793  -3.3050
    -3.2888  -3.2573  -3.1922  -3.1681  -3.1622  -3.1327  -3.0665  -3.0427
    -2.9322  -2.9104  -2.8459  -2.8273  -2.7908  -2.7363  -2.6474  -2.6149
    -2.2367  -2.1333  -2.1197  -2.1126  -2.0746  -1.9901  -1.9091  -1.8229
    -1.7591  -1.7435  -1.7145  -1.6847  -0.4991  -0.4805  -0.2926  -0.2809
     0.0637   0.0662   0.1030   0.1182   0.4766   0.4772   0.4993   0.5769
     0.8637   0.9407   0.9732   0.9899

          k =-0.5000-0.4260-0.1795 ( 19060 PWs)   bands (ev):

   -20.2537 -20.2492 -20.2403 -20.2359 -19.1925 -19.1863 -19.1742 -19.1680
   -18.1871 -18.1828 -18.1821 -18.1777 -14.9557 -14.9504 -14.9489 -14.9437
   -13.3206 -13.3194 -13.3125 -13.3116 -12.6183 -12.6128 -12.6026 -12.5969
   -12.1099 -12.1085 -12.0386 -12.0351 -12.0318 -12.0259 -12.0051 -12.0022
   -11.1500 -11.1436 -11.0588 -11.0522  -9.5807  -9.5748  -9.5525  -9.5464
    -8.6786  -8.6781  -8.6443  -8.6431  -8.4441  -8.4412  -8.3893  -8.3852
    -7.4337  -7.4319  -7.4278  -7.4263  -6.9414  -6.9408  -6.8062  -6.8058
    -6.3899  -6.3863  -6.3782  -6.3742  -6.1062  -6.1055  -6.0344  -6.0315
    -5.8086  -5.8079  -5.7463  -5.7454  -5.6537  -5.6527  -5.5874  -5.5869
    -5.2197  -5.2179  -5.1690  -5.1664  -4.6256  -4.6233  -4.5872  -4.5865
    -4.4053  -4.4029  -4.3596  -4.3553  -4.3549  -4.3502  -4.2340  -4.2312
    -4.1616  -4.1557  -4.0676  -4.0638  -3.9101  -3.9085  -3.9061  -3.9047
    -3.7468  -3.7437  -3.7141  -3.7073  -3.4020  -3.3982  -3.3352  -3.3316
    -3.2678  -3.2638  -3.1857  -3.1851  -3.0483  -3.0459  -3.0195  -3.0182
    -2.9185  -2.9165  -2.9103  -2.9071  -2.7819  -2.7805  -2.7126  -2.7114
    -2.1079  -2.1065  -2.0809  -2.0768  -1.9264  -1.9236  -1.8677  -1.8613
    -1.8485  -1.8471  -1.7445  -1.7394  -0.4012  -0.3921  -0.3888  -0.3799
     0.0648   0.0656   0.1121   0.1132   0.4892   0.4917   0.5135   0.5166
     0.9273   0.9282   0.9567   0.9574

          k =-0.5000-0.4260-0.5948 ( 19064 PWs)   bands (ev):

   -20.2539 -20.2495 -20.2401 -20.2358 -19.1925 -19.1864 -19.1741 -19.1679
   -18.1870 -18.1829 -18.1820 -18.1778 -14.9555 -14.9504 -14.9487 -14.9436
   -13.3210 -13.3200 -13.3116 -13.3109 -12.6335 -12.6315 -12.5838 -12.5815
   -12.1150 -12.1143 -12.0731 -12.0709 -12.0046 -12.0005 -11.9902 -11.9887
   -11.1507 -11.1445 -11.0568 -11.0504  -9.6121  -9.6101  -9.5183  -9.5162
    -8.6764  -8.6759  -8.6398  -8.6387  -8.5028  -8.5026  -8.3241  -8.3233
    -7.4590  -7.4581  -7.3954  -7.3945  -6.9584  -6.9574  -6.8059  -6.8055
    -6.4117  -6.4077  -6.3836  -6.3800  -6.1480  -6.1475  -6.0391  -6.0371
    -5.7891  -5.7873  -5.7164  -5.7153  -5.5927  -5.5920  -5.5823  -5.5816
    -5.3433  -5.3429  -5.0388  -5.0380  -4.6494  -4.6488  -4.5553  -4.5528
    -4.4473  -4.4463  -4.3878  -4.3852  -4.3304  -4.3280  -4.2873  -4.2868
    -4.1713  -4.1698  -4.0275  -4.0268  -3.9184  -3.9150  -3.8595  -3.8584
    -3.7454  -3.7426  -3.7052  -3.6993  -3.3887  -3.3870  -3.3503  -3.3475
    -3.2926  -3.2901  -3.1812  -3.1807  -3.1017  -3.0990  -3.0540  -3.0537
    -2.9319  -2.9306  -2.8321  -2.8310  -2.7697  -2.7693  -2.6220  -2.6204
    -2.1663  -2.1654  -2.1060  -2.1029  -2.0384  -2.0351  -1.8856  -1.8802
    -1.7488  -1.7453  -1.7197  -1.7183  -0.3970  -0.3968  -0.3791  -0.3790
     0.0648   0.0655   0.1105   0.1115   0.4777   0.4779   0.5344   0.5344
     0.9143   0.9146   0.9728   0.9735

     highest occupied level (ev):     0.9899

!    total energy              =    -897.42853059 Ry
     Harris-Foulkes estimate   =    -897.42853063 Ry
     estimated scf accuracy    <       0.00000005 Ry

     The total energy is the sum of the following terms:

     one-electron contribution =    -699.77082498 Ry
     hartree contribution      =     449.88982244 Ry
     xc contribution           =    -266.56684085 Ry
     ewald contribution        =    -380.51891853 Ry
     Dispersion Correction     =      -0.46176867 Ry

     convergence has been achieved in  10 iterations

     Forces acting on atoms (cartesian axes, Ry/au):

     atom    1 type  1   force =     0.00165701    0.00048347   -0.00185855
     atom    2 type  1   force =    -0.00165701   -0.00048347    0.00185855
     atom    3 type  1   force =    -0.00086628    0.00184041   -0.00049406
     atom    4 type  1   force =     0.00086628   -0.00184041    0.00049406
     atom    5 type  1   force =     0.00724694   -0.00685399   -0.01962745
     atom    6 type  1   force =    -0.00724694    0.00685399    0.01962745
     atom    7 type  1   force =    -0.00862520   -0.00794299    0.02220641
     atom    8 type  1   force =     0.00862520    0.00794299   -0.02220641
     atom    9 type  1   force =    -0.00514303   -0.00820355   -0.00845293
     atom   10 type  1   force =     0.00514303    0.00820355    0.00845293
     atom   11 type  1   force =     0.00429440   -0.00684388    0.00780385
     atom   12 type  1   force =    -0.00429440    0.00684388   -0.00780385
     atom   13 type  1   force =     0.00086158    0.00014376   -0.00120164
     atom   14 type  1   force =    -0.00086158   -0.00014376    0.00120164
     atom   15 type  1   force =    -0.00097588   -0.00070472    0.00161089
     atom   16 type  1   force =     0.00097588    0.00070472   -0.00161089
     atom   17 type  1   force =    -0.00519633    0.00156004    0.00421305
     atom   18 type  1   force =     0.00519633   -0.00156004   -0.00421305
     atom   19 type  1   force =     0.00525035    0.00086493   -0.00417013
     atom   20 type  1   force =    -0.00525035   -0.00086493    0.00417013
     atom   21 type  1   force =     0.00019735    0.00115170    0.00157684
     atom   22 type  1   force =    -0.00019735   -0.00115170   -0.00157684
     atom   23 type  1   force =    -0.00055378    0.00287817   -0.00313317
     atom   24 type  1   force =     0.00055378   -0.00287817    0.00313317
     atom   25 type  1   force =     0.00545646    0.00534008    0.00516297
     atom   26 type  1   force =    -0.00545646   -0.00534008   -0.00516297
     atom   27 type  1   force =    -0.00606194    0.00582898   -0.00686627
     atom   28 type  1   force =     0.00606194   -0.00582898    0.00686627
     atom   29 type  1   force =    -0.00412721   -0.00059529    0.00026869
     atom   30 type  1   force =     0.00412721    0.00059529   -0.00026869
     atom   31 type  1   force =     0.00332521   -0.00204261    0.00138678
     atom   32 type  1   force =    -0.00332521    0.00204261   -0.00138678
     atom   33 type  1   force =     0.00207007    0.00272324    0.00934649
     atom   34 type  1   force =    -0.00207007   -0.00272324   -0.00934649
     atom   35 type  1   force =    -0.00203121    0.00298179   -0.01048619
     atom   36 type  1   force =     0.00203121   -0.00298179    0.01048619
     atom   37 type  1   force =     0.00484668    0.00156556    0.00117212
     atom   38 type  1   force =    -0.00484668   -0.00156556   -0.00117212
     atom   39 type  1   force =    -0.00544159    0.00076210   -0.00172583
     atom   40 type  1   force =     0.00544159   -0.00076210    0.00172583
     atom   41 type  1   force =     0.01239094    0.00457803   -0.00438884
     atom   42 type  1   force =    -0.01239094   -0.00457803    0.00438884
     atom   43 type  1   force =    -0.01171013    0.00439332    0.00358121
     atom   44 type  1   force =     0.01171013   -0.00439332   -0.00358121
     atom   45 type  3   force =     0.00186183    0.00173021    0.00354233
     atom   46 type  3   force =    -0.00186183   -0.00173021   -0.00354233
     atom   47 type  3   force =    -0.00193120    0.00295261   -0.00310354
     atom   48 type  3   force =     0.00193120   -0.00295261    0.00310354
     atom   49 type  3   force =     0.00069377   -0.00419591   -0.00485552
     atom   50 type  3   force =    -0.00069377    0.00419591    0.00485552
     atom   51 type  3   force =    -0.00199086   -0.00517333    0.00460939
     atom   52 type  3   force =     0.00199086    0.00517333   -0.00460939
     atom   53 type  2   force =     0.00523774   -0.00136873   -0.00275487
     atom   54 type  2   force =    -0.00523774    0.00136873    0.00275487
     atom   55 type  2   force =    -0.00550428   -0.00120291    0.00264956
     atom   56 type  2   force =     0.00550428    0.00120291   -0.00264956
     atom   57 type  2   force =    -0.00319341    0.00251647    0.01291516
     atom   58 type  2   force =     0.00319341   -0.00251647   -0.01291516
     atom   59 type  2   force =     0.00318166    0.00279582   -0.01380675
     atom   60 type  2   force =    -0.00318166   -0.00279582    0.01380675
     atom   61 type  2   force =     0.00938517    0.00850878    0.00686796
     atom   62 type  2   force =    -0.00938517   -0.00850878   -0.00686796
     atom   63 type  2   force =    -0.00921113    0.00855089   -0.00719287
     atom   64 type  2   force =     0.00921113   -0.00855089    0.00719287
     atom   65 type  2   force =    -0.00872090   -0.00613466   -0.00818810
     atom   66 type  2   force =     0.00872090    0.00613466    0.00818810
     atom   67 type  2   force =     0.00869798   -0.00630330    0.00857928
     atom   68 type  2   force =    -0.00869798    0.00630330   -0.00857928
     atom   69 type  2   force =     0.00103323   -0.00373698   -0.01101868
     atom   70 type  2   force =    -0.00103323    0.00373698    0.01101868
     atom   71 type  2   force =    -0.00104043   -0.00376646    0.01112046
     atom   72 type  2   force =     0.00104043    0.00376646   -0.01112046
     atom   73 type  2   force =    -0.01244488   -0.00351814    0.00677095
     atom   74 type  2   force =     0.01244488    0.00351814   -0.00677095
     atom   75 type  2   force =     0.01175172   -0.00352557   -0.00634969
     atom   76 type  2   force =    -0.01175172    0.00352557    0.00634969
     atom   77 type  2   force =    -0.00098069   -0.00441696    0.00136685
     atom   78 type  2   force =     0.00098069    0.00441696   -0.00136685
     atom   79 type  2   force =     0.00141032   -0.00507460   -0.00206861
     atom   80 type  2   force =    -0.00141032    0.00507460    0.00206861
     atom   81 type  2   force =     0.00448932    0.00115400    0.00430667
     atom   82 type  2   force =    -0.00448932   -0.00115400   -0.00430667
     atom   83 type  2   force =    -0.00393809    0.00097923   -0.00433335
     atom   84 type  2   force =     0.00393809   -0.00097923    0.00433335
     atom   85 type  2   force =    -0.00379937    0.00679012    0.00099676
     atom   86 type  2   force =     0.00379937   -0.00679012   -0.00099676
     atom   87 type  2   force =     0.00388339    0.00670454   -0.00120809
     atom   88 type  2   force =    -0.00388339   -0.00670454    0.00120809
     atom   89 type  2   force =    -0.00372548    0.00460399    0.01310034
     atom   90 type  2   force =     0.00372548   -0.00460399   -0.01310034
     atom   91 type  2   force =     0.00446048    0.00518017   -0.01491364
     atom   92 type  2   force =    -0.00446048   -0.00518017    0.01491364
     atom   93 type  2   force =    -0.00126791   -0.00361856   -0.00393814
     atom   94 type  2   force =     0.00126791    0.00361856    0.00393814
     atom   95 type  2   force =     0.00141200   -0.00328345    0.00290649
     atom   96 type  2   force =    -0.00141200    0.00328345   -0.00290649
     atom   97 type  2   force =     0.00177879    0.00819335   -0.00138211
     atom   98 type  2   force =    -0.00177879   -0.00819335    0.00138211
     atom   99 type  2   force =    -0.00170261    0.00854140    0.00122221
     atom  100 type  2   force =     0.00170261   -0.00854140   -0.00122221
     atom  101 type  2   force =     0.00486813   -0.00442767    0.00116690
     atom  102 type  2   force =    -0.00486813    0.00442767   -0.00116690
     atom  103 type  2   force =    -0.00466656   -0.00424469   -0.00123886
     atom  104 type  2   force =     0.00466656    0.00424469    0.00123886
     atom  105 type  4   force =    -0.00851410   -0.00765297   -0.00635059
     atom  106 type  4   force =     0.00851410    0.00765297    0.00635059
     atom  107 type  4   force =     0.00964932   -0.00863423    0.00616832
     atom  108 type  4   force =    -0.00964932    0.00863423   -0.00616832

     Total force =     0.108473     Total SCF correction =     0.000462

     number of scf cycles    =   2
     number of bfgs steps    =   1

     energy   old            =    -897.4127974711 Ry
     energy   new            =    -897.4285305904 Ry

     CASE: energy  _new < energy  _old

     new trust radius        =       0.0305785071 bohr
     new conv_thr            =       0.0000000222 Ry


ATOMIC_POSITIONS (angstrom)
C        0.530214915   2.426798788   3.564825919
C        4.558694465   8.093200819   7.227639351
C        2.013289296   7.687710401   1.831766088
C        3.075619602   2.832289314   8.960699611
C       -0.791676243   2.092480007   4.189340967
C        5.880585067   8.427520644   6.603123514
C        3.335964297   7.351819637   1.206858550
C        1.752944733   3.168180927   9.585607131
C        1.423884944   3.309670564   4.246655724
C        3.665024052   7.210329292   6.545809505
C        1.118374019   8.570659319   1.150880948
C        3.970534760   1.949340367   9.641585015
C        7.207980706   1.295333347   3.501470480
C       -2.119071571   9.224666287   7.290994711
C        4.299234273   6.555130064   1.893648049
C        0.789674570   3.964869756   8.898817143
C        0.949761621   1.900816626   2.322137229
C        4.139147384   8.619183206   8.470327946
C        1.596477603   7.160223132   3.071436444
C        3.492431257   3.359776642   7.721029195
C        2.686605738   3.611660700   3.701925746
C        2.402303282   6.908339159   7.090539492
C       -0.144463500   8.872465097   1.696050670
C        5.233372383   1.647534964   9.096415196
C        6.018556427   0.929312391   4.104628814
C       -0.929647436   9.590687482   6.687836144
C        5.489933653   6.189085009   1.290704862
C       -0.401024764   4.330914946   9.501760318
C        3.056047021   3.077936586   2.469751617
C        2.032862287   7.442063338   8.322713676
C       -0.514349195   8.337141687   2.926717522
C        5.603257847   2.182858065   7.865748064
C        5.035226298  10.335199069   2.160102490
C        0.053682790   0.184800866   8.632362501
C        6.473771874   5.074436153   3.234479611
C       -1.384862781   5.445563850   7.557985463
C        2.189821333   2.223529553   1.772836787
C        2.899087669   8.296470584   9.019628654
C        0.355371837   7.482843365   3.620077080
C        4.733537184   3.037156836   7.172388633
C        3.810145473  10.425043760   4.328610845
C        1.278763598   0.094956202   6.463854336
C        7.699447127   5.165584254   1.065719636
C       -2.610538135   5.354415743   9.726745389
O       -1.027112453   2.565566634   5.367643610
O        6.116026768   7.954433956   5.424822027
O        3.570556826   7.825642776   0.031764453
O        1.518349260   2.694357200  10.760700445
O        1.060963178   3.865663629   5.420522223
O        4.027945730   6.654336142   5.371943055
O       -2.392890014   9.125221609  10.764124667
O        7.481798494   1.394778239   0.028341436
H        0.131051721   3.423515279   5.624105114
H        4.957857346   7.096485233   5.168360687
H       -1.462671001   8.683677598  10.564179618
H        6.551579504   1.836322654   0.228286120
H        7.426178049   0.989345756   2.483784008
H       -2.337268852   9.530654176   8.308681080
H        4.081956054   6.249558214   2.911809659
H        1.006953084   4.270441673   7.880655638
H        0.291487154   1.230975117   1.767887217
H        4.797421876   9.289024747   9.024577971
H        2.252854290   6.491109047   3.628291303
H        2.836054791   4.028890940   7.164174284
H        3.348093849   4.272205746   4.266187705
H        1.740815278   6.247794015   6.526277496
H        8.159874314   9.531962749   1.130212613
H       -3.070965376   0.988037100   9.662252918
H        5.861225691   1.220968230   5.142096361
H       -0.772316472   9.299031701   5.650368596
H        5.646913104   6.480978864   0.254178470
H       -0.558004313   4.039021134  10.538286717
H        4.028097410   3.319652122   2.027764882
H        1.060811825   7.200347860   8.764700219
H        7.479175702   8.579521493   3.368763917
H       -2.390266972   1.940478501   7.423701684
H        5.431396230   0.617257983   1.535517313
H       -0.342487134   9.902742009   9.256947756
H        6.076951763   5.876774831   3.860131408
H       -0.988042668   4.643225188   6.932333636
H        4.017969714  10.110660665   1.825214774
H        1.070939369   0.409339273   8.967250243
H        7.490380811   4.850492629   3.570926463
H       -2.401471662   5.669507421   7.221538482
H        5.644807414   9.430096364   2.033857230
H       -0.555898171   1.089903641   8.758607892
H        5.863211980   4.170023201   3.362095854
H       -0.774302789   6.349976757   7.430369306
H        2.484474022   1.812439115   0.805431001
H        2.604434895   8.707560921   9.987034481
H        0.060190981   7.072791611   4.589447992
H        5.028717991   3.447208365   6.203017572
H        3.924223919   0.274908739   5.349513581
H        1.164685430  10.245091231   5.442951572
H        7.584281669   5.535210700   0.046135321
H       -2.495372618   4.984789332  10.746329711
H        3.658061932   9.337324868   4.355076813
H        1.430847216   1.182675082   6.437388296
H        7.850145022   4.077611567   1.041093128
H       -2.761236034   6.442388424   9.751371886
H        2.930620105   0.380228396   3.872989286
H        2.158288961  10.139771691   6.919476030
H       -0.386149684   5.640246232   1.523584547
H        5.475058637   4.879753775   9.268880563
N        5.006005297   0.241423053   3.555259449
N        0.082903582  10.278576975   7.237205499
N        6.503171953   5.500848146   1.838128391
N       -1.414262881   5.019151979   8.954336712



     Writing output data file 2HP-1.save
     charge density from previous step

     total cpu time spent up to now is     5409.7 secs

     per-process dynamical memory:   790.8 Mb

     Self-consistent Calculation

     iteration #  1     ecut=    30.00 Ry     beta=0.70
     Davidson diagonalization with overlap
     ethr =  1.00E-06,  avg # of iterations =  7.8

     total cpu time spent up to now is     5864.1 secs

     total energy              =    -897.25778666 Ry
     Harris-Foulkes estimate   =    -897.56305150 Ry
     estimated scf accuracy    <       0.38886943 Ry

     iteration #  2     ecut=    30.00 Ry     beta=0.70
     Davidson diagonalization with overlap
     ethr =  1.31E-04,  avg # of iterations =  4.0

     total cpu time spent up to now is     6126.7 secs

     total energy              =    -897.32383165 Ry
     Harris-Foulkes estimate   =    -897.57666870 Ry
     estimated scf accuracy    <       0.52568039 Ry

     iteration #  3     ecut=    30.00 Ry     beta=0.70
     Davidson diagonalization with overlap
     ethr =  1.31E-04,  avg # of iterations =  3.0

     total cpu time spent up to now is     6352.9 secs

     total energy              =    -897.43217317 Ry
     Harris-Foulkes estimate   =    -897.44162982 Ry
     estimated scf accuracy    <       0.01865212 Ry

     iteration #  4     ecut=    30.00 Ry     beta=0.70
     Davidson diagonalization with overlap
     ethr =  6.30E-06,  avg # of iterations =  4.0

     total cpu time spent up to now is     6588.7 secs

     total energy              =    -897.43702155 Ry
     Harris-Foulkes estimate   =    -897.43839978 Ry
     estimated scf accuracy    <       0.00294896 Ry

     iteration #  5     ecut=    30.00 Ry     beta=0.70
     Davidson diagonalization with overlap
     ethr =  9.96E-07,  avg # of iterations =  4.0

     total cpu time spent up to now is     6816.7 secs

     total energy              =    -897.43767552 Ry
     Harris-Foulkes estimate   =    -897.43787779 Ry
     estimated scf accuracy    <       0.00046242 Ry

     iteration #  6     ecut=    30.00 Ry     beta=0.70
     Davidson diagonalization with overlap
     ethr =  1.56E-07,  avg # of iterations =  3.9

     total cpu time spent up to now is     7034.9 secs

     total energy              =    -897.43776692 Ry
     Harris-Foulkes estimate   =    -897.43778270 Ry
     estimated scf accuracy    <       0.00003355 Ry

     iteration #  7     ecut=    30.00 Ry     beta=0.70
     Davidson diagonalization with overlap
     ethr =  1.13E-08,  avg # of iterations =  4.0

     total cpu time spent up to now is     7278.5 secs

     total energy              =    -897.43777547 Ry
     Harris-Foulkes estimate   =    -897.43778139 Ry
     estimated scf accuracy    <       0.00001489 Ry

     iteration #  8     ecut=    30.00 Ry     beta=0.70
     Davidson diagonalization with overlap
     ethr =  5.03E-09,  avg # of iterations =  4.0

     total cpu time spent up to now is     7489.3 secs

     total energy              =    -897.43777824 Ry
     Harris-Foulkes estimate   =    -897.43777949 Ry
     estimated scf accuracy    <       0.00000304 Ry

     iteration #  9     ecut=    30.00 Ry     beta=0.70
     Davidson diagonalization with overlap
     ethr =  1.03E-09,  avg # of iterations =  4.0

     total cpu time spent up to now is     7699.6 secs

     total energy              =    -897.43777884 Ry
     Harris-Foulkes estimate   =    -897.43777894 Ry
     estimated scf accuracy    <       0.00000021 Ry

     iteration # 10     ecut=    30.00 Ry     beta=0.70
     Davidson diagonalization with overlap
     ethr =  7.08E-11,  avg # of iterations =  4.0

     total cpu time spent up to now is     7940.7 secs

     total energy              =    -897.43777890 Ry
     Harris-Foulkes estimate   =    -897.43777892 Ry
     estimated scf accuracy    <       0.00000006 Ry

     iteration # 11     ecut=    30.00 Ry     beta=0.70
     Davidson diagonalization with overlap
     ethr =  1.96E-11,  avg # of iterations =  4.0

     total cpu time spent up to now is     8156.5 secs

     End of self-consistent calculation

          k = 0.0000 0.0000 0.0000 ( 19075 PWs)   bands (ev):

   -20.2672 -20.2622 -20.2402 -20.2354 -19.1316 -19.1252 -19.1172 -19.1106
   -18.2261 -18.2254 -18.2254 -18.2225 -15.0450 -15.0304 -15.0191 -15.0134
   -13.4470 -13.4120 -13.3953 -13.3649 -12.6920 -12.6727 -12.6630 -12.6354
   -12.1936 -12.1912 -12.1135 -12.1108 -12.0667 -12.0588 -12.0386 -12.0244
[...]
     0.0732   0.0919   0.1152   0.1422   0.4714   0.4913   0.4974   0.5676
     0.8417   0.9106   0.9527   0.9793

          k =-0.5000-0.4260-0.1795 ( 19060 PWs)   bands (ev):

   -20.2737 -20.2684 -20.2575 -20.2526 -19.1352 -19.1270 -19.1027 -19.0948
   -18.3449 -18.3394 -18.3272 -18.3219 -15.0702 -15.0646 -15.0626 -15.0576
   -13.4430 -13.4352 -13.4304 -13.4220 -12.7370 -12.7204 -12.7183 -12.7028
   -12.1937 -12.1852 -12.1217 -12.1187 -12.0841 -12.0798 -12.0716 -12.0658
   -11.2287 -11.2096 -11.1439 -11.1342  -9.6487  -9.6390  -9.6197  -9.6122
    -8.7574  -8.7460  -8.7199  -8.7086  -8.4794  -8.4640  -8.4376  -8.4236
    -7.5268  -7.5261  -7.5163  -7.5145  -7.0381  -7.0191  -6.9113  -6.9077
    -6.4097  -6.3968  -6.3883  -6.3774  -6.1892  -6.1800  -6.1236  -6.1158
    -5.8696  -5.8579  -5.8225  -5.8127  -5.7339  -5.7224  -5.6896  -5.6819
    -5.2770  -5.2605  -5.2220  -5.2071  -4.6817  -4.6754  -4.6440  -4.6355
    -4.4637  -4.4501  -4.4107  -4.4089  -4.4015  -4.4007  -4.2716  -4.2675
    -4.1959  -4.1904  -4.0837  -4.0706  -3.9302  -3.9273  -3.9241  -3.9186
    -3.7764  -3.7649  -3.7620  -3.7506  -3.4432  -3.4361  -3.3636  -3.3574
    -3.2774  -3.2688  -3.1978  -3.1913  -3.0817  -3.0701  -3.0418  -3.0355
    -2.9798  -2.9749  -2.9709  -2.9568  -2.7862  -2.7780  -2.7262  -2.7135
    -2.1264  -2.1146  -2.1068  -2.0987  -1.9815  -1.9687  -1.8921  -1.8812
    -1.8695  -1.8664  -1.7345  -1.7280  -0.4360  -0.4198  -0.4190  -0.4029
     0.0723   0.0909   0.1218   0.1403   0.4900   0.4957   0.5127   0.5149
     0.9072   0.9177   0.9254   0.9360

          k =-0.5000-0.4260-0.5948 ( 19064 PWs)   bands (ev):

   -20.2738 -20.2686 -20.2573 -20.2525 -19.1352 -19.1271 -19.1027 -19.0948
   -18.3448 -18.3395 -18.3270 -18.3220 -15.0700 -15.0648 -15.0622 -15.0575
   -13.4430 -13.4363 -13.4290 -13.4217 -12.7491 -12.7425 -12.6966 -12.6903
   -12.1941 -12.1842 -12.1508 -12.1507 -12.0626 -12.0619 -12.0586 -12.0572
   -11.2303 -11.2117 -11.1410 -11.1320  -9.6779  -9.6745  -9.5844  -9.5842
    -8.7557  -8.7481  -8.7125  -8.7052  -8.5349  -8.5315  -8.3675  -8.3638
    -7.5521  -7.5487  -7.4894  -7.4798  -7.0516  -7.0331  -6.9078  -6.9076
    -6.4310  -6.4119  -6.4044  -6.3847  -6.2250  -6.2160  -6.1288  -6.1216
    -5.8621  -5.8540  -5.8139  -5.7949  -5.6890  -5.6801  -5.6479  -5.6453
    -5.3853  -5.3810  -5.0994  -5.0952  -4.7052  -4.7020  -4.5957  -4.5894
    -4.4964  -4.4898  -4.4317  -4.4204  -4.3831  -4.3825  -4.3122  -4.3105
    -4.2360  -4.2346  -4.0456  -4.0409  -3.9421  -3.9333  -3.8646  -3.8635
    -3.7821  -3.7729  -3.7576  -3.7463  -3.4229  -3.4126  -3.3819  -3.3763
    -3.3021  -3.2953  -3.1907  -3.1845  -3.1310  -3.1282  -3.0751  -3.0713
    -2.9749  -2.9716  -2.9007  -2.8966  -2.7804  -2.7752  -2.6328  -2.6287
    -2.2175  -2.2113  -2.1252  -2.1145  -2.0531  -2.0486  -1.9058  -1.8863
    -1.7620  -1.7604  -1.7319  -1.7304  -0.4289  -0.4257  -0.4070  -0.4043
     0.0722   0.0903   0.1216   0.1397   0.4835   0.4854   0.5257   0.5280
     0.8910   0.8951   0.9499   0.9539

     highest occupied level (ev):     0.9793

!    total energy              =    -897.44691667 Ry
     Harris-Foulkes estimate   =    -897.44691667 Ry
     estimated scf accuracy    <          1.1E-10 Ry

     The total energy is the sum of the following terms:

     one-electron contribution =    -719.21687416 Ry
     hartree contribution      =     459.56220453 Ry
     xc contribution           =    -267.28061773 Ry
     ewald contribution        =    -370.05272633 Ry
     Dispersion Correction     =      -0.45890297 Ry

     convergence has been achieved in  10 iterations

     Forces acting on atoms (cartesian axes, Ry/au):

     atom    1 type  1   force =     0.00034361   -0.00020820   -0.00011201
     atom    2 type  1   force =    -0.00034361    0.00020820    0.00011201
     atom    3 type  1   force =    -0.00020710   -0.00045889    0.00055147
     atom    4 type  1   force =     0.00020710    0.00045889   -0.00055147
     atom    5 type  1   force =     0.00029202    0.00060616    0.00052804
     atom    6 type  1   force =    -0.00029202   -0.00060616   -0.00052804
     atom    7 type  1   force =    -0.00016919    0.00066823   -0.00060303
     atom    8 type  1   force =     0.00016919   -0.00066823    0.00060303
     atom    9 type  1   force =     0.00053649    0.00003466   -0.00070900
     atom   10 type  1   force =    -0.00053649   -0.00003466    0.00070900
     atom   11 type  1   force =    -0.00015085   -0.00003123    0.00038219
     atom   12 type  1   force =     0.00015085    0.00003123   -0.00038219
     atom   13 type  1   force =     0.00006995   -0.00009716   -0.00027377
     atom   14 type  1   force =    -0.00006995    0.00009716    0.00027377
     atom   15 type  1   force =     0.00007203   -0.00024257    0.00051591
     atom   16 type  1   force =    -0.00007203    0.00024257   -0.00051591
     atom   17 type  1   force =     0.00017144   -0.00006346   -0.00026516
     atom   18 type  1   force =    -0.00017144    0.00006346    0.00026516
     atom   19 type  1   force =     0.00004594    0.00019335   -0.00007287
     atom   20 type  1   force =    -0.00004594   -0.00019335    0.00007287
     atom   21 type  1   force =     0.00001903   -0.00008309    0.00007274
     atom   22 type  1   force =    -0.00001903    0.00008309   -0.00007274
     atom   23 type  1   force =     0.00021956    0.00008082   -0.00030014
     atom   24 type  1   force =    -0.00021956   -0.00008082    0.00030014
     atom   25 type  1   force =    -0.00004554    0.00000954    0.00000903
     atom   26 type  1   force =     0.00004554   -0.00000954   -0.00000903
     atom   27 type  1   force =    -0.00004356    0.00023460   -0.00002626
     atom   28 type  1   force =     0.00004356   -0.00023460    0.00002626
     atom   29 type  1   force =     0.00004903    0.00041459    0.00034104
     atom   30 type  1   force =    -0.00004903   -0.00041459   -0.00034104
     atom   31 type  1   force =     0.00024101    0.00055136   -0.00053889
     atom   32 type  1   force =    -0.00024101   -0.00055136    0.00053889
     atom   33 type  1   force =    -0.00022888   -0.00029635   -0.00037022
     atom   34 type  1   force =     0.00022888    0.00029635    0.00037022
     atom   35 type  1   force =     0.00031924   -0.00012678    0.00018235
     atom   36 type  1   force =    -0.00031924    0.00012678   -0.00018235
     atom   37 type  1   force =     0.00039515   -0.00000731   -0.00015939
     atom   38 type  1   force =    -0.00039515    0.00000731    0.00015939
     atom   39 type  1   force =     0.00004515   -0.00031740    0.00048098
     atom   40 type  1   force =    -0.00004515    0.00031740   -0.00048098
     atom   41 type  1   force =     0.00020439    0.00005365    0.00031199
     atom   42 type  1   force =    -0.00020439   -0.00005365   -0.00031199
     atom   43 type  1   force =    -0.00013463    0.00025902   -0.00045583
     atom   44 type  1   force =     0.00013463   -0.00025902    0.00045583
     atom   45 type  3   force =     0.00014568    0.00013046    0.00008844
     atom   46 type  3   force =    -0.00014568   -0.00013046   -0.00008844
     atom   47 type  3   force =    -0.00011890    0.00013606    0.00010925
     atom   48 type  3   force =     0.00011890   -0.00013606   -0.00010925
     atom   49 type  3   force =    -0.00006970   -0.00028245   -0.00050818
     atom   50 type  3   force =     0.00006970    0.00028245    0.00050818
     atom   51 type  3   force =     0.00033440   -0.00025370    0.00045791
     atom   52 type  3   force =    -0.00033440    0.00025370   -0.00045791
     atom   53 type  2   force =     0.00012959   -0.00025807   -0.00006372
     atom   54 type  2   force =    -0.00012959    0.00025807    0.00006372
     atom   55 type  2   force =     0.00058929    0.00014717    0.00056116
     atom   56 type  2   force =    -0.00058929   -0.00014717   -0.00056116
     atom   57 type  2   force =     0.00016156    0.00025740   -0.00020285
     atom   58 type  2   force =    -0.00016156   -0.00025740    0.00020285
     atom   59 type  2   force =     0.00012621    0.00004368    0.00042060
     atom   60 type  2   force =    -0.00012621   -0.00004368   -0.00042060
     atom   61 type  2   force =    -0.00005271   -0.00012786   -0.00002123
     atom   62 type  2   force =     0.00005271    0.00012786    0.00002123
     atom   63 type  2   force =     0.00025850   -0.00067767    0.00022621
     atom   64 type  2   force =    -0.00025850    0.00067767   -0.00022621
     atom   65 type  2   force =     0.00029484   -0.00039752    0.00000205
     atom   66 type  2   force =    -0.00029484    0.00039752   -0.00000205
     atom   67 type  2   force =    -0.00007180   -0.00047893   -0.00015846
     atom   68 type  2   force =     0.00007180    0.00047893    0.00015846
     atom   69 type  2   force =     0.00036187    0.00026822    0.00037511
     atom   70 type  2   force =    -0.00036187   -0.00026822   -0.00037511
     atom   71 type  2   force =    -0.00057123    0.00022429   -0.00030661
     atom   72 type  2   force =     0.00057123   -0.00022429    0.00030661
     atom   73 type  2   force =    -0.00047685   -0.00006084   -0.00026025
     atom   74 type  2   force =     0.00047685    0.00006084    0.00026025
     atom   75 type  2   force =     0.00097414   -0.00023626   -0.00026101
     atom   76 type  2   force =    -0.00097414    0.00023626    0.00026101
     atom   77 type  2   force =     0.00000494    0.00022515   -0.00022037
     atom   78 type  2   force =    -0.00000494   -0.00022515    0.00022037
     atom   79 type  2   force =    -0.00015663    0.00018411    0.00021624
     atom   80 type  2   force =     0.00015663   -0.00018411   -0.00021624
     atom   81 type  2   force =    -0.00016272   -0.00019254    0.00032535
     atom   82 type  2   force =     0.00016272    0.00019254   -0.00032535
     atom   83 type  2   force =     0.00015070    0.00002152   -0.00020201
     atom   84 type  2   force =    -0.00015070   -0.00002152    0.00020201
     atom   85 type  2   force =    -0.00002127   -0.00012177   -0.00027692
     atom   86 type  2   force =     0.00002127    0.00012177    0.00027692
     atom   87 type  2   force =    -0.00001767    0.00013154   -0.00011255
     atom   88 type  2   force =     0.00001767   -0.00013154    0.00011255
     atom   89 type  2   force =    -0.00025280    0.00009835    0.00020122
     atom   90 type  2   force =     0.00025280   -0.00009835   -0.00020122
     atom   91 type  2   force =     0.00033333    0.00030882   -0.00020012
     atom   92 type  2   force =    -0.00033333   -0.00030882    0.00020012
     atom   93 type  2   force =    -0.00014133   -0.00021624    0.00020360
     atom   94 type  2   force =     0.00014133    0.00021624   -0.00020360
     atom   95 type  2   force =    -0.00000037   -0.00002470   -0.00022309
     atom   96 type  2   force =     0.00000037    0.00002470    0.00022309
     atom   97 type  2   force =    -0.00002072    0.00022029    0.00011033
     atom   98 type  2   force =     0.00002072   -0.00022029   -0.00011033
     atom   99 type  2   force =    -0.00010404    0.00049283   -0.00030948
     atom  100 type  2   force =     0.00010404   -0.00049283    0.00030948
     atom  101 type  2   force =     0.00019172   -0.00023489    0.00005141
     atom  102 type  2   force =    -0.00019172    0.00023489   -0.00005141
     atom  103 type  2   force =    -0.00007677   -0.00011771   -0.00037184
     atom  104 type  2   force =     0.00007677    0.00011771    0.00037184
     atom  105 type  4   force =     0.00021749   -0.00018248    0.00010033
     atom  106 type  4   force =    -0.00021749    0.00018248   -0.00010033
     atom  107 type  4   force =     0.00003598    0.00016568   -0.00001928
     atom  108 type  4   force =    -0.00003598   -0.00016568    0.00001928

     Total force =     0.005184     Total SCF correction =     0.000018

     bfgs converged in  28 scf cycles and  27 bfgs steps
     (criteria: energy <  1.0E-04 Ry, force <  1.0E-03 Ry/Bohr)

     End of BFGS Geometry Optimization

     Final energy   =    -897.4469166682 Ry
Begin final coordinates

ATOMIC_POSITIONS (angstrom)
C        0.549514072   2.421374300   3.556488556
C        4.539395309   8.098625306   7.235976713
C        1.995123976   7.692909531   1.813118329
C        3.093784921   2.827090184   8.979347371
C       -0.748953055   2.084530153   4.185679295
C        5.837861878   8.435470498   6.606785186
C        3.295987872   7.360003999   1.179567445
C        1.792921157   3.159996564   9.612898236
C        1.435127685   3.316548346   4.234244054
C        3.653781311   7.203451509   6.558221175
C        1.098278396   8.583572493   1.143648551
C        3.990630383   1.936427193   9.648817413
C        7.251159317   1.292265353   3.496459829
C       -2.162250183   9.227734282   7.296005362
C        4.263793700   6.567835059   1.863929872
C        0.825115144   3.952164761   8.928535319
C        0.970488976   1.888840398   2.320670809
C        4.118420029   8.631159433   8.471794366
C        1.579305449   7.151430100   3.044341741
C        3.509603411   3.368569674   7.748123897
C        2.678295717   3.642642044   3.669456995
C        2.410613303   6.877357815   7.123008242
C       -0.146972007   8.901566500   1.712336134
C        5.235880891   1.618433562   9.080129731
C        6.062637098   0.936608152   4.107269838
C       -0.973728107   9.583391721   6.685195120
C        5.452321670   6.215689493   1.250017266
C       -0.363412782   4.304310462   9.542447915
C        3.058647993   3.089707882   2.454185946
C        2.030261315   7.430292042   8.338279347
C       -0.523905642   8.337177928   2.923469041
C        5.612814294   2.182821823   7.868996545
C        5.070386785  10.352406118   2.168238758
C        0.018522303   0.167593817   8.624226233
C        6.445990140   5.091083700   3.178331724
C       -1.357081047   5.428916303   7.614133350
C        2.205883415   2.208877393   1.773964591
C        2.883025587   8.311122744   9.018500850
C        0.340480734   7.458123752   3.592445250
C        4.748428287   3.061876449   7.200020463
C        3.867803013  10.425179369   4.328347219
C        1.221106058   0.094820593   6.464117963
C        7.644597258   5.182803959   1.020785270
C       -2.555688266   5.337196038   9.771679755
O       -0.972903437   2.549156506   5.370477269
O        6.061817752   7.970844084   5.421988369
O        3.517018292   7.822732614  -0.004446000
O        1.571887794   2.697267362  10.796910898
O        1.094482805   3.862249908   5.419023583
O        3.994426103   6.657749864   5.373441695
O       -2.440001948   9.126370458  10.747142584
O        7.528910428   1.393629389   0.045323519
H        0.169941586   3.394053387   5.620683299
H        4.918967482   7.125947124   5.171782502
H       -1.519650433   8.659061474  10.539363878
H        6.608558937   1.860938778   0.253101860
H        7.458164154   0.972216259   2.480866388
H       -2.369254956   9.547783673   8.311598699
H        4.059151831   6.244330595   2.879199549
H        1.029757307   4.275669292   7.913265749
H        0.320387428   1.208759676   1.775770016
H        4.768521602   9.311240187   9.016695171
H        2.234554546   6.476222313   3.588784189
H        2.854354535   4.043777674   7.203681399
H        3.318448619   4.339668349   4.212268353
H        1.770460508   6.180331411   6.580196848
H        8.172766910   9.598269321   1.173809861
H       -3.083857972   0.921730527   9.618655670
H        5.906208936   1.228211951   5.147627288
H       -0.817299717   9.291787980   5.644837668
H        5.609526031   6.514049142   0.211815247
H       -0.520617240   4.005950856  10.580649940
H        4.027918910   3.334553184   2.016044194
H        1.060990325   7.185446798   8.776420907
H        7.471412595   8.573544642   3.369065174
H       -2.382503865   1.946455351   7.423400428
H        5.462063882   0.633691703   1.532361864
H       -0.373154787   9.886308289   9.260103205
H        6.051028603   5.884356819   3.823350709
H       -0.962119508   4.635643200   6.969114335
H        4.047050825  10.123682585   1.851514446
H        1.041858258   0.396317353   8.940950572
H        7.470832773   4.863321278   3.491160175
H       -2.381923624   5.656678772   7.301304769
H        5.685108987   9.447435276   2.042547861
H       -0.596199743   1.072564729   8.749917261
H        5.835918911   4.181815081   3.297179141
H       -0.747009719   6.338184877   7.495286019
H        2.515508791   1.774510058   0.823695150
H        2.573400127   8.745489977   9.968770332
H        0.037114536   7.013163179   4.540066596
H        5.051794436   3.506836797   6.252398968
H        3.979166279   0.264547122   5.357440005
H        1.109743070  10.255452849   5.435025148
H        7.532271069   5.542138068  -0.007956813
H       -2.443362018   4.977861965  10.800421845
H        3.737579118   9.332512771   4.339873226
H        1.351330031   1.187487179   6.452591883
H        7.778647262   4.090390784   1.009864843
H       -2.689738273   6.429609207   9.782600171
H        2.980486267   0.369689750   3.870035045
H        2.108422799  10.150310337   6.922430271
H       -0.433307989   5.648798673   1.480377021
H        5.522216942   4.871201334   9.312088089
N        5.052193609   0.259406655   3.559221547
N        0.036715271  10.260593372   7.233243401
N        6.461147693   5.531955923   1.791766516
N       -1.372238621   4.988044202   9.000698587
End final coordinates



     Writing output data file 2HP-1.save
 
     init_run     :    118.79s CPU    120.54s WALL (       1 calls)
     electrons    :  71474.72s CPU  72022.95s WALL (      28 calls)
     update_pot   :     20.25s CPU     20.33s WALL (      27 calls)
     forces       :   1545.74s CPU   1556.27s WALL (      28 calls)

     Called by init_run:
     wfcinit      :    111.95s CPU    113.13s WALL (       1 calls)
     potinit      :      2.78s CPU      2.81s WALL (       1 calls)

     Called by electrons:
     c_bands      :  63925.48s CPU  64378.34s WALL (     299 calls)
     sum_band     :   6887.11s CPU   6941.92s WALL (     299 calls)
     v_of_rho     :    103.12s CPU    103.41s WALL (     327 calls)
     newd         :    223.19s CPU    262.83s WALL (     327 calls)
     mix_rho      :     20.22s CPU     22.61s WALL (     299 calls)

     Called by c_bands:
     init_us_2    :    379.19s CPU    380.16s WALL (    5016 calls)
     cegterg      :  62514.87s CPU  62962.08s WALL (    2392 calls)

     Called by sum_band:
     sum_band:bec :      2.11s CPU      2.12s WALL (    2392 calls)
     addusdens    :    237.43s CPU    277.04s WALL (     299 calls)

     Called by *egterg:
     h_psi        :  35968.45s CPU  36047.41s WALL (   11949 calls)
     s_psi        :   8555.86s CPU   8569.15s WALL (   11949 calls)
     g_psi        :    110.49s CPU    110.78s WALL (    9549 calls)
     cdiaghg      :   1986.19s CPU   1989.70s WALL (   11725 calls)

     Called by h_psi:
     h_psi:pot    :  35768.35s CPU  35846.58s WALL (   11949 calls)
     h_psi:calbec :   7624.00s CPU   7636.31s WALL (   11949 calls)
     vloc_psi     :  19586.70s CPU  19639.21s WALL (   11949 calls)
     add_vuspsi   :   8557.55s CPU   8570.92s WALL (   11949 calls)

     General routines
     calbec       :  11064.47s CPU  11082.27s WALL (   15237 calls)
     fft          :     52.82s CPU     53.38s WALL (    4252 calls)
     fftw         :  20206.43s CPU  20256.34s WALL ( 2442198 calls)
     davcio       :      0.00s CPU      0.52s WALL (       8 calls)
 
     Parallel routines
     fft_scatter  :   2755.95s CPU   2765.55s WALL ( 2446450 calls)
 
     PWSCF        :    20h19m CPU       20h29m WALL

 
   This run was terminated on:  15: 3:53   5Oct2017            

=------------------------------------------------------------------------------=
   JOB DONE.
=------------------------------------------------------------------------------=
