
     Program PWSCF v.6.1 (svn rev. 13369) starts on  5Oct2017 at 15:21:39 

     This program is part of the open-source Quantum ESPRESSO suite
     for quantum simulation of materials; please cite
         "P. Giannozzi et al., J. Phys.:Condens. Matter 21 395502 (2009);
          URL http://www.quantum-espresso.org", 
     in publications or presentations arising from this work. More details at
     http://www.quantum-espresso.org/quote

     Parallel version (MPI), running on     1 processors
     Waiting for input...
     Reading input from standard input

     Current dimensions of program PWSCF are:
     Max number of different atomic species (ntypx) = 10
     Max number of k-points (npk) =  40000
     Max angular momentum in pseudopotentials (lmaxx) =  3
     Message from routine iosys:
     london is obsolete, use "vdw_corr='grimme-d2'" instead

     IMPORTANT: XC functional enforced from input :
     Exchange-correlation      = PBE ( 1  4  3  4 0 0)
     Any further DFT definition will be discarded
     Please, verify this is what you really want

               file C.pbe-rrkjus.UPF: wavefunction(s)  2S 2P renormalized
               file H.pbe-rrkjus.UPF: wavefunction(s)  1S renormalized
               file O.pbe-rrkjus.UPF: wavefunction(s)  2S renormalized
               file N.pbe-rrkjus.UPF: wavefunction(s)  2S renormalized

     -------------------------------------
     Parameters for Dispersion Correction:
     -------------------------------------
       atom      VdW radius       C_6     

        C          2.744         60.710
        H          1.892          4.857
        O          2.536         24.284
        N          2.640         42.670

     Subspace diagonalization in iterative solution of the eigenvalue problem:
     a serial algorithm will be used

 
     G-vector sticks info
     --------------------
     sticks:   dense  smooth     PW     G-vecs:    dense   smooth      PW
     Sum        3227    3227    911               152537   152537   22677
 


     bravais-lattice index     =            0
     lattice parameter (alat)  =      16.9391  a.u.
     unit-cell volume          =    6867.9197 (a.u.)^3
     number of atoms/cell      =          108
     number of atomic types    =            4
     number of electrons       =       296.00
     number of Kohn-Sham states=          148
     kinetic-energy cutoff     =      30.0000  Ry
     charge density cutoff     =     120.0000  Ry
     convergence threshold     =      1.0E-07
     mixing beta               =       0.7000
     number of iterations used =            8  plain     mixing
     Exchange-correlation      = PBE ( 1  4  3  4 0 0)
     nstep                     =           50


     celldm(1)=  16.939128  celldm(2)=   0.000000  celldm(3)=   0.000000
     celldm(4)=   0.000000  celldm(5)=   0.000000  celldm(6)=   0.000000

     crystal axes: (cart. coord. in units of alat)
               a(1) = (   1.000000   0.000000   0.000000 )  
               a(2) = (   0.000000   1.173609   0.000000 )  
               a(3) = (  -0.432282   0.000000   1.204006 )  

     reciprocal axes: (cart. coord. in units 2 pi/alat)
               b(1) = (  1.000000  0.000000  0.359037 )  
               b(2) = (  0.000000  0.852072  0.000000 )  
               b(3) = (  0.000000  0.000000  0.830561 )  


     PseudoPot. # 1 for C  read from file:
     /data/home/btx156/espresso/pseudo/C.pbe-rrkjus.UPF
     MD5 check sum: 00fb224312de0c5b6853bd333518df6f
     Pseudo is Ultrasoft, Zval =  4.0
     Generated by new atomic code, or converted to UPF format
     Using radial grid of  627 points,  4 beta functions with: 
                l(1) =   0
                l(2) =   0
                l(3) =   1
                l(4) =   1
     Q(r) pseudized with 0 coefficients 


     PseudoPot. # 2 for H  read from file:
     /data/home/btx156/espresso/pseudo/H.pbe-rrkjus.UPF
     MD5 check sum: 7cc9d459525c9a0585f487a71c3c9563
     Pseudo is Ultrasoft, Zval =  1.0
     Generated by new atomic code, or converted to UPF format
     Using radial grid of 1061 points,  2 beta functions with: 
                l(1) =   0
                l(2) =   0
     Q(r) pseudized with 0 coefficients 


     PseudoPot. # 3 for O  read from file:
     /data/home/btx156/espresso/pseudo/O.pbe-rrkjus.UPF
     MD5 check sum: 390ba29e75625707450f3bd3f0eb6be9
     Pseudo is Ultrasoft, Zval =  6.0
     Generated by new atomic code, or converted to UPF format
     Using radial grid of 1269 points,  4 beta functions with: 
                l(1) =   0
                l(2) =   0
                l(3) =   1
                l(4) =   1
     Q(r) pseudized with 0 coefficients 


     PseudoPot. # 4 for N  read from file:
     /data/home/btx156/espresso/pseudo/N.pbe-rrkjus.UPF
     MD5 check sum: 0c3fbe5807a93f9ba59d5a7019aa238b
     Pseudo is Ultrasoft, Zval =  5.0
     Generated by new atomic code, or converted to UPF format
     Using radial grid of 1257 points,  4 beta functions with: 
                l(1) =   0
                l(2) =   0
                l(3) =   1
                l(4) =   1
     Q(r) pseudized with 0 coefficients 


     atomic species   valence    mass     pseudopotential
        C              4.00    12.00000     C ( 1.00)
        H              1.00     1.00790     H ( 1.00)
        O              6.00    15.99940     O ( 1.00)
        N              5.00    14.00670     N ( 1.00)

      2 Sym. Ops., with inversion, found



   Cartesian axes

     site n.     atom                  positions (alat units)
         1           C   tau(   1) = (   0.0613037   0.2701281   0.3967612  )
         2           C   tau(   2) = (   0.5064141   0.9034812   0.8072443  )
         3           C   tau(   3) = (   0.2225757   0.8582196   0.2022712  )
         4           C   tau(   4) = (   0.3451421   0.3153897   1.0017344  )
         5           C   tau(   5) = (  -0.0835531   0.2325498   0.4669536  )
         6           C   tau(   6) = (   0.6512708   0.9410596   0.7370518  )
         7           C   tau(   7) = (   0.3676998   0.8210808   0.1315923  )
         8           C   tau(   8) = (   0.2000180   0.3525287   1.0724132  )
         9           C   tau(   9) = (   0.1601026   0.3699936   0.4723715  )
        10           C   tau(  10) = (   0.4076152   0.8036158   0.7316340  )
        11           C   tau(  11) = (   0.1225237   0.9575818   0.1275852  )
        12           C   tau(  12) = (   0.4451940   0.2160275   1.0764204  )
        13           C   tau(  13) = (   0.8089381   0.1441649   0.3900644  )
        14           C   tau(  14) = (  -0.2412203   1.0294444   0.8139411  )
        15           C   tau(  15) = (   0.4756681   0.7327065   0.2079397  )
        16           C   tau(  16) = (   0.0920497   0.4409028   0.9960658  )
        17           C   tau(  17) = (   0.1082676   0.2107187   0.2588936  )
        18           C   tau(  18) = (   0.4594502   0.9628906   0.9451119  )
        19           C   tau(  19) = (   0.1761870   0.7978123   0.3396262  )
        20           C   tau(  20) = (   0.3915307   0.3757970   0.8643793  )
        21           C   tau(  21) = (   0.2987902   0.4063725   0.4093640  )
        22           C   tau(  22) = (   0.2689276   0.7672368   0.7946415  )
        23           C   tau(  23) = (  -0.0163962   0.9930572   0.1910279  )
        24           C   tau(  24) = (   0.5841140   0.1805522   1.0129777  )
        25           C   tau(  25) = (   0.6763467   0.1044878   0.4582063  )
        26           C   tau(  26) = (  -0.1086289   1.0691215   0.7457992  )
        27           C   tau(  27) = (   0.6082600   0.6934212   0.1394517  )
        28           C   tau(  28) = (  -0.0405423   0.4801881   1.0645538  )
        29           C   tau(  29) = (   0.3412222   0.3446873   0.2737886  )
        30           C   tau(  30) = (   0.2264956   0.8289221   0.9302170  )
        31           C   tau(  31) = (  -0.0584468   0.9300941   0.3261417  )
        32           C   tau(  32) = (   0.6261646   0.2435152   0.8778639  )
        33           C   tau(  33) = (   0.5656515   1.1549126   0.2418883  )
        34           C   tau(  34) = (   0.0020663   0.0186967   0.9621172  )
        35           C   tau(  35) = (   0.7191135   0.5679604   0.3545741  )
        36           C   tau(  36) = (  -0.1513957   0.6056489   0.8494314  )
        37           C   tau(  37) = (   0.2460880   0.2464220   0.1979032  )
        38           C   tau(  38) = (   0.3216298   0.9271874   1.0061024  )
        39           C   tau(  39) = (   0.0379840   0.8320270   0.4007726  )
        40           C   tau(  40) = (   0.5297338   0.3415824   0.8032330  )
        41           C   tau(  41) = (   0.4314914   1.1630312   0.4828697  )
        42           C   tau(  42) = (   0.1362264   0.0105782   0.7211359  )
        43           C   tau(  43) = (   0.8528299   0.5781927   0.1138786  )
        44           C   tau(  44) = (  -0.2851121   0.5954167   1.0901269  )
        45           O   tau(  45) = (  -0.1085369   0.2843835   0.5991295  )
        46           O   tau(  46) = (   0.6762553   0.8892260   0.6048761  )
        47           O   tau(  47) = (   0.3923579   0.8727027  -0.0004960  )
        48           O   tau(  48) = (   0.1753595   0.3009067   1.2045015  )
        49           O   tau(  49) = (   0.1221003   0.4308719   0.6045453  )
        50           O   tau(  50) = (   0.4456175   0.7427374   0.5994602  )
        51           O   tau(  51) = (  -0.2722062   1.0181363   1.1989493  )
        52           O   tau(  52) = (   0.8399239   0.1554730   0.0050563  )
        53           H   tau(  53) = (   0.0189587   0.3786400   0.6270424  )
        54           H   tau(  54) = (   0.5487591   0.7949694   0.5769631  )
        55           H   tau(  55) = (  -0.1695319   0.9660034   1.1757696  )
        56           H   tau(  56) = (   0.7372497   0.2076060   0.0282360  )
        57           H   tau(  57) = (   0.8320315   0.1084603   0.2767650  )
        58           H   tau(  58) = (  -0.2643137   1.0651491   0.9272405  )
        59           H   tau(  59) = (   0.4528383   0.6966164   0.3212030  )
        60           H   tau(  60) = (   0.1148795   0.4769929   0.8828025  )
        61           H   tau(  61) = (   0.0357424   0.1348490   0.1981046  )
        62           H   tau(  62) = (   0.5319754   1.0387603   1.0059009  )
        63           H   tau(  63) = (   0.2492865   0.7224862   0.4003641  )
        64           H   tau(  64) = (   0.3184313   0.4511231   0.8036414  )
        65           H   tau(  65) = (   0.3702055   0.4841326   0.4699199  )
        66           H   tau(  66) = (   0.1975123   0.6894767   0.7340856  )
        67           H   tau(  67) = (   0.9117524   1.0707812   0.1309500  )
        68           H   tau(  68) = (  -0.3440347   0.1028281   1.0730555  )
        69           H   tau(  69) = (   0.6588956   0.1370191   0.5742684  )
        70           H   tau(  70) = (  -0.0911778   1.0365902   0.6297371  )
        71           H   tau(  71) = (   0.6257977   0.7267062   0.0236301  )
        72           H   tau(  72) = (  -0.0580800   0.4469032   1.1803754  )
        73           H   tau(  73) = (   0.4493539   0.3720022   0.2249095  )
        74           H   tau(  74) = (   0.1183639   0.8016072   0.9790960  )
        75           H   tau(  75) = (   0.8335095   0.9564631   0.3758523  )
        76           H   tau(  76) = (  -0.2657917   0.2171462   0.8281532  )
        77           H   tau(  77) = (   0.6093469   0.0706945   0.1709500  )
        78           H   tau(  78) = (  -0.0416291   1.1029148   1.0330555  )
        79           H   tau(  79) = (   0.6750517   0.6564578   0.4265323  )
        80           H   tau(  80) = (  -0.1073339   0.5171515   0.7774732  )
        81           H   tau(  81) = (   0.4514883   1.1293962   0.2065546  )
        82           H   tau(  82) = (   0.1162295   0.0442131   0.9974509  )
        83           H   tau(  83) = (   0.8334448   0.5425513   0.3894732  )
        84           H   tau(  84) = (  -0.2657270   0.6310581   0.8145323  )
        85           H   tau(  85) = (   0.6342298   1.0539542   0.2278663  )
        86           H   tau(  86) = (  -0.0665119   0.1196551   0.9761392  )
        87           H   tau(  87) = (   0.6510541   0.4665226   0.3678327  )
        88           H   tau(  88) = (  -0.0833363   0.7070868   0.8361728  )
        89           H   tau(  89) = (   0.2806297   0.1979640   0.0918913  )
        90           H   tau(  90) = (   0.2870881   0.9756453   1.1121143  )
        91           H   tau(  91) = (   0.0041405   0.7823873   0.5064890  )
        92           H   tau(  92) = (   0.5635773   0.3912221   0.6975165  )
        93           H   tau(  93) = (   0.4439151   0.0295128   0.5976751  )
        94           H   tau(  94) = (   0.1238027   1.1440965   0.6063304  )
        95           H   tau(  95) = (   0.8402988   0.6182799  -0.0008877  )
        96           H   tau(  96) = (  -0.2725810   0.5553294   1.2048932  )
        97           H   tau(  97) = (   0.4169637   1.0411335   0.4841555  )
        98           H   tau(  98) = (   0.1507541   0.1324759   0.7198500  )
        99           H   tau(  99) = (   0.8677845   0.4563233   0.1126603  )
       100           H   tau( 100) = (  -0.3000667   0.7172861   1.0913452  )
       101           H   tau( 101) = (   0.3325025   0.0412425   0.4317404  )
       102           H   tau( 102) = (   0.2352153   1.1323668   0.7722651  )
       103           H   tau( 103) = (  -0.0483398   0.6301790   0.1651506  )
       104           H   tau( 104) = (   0.6160576   0.5434304   1.0388549  )
       105           N   tau( 105) = (   0.5636218   0.0289394   0.3970661  )
       106           N   tau( 106) = (   0.0040959   1.1446700   0.8069394  )
       107           N   tau( 107) = (   0.7208045   0.6171440   0.1998892  )
       108           N   tau( 108) = (  -0.1530867   0.5564653   1.0041164  )

     number of k points=    36
                       cart. coord. in units 2pi/alat
        k(    1) = (   0.0000000   0.0000000   0.0000000), wk =   0.0312500
        k(    2) = (   0.0000000   0.0000000   0.2076402), wk =   0.0625000
        k(    3) = (   0.0000000   0.0000000  -0.4152805), wk =   0.0312500
        k(    4) = (   0.0000000   0.2130181   0.0000000), wk =   0.0625000
        k(    5) = (   0.0000000   0.2130181   0.2076402), wk =   0.0625000
        k(    6) = (   0.0000000   0.2130181  -0.4152805), wk =   0.0625000
        k(    7) = (   0.0000000  -0.4260361   0.0000000), wk =   0.0312500
        k(    8) = (   0.0000000  -0.4260361   0.2076402), wk =   0.0625000
        k(    9) = (   0.0000000  -0.4260361  -0.4152805), wk =   0.0312500
        k(   10) = (   0.2500000   0.0000000   0.0897592), wk =   0.0625000
        k(   11) = (   0.2500000   0.0000000   0.2973994), wk =   0.0625000
        k(   12) = (   0.2500000   0.0000000  -0.3255213), wk =   0.0625000
        k(   13) = (   0.2500000   0.0000000  -0.1178811), wk =   0.0625000
        k(   14) = (   0.2500000   0.2130181   0.0897592), wk =   0.0625000
        k(   15) = (   0.2500000   0.2130181   0.2973994), wk =   0.0625000
        k(   16) = (   0.2500000   0.2130181  -0.3255213), wk =   0.0625000
        k(   17) = (   0.2500000   0.2130181  -0.1178811), wk =   0.0625000
        k(   18) = (   0.2500000  -0.4260361   0.0897592), wk =   0.0625000
        k(   19) = (   0.2500000  -0.4260361   0.2973994), wk =   0.0625000
        k(   20) = (   0.2500000  -0.4260361  -0.3255213), wk =   0.0625000
        k(   21) = (   0.2500000  -0.4260361  -0.1178811), wk =   0.0625000
        k(   22) = (  -0.5000000   0.0000000  -0.1795183), wk =   0.0312500
        k(   23) = (  -0.5000000   0.0000000   0.0281219), wk =   0.0625000
        k(   24) = (  -0.5000000   0.0000000  -0.5947988), wk =   0.0312500
        k(   25) = (  -0.5000000   0.2130181  -0.1795183), wk =   0.0625000
        k(   26) = (  -0.5000000   0.2130181   0.0281219), wk =   0.0625000
        k(   27) = (  -0.5000000   0.2130181  -0.5947988), wk =   0.0625000
        k(   28) = (  -0.5000000  -0.4260361  -0.1795183), wk =   0.0312500
        k(   29) = (  -0.5000000  -0.4260361   0.0281219), wk =   0.0625000
        k(   30) = (  -0.5000000  -0.4260361  -0.5947988), wk =   0.0312500
        k(   31) = (   0.0000000   0.2130181  -0.2076402), wk =   0.0625000
        k(   32) = (  -0.2500000   0.2130181  -0.0897592), wk =   0.0625000
        k(   33) = (  -0.2500000   0.2130181  -0.2973994), wk =   0.0625000
        k(   34) = (  -0.2500000   0.2130181   0.3255213), wk =   0.0625000
        k(   35) = (  -0.2500000   0.2130181   0.1178811), wk =   0.0625000
        k(   36) = (   0.5000000   0.2130181  -0.0281219), wk =   0.0625000

     Dense  grid:   152537 G-vectors     FFT dimensions: (  60,  72,  75)

     Estimated max dynamical RAM per process >    2199.42MB

     Initial potential from superposition of free atoms

     starting charge  290.99502, renormalised to  296.00000
     Starting wfc are  276 randomized atomic wfcs

     total cpu time spent up to now is      171.7 secs

     per-process dynamical memory:  1923.6 Mb

     Self-consistent Calculation

     iteration #  1     ecut=    30.00 Ry     beta=0.70
     Davidson diagonalization with overlap
     ethr =  1.00E-02,  avg # of iterations =  2.0

     total cpu time spent up to now is      517.4 secs

     total energy              =    -892.33450997 Ry
     Harris-Foulkes estimate   =    -904.59279343 Ry
     estimated scf accuracy    <      18.95276341 Ry

     iteration #  2     ecut=    30.00 Ry     beta=0.70
     Davidson diagonalization with overlap
     ethr =  6.40E-03,  avg # of iterations =  4.0

     total cpu time spent up to now is      886.2 secs

     total energy              =    -893.39592641 Ry
     Harris-Foulkes estimate   =    -900.68937777 Ry
     estimated scf accuracy    <      13.45938136 Ry

     iteration #  3     ecut=    30.00 Ry     beta=0.70
     Davidson diagonalization with overlap
     ethr =  4.55E-03,  avg # of iterations =  4.0

     total cpu time spent up to now is     1231.0 secs

     total energy              =    -896.72489955 Ry
     Harris-Foulkes estimate   =    -898.21110841 Ry
     estimated scf accuracy    <       3.18905778 Ry

     iteration #  4     ecut=    30.00 Ry     beta=0.70
     Davidson diagonalization with overlap
     ethr =  1.08E-03,  avg # of iterations =  4.0

     total cpu time spent up to now is     1563.1 secs

     total energy              =    -897.34643273 Ry
     Harris-Foulkes estimate   =    -897.55184139 Ry
     estimated scf accuracy    <       0.43115806 Ry

     iteration #  5     ecut=    30.00 Ry     beta=0.70
     Davidson diagonalization with overlap
     ethr =  1.46E-04,  avg # of iterations =  4.0

     total cpu time spent up to now is     1907.3 secs

     total energy              =    -897.43537364 Ry
     Harris-Foulkes estimate   =    -897.45491812 Ry
     estimated scf accuracy    <       0.03985712 Ry

     iteration #  6     ecut=    30.00 Ry     beta=0.70
     Davidson diagonalization with overlap
     ethr =  1.35E-05,  avg # of iterations =  4.1

     total cpu time spent up to now is     2249.3 secs

     total energy              =    -897.44530311 Ry
     Harris-Foulkes estimate   =    -897.44807096 Ry
     estimated scf accuracy    <       0.00640943 Ry

     iteration #  7     ecut=    30.00 Ry     beta=0.70
     Davidson diagonalization with overlap
     ethr =  2.17E-06,  avg # of iterations =  4.0

     total cpu time spent up to now is     2580.1 secs

     total energy              =    -897.44652803 Ry
     Harris-Foulkes estimate   =    -897.44703173 Ry
     estimated scf accuracy    <       0.00110215 Ry

     iteration #  8     ecut=    30.00 Ry     beta=0.70
     Davidson diagonalization with overlap
     ethr =  3.72E-07,  avg # of iterations =  4.0

     total cpu time spent up to now is     2928.1 secs

     total energy              =    -897.44675768 Ry
     Harris-Foulkes estimate   =    -897.44690930 Ry
     estimated scf accuracy    <       0.00035339 Ry

     iteration #  9     ecut=    30.00 Ry     beta=0.70
     Davidson diagonalization with overlap
     ethr =  1.19E-07,  avg # of iterations =  4.0

     total cpu time spent up to now is     3245.3 secs

     total energy              =    -897.44682901 Ry
     Harris-Foulkes estimate   =    -897.44686336 Ry
     estimated scf accuracy    <       0.00008473 Ry

     iteration # 10     ecut=    30.00 Ry     beta=0.70
     Davidson diagonalization with overlap
     ethr =  2.86E-08,  avg # of iterations =  4.0

     total cpu time spent up to now is     3546.2 secs

     total energy              =    -897.44684469 Ry
     Harris-Foulkes estimate   =    -897.44684740 Ry
     estimated scf accuracy    <       0.00000587 Ry

     iteration # 11     ecut=    30.00 Ry     beta=0.70
     Davidson diagonalization with overlap
     ethr =  1.98E-09,  avg # of iterations =  3.6

     total cpu time spent up to now is     3890.7 secs

     total energy              =    -897.44684627 Ry
     Harris-Foulkes estimate   =    -897.44684657 Ry
     estimated scf accuracy    <       0.00000077 Ry

     iteration # 12     ecut=    30.00 Ry     beta=0.70
     Davidson diagonalization with overlap
     ethr =  2.60E-10,  avg # of iterations =  4.0

     total cpu time spent up to now is     4233.4 secs

     total energy              =    -897.44684643 Ry
     Harris-Foulkes estimate   =    -897.44684648 Ry
     estimated scf accuracy    <       0.00000011 Ry

     iteration # 13     ecut=    30.00 Ry     beta=0.70
     Davidson diagonalization with overlap
     ethr =  3.71E-11,  avg # of iterations =  4.0

     total cpu time spent up to now is     4571.2 secs

     End of self-consistent calculation

          k = 0.0000 0.0000 0.0000 ( 19075 PWs)   bands (ev):

   -20.2743 -20.2685 -20.2574 -20.2523 -19.1349 -19.1268 -19.1025 -19.0946
   -18.3430 -18.3424 -18.3249 -18.3247 -15.0814 -15.0650 -15.0529 -15.0460
   -13.4885 -13.4529 -13.4347 -13.4050 -12.7398 -12.7161 -12.7118 -12.6764
   -12.1977 -12.1873 -12.1297 -12.1257 -12.0801 -12.0780 -12.0491 -12.0391
   -11.2303 -11.1871 -11.1867 -11.1347  -9.6757  -9.6556  -9.6002  -9.5908
    -8.8709  -8.7108  -8.6997  -8.6727  -8.5314  -8.4302  -8.4054  -8.3727
    -7.5701  -7.5594  -7.5212  -7.4923  -7.0511  -7.0112  -6.9899  -6.7808
    -6.4471  -6.4113  -6.3710  -6.3243  -6.2696  -6.1314  -6.1225  -6.0775
    -5.9575  -5.9272  -5.8859  -5.7443  -5.7335  -5.7142  -5.7014  -5.6275
    -5.3297  -5.2271  -5.1695  -5.1506  -4.8330  -4.6067  -4.5848  -4.5701
    -4.5619  -4.5498  -4.4593  -4.4340  -4.3653  -4.3020  -4.2945  -4.1991
    -4.1857  -4.1213  -4.1056  -4.0999  -4.0199  -3.9610  -3.8876  -3.8841
    -3.8068  -3.7826  -3.7482  -3.7161  -3.4466  -3.4063  -3.3597  -3.3492
    -3.3435  -3.2888  -3.2254  -3.1480  -3.1136  -3.0931  -3.0747  -3.0087
    -2.9726  -2.9529  -2.9310  -2.9173  -2.7672  -2.7175  -2.7033  -2.6901
    -2.1825  -2.1424  -2.1253  -2.1031  -2.0428  -1.9241  -1.8994  -1.8867
    -1.8779  -1.7719  -1.7377  -1.7301  -0.4871  -0.4627  -0.3241  -0.3174
     0.0410   0.0867   0.1370   0.1885   0.4425   0.4462   0.4629   0.4842
     0.8129   0.8284   0.9431   0.9748

          k = 0.0000 0.0000 0.2076 ( 19069 PWs)   bands (ev):

   -20.2742 -20.2685 -20.2576 -20.2524 -19.1348 -19.1268 -19.1025 -19.0946
   -18.3430 -18.3424 -18.3249 -18.3248 -15.0790 -15.0672 -15.0520 -15.0469
   -13.4852 -13.4620 -13.4264 -13.4076 -12.7396 -12.7195 -12.7060 -12.6799
   -12.2027 -12.1926 -12.1312 -12.1248 -12.0779 -12.0713 -12.0486 -12.0367
   -11.2270 -11.2006 -11.1704 -11.1395  -9.6637  -9.6482  -9.6087  -9.6032
    -8.8523  -8.7426  -8.6955  -8.6707  -8.5197  -8.4373  -8.4164  -8.3695
    -7.5580  -7.5476  -7.5225  -7.5013  -7.0594  -7.0051  -6.9554  -6.8031
    -6.4438  -6.4242  -6.3856  -6.3542  -6.2484  -6.1563  -6.1215  -6.0899
    -5.9193  -5.8782  -5.8506  -5.7632  -5.7276  -5.7099  -5.7019  -5.6477
    -5.3417  -5.2348  -5.2231  -5.1519  -4.8053  -4.6384  -4.6130  -4.6057
    -4.5492  -4.4899  -4.4791  -4.4003  -4.3521  -4.3134  -4.2579  -4.2454
    -4.1923  -4.1482  -4.1101  -4.0726  -3.9968  -3.9248  -3.8909  -3.8823
    -3.8168  -3.8014  -3.7262  -3.7185  -3.4441  -3.4171  -3.3770  -3.3645
    -3.3092  -3.2720  -3.2176  -3.1769  -3.1226  -3.0679  -3.0613  -2.9976
    -2.9830  -2.9671  -2.9351  -2.9233  -2.7544  -2.7187  -2.6888  -2.6779
    -2.1757  -2.1333  -2.1170  -2.1113  -2.0575  -1.9838  -1.8992  -1.8828
    -1.8549  -1.7957  -1.7393  -1.7344  -0.4849  -0.4668  -0.3243  -0.3183
     0.0538   0.1014   0.1231   0.1748   0.4474   0.4596   0.4640   0.4846
     0.8159   0.8270   0.9491   0.9713

          k = 0.0000 0.0000-0.4153 ( 19074 PWs)   bands (ev):

   -20.2740 -20.2684 -20.2577 -20.2525 -19.1348 -19.1268 -19.1025 -19.0947
   -18.3430 -18.3424 -18.3249 -18.3248 -15.0741 -15.0720 -15.0502 -15.0486
   -13.4785 -13.4722 -13.4171 -13.4134 -12.7387 -12.7228 -12.6988 -12.6856
   -12.2069 -12.1969 -12.1316 -12.1298 -12.0674 -12.0662 -12.0432 -12.0428
   -11.2219 -11.2086 -11.1554 -11.1504  -9.6376  -9.6338  -9.6277  -9.6263
    -8.8099  -8.7938  -8.6861  -8.6784  -8.4924  -8.4783  -8.3920  -8.3834
    -7.5374  -7.5309  -7.5252  -7.5221  -7.0439  -7.0323  -6.8687  -6.8685
    -6.4298  -6.4246  -6.4045  -6.4034  -6.2088  -6.1959  -6.1103  -6.1050
    -5.8467  -5.8462  -5.8123  -5.8047  -5.7164  -5.7143  -5.6890  -5.6857
    -5.3259  -5.3163  -5.1974  -5.1871  -4.7327  -4.7251  -4.6209  -4.6147
    -4.5169  -4.5156  -4.4222  -4.4143  -4.3502  -4.3434  -4.2458  -4.2314
    -4.1829  -4.1828  -4.0846  -4.0783  -3.9492  -3.9453  -3.8710  -3.8560
    -3.8336  -3.8289  -3.7232  -3.7163  -3.4355  -3.4239  -3.3876  -3.3823
    -3.2603  -3.2485  -3.2311  -3.2293  -3.0881  -3.0841  -3.0215  -3.0094
    -2.9862  -2.9772  -2.9430  -2.9304  -2.7314  -2.7272  -2.6763  -2.6645
    -2.1401  -2.1331  -2.1200  -2.1162  -2.0649  -2.0561  -1.8884  -1.8866
    -1.8335  -1.8281  -1.7412  -1.7400  -0.4793  -0.4745  -0.3249  -0.3189
     0.0788   0.0972   0.1294   0.1476   0.4582   0.4602   0.4764   0.4802
     0.8208   0.8236   0.9598   0.9632

          k = 0.0000 0.2130 0.0000 ( 19037 PWs)   bands (ev):

   -20.2739 -20.2689 -20.2571 -20.2526 -19.1339 -19.1278 -19.1015 -19.0955
   -18.3430 -18.3423 -18.3249 -18.3248 -15.0778 -15.0635 -15.0561 -15.0482
   -13.4813 -13.4462 -13.4427 -13.4118 -12.7366 -12.7191 -12.7056 -12.6807
   -12.1981 -12.1878 -12.1289 -12.1256 -12.0760 -12.0731 -12.0529 -12.0458
   -11.2235 -11.1903 -11.1820 -11.1439  -9.6712  -9.6570  -9.5983  -9.5916
    -8.8484  -8.7278  -8.7088  -8.6839  -8.5112  -8.4431  -8.3969  -8.3757
    -7.5662  -7.5576  -7.5223  -7.5009  -7.0616  -7.0457  -6.9267  -6.7980
    -6.4438  -6.4181  -6.3569  -6.3256  -6.2601  -6.1617  -6.1198  -6.0806
    -5.9496  -5.9015  -5.8886  -5.7431  -5.7373  -5.7287  -5.7026  -5.6425
    -5.3150  -5.2419  -5.1601  -5.1448  -4.7840  -4.6113  -4.5727  -4.5671
    -4.5516  -4.5358  -4.4537  -4.4333  -4.4037  -4.3310  -4.3157  -4.2259
    -4.2024  -4.1991  -4.1005  -4.0718  -3.9599  -3.9328  -3.8798  -3.8770
    -3.8173  -3.7847  -3.7541  -3.7344  -3.4439  -3.4174  -3.3527  -3.3500
    -3.3308  -3.2534  -3.2490  -3.1473  -3.1019  -3.0869  -3.0820  -3.0253
    -2.9795  -2.9692  -2.9135  -2.8992  -2.7665  -2.7314  -2.7057  -2.6778
    -2.1584  -2.1435  -2.1330  -2.1014  -2.0352  -1.9524  -1.9124  -1.8680
    -1.8616  -1.7719  -1.7613  -1.7263  -0.4707  -0.4355  -0.3580  -0.3285
     0.0458   0.0769   0.1474   0.1831   0.4432   0.4465   0.4698   0.4879
     0.8260   0.8470   0.9204   0.9509

          k = 0.0000 0.2130 0.2076 ( 19057 PWs)   bands (ev):

   -20.2738 -20.2688 -20.2573 -20.2527 -19.1339 -19.1278 -19.1015 -19.0956
   -18.3430 -18.3424 -18.3249 -18.3248 -15.0758 -15.0644 -15.0563 -15.0490
   -13.4785 -13.4579 -13.4310 -13.4147 -12.7365 -12.7151 -12.7073 -12.6841
   -12.2030 -12.1920 -12.1308 -12.1258 -12.0737 -12.0676 -12.0521 -12.0424
   -11.2208 -11.1972 -11.1729 -11.1478  -9.6599  -9.6492  -9.6070  -9.6035
    -8.8327  -8.7340  -8.7195  -8.6873  -8.5033  -8.4489  -8.4060  -8.3744
    -7.5598  -7.5430  -7.5206  -7.5100  -7.0668  -7.0211  -6.9188  -6.8148
    -6.4455  -6.4257  -6.3733  -6.3576  -6.2421  -6.1755  -6.1192  -6.0908
    -5.9128  -5.8678  -5.8493  -5.7640  -5.7301  -5.7193  -5.7052  -5.6559
    -5.3236  -5.2448  -5.2133  -5.1569  -4.7661  -4.6414  -4.6088  -4.6058
    -4.5408  -4.4693  -4.4505  -4.4308  -4.3858  -4.3463  -4.2767  -4.2361
    -4.1975  -4.1920  -4.1027  -4.0684  -3.9850  -3.9045  -3.8918  -3.8554
    -3.8351  -3.7936  -3.7376  -3.7346  -3.4417  -3.4258  -3.3673  -3.3635
    -3.3020  -3.2482  -3.2328  -3.1542  -3.1069  -3.0730  -3.0652  -3.0143
    -2.9982  -2.9676  -2.9317  -2.9198  -2.7474  -2.7164  -2.7055  -2.6683
    -2.1685  -2.1373  -2.1203  -2.1038  -2.0429  -1.9887  -1.9031  -1.8855
    -1.8429  -1.7914  -1.7630  -1.7356  -0.4680  -0.4413  -0.3518  -0.3353
     0.0582   0.0899   0.1352   0.1696   0.4515   0.4571   0.4699   0.4877
     0.8299   0.8453   0.9271   0.9473

          k = 0.0000 0.2130-0.4153 ( 19060 PWs)   bands (ev):

   -20.2737 -20.2687 -20.2574 -20.2528 -19.1338 -19.1278 -19.1016 -19.0956
   -18.3429 -18.3424 -18.3249 -18.3248 -15.0713 -15.0689 -15.0534 -15.0515
   -13.4733 -13.4662 -13.4236 -13.4190 -12.7343 -12.7184 -12.7024 -12.6889
   -12.2065 -12.1965 -12.1317 -12.1298 -12.0648 -12.0634 -12.0472 -12.0464
   -11.2171 -11.2025 -11.1623 -11.1556  -9.6359  -9.6330  -9.6269  -9.6254
    -8.7948  -8.7801  -8.7065  -8.6969  -8.4853  -8.4717  -8.3948  -8.3863
    -7.5411  -7.5308  -7.5291  -7.5186  -7.0481  -7.0317  -6.8689  -6.8631
    -6.4374  -6.4150  -6.4134  -6.3921  -6.2135  -6.2007  -6.1097  -6.1018
    -5.8491  -5.8412  -5.8142  -5.8065  -5.7154  -5.7122  -5.6927  -5.6896
    -5.3081  -5.2978  -5.2107  -5.2011  -4.7149  -4.7080  -4.6256  -4.6187
    -4.5010  -4.4956  -4.4149  -4.4115  -4.3828  -4.3794  -4.2506  -4.2383
    -4.1880  -4.1866  -4.0858  -4.0813  -3.9512  -3.9411  -3.8779  -3.8714
    -3.8163  -3.8082  -3.7353  -3.7292  -3.4354  -3.4227  -3.3864  -3.3829
    -3.2663  -3.2587  -3.1957  -3.1866  -3.0868  -3.0818  -3.0323  -3.0230
    -2.9874  -2.9794  -2.9533  -2.9398  -2.7222  -2.7164  -2.6839  -2.6726
    -2.1522  -2.1426  -2.1177  -2.1052  -2.0473  -2.0405  -1.8921  -1.8877
    -1.8265  -1.8191  -1.7565  -1.7546  -0.4589  -0.4529  -0.3472  -0.3411
     0.0808   0.0989   0.1273   0.1458   0.4626   0.4658   0.4765   0.4801
     0.8380   0.8400   0.9371   0.9402

          k = 0.0000-0.4260 0.0000 ( 19058 PWs)   bands (ev):

   -20.2735 -20.2693 -20.2568 -20.2530 -19.1324 -19.1293 -19.1001 -19.0970
   -18.3430 -18.3423 -18.3249 -18.3248 -15.0702 -15.0677 -15.0550 -15.0529
   -13.4672 -13.4580 -13.4321 -13.4255 -12.7324 -12.7219 -12.6973 -12.6883
   -12.1985 -12.1883 -12.1269 -12.1269 -12.0659 -12.0648 -12.0599 -12.0588
   -11.2142 -11.1963 -11.1709 -11.1595  -9.6631  -9.6620  -9.5947  -9.5942
    -8.7912  -8.7904  -8.7027  -8.6983  -8.4790  -8.4676  -8.3856  -8.3836
    -7.5624  -7.5544  -7.5246  -7.5100  -7.0725  -7.0572  -6.8505  -6.8505
    -6.4372  -6.4284  -6.3381  -6.3315  -6.2280  -6.2151  -6.1020  -6.0987
    -5.9294  -5.9248  -5.8118  -5.8086  -5.7392  -5.7267  -5.6831  -5.6727
    -5.2801  -5.2765  -5.1480  -5.1445  -4.6733  -4.6709  -4.5654  -4.5649
    -4.5146  -4.5145  -4.4515  -4.4484  -4.4226  -4.4220  -4.2977  -4.2917
    -4.2062  -4.1999  -4.0948  -4.0939  -3.9166  -3.9108  -3.8541  -3.8504
    -3.8233  -3.8127  -3.7598  -3.7579  -3.4388  -3.4296  -3.3478  -3.3464
    -3.3022  -3.2953  -3.1836  -3.1777  -3.0953  -3.0901  -3.0610  -3.0565
    -2.9834  -2.9739  -2.9041  -2.8896  -2.7622  -2.7493  -2.6935  -2.6786
    -2.1453  -2.1424  -2.1181  -2.1105  -2.0101  -2.0080  -1.8845  -1.8836
    -1.8277  -1.8135  -1.7447  -1.7390  -0.4282  -0.4124  -0.3840  -0.3697
     0.0559   0.0623   0.1636   0.1706   0.4436   0.4475   0.4829   0.4842
     0.8664   0.8690   0.8963   0.8979

          k = 0.0000-0.4260 0.2076 ( 19062 PWs)   bands (ev):

   -20.2735 -20.2692 -20.2569 -20.2530 -19.1323 -19.1293 -19.1001 -19.0970
   -18.3430 -18.3423 -18.3249 -18.3248 -15.0689 -15.0659 -15.0567 -15.0541
   -13.4670 -13.4576 -13.4326 -13.4257 -12.7306 -12.7187 -12.7010 -12.6907
   -12.2025 -12.1923 -12.1290 -12.1279 -12.0670 -12.0617 -12.0568 -12.0516
   -11.2129 -11.1946 -11.1718 -11.1606  -9.6537  -9.6526  -9.6050  -9.6042
    -8.7816  -8.7787  -8.7151  -8.7091  -8.4791  -8.4671  -8.3918  -8.3858
    -7.5544  -7.5459  -7.5252  -7.5121  -7.0625  -7.0453  -6.8584  -6.8540
    -6.4427  -6.4313  -6.3655  -6.3558  -6.2231  -6.2103  -6.1074  -6.0995
    -5.8944  -5.8893  -5.7995  -5.7967  -5.7375  -5.7245  -5.6891  -5.6794
    -5.2849  -5.2789  -5.1834  -5.1801  -4.6823  -4.6774  -4.6083  -4.6022
    -4.4954  -4.4932  -4.4466  -4.4421  -4.3922  -4.3883  -4.2896  -4.2837
    -4.1948  -4.1857  -4.0963  -4.0928  -3.9294  -3.9168  -3.8830  -3.8814
    -3.7980  -3.7872  -3.7571  -3.7551  -3.4405  -3.4299  -3.3634  -3.3620
    -3.2821  -3.2755  -3.1771  -3.1669  -3.0805  -3.0759  -3.0594  -3.0529
    -2.9957  -2.9883  -2.9261  -2.9127  -2.7406  -2.7292  -2.6901  -2.6767
    -2.1537  -2.1463  -2.1171  -2.1063  -2.0131  -2.0117  -1.8959  -1.8922
    -1.8230  -1.8095  -1.7592  -1.7532  -0.4254  -0.4092  -0.3892  -0.3747
     0.0672   0.0759   0.1498   0.1594   0.4535   0.4575   0.4817   0.4835
     0.8724   0.8740   0.8937   0.8964

          k = 0.0000-0.4260-0.4153 ( 19068 PWs)   bands (ev):

   -20.2734 -20.2690 -20.2571 -20.2531 -19.1323 -19.1293 -19.1002 -19.0970
   -18.3429 -18.3424 -18.3249 -18.3248 -15.0672 -15.0627 -15.0598 -15.0557
   -13.4667 -13.4572 -13.4330 -13.4260 -12.7286 -12.7118 -12.7084 -12.6935
   -12.2061 -12.1960 -12.1319 -12.1298 -12.0605 -12.0563 -12.0553 -12.0517
   -11.2114 -11.1928 -11.1727 -11.1618  -9.6333  -9.6330  -9.6260  -9.6246
    -8.7648  -8.7538  -8.7416  -8.7274  -8.4780  -8.4651  -8.3980  -8.3896
    -7.5438  -7.5340  -7.5285  -7.5173  -7.0515  -7.0317  -6.8673  -6.8595
    -6.4409  -6.4171  -6.4091  -6.3868  -6.2172  -6.2044  -6.1103  -6.0999
    -5.8518  -5.8413  -5.8120  -5.8041  -5.7157  -5.7052  -5.7024  -5.6939
    -5.2787  -5.2658  -5.2361  -5.2292  -4.6908  -4.6824  -4.6345  -4.6250
    -4.4665  -4.4620  -4.4581  -4.4521  -4.3827  -4.3756  -4.2726  -4.2651
    -4.1730  -4.1651  -4.1042  -4.1013  -3.9428  -3.9229  -3.8974  -3.8951
    -3.7866  -3.7751  -3.7568  -3.7530  -3.4352  -3.4213  -3.3863  -3.3833
    -3.2650  -3.2586  -3.1666  -3.1537  -3.0735  -3.0640  -3.0566  -3.0464
    -2.9923  -2.9836  -2.9631  -2.9496  -2.7084  -2.6992  -2.6984  -2.6857
    -2.1565  -2.1466  -2.1158  -2.1032  -2.0313  -2.0270  -1.8957  -1.8894
    -1.8135  -1.7960  -1.7855  -1.7755  -0.4215  -0.4033  -0.3968  -0.3810
     0.0825   0.1004   0.1252   0.1442   0.4684   0.4745   0.4752   0.4761
     0.8800   0.8820   0.8877   0.8936

          k = 0.2500 0.0000 0.0898 ( 19085 PWs)   bands (ev):

   -20.2738 -20.2688 -20.2572 -20.2527 -19.1340 -19.1279 -19.1016 -19.0957
   -18.3446 -18.3407 -18.3266 -18.3229 -15.0807 -15.0689 -15.0526 -15.0476
   -13.4705 -13.4469 -13.4289 -13.4106 -12.7408 -12.7258 -12.7066 -12.6865
   -12.1958 -12.1855 -12.1314 -12.1209 -12.0893 -12.0838 -12.0532 -12.0437
   -11.2307 -11.2036 -11.1539 -11.1404  -9.6659  -9.6431  -9.6139  -9.6010
    -8.8155  -8.7311  -8.7189  -8.6790  -8.4906  -8.4531  -8.4418  -8.3820
    -7.5537  -7.5405  -7.5213  -7.5013  -7.1021  -6.9687  -6.9086  -6.8630
    -6.4344  -6.4214  -6.3866  -6.3219  -6.2333  -6.1580  -6.1267  -6.1016
    -5.9425  -5.8445  -5.8171  -5.7840  -5.7571  -5.7227  -5.6963  -5.6761
    -5.3285  -5.2303  -5.2229  -5.1617  -4.7517  -4.6392  -4.6115  -4.5887
    -4.5219  -4.4970  -4.4901  -4.4136  -4.3583  -4.3227  -4.3186  -4.1963
    -4.1854  -4.1470  -4.1437  -4.0646  -3.9487  -3.9228  -3.9141  -3.8587
    -3.8392  -3.7799  -3.7365  -3.7268  -3.4599  -3.4416  -3.3590  -3.3449
    -3.3104  -3.2761  -3.1962  -3.1756  -3.1085  -3.0852  -3.0409  -3.0297
    -3.0029  -2.9779  -2.9676  -2.9209  -2.7633  -2.7458  -2.7152  -2.7001
    -2.1638  -2.1260  -2.1170  -2.0922  -2.0527  -1.9247  -1.9105  -1.8821
    -1.8660  -1.8376  -1.7142  -1.7047  -0.5040  -0.4912  -0.3232  -0.3187
     0.0529   0.0961   0.1200   0.1687   0.4591   0.4736   0.4907   0.5095
     0.8423   0.8451   0.9544   0.9741

          k = 0.2500 0.0000 0.2974 ( 19065 PWs)   bands (ev):

   -20.2736 -20.2687 -20.2573 -20.2528 -19.1339 -19.1278 -19.1016 -19.0957
   -18.3445 -18.3407 -18.3266 -18.3229 -15.0777 -15.0719 -15.0526 -15.0474
   -13.4711 -13.4449 -13.4298 -13.4111 -12.7404 -12.7312 -12.7152 -12.6741
   -12.1963 -12.1848 -12.1423 -12.1321 -12.0815 -12.0810 -12.0426 -12.0401
   -11.2276 -11.2101 -11.1563 -11.1350  -9.6845  -9.6553  -9.5984  -9.5853
    -8.7928  -8.7495  -8.7146  -8.6944  -8.4714  -8.4584  -8.4450  -8.3939
    -7.5462  -7.5368  -7.5174  -7.5075  -7.0624  -7.0077  -6.9140  -6.8369
    -6.4384  -6.4234  -6.3997  -6.3611  -6.2196  -6.1936  -6.1479  -6.0716
    -5.9293  -5.8329  -5.8096  -5.7656  -5.7382  -5.7098  -5.6938  -5.6822
    -5.3444  -5.2592  -5.2273  -5.1508  -4.7372  -4.6279  -4.6030  -4.5677
    -4.5409  -4.5257  -4.4852  -4.4236  -4.3426  -4.3269  -4.3229  -4.2440
    -4.2139  -4.1810  -4.1154  -4.0261  -3.9288  -3.9157  -3.9073  -3.8863
    -3.7896  -3.7771  -3.7434  -3.7306  -3.4557  -3.4462  -3.3661  -3.3532
    -3.2856  -3.2668  -3.2228  -3.1852  -3.0918  -3.0701  -3.0694  -3.0125
    -2.9927  -2.9781  -2.9679  -2.9261  -2.7676  -2.7317  -2.7262  -2.6717
    -2.1550  -2.1399  -2.0936  -2.0808  -2.0564  -2.0041  -1.9362  -1.8911
    -1.8450  -1.8090  -1.7288  -1.7061  -0.4998  -0.4953  -0.3239  -0.3192
     0.0602   0.1005   0.1113   0.1618   0.4681   0.4753   0.4942   0.5156
     0.8231   0.8651   0.9631   0.9668

          k = 0.2500 0.0000-0.3255 ( 19036 PWs)   bands (ev):

   -20.2737 -20.2688 -20.2572 -20.2527 -19.1339 -19.1279 -19.1016 -19.0957
   -18.3445 -18.3407 -18.3265 -18.3230 -15.0767 -15.0725 -15.0512 -15.0490
   -13.4669 -13.4540 -13.4217 -13.4142 -12.7379 -12.7318 -12.7169 -12.6738
   -12.2033 -12.1894 -12.1444 -12.1354 -12.0758 -12.0740 -12.0442 -12.0362
   -11.2258 -11.2027 -11.1694 -11.1286  -9.6778  -9.6485  -9.6077  -9.5910
    -8.7877  -8.7551  -8.7145  -8.6917  -8.5091  -8.4864  -8.4255  -8.3436
    -7.5607  -7.5401  -7.5128  -7.4832  -7.0728  -7.0083  -6.9124  -6.8459
    -6.4396  -6.4198  -6.4016  -6.3812  -6.2416  -6.2298  -6.1350  -6.0662
    -5.8697  -5.8223  -5.7767  -5.7704  -5.7580  -5.7219  -5.6782  -5.6605
    -5.4163  -5.2908  -5.1970  -5.1086  -4.6862  -4.6617  -4.6523  -4.5952
    -4.5633  -4.5377  -4.4433  -4.4059  -4.3415  -4.3328  -4.2785  -4.2465
    -4.2318  -4.1697  -4.0854  -4.0400  -3.9648  -3.9081  -3.8829  -3.8708
    -3.8016  -3.7617  -3.7575  -3.7395  -3.4480  -3.4291  -3.3956  -3.3495
    -3.2985  -3.2497  -3.2178  -3.1983  -3.1213  -3.1053  -3.0786  -3.0252
    -2.9901  -2.9460  -2.9353  -2.9232  -2.7756  -2.7107  -2.6816  -2.6405
    -2.2177  -2.1524  -2.1409  -2.1280  -2.0910  -1.9483  -1.9197  -1.9153
    -1.7945  -1.7724  -1.7568  -1.7013  -0.5046  -0.4863  -0.3252  -0.3182
     0.0769   0.0953   0.1224   0.1444   0.4605   0.4795   0.4858   0.5303
     0.8157   0.8747   0.9571   0.9742

          k = 0.2500 0.0000-0.1179 ( 19041 PWs)   bands (ev):

   -20.2739 -20.2689 -20.2571 -20.2527 -19.1339 -19.1279 -19.1016 -19.0956
   -18.3445 -18.3407 -18.3265 -18.3230 -15.0802 -15.0691 -15.0512 -15.0491
   -13.4653 -13.4564 -13.4217 -13.4135 -12.7374 -12.7289 -12.7068 -12.6861
   -12.2030 -12.1900 -12.1328 -12.1258 -12.0858 -12.0709 -12.0597 -12.0370
   -11.2287 -11.1943 -11.1716 -11.1316  -9.6501  -9.6324  -9.6271  -9.6158
    -8.8136  -8.7311  -8.7210  -8.6765  -8.5194  -8.4817  -8.4257  -8.3362
    -7.5681  -7.5314  -7.5274  -7.4790  -7.1115  -6.9646  -6.9042  -6.8816
    -6.4332  -6.4156  -6.3950  -6.3341  -6.2547  -6.2137  -6.1258  -6.0752
    -5.8634  -5.8463  -5.8147  -5.7758  -5.7515  -5.7255  -5.6820  -5.6736
    -5.4023  -5.2912  -5.1494  -5.1288  -4.7209  -4.6807  -4.6279  -4.6008
    -4.5509  -4.5146  -4.4661  -4.4027  -4.3596  -4.3188  -4.2537  -4.2309
    -4.1626  -4.1416  -4.1270  -4.0880  -3.9692  -3.9072  -3.8897  -3.8740
    -3.8421  -3.7625  -3.7502  -3.7325  -3.4470  -3.4347  -3.3837  -3.3433
    -3.3219  -3.2568  -3.1874  -3.1833  -3.1358  -3.1067  -3.0829  -3.0458
    -2.9936  -2.9422  -2.9306  -2.9219  -2.7827  -2.7083  -2.6793  -2.6687
    -2.2343  -2.1594  -2.1343  -2.1156  -2.0658  -1.9432  -1.9061  -1.8699
    -1.8447  -1.7790  -1.7302  -1.6987  -0.5067  -0.4843  -0.3245  -0.3176
     0.0629   0.1107   0.1120   0.1575   0.4534   0.4763   0.4815   0.5246
     0.8243   0.8654   0.9522   0.9778

          k = 0.2500 0.2130 0.0898 ( 19046 PWs)   bands (ev):

   -20.2740 -20.2685 -20.2569 -20.2531 -19.1350 -19.1268 -19.1002 -19.0971
   -18.3445 -18.3407 -18.3266 -18.3229 -15.0774 -15.0657 -15.0572 -15.0498
   -13.4654 -13.4436 -13.4334 -13.4145 -12.7393 -12.7267 -12.7004 -12.6928
   -12.1962 -12.1859 -12.1281 -12.1221 -12.0851 -12.0786 -12.0587 -12.0498
   -11.2279 -11.2062 -11.1531 -11.1415  -9.6628  -9.6481  -9.6091  -9.5998
    -8.8161  -8.7572  -8.6985  -8.6729  -8.4957  -8.4638  -8.4257  -8.3848
    -7.5541  -7.5392  -7.5170  -7.5068  -7.0835  -6.9913  -6.9091  -6.8710
    -6.4361  -6.4214  -6.3758  -6.3315  -6.2087  -6.1542  -6.1351  -6.1117
    -5.9274  -5.8545  -5.8208  -5.7886  -5.7584  -5.7245  -5.6960  -5.6716
    -5.3126  -5.2472  -5.2017  -5.1623  -4.7317  -4.6554  -4.6273  -4.5965
    -4.5111  -4.5068  -4.4693  -4.3867  -4.3631  -4.3502  -4.2884  -4.2375
    -4.1957  -4.1677  -4.1248  -4.0817  -3.9686  -3.9084  -3.8888  -3.8727
    -3.8324  -3.7768  -3.7669  -3.7133  -3.4514  -3.4373  -3.3574  -3.3488
    -3.2954  -3.2565  -3.2343  -3.1666  -3.1002  -3.0836  -3.0525  -3.0306
    -3.0089  -2.9714  -2.9465  -2.9128  -2.7684  -2.7522  -2.7163  -2.6963
    -2.1586  -2.1234  -2.1124  -2.0977  -2.0328  -1.9556  -1.8982  -1.8770
    -1.8607  -1.8327  -1.7316  -1.7145  -0.4832  -0.4613  -0.3553  -0.3375
     0.0557   0.0853   0.1332   0.1642   0.4626   0.4800   0.4865   0.5075
     0.8575   0.8597   0.9382   0.9551

          k = 0.2500 0.2130 0.2974 ( 19054 PWs)   bands (ev):

   -20.2739 -20.2685 -20.2570 -20.2532 -19.1349 -19.1268 -19.1002 -19.0971
   -18.3445 -18.3407 -18.3266 -18.3229 -15.0751 -15.0681 -15.0564 -15.0503
   -13.4657 -13.4424 -13.4333 -13.4153 -12.7402 -12.7359 -12.7040 -12.6803
   -12.1967 -12.1844 -12.1404 -12.1345 -12.0760 -12.0757 -12.0477 -12.0467
   -11.2254 -11.2115 -11.1534 -11.1387  -9.6798  -9.6603  -9.5943  -9.5853
    -8.8000  -8.7632  -8.7003  -8.6868  -8.4715  -8.4693  -8.4308  -8.4007
    -7.5471  -7.5396  -7.5148  -7.5070  -7.0499  -7.0101  -6.9181  -6.8545
    -6.4348  -6.4326  -6.3930  -6.3682  -6.2043  -6.1729  -6.1502  -6.0880
    -5.9210  -5.8708  -5.7821  -5.7664  -5.7395  -5.7095  -5.6905  -5.6830
    -5.3245  -5.2500  -5.2273  -5.1634  -4.7311  -4.6612  -4.5916  -4.5734
    -4.5555  -4.5142  -4.4595  -4.4018  -4.3658  -4.3367  -4.3036  -4.2518
    -4.2123  -4.2015  -4.0911  -4.0343  -3.9832  -3.9423  -3.8909  -3.8590
    -3.7883  -3.7806  -3.7483  -3.7274  -3.4504  -3.4410  -3.3667  -3.3595
    -3.2856  -3.2507  -3.2345  -3.1495  -3.1085  -3.0835  -3.0624  -3.0131
    -2.9907  -2.9726  -2.9615  -2.9274  -2.7621  -2.7402  -2.7172  -2.6793
    -2.1568  -2.1405  -2.1040  -2.0796  -2.0375  -2.0069  -1.9165  -1.8840
    -1.8410  -1.8150  -1.7447  -1.7221  -0.4799  -0.4653  -0.3513  -0.3421
     0.0616   0.0885   0.1264   0.1578   0.4739   0.4796   0.4923   0.5096
     0.8405   0.8797   0.9375   0.9565

          k = 0.2500 0.2130-0.3255 ( 19064 PWs)   bands (ev):

   -20.2740 -20.2686 -20.2569 -20.2531 -19.1349 -19.1269 -19.1002 -19.0971
   -18.3445 -18.3407 -18.3266 -18.3230 -15.0737 -15.0693 -15.0545 -15.0521
   -13.4621 -13.4512 -13.4247 -13.4187 -12.7430 -12.7291 -12.7086 -12.6794
   -12.2025 -12.1903 -12.1428 -12.1358 -12.0708 -12.0699 -12.0492 -12.0423
   -11.2241 -11.2053 -11.1633 -11.1338  -9.6727  -9.6537  -9.6035  -9.5915
    -8.7971  -8.7550  -8.7096  -8.6870  -8.5144  -8.4948  -8.4075  -8.3512
    -7.5567  -7.5412  -7.5096  -7.4900  -7.0555  -7.0092  -6.9204  -6.8696
    -6.4326  -6.4204  -6.4085  -6.3822  -6.2210  -6.2107  -6.1417  -6.0850
    -5.8660  -5.8462  -5.7768  -5.7647  -5.7440  -5.7039  -5.6964  -5.6592
    -5.3952  -5.3041  -5.1791  -5.1187  -4.6997  -4.6878  -4.6180  -4.5982
    -4.5624  -4.5122  -4.4524  -4.4091  -4.3628  -4.3064  -4.2889  -4.2625
    -4.2225  -4.1838  -4.0733  -4.0493  -3.9770  -3.9255  -3.8957  -3.8509
    -3.8046  -3.7793  -3.7431  -3.7316  -3.4409  -3.4320  -3.3927  -3.3659
    -3.2775  -3.2589  -3.2297  -3.1460  -3.1184  -3.1078  -3.0859  -3.0331
    -2.9869  -2.9480  -2.9412  -2.9291  -2.7663  -2.7222  -2.6681  -2.6449
    -2.2088  -2.1634  -2.1310  -2.1169  -2.0783  -1.9906  -1.9149  -1.8701
    -1.8079  -1.7856  -1.7609  -1.7122  -0.4796  -0.4615  -0.3518  -0.3416
     0.0763   0.0961   0.1242   0.1421   0.4644   0.4800   0.4918   0.5236
     0.8321   0.8895   0.9305   0.9644

          k = 0.2500 0.2130-0.1179 ( 19059 PWs)   bands (ev):

   -20.2741 -20.2686 -20.2568 -20.2530 -19.1350 -19.1269 -19.1002 -19.0970
   -18.3445 -18.3407 -18.3265 -18.3230 -15.0767 -15.0664 -15.0557 -15.0511
   -13.4613 -13.4525 -13.4258 -13.4172 -12.7404 -12.7178 -12.7114 -12.6893
   -12.2023 -12.1914 -12.1307 -12.1248 -12.0805 -12.0699 -12.0631 -12.0435
   -11.2262 -11.1994 -11.1650 -11.1356  -9.6464  -9.6377  -9.6248  -9.6125
    -8.8138  -8.7491  -8.7069  -8.6732  -8.5244  -8.4951  -8.4031  -8.3429
    -7.5628  -7.5366  -7.5184  -7.4885  -7.0899  -6.9858  -6.9068  -6.8947
    -6.4308  -6.4166  -6.3870  -6.3406  -6.2285  -6.2055  -6.1344  -6.0942
    -5.8563  -5.8315  -5.8183  -5.7767  -5.7631  -5.7413  -5.6743  -5.6710
    -5.3839  -5.3040  -5.1394  -5.1253  -4.7082  -4.6803  -4.6484  -4.6010
    -4.5415  -4.4903  -4.4732  -4.4062  -4.3551  -4.3188  -4.2821  -4.2269
    -4.1844  -4.1722  -4.1234  -4.0913  -3.9440  -3.9137  -3.8811  -3.8687
    -3.8451  -3.7889  -3.7539  -3.7156  -3.4418  -3.4337  -3.3784  -3.3554
    -3.2912  -3.2501  -3.2438  -3.1524  -3.1167  -3.1064  -3.0836  -3.0515
    -2.9879  -2.9519  -2.9351  -2.9113  -2.7787  -2.7268  -2.6734  -2.6602
    -2.2096  -2.1583  -2.1393  -2.1103  -2.0561  -1.9709  -1.9141  -1.8586
    -1.8298  -1.7881  -1.7440  -1.7052  -0.4826  -0.4575  -0.3559  -0.3371
     0.0659   0.0962   0.1274   0.1534   0.4568   0.4752   0.4889   0.5200
     0.8387   0.8797   0.9313   0.9633

          k = 0.2500-0.4260 0.0898 ( 19030 PWs)   bands (ev):

   -20.2736 -20.2689 -20.2571 -20.2528 -19.1340 -19.1278 -19.1016 -19.0956
   -18.3445 -18.3406 -18.3267 -18.3229 -15.0703 -15.0670 -15.0580 -15.0551
   -13.4564 -13.4477 -13.4299 -13.4228 -12.7364 -12.7235 -12.7050 -12.6938
   -12.1962 -12.1867 -12.1251 -12.1231 -12.0750 -12.0717 -12.0662 -12.0616
   -11.2261 -11.2075 -11.1527 -11.1423  -9.6584  -9.6538  -9.6028  -9.6006
    -8.8024  -8.7905  -8.6795  -8.6734  -8.4915  -8.4806  -8.4031  -8.3964
    -7.5514  -7.5420  -7.5187  -7.5055  -7.0465  -7.0324  -6.8959  -6.8926
    -6.4328  -6.4263  -6.3544  -6.3504  -6.1689  -6.1602  -6.1393  -6.1339
    -5.8916  -5.8875  -5.8109  -5.8087  -5.7490  -5.7339  -5.6867  -5.6739
    -5.2800  -5.2738  -5.1785  -5.1729  -4.6917  -4.6879  -4.6264  -4.6194
    -4.4945  -4.4883  -4.4329  -4.4309  -4.3774  -4.3728  -4.2402  -4.2316
    -4.2082  -4.2040  -4.1203  -4.1143  -3.9395  -3.9301  -3.8874  -3.8835
    -3.8164  -3.8070  -3.7331  -3.7264  -3.4451  -3.4360  -3.3544  -3.3508
    -3.2762  -3.2696  -3.2040  -3.1975  -3.0913  -3.0788  -3.0579  -3.0463
    -2.9922  -2.9831  -2.9231  -2.9081  -2.7702  -2.7594  -2.7130  -2.6994
    -2.1405  -2.1327  -2.1112  -2.0995  -2.0000  -1.9941  -1.8811  -1.8718
    -1.8541  -1.8387  -1.7406  -1.7339  -0.4332  -0.4174  -0.4009  -0.3861
     0.0629   0.0728   0.1467   0.1565   0.4700   0.4747   0.4971   0.4975
     0.8838   0.8930   0.9107   0.9178

          k = 0.2500-0.4260 0.2974 ( 19064 PWs)   bands (ev):

   -20.2736 -20.2688 -20.2573 -20.2529 -19.1340 -19.1278 -19.1017 -19.0957
   -18.3445 -18.3406 -18.3267 -18.3229 -15.0693 -15.0654 -15.0594 -15.0560
   -13.4561 -13.4476 -13.4299 -13.4231 -12.7420 -12.7330 -12.6962 -12.6888
   -12.1959 -12.1854 -12.1384 -12.1366 -12.0671 -12.0629 -12.0612 -12.0557
   -11.2267 -11.2084 -11.1521 -11.1418  -9.6718  -9.6684  -9.5883  -9.5874
    -8.7970  -8.7831  -8.6893  -8.6806  -8.4782  -8.4667  -8.4175  -8.4129
    -7.5478  -7.5431  -7.5115  -7.5068  -7.0346  -7.0180  -6.8990  -6.8931
    -6.4391  -6.4293  -6.3858  -6.3794  -6.1760  -6.1713  -6.1274  -6.1243
    -5.9045  -5.8999  -5.7776  -5.7683  -5.7258  -5.7161  -5.6901  -5.6820
    -5.2831  -5.2760  -5.1976  -5.1930  -4.7063  -4.7049  -4.5905  -4.5825
    -4.5171  -4.5150  -4.4449  -4.4336  -4.3590  -4.3559  -4.2717  -4.2622
    -4.2118  -4.2079  -4.0616  -4.0592  -3.9973  -3.9843  -3.8722  -3.8694
    -3.7925  -3.7830  -3.7369  -3.7291  -3.4440  -3.4350  -3.3683  -3.3645
    -3.2776  -3.2719  -3.1773  -3.1687  -3.1031  -3.0958  -3.0440  -3.0341
    -2.9869  -2.9856  -2.9411  -2.9264  -2.7535  -2.7488  -2.7040  -2.6948
    -2.1576  -2.1509  -2.0919  -2.0854  -2.0217  -2.0163  -1.8762  -1.8734
    -1.8454  -1.8319  -1.7534  -1.7467  -0.4317  -0.4143  -0.4046  -0.3884
     0.0664   0.0781   0.1392   0.1511   0.4807   0.4848   0.4949   0.4964
     0.8816   0.8899   0.9163   0.9227

          k = 0.2500-0.4260-0.3255 ( 19028 PWs)   bands (ev):

   -20.2736 -20.2689 -20.2572 -20.2528 -19.1340 -19.1278 -19.1016 -19.0956
   -18.3445 -18.3407 -18.3266 -18.3230 -15.0686 -15.0637 -15.0610 -15.0566
   -13.4559 -13.4473 -13.4303 -13.4231 -12.7413 -12.7319 -12.6972 -12.6894
   -12.2013 -12.1915 -12.1394 -12.1381 -12.0620 -12.0607 -12.0562 -12.0553
   -11.2243 -11.2056 -11.1533 -11.1433  -9.6649  -9.6610  -9.5966  -9.5951
    -8.7908  -8.7763  -8.6944  -8.6871  -8.5141  -8.5070  -8.3762  -8.3733
    -7.5484  -7.5472  -7.5036  -7.4988  -7.0323  -7.0137  -6.9156  -6.9086
    -6.4301  -6.4155  -6.4056  -6.3933  -6.1964  -6.1876  -6.1336  -6.1280
    -5.8639  -5.8578  -5.7798  -5.7639  -5.7229  -5.7163  -5.6801  -5.6709
    -5.3484  -5.3434  -5.1468  -5.1432  -4.7063  -4.7031  -4.6111  -4.6035
    -4.5208  -4.5156  -4.4362  -4.4256  -4.3511  -4.3480  -4.2822  -4.2763
    -4.2026  -4.1976  -4.0621  -4.0571  -3.9776  -3.9656  -3.8740  -3.8691
    -3.8015  -3.7938  -3.7314  -3.7244  -3.4387  -3.4258  -3.3838  -3.3795
    -3.2752  -3.2718  -3.1714  -3.1634  -3.1196  -3.1139  -3.0583  -3.0554
    -2.9711  -2.9677  -2.9418  -2.9330  -2.7497  -2.7427  -2.6555  -2.6493
    -2.1887  -2.1826  -2.1195  -2.1075  -2.0461  -2.0426  -1.8758  -1.8574
    -1.8250  -1.8199  -1.7400  -1.7360  -0.4268  -0.4145  -0.4020  -0.3913
     0.0775   0.0955   0.1239   0.1423   0.4720   0.4751   0.5068   0.5091
     0.8741   0.8797   0.9270   0.9311

          k = 0.2500-0.4260-0.1179 ( 19044 PWs)   bands (ev):

   -20.2737 -20.2690 -20.2570 -20.2527 -19.1340 -19.1279 -19.1016 -19.0956
   -18.3445 -18.3407 -18.3266 -18.3230 -15.0697 -15.0661 -15.0588 -15.0556
   -13.4562 -13.4474 -13.4303 -13.4228 -12.7356 -12.7212 -12.7072 -12.6946
   -12.2016 -12.1926 -12.1273 -12.1252 -12.0740 -12.0696 -12.0607 -12.0561
   -11.2236 -11.2047 -11.1540 -11.1439  -9.6467  -9.6380  -9.6195  -9.6132
    -8.7970  -8.7850  -8.6827  -8.6795  -8.5209  -8.5133  -8.3688  -8.3641
    -7.5517  -7.5462  -7.5098  -7.4990  -7.0453  -7.0301  -6.9096  -6.9074
    -6.4269  -6.4203  -6.3649  -6.3596  -6.1989  -6.1875  -6.1385  -6.1320
    -5.8390  -5.8302  -5.7997  -5.7966  -5.7710  -5.7569  -5.6754  -5.6624
    -5.3429  -5.3388  -5.1283  -5.1241  -4.6953  -4.6899  -4.6348  -4.6272
    -4.5053  -4.4989  -4.4285  -4.4213  -4.3758  -4.3708  -4.2425  -4.2379
    -4.1974  -4.1933  -4.1196  -4.1154  -3.9273  -3.9209  -3.8695  -3.8577
    -3.8414  -3.8312  -3.7293  -3.7223  -3.4420  -3.4301  -3.3666  -3.3630
    -3.2738  -3.2698  -3.2009  -3.1947  -3.1125  -3.1039  -3.0631  -3.0552
    -2.9783  -2.9720  -2.9228  -2.9148  -2.7632  -2.7537  -2.6659  -2.6571
    -2.1750  -2.1676  -2.1243  -2.1120  -2.0363  -2.0309  -1.8789  -1.8631
    -1.8224  -1.8180  -1.7308  -1.7261  -0.4290  -0.4168  -0.3993  -0.3882
     0.0725   0.0852   0.1363   0.1491   0.4643   0.4682   0.5056   0.5072
     0.8751   0.8806   0.9236   0.9273

          k =-0.5000 0.0000-0.1795 ( 19044 PWs)   bands (ev):

   -20.2732 -20.2691 -20.2569 -20.2532 -19.1325 -19.1294 -19.1003 -19.0972
   -18.3453 -18.3398 -18.3273 -18.3221 -15.0773 -15.0757 -15.0513 -15.0500
   -13.4437 -13.4363 -13.4302 -13.4221 -12.7398 -12.7389 -12.6988 -12.6980
   -12.1933 -12.1847 -12.1263 -12.1254 -12.0908 -12.0900 -12.0557 -12.0538
   -11.2319 -11.2128 -11.1416 -11.1321  -9.6558  -9.6456  -9.6136  -9.6073
    -8.7881  -8.7759  -8.6782  -8.6729  -8.4912  -8.4748  -8.4311  -8.4186
    -7.5323  -7.5285  -7.5171  -7.5136  -7.0415  -7.0253  -6.9009  -6.8983
    -6.4254  -6.4092  -6.3752  -6.3574  -6.1763  -6.1685  -6.1214  -6.1176
    -5.8911  -5.8770  -5.8076  -5.8056  -5.7575  -5.7435  -5.6740  -5.6636
    -5.3074  -5.2950  -5.2083  -5.1950  -4.6757  -4.6674  -4.6227  -4.6170
    -4.5311  -4.5186  -4.4749  -4.4731  -4.2799  -4.2774  -4.2488  -4.2428
    -4.1784  -4.1693  -4.1114  -4.1054  -3.9278  -3.9273  -3.8970  -3.8787
    -3.8411  -3.8338  -3.7075  -3.6990  -3.4501  -3.4424  -3.3611  -3.3524
    -3.2667  -3.2594  -3.1787  -3.1752  -3.1436  -3.1396  -3.0459  -3.0395
    -2.9864  -2.9757  -2.9730  -2.9626  -2.7656  -2.7590  -2.7301  -2.7167
    -2.1501  -2.1484  -2.0740  -2.0701  -1.9956  -1.9880  -1.9074  -1.8897
    -1.8825  -1.8698  -1.6930  -1.6902  -0.5183  -0.5167  -0.3229  -0.3200
     0.0752   0.0936   0.1179   0.1362   0.4788   0.4820   0.5288   0.5311
     0.8745   0.8769   0.9619   0.9654

          k =-0.5000 0.0000 0.0281 ( 19083 PWs)   bands (ev):

   -20.2733 -20.2692 -20.2568 -20.2531 -19.1325 -19.1295 -19.1003 -19.0971
   -18.3453 -18.3398 -18.3273 -18.3221 -15.0784 -15.0743 -15.0518 -15.0496
   -13.4443 -13.4347 -13.4306 -13.4225 -12.7509 -12.7304 -12.7135 -12.6808
   -12.1953 -12.1831 -12.1503 -12.1251 -12.0917 -12.0829 -12.0502 -12.0413
   -11.2373 -11.2073 -11.1429 -11.1304  -9.6856  -9.6369  -9.6155  -9.5849
    -8.8041  -8.7470  -8.6869  -8.6705  -8.5422  -8.4853  -8.4111  -8.3751
    -7.5554  -7.5349  -7.5033  -7.4903  -7.0490  -7.0174  -6.9393  -6.8750
    -6.4323  -6.4106  -6.3882  -6.3642  -6.2211  -6.1547  -6.1386  -6.1017
    -5.9493  -5.8319  -5.7827  -5.7760  -5.7549  -5.7413  -5.6677  -5.6240
    -5.4099  -5.2888  -5.1781  -5.1233  -4.7040  -4.6491  -4.6195  -4.6043
    -4.5355  -4.5210  -4.4820  -4.4544  -4.3390  -4.2999  -4.2734  -4.2594
    -4.2021  -4.1274  -4.0825  -4.0575  -3.9891  -3.9399  -3.8703  -3.8627
    -3.8390  -3.7865  -3.7259  -3.7053  -3.4424  -3.4266  -3.3803  -3.3447
    -3.2822  -3.2668  -3.2046  -3.1854  -3.1603  -3.1503  -3.0613  -3.0469
    -3.0025  -2.9544  -2.9436  -2.9052  -2.7926  -2.7425  -2.7163  -2.6599
    -2.1849  -2.1563  -2.1354  -2.1024  -2.0791  -1.9771  -1.9178  -1.8678
    -1.8274  -1.7869  -1.7258  -1.6781  -0.5211  -0.5091  -0.3253  -0.3175
     0.0742   0.0927   0.1163   0.1395   0.4728   0.4902   0.5051   0.5560
     0.8517   0.9002   0.9552   0.9743

          k =-0.5000 0.0000-0.5948 ( 19094 PWs)   bands (ev):

   -20.2734 -20.2693 -20.2567 -20.2531 -19.1325 -19.1295 -19.1003 -19.0971
   -18.3453 -18.3398 -18.3272 -18.3222 -15.0789 -15.0734 -15.0522 -15.0494
   -13.4448 -13.4329 -13.4312 -13.4230 -12.7555 -12.7323 -12.7143 -12.6735
   -12.1955 -12.1813 -12.1645 -12.1353 -12.0840 -12.0820 -12.0414 -12.0354
   -11.2410 -11.2034 -11.1439 -11.1289  -9.6995  -9.6481  -9.6014  -9.5745
    -8.8107  -8.7120  -8.7102  -8.6690  -8.5632  -8.5132  -8.3729  -8.3627
    -7.5641  -7.5424  -7.4951  -7.4746  -7.0575  -6.9875  -6.9843  -6.8657
    -6.4415  -6.4122  -6.3969  -6.3737  -6.2454  -6.1756  -6.1329  -6.0995
    -5.9329  -5.8613  -5.7856  -5.7515  -5.7439  -5.6969  -5.6617  -5.5939
    -5.4534  -5.3307  -5.1085  -5.1026  -4.7054  -4.6794  -4.5934  -4.5931
    -4.5194  -4.5087  -4.4786  -4.4567  -4.4407  -4.3221  -4.2748  -4.2518
    -4.2027  -4.1199  -4.0557  -4.0243  -4.0211  -3.9666  -3.8508  -3.8463
    -3.8119  -3.7673  -3.7475  -3.7163  -3.4263  -3.4117  -3.4006  -3.3407
    -3.3047  -3.2682  -3.2141  -3.2134  -3.1683  -3.1560  -3.0895  -3.0461
    -2.9851  -2.9499  -2.9150  -2.8782  -2.8077  -2.7400  -2.6504  -2.6314
    -2.2810  -2.1794  -2.1402  -2.1282  -2.0871  -2.0075  -1.9227  -1.8108
    -1.7821  -1.7774  -1.7431  -1.6756  -0.5213  -0.5042  -0.3262  -0.3166
     0.0733   0.0919   0.1153   0.1422   0.4714   0.4913   0.4974   0.5676
     0.8416   0.9105   0.9526   0.9792

          k =-0.5000 0.2130-0.1795 ( 19036 PWs)   bands (ev):

   -20.2735 -20.2688 -20.2572 -20.2529 -19.1340 -19.1279 -19.1017 -19.0957
   -18.3453 -18.3398 -18.3273 -18.3221 -15.0744 -15.0722 -15.0549 -15.0531
   -13.4433 -13.4358 -13.4303 -13.4220 -12.7391 -12.7324 -12.7056 -12.6998
   -12.1936 -12.1850 -12.1242 -12.1220 -12.0882 -12.0872 -12.0615 -12.0589
   -11.2304 -11.2112 -11.1427 -11.1332  -9.6525  -9.6425  -9.6163  -9.6094
    -8.7764  -8.7651  -8.6945  -8.6876  -8.4855  -8.4697  -8.4339  -8.4209
    -7.5300  -7.5269  -7.5170  -7.5138  -7.0399  -7.0224  -6.9060  -6.9029
    -6.4196  -6.4036  -6.3816  -6.3648  -6.1827  -6.1752  -6.1217  -6.1171
    -5.8809  -5.8678  -5.8136  -5.8083  -5.7473  -5.7363  -5.6803  -5.6707
    -5.2936  -5.2801  -5.2130  -5.1996  -4.6808  -4.6737  -4.6339  -4.6262
    -4.4995  -4.4907  -4.4488  -4.4465  -4.3375  -4.3316  -4.2527  -4.2524
    -4.1882  -4.1824  -4.0947  -4.0838  -3.9339  -3.9321  -3.9084  -3.8949
    -3.8120  -3.8055  -3.7277  -3.7184  -3.4465  -3.4393  -3.3629  -3.3554
    -3.2709  -3.2628  -3.1968  -3.1885  -3.1076  -3.0997  -3.0410  -3.0331
    -2.9909  -2.9794  -2.9679  -2.9557  -2.7781  -2.7704  -2.7260  -2.7132
    -2.1413  -2.1377  -2.0842  -2.0794  -1.9901  -1.9778  -1.9043  -1.8867
    -1.8770  -1.8659  -1.7119  -1.7073  -0.4904  -0.4881  -0.3511  -0.3481
     0.0738   0.0922   0.1200   0.1384   0.4837   0.4874   0.5222   0.5238
     0.8870   0.8904   0.9505   0.9545

          k =-0.5000 0.2130 0.0281 ( 19067 PWs)   bands (ev):

   -20.2736 -20.2689 -20.2571 -20.2528 -19.1340 -19.1279 -19.1017 -19.0957
   -18.3452 -18.3398 -18.3273 -18.3221 -15.0751 -15.0711 -15.0554 -15.0528
   -13.4436 -13.4350 -13.4307 -13.4218 -12.7472 -12.7341 -12.7088 -12.6868
   -12.1950 -12.1842 -12.1453 -12.1298 -12.0855 -12.0770 -12.0556 -12.0479
   -11.2338 -11.2085 -11.1431 -11.1315  -9.6795  -9.6469  -9.6070  -9.5881
    -8.7886  -8.7431  -8.6971  -8.6890  -8.5325  -8.4933  -8.4020  -8.3795
    -7.5512  -7.5361  -7.5034  -7.4898  -7.0481  -7.0187  -6.9360  -6.8817
    -6.4270  -6.4076  -6.3941  -6.3676  -6.2250  -6.1706  -6.1358  -6.1050
    -5.9251  -5.8368  -5.7953  -5.7791  -5.7344  -5.7276  -5.6743  -5.6353
    -5.3899  -5.3026  -5.1626  -5.1269  -4.7057  -4.6686  -4.6207  -4.6057
    -4.5096  -4.4799  -4.4630  -4.4476  -4.3718  -4.3239  -4.3142  -4.2351
    -4.2190  -4.1738  -4.0764  -4.0510  -3.9752  -3.9294  -3.8865  -3.8516
    -3.8306  -3.7721  -3.7381  -3.7260  -3.4391  -3.4268  -3.3778  -3.3556
    -3.2775  -3.2724  -3.2320  -3.1697  -3.1367  -3.1045  -3.0904  -3.0328
    -2.9917  -2.9688  -2.9346  -2.9104  -2.7882  -2.7595  -2.7016  -2.6637
    -2.1756  -2.1562  -2.1191  -2.1058  -2.0695  -1.9899  -1.9327  -1.8496
    -1.8193  -1.7878  -1.7476  -1.6921  -0.4933  -0.4809  -0.3539  -0.3442
     0.0740   0.0908   0.1183   0.1408   0.4788   0.4910   0.5061   0.5451
     0.8654   0.9136   0.9378   0.9677

          k =-0.5000 0.2130-0.5948 ( 19092 PWs)   bands (ev):

   -20.2737 -20.2690 -20.2570 -20.2528 -19.1341 -19.1279 -19.1017 -19.0957
   -18.3452 -18.3399 -18.3272 -18.3222 -15.0757 -15.0701 -15.0562 -15.0522
   -13.4440 -13.4348 -13.4298 -13.4223 -12.7538 -12.7352 -12.7091 -12.6788
   -12.1949 -12.1829 -12.1603 -12.1405 -12.0767 -12.0755 -12.0468 -12.0425
   -11.2365 -11.2067 -11.1428 -11.1302  -9.6928  -9.6576  -9.5948  -9.5769
    -8.7943  -8.7178  -8.7118  -8.6879  -8.5533  -8.5181  -8.3706  -8.3629
    -7.5597  -7.5439  -7.4926  -7.4770  -7.0595  -7.0055  -6.9588  -6.8738
    -6.4371  -6.4123  -6.3998  -6.3781  -6.2457  -6.1856  -6.1298  -6.1130
    -5.9056  -5.8527  -5.7959  -5.7809  -5.7094  -5.6858  -5.6679  -5.6091
    -5.4319  -5.3435  -5.1040  -5.0989  -4.7072  -4.6899  -4.5945  -4.5918
    -4.4998  -4.4801  -4.4694  -4.4618  -4.3918  -4.3751  -4.3240  -4.2491
    -4.2149  -4.1735  -4.0540  -4.0298  -3.9842  -3.9387  -3.8742  -3.8242
    -3.8207  -3.7723  -3.7458  -3.7297  -3.4265  -3.4100  -3.3940  -3.3601
    -3.2877  -3.2826  -3.2538  -3.1614  -3.1498  -3.1154  -3.1051  -3.0602
    -2.9837  -2.9586  -2.9095  -2.8851  -2.7966  -2.7529  -2.6422  -2.6295
    -2.2611  -2.1834  -2.1361  -2.1236  -2.0763  -2.0062  -1.9452  -1.8110
    -1.7836  -1.7724  -1.7548  -1.6881  -0.4930  -0.4766  -0.3543  -0.3432
     0.0729   0.0911   0.1183   0.1413   0.4762   0.4902   0.5039   0.5548
     0.8561   0.9217   0.9357   0.9731

          k =-0.5000-0.4260-0.1795 ( 19060 PWs)   bands (ev):

   -20.2738 -20.2685 -20.2575 -20.2526 -19.1350 -19.1269 -19.1027 -19.0948
   -18.3452 -18.3398 -18.3274 -18.3221 -15.0701 -15.0646 -15.0626 -15.0575
   -13.4429 -13.4352 -13.4303 -13.4220 -12.7370 -12.7203 -12.7182 -12.7027
   -12.1938 -12.1853 -12.1218 -12.1188 -12.0841 -12.0798 -12.0716 -12.0658
   -11.2288 -11.2096 -11.1439 -11.1343  -9.6486  -9.6389  -9.6196  -9.6122
    -8.7574  -8.7460  -8.7199  -8.7087  -8.4794  -8.4640  -8.4376  -8.4236
    -7.5269  -7.5261  -7.5163  -7.5146  -7.0381  -7.0191  -6.9114  -6.9077
    -6.4097  -6.3968  -6.3883  -6.3774  -6.1892  -6.1800  -6.1236  -6.1158
    -5.8697  -5.8580  -5.8226  -5.8128  -5.7340  -5.7225  -5.6898  -5.6820
    -5.2770  -5.2604  -5.2220  -5.2071  -4.6816  -4.6754  -4.6440  -4.6355
    -4.4637  -4.4501  -4.4107  -4.4089  -4.4015  -4.4006  -4.2716  -4.2675
    -4.1958  -4.1904  -4.0836  -4.0705  -3.9303  -3.9274  -3.9242  -3.9187
    -3.7765  -3.7650  -3.7620  -3.7506  -3.4432  -3.4361  -3.3637  -3.3575
    -3.2773  -3.2688  -3.1978  -3.1912  -3.0817  -3.0700  -3.0418  -3.0354
    -2.9797  -2.9748  -2.9709  -2.9568  -2.7861  -2.7779  -2.7262  -2.7134
    -2.1264  -2.1146  -2.1069  -2.0987  -1.9815  -1.9687  -1.8922  -1.8812
    -1.8695  -1.8664  -1.7346  -1.7280  -0.4359  -0.4198  -0.4190  -0.4029
     0.0725   0.0909   0.1219   0.1403   0.4900   0.4958   0.5127   0.5149
     0.9072   0.9176   0.9254   0.9359

          k =-0.5000-0.4260 0.0281 ( 19054 PWs)   bands (ev):

   -20.2738 -20.2686 -20.2574 -20.2525 -19.1350 -19.1269 -19.1027 -19.0948
   -18.3452 -18.3398 -18.3273 -18.3221 -15.0700 -15.0647 -15.0624 -15.0575
   -13.4429 -13.4358 -13.4296 -13.4218 -12.7438 -12.7356 -12.7032 -12.6957
   -12.1944 -12.1853 -12.1389 -12.1361 -12.0720 -12.0683 -12.0655 -12.0603
   -11.2296 -11.2107 -11.1425 -11.1331  -9.6663  -9.6619  -9.5969  -9.5950
    -8.7565  -8.7470  -8.7163  -8.7071  -8.5140  -8.5089  -8.3914  -8.3868
    -7.5444  -7.5404  -7.5004  -7.4920  -7.0450  -7.0264  -6.9096  -6.9071
    -6.4198  -6.4014  -6.3979  -6.3811  -6.2101  -6.2012  -6.1241  -6.1173
    -5.8798  -5.8704  -5.8006  -5.7815  -5.7138  -5.7079  -5.6704  -5.6650
    -5.3457  -5.3410  -5.1404  -5.1362  -4.6964  -4.6930  -4.6158  -4.6110
    -4.4818  -4.4749  -4.4214  -4.4130  -4.3914  -4.3882  -4.2906  -4.2859
    -4.2163  -4.2147  -4.0662  -4.0565  -3.9462  -3.9377  -3.8823  -3.8809
    -3.7842  -3.7732  -3.7555  -3.7444  -3.4352  -3.4268  -3.3710  -3.3653
    -3.2895  -3.2819  -3.1936  -3.1868  -3.1153  -3.1096  -3.0575  -3.0503
    -2.9800  -2.9728  -2.9239  -2.9227  -2.7823  -2.7763  -2.6826  -2.6753
    -2.1636  -2.1597  -2.1073  -2.0967  -2.0451  -2.0381  -1.8987  -1.8778
    -1.8021  -1.7971  -1.7349  -1.7301  -0.4331  -0.4233  -0.4125  -0.4027
     0.0724   0.0905   0.1219   0.1401   0.4860   0.4894   0.5205   0.5221
     0.8975   0.9024   0.9416   0.9464

          k =-0.5000-0.4260-0.5948 ( 19064 PWs)   bands (ev):

   -20.2739 -20.2687 -20.2573 -20.2525 -19.1350 -19.1269 -19.1027 -19.0948
   -18.3452 -18.3399 -18.3273 -18.3222 -15.0699 -15.0648 -15.0622 -15.0575
   -13.4430 -13.4363 -13.4289 -13.4216 -12.7491 -12.7424 -12.6965 -12.6903
   -12.1942 -12.1843 -12.1509 -12.1508 -12.0626 -12.0619 -12.0586 -12.0572
   -11.2304 -11.2117 -11.1411 -11.1320  -9.6778  -9.6744  -9.5843  -9.5841
    -8.7557  -8.7481  -8.7125  -8.7052  -8.5349  -8.5315  -8.3675  -8.3638
    -7.5521  -7.5487  -7.4894  -7.4798  -7.0516  -7.0331  -6.9078  -6.9076
    -6.4310  -6.4119  -6.4044  -6.3847  -6.2250  -6.2159  -6.1288  -6.1216
    -5.8621  -5.8541  -5.8141  -5.7950  -5.6892  -5.6802  -5.6480  -5.6453
    -5.3853  -5.3809  -5.0994  -5.0952  -4.7052  -4.7020  -4.5957  -4.5894
    -4.4964  -4.4898  -4.4317  -4.4204  -4.3830  -4.3825  -4.3122  -4.3105
    -4.2360  -4.2346  -4.0456  -4.0409  -3.9421  -3.9334  -3.8647  -3.8635
    -3.7822  -3.7729  -3.7576  -3.7464  -3.4230  -3.4127  -3.3819  -3.3764
    -3.3021  -3.2953  -3.1907  -3.1845  -3.1310  -3.1281  -3.0751  -3.0712
    -2.9748  -2.9716  -2.9007  -2.8966  -2.7803  -2.7751  -2.6328  -2.6287
    -2.2175  -2.2113  -2.1252  -2.1145  -2.0532  -2.0486  -1.9058  -1.8863
    -1.7620  -1.7605  -1.7319  -1.7304  -0.4288  -0.4257  -0.4070  -0.4042
     0.0724   0.0903   0.1217   0.1397   0.4835   0.4854   0.5257   0.5280
     0.8909   0.8951   0.9498   0.9538

          k = 0.0000 0.2130-0.2076 ( 19057 PWs)   bands (ev):

   -20.2738 -20.2688 -20.2573 -20.2527 -19.1339 -19.1278 -19.1015 -19.0956
   -18.3430 -18.3424 -18.3249 -18.3248 -15.0754 -15.0657 -15.0544 -15.0498
   -13.4787 -13.4569 -13.4328 -13.4136 -12.7348 -12.7200 -12.7043 -12.6840
   -12.2022 -12.1929 -12.1304 -12.1260 -12.0738 -12.0677 -12.0524 -12.0419
   -11.2209 -11.1971 -11.1728 -11.1478  -9.6602  -9.6490  -9.6073  -9.6031
    -8.8314  -8.7387  -8.7210  -8.6820  -8.5046  -8.4474  -8.4062  -8.3749
    -7.5527  -7.5491  -7.5277  -7.5038  -7.0549  -7.0385  -6.9113  -6.8170
    -6.4411  -6.4296  -6.3795  -6.3507  -6.2419  -6.1817  -6.1099  -6.0948
    -5.9099  -5.8673  -5.8543  -5.7665  -5.7242  -5.7160  -5.7072  -5.6597
    -5.3244  -5.2435  -5.2115  -5.1590  -4.7666  -4.6345  -4.6162  -4.6012
    -4.5373  -4.4672  -4.4571  -4.4312  -4.3915  -4.3485  -4.2768  -4.2356
    -4.1953  -4.1885  -4.0997  -4.0767  -3.9706  -3.9049  -3.8992  -3.8628
    -3.8344  -3.7888  -3.7400  -3.7308  -3.4443  -3.4210  -3.3691  -3.3646
    -3.3051  -3.2465  -3.2276  -3.1572  -3.1068  -3.0770  -3.0670  -3.0127
    -2.9900  -2.9740  -2.9430  -2.9062  -2.7513  -2.7146  -2.6949  -2.6776
    -2.1612  -2.1419  -2.1207  -2.1063  -2.0439  -1.9886  -1.9021  -1.8832
    -1.8481  -1.7848  -1.7671  -1.7351  -0.4665  -0.4421  -0.3565  -0.3313
     0.0586   0.0894   0.1351   0.1699   0.4489   0.4602   0.4708   0.4863
     0.8309   0.8447   0.9257   0.9483

          k =-0.2500 0.2130-0.0898 ( 19046 PWs)   bands (ev):

   -20.2734 -20.2692 -20.2574 -20.2525 -19.1324 -19.1294 -19.1025 -19.0947
   -18.3445 -18.3406 -18.3266 -18.3229 -15.0769 -15.0674 -15.0552 -15.0507
   -13.4654 -13.4445 -13.4316 -13.4154 -12.7386 -12.7190 -12.7138 -12.6879
   -12.1958 -12.1862 -12.1295 -12.1206 -12.0854 -12.0788 -12.0574 -12.0508
   -11.2295 -11.2041 -11.1541 -11.1408  -9.6638  -9.6471  -9.6085  -9.6003
    -8.8106  -8.7670  -8.6911  -8.6767  -8.4883  -8.4751  -8.4181  -8.3876
    -7.5498  -7.5434  -7.5234  -7.5006  -7.0872  -6.9847  -6.9090  -6.8744
    -6.4310  -6.4267  -6.3753  -6.3312  -6.2091  -6.1571  -6.1326  -6.1111
    -5.9278  -5.8519  -5.8235  -5.7910  -5.7536  -5.7278  -5.6883  -5.6780
    -5.3134  -5.2431  -5.2052  -5.1623  -4.7323  -4.6529  -4.6264  -4.6013
    -4.5044  -4.5003  -4.4711  -4.3921  -4.3638  -4.3508  -4.2929  -4.2350
    -4.1942  -4.1744  -4.1231  -4.0809  -3.9552  -3.9149  -3.8961  -3.8742
    -3.8365  -3.7688  -3.7646  -3.7151  -3.4585  -3.4301  -3.3594  -3.3456
    -3.3012  -3.2512  -3.2303  -3.1693  -3.1070  -3.0788  -3.0616  -3.0272
    -3.0029  -2.9766  -2.9375  -2.9171  -2.7683  -2.7532  -2.7116  -2.7010
    -2.1568  -2.1193  -2.1132  -2.0999  -2.0387  -1.9522  -1.8915  -1.8748
    -1.8721  -1.8286  -1.7374  -1.7098  -0.4831  -0.4617  -0.3573  -0.3352
     0.0571   0.0839   0.1318   0.1657   0.4637   0.4761   0.4883   0.5081
     0.8547   0.8637   0.9368   0.9553

          k =-0.2500 0.2130-0.2974 ( 19054 PWs)   bands (ev):

   -20.2733 -20.2691 -20.2576 -20.2526 -19.1324 -19.1294 -19.1026 -19.0947
   -18.3445 -18.3406 -18.3266 -18.3229 -15.0739 -15.0699 -15.0549 -15.0511
   -13.4659 -13.4407 -13.4350 -13.4151 -12.7417 -12.7288 -12.7118 -12.6781
   -12.1955 -12.1858 -12.1415 -12.1331 -12.0764 -12.0756 -12.0487 -12.0455
   -11.2287 -11.2071 -11.1562 -11.1370  -9.6806  -9.6594  -9.5944  -9.5854
    -8.7899  -8.7754  -8.6988  -8.6869  -8.4765  -8.4586  -8.4380  -8.3985
    -7.5468  -7.5414  -7.5133  -7.5072  -7.0554  -7.0046  -6.9152  -6.8581
    -6.4412  -6.4223  -6.3961  -6.3688  -6.2015  -6.1788  -6.1471  -6.0878
    -5.9224  -5.8681  -5.7857  -5.7537  -5.7502  -5.7084  -5.6930  -5.6812
    -5.3228  -5.2562  -5.2254  -5.1610  -4.7318  -4.6600  -4.5957  -4.5733
    -4.5510  -4.5045  -4.4607  -4.4026  -4.3691  -4.3349  -4.3124  -4.2538
    -4.2127  -4.1976  -4.0935  -4.0331  -3.9731  -3.9503  -3.8888  -3.8645
    -3.7954  -3.7712  -3.7498  -3.7266  -3.4569  -3.4320  -3.3653  -3.3613
    -3.2928  -3.2460  -3.2256  -3.1520  -3.1138  -3.0787  -3.0720  -3.0036
    -2.9966  -2.9763  -2.9619  -2.9207  -2.7633  -2.7374  -2.7205  -2.6790
    -2.1546  -2.1482  -2.0965  -2.0774  -2.0415  -2.0081  -1.9132  -1.8791
    -1.8503  -1.8144  -1.7399  -1.7246  -0.4765  -0.4689  -0.3551  -0.3381
     0.0633   0.0865   0.1254   0.1591   0.4729   0.4808   0.4911   0.5103
     0.8407   0.8796   0.9408   0.9531

          k =-0.2500 0.2130 0.3255 ( 19064 PWs)   bands (ev):

   -20.2734 -20.2692 -20.2575 -20.2525 -19.1324 -19.1294 -19.1026 -19.0947
   -18.3445 -18.3407 -18.3265 -18.3230 -15.0736 -15.0694 -15.0552 -15.0515
   -13.4627 -13.4498 -13.4271 -13.4171 -12.7378 -12.7325 -12.7116 -12.6783
   -12.2023 -12.1905 -12.1426 -12.1360 -12.0714 -12.0698 -12.0486 -12.0424
   -11.2268 -11.2017 -11.1647 -11.1334  -9.6739  -9.6523  -9.6029  -9.5923
    -8.7926  -8.7560  -8.7202  -8.6803  -8.5093  -8.5008  -8.4051  -8.3521
    -7.5563  -7.5423  -7.5107  -7.4881  -7.0588  -7.0066  -6.9162  -6.8739
    -6.4375  -6.4141  -6.4017  -6.3902  -6.2230  -6.2089  -6.1399  -6.0865
    -5.8700  -5.8404  -5.7808  -5.7639  -5.7414  -5.7091  -5.6911  -5.6602
    -5.3948  -5.3056  -5.1812  -5.1158  -4.7030  -4.6829  -4.6221  -4.6033
    -4.5573  -4.5069  -4.4504  -4.4064  -4.3613  -4.3052  -4.3011  -4.2659
    -4.2178  -4.1784  -4.0755  -4.0464  -3.9859  -3.9250  -3.8926  -3.8553
    -3.7966  -3.7857  -3.7468  -3.7273  -3.4482  -3.4237  -3.3892  -3.3675
    -3.2818  -3.2574  -3.2224  -3.1444  -3.1236  -3.1084  -3.0893  -3.0323
    -2.9842  -2.9551  -2.9392  -2.9251  -2.7643  -2.7244  -2.6724  -2.6410
    -2.2135  -2.1611  -2.1298  -2.1184  -2.0741  -1.9917  -1.9128  -1.8709
    -1.8086  -1.7881  -1.7593  -1.7117  -0.4786  -0.4634  -0.3499  -0.3427
     0.0781   0.0946   0.1215   0.1446   0.4660   0.4770   0.4916   0.5251
     0.8312   0.8912   0.9319   0.9623

          k =-0.2500 0.2130 0.1179 ( 19059 PWs)   bands (ev):

   -20.2735 -20.2693 -20.2573 -20.2524 -19.1324 -19.1294 -19.1025 -19.0947
   -18.3445 -18.3407 -18.3266 -18.3230 -15.0765 -15.0667 -15.0557 -15.0510
   -13.4615 -13.4523 -13.4252 -13.4178 -12.7329 -12.7281 -12.7091 -12.6888
   -12.2025 -12.1910 -12.1301 -12.1256 -12.0813 -12.0697 -12.0620 -12.0439
   -11.2275 -11.1983 -11.1645 -11.1359  -9.6502  -9.6337  -9.6207  -9.6168
    -8.8098  -8.7556  -8.7069  -8.6712  -8.5193  -8.5017  -8.3992  -8.3445
    -7.5608  -7.5398  -7.5204  -7.4854  -7.0927  -6.9799  -6.9066  -6.8986
    -6.4302  -6.4182  -6.3833  -6.3432  -6.2302  -6.2033  -6.1339  -6.0949
    -5.8601  -5.8286  -5.8168  -5.7809  -5.7571  -5.7421  -5.6835  -5.6633
    -5.3836  -5.3040  -5.1424  -5.1227  -4.7061  -4.6855  -4.6413  -4.6098
    -4.5392  -4.4878  -4.4646  -4.4096  -4.3595  -4.3188  -4.2820  -4.2271
    -4.1850  -4.1690  -4.1221  -4.0923  -3.9519  -3.9134  -3.8810  -3.8686
    -3.8436  -3.7886  -3.7530  -3.7151  -3.4520  -3.4240  -3.3775  -3.3541
    -3.2930  -3.2466  -3.2427  -3.1554  -3.1250  -3.0954  -3.0909  -3.0483
    -2.9858  -2.9522  -2.9290  -2.9194  -2.7757  -2.7307  -2.6675  -2.6648
    -2.2130  -2.1539  -2.1372  -2.1112  -2.0592  -1.9698  -1.9134  -1.8551
    -1.8311  -1.7886  -1.7493  -1.7018  -0.4835  -0.4577  -0.3543  -0.3377
     0.0670   0.0953   0.1253   0.1554   0.4587   0.4711   0.4891   0.5216
     0.8372   0.8832   0.9297   0.9628

          k = 0.5000 0.2130-0.0281 ( 19067 PWs)   bands (ev):

   -20.2736 -20.2689 -20.2571 -20.2528 -19.1341 -19.1279 -19.1017 -19.0957
   -18.3452 -18.3398 -18.3273 -18.3221 -15.0752 -15.0709 -15.0558 -15.0524
   -13.4437 -13.4354 -13.4295 -13.4225 -12.7498 -12.7256 -12.7165 -12.6850
   -12.1947 -12.1841 -12.1473 -12.1280 -12.0852 -12.0772 -12.0558 -12.0478
   -11.2338 -11.2087 -11.1426 -11.1318  -9.6794  -9.6467  -9.6080  -9.5874
    -8.7893  -8.7416  -8.7006  -8.6864  -8.5324  -8.4924  -8.4049  -8.3776
    -7.5512  -7.5365  -7.5001  -7.4929  -7.0518  -7.0139  -6.9354  -6.8831
    -6.4274  -6.4070  -6.3898  -6.3738  -6.2236  -6.1664  -6.1350  -6.1100
    -5.9231  -5.8386  -5.8037  -5.7743  -5.7296  -5.7268  -5.6737  -5.6377
    -5.3890  -5.3051  -5.1635  -5.1244  -4.7084  -4.6660  -4.6176  -4.6082
    -4.5131  -4.4765  -4.4609  -4.4473  -4.3760  -4.3239  -4.3161  -4.2331
    -4.2199  -4.1685  -4.0718  -4.0567  -3.9815  -3.9255  -3.8839  -3.8522
    -3.8260  -3.7807  -3.7463  -3.7163  -3.4403  -3.4241  -3.3763  -3.3566
    -3.2826  -3.2681  -3.2332  -3.1663  -3.1348  -3.1069  -3.0877  -3.0362
    -2.9974  -2.9680  -2.9296  -2.9107  -2.7910  -2.7567  -2.7031  -2.6630
    -2.1781  -2.1569  -2.1240  -2.1013  -2.0625  -1.9927  -1.9315  -1.8556
    -1.8155  -1.7908  -1.7420  -1.6944  -0.4923  -0.4816  -0.3529  -0.3455
     0.0726   0.0924   0.1198   0.1390   0.4772   0.4966   0.5025   0.5447
     0.8659   0.9109   0.9420   0.9658

     highest occupied level (ev):     0.9792

!    total energy              =    -897.44684645 Ry
     Harris-Foulkes estimate   =    -897.44684647 Ry
     estimated scf accuracy    <       0.00000002 Ry

     The total energy is the sum of the following terms:

     one-electron contribution =    -719.21649619 Ry
     hartree contribution      =     459.56173630 Ry
     xc contribution           =    -267.28045725 Ry
     ewald contribution        =    -370.05272634 Ry
     Dispersion Correction     =      -0.45890297 Ry

     convergence has been achieved in  13 iterations

     Forces acting on atoms (cartesian axes, Ry/au):

     atom    1 type  1   force =     0.00031332   -0.00022857   -0.00010562
     atom    2 type  1   force =    -0.00031332    0.00022857    0.00010562
     atom    3 type  1   force =    -0.00018432   -0.00047448    0.00054293
     atom    4 type  1   force =     0.00018432    0.00047448   -0.00054293
     atom    5 type  1   force =     0.00031114    0.00060383    0.00050360
     atom    6 type  1   force =    -0.00031114   -0.00060383   -0.00050360
     atom    7 type  1   force =    -0.00018906    0.00067211   -0.00059152
     atom    8 type  1   force =     0.00018906   -0.00067211    0.00059152
     atom    9 type  1   force =     0.00054739    0.00003910   -0.00069478
     atom   10 type  1   force =    -0.00054739   -0.00003910    0.00069478
     atom   11 type  1   force =    -0.00016846   -0.00002902    0.00037666
     atom   12 type  1   force =     0.00016846    0.00002902   -0.00037666
     atom   13 type  1   force =     0.00006583   -0.00009457   -0.00026655
     atom   14 type  1   force =    -0.00006583    0.00009457    0.00026655
     atom   15 type  1   force =     0.00009104   -0.00024771    0.00050962
     atom   16 type  1   force =    -0.00009104    0.00024771   -0.00050962
     atom   17 type  1   force =     0.00018120   -0.00008055   -0.00026801
     atom   18 type  1   force =    -0.00018120    0.00008055    0.00026801
     atom   19 type  1   force =     0.00003780    0.00017513   -0.00007165
     atom   20 type  1   force =    -0.00003780   -0.00017513    0.00007165
     atom   21 type  1   force =     0.00001773   -0.00008216    0.00007324
     atom   22 type  1   force =    -0.00001773    0.00008216   -0.00007324
     atom   23 type  1   force =     0.00022583    0.00008167   -0.00030448
     atom   24 type  1   force =    -0.00022583   -0.00008167    0.00030448
     atom   25 type  1   force =    -0.00001123    0.00000558    0.00002226
     atom   26 type  1   force =     0.00001123   -0.00000558   -0.00002226
     atom   27 type  1   force =    -0.00008704    0.00023503   -0.00003814
     atom   28 type  1   force =     0.00008704   -0.00023503    0.00003814
     atom   29 type  1   force =     0.00005531    0.00040229    0.00033543
     atom   30 type  1   force =    -0.00005531   -0.00040229   -0.00033543
     atom   31 type  1   force =     0.00023659    0.00053505   -0.00053014
     atom   32 type  1   force =    -0.00023659   -0.00053505    0.00053014
     atom   33 type  1   force =    -0.00022525   -0.00030619   -0.00038853
     atom   34 type  1   force =     0.00022525    0.00030619    0.00038853
     atom   35 type  1   force =     0.00031544   -0.00013612    0.00019903
     atom   36 type  1   force =    -0.00031544    0.00013612   -0.00019903
     atom   37 type  1   force =     0.00039124   -0.00000223   -0.00016053
     atom   38 type  1   force =    -0.00039124    0.00000223    0.00016053
     atom   39 type  1   force =     0.00003812   -0.00030696    0.00048147
     atom   40 type  1   force =    -0.00003812    0.00030696   -0.00048147
     atom   41 type  1   force =     0.00022103    0.00005118    0.00031613
     atom   42 type  1   force =    -0.00022103   -0.00005118   -0.00031613
     atom   43 type  1   force =    -0.00015291    0.00025657   -0.00045720
     atom   44 type  1   force =     0.00015291   -0.00025657    0.00045720
     atom   45 type  3   force =     0.00012785    0.00015673    0.00013924
     atom   46 type  3   force =    -0.00012785   -0.00015673   -0.00013924
     atom   47 type  3   force =    -0.00011587    0.00014784    0.00010502
     atom   48 type  3   force =     0.00011587   -0.00014784   -0.00010502
     atom   49 type  3   force =    -0.00005936   -0.00028921   -0.00052518
     atom   50 type  3   force =     0.00005936    0.00028921    0.00052518
     atom   51 type  3   force =     0.00032293   -0.00023823    0.00044664
     atom   52 type  3   force =    -0.00032293    0.00023823   -0.00044664
     atom   53 type  2   force =     0.00011530   -0.00026772   -0.00006353
     atom   54 type  2   force =    -0.00011530    0.00026772    0.00006353
     atom   55 type  2   force =     0.00059718    0.00014120    0.00056044
     atom   56 type  2   force =    -0.00059718   -0.00014120   -0.00056044
     atom   57 type  2   force =     0.00016722    0.00025731   -0.00021012
     atom   58 type  2   force =    -0.00016722   -0.00025731    0.00021012
     atom   59 type  2   force =     0.00012645    0.00004088    0.00042946
     atom   60 type  2   force =    -0.00012645   -0.00004088   -0.00042946
     atom   61 type  2   force =    -0.00004956   -0.00012260   -0.00001588
     atom   62 type  2   force =     0.00004956    0.00012260    0.00001588
     atom   63 type  2   force =     0.00025743   -0.00067599    0.00022436
     atom   64 type  2   force =    -0.00025743    0.00067599   -0.00022436
     atom   65 type  2   force =     0.00030099   -0.00039239    0.00000774
     atom   66 type  2   force =    -0.00030099    0.00039239   -0.00000774
     atom   67 type  2   force =    -0.00007279   -0.00047616   -0.00016294
     atom   68 type  2   force =     0.00007279    0.00047616    0.00016294
     atom   69 type  2   force =     0.00036244    0.00027092    0.00037734
     atom   70 type  2   force =    -0.00036244   -0.00027092   -0.00037734
     atom   71 type  2   force =    -0.00056871    0.00022537   -0.00030397
     atom   72 type  2   force =     0.00056871   -0.00022537    0.00030397
     atom   73 type  2   force =    -0.00047229   -0.00006150   -0.00026450
     atom   74 type  2   force =     0.00047229    0.00006150    0.00026450
     atom   75 type  2   force =     0.00097299   -0.00023711   -0.00025901
     atom   76 type  2   force =    -0.00097299    0.00023711    0.00025901
     atom   77 type  2   force =     0.00000633    0.00022623   -0.00022446
     atom   78 type  2   force =    -0.00000633   -0.00022623    0.00022446
     atom   79 type  2   force =    -0.00015507    0.00018504    0.00021794
     atom   80 type  2   force =     0.00015507   -0.00018504   -0.00021794
     atom   81 type  2   force =    -0.00016605   -0.00019552    0.00032257
     atom   82 type  2   force =     0.00016605    0.00019552   -0.00032257
     atom   83 type  2   force =     0.00015300    0.00001863   -0.00020180
     atom   84 type  2   force =    -0.00015300   -0.00001863    0.00020180
     atom   85 type  2   force =    -0.00001734   -0.00012466   -0.00027332
     atom   86 type  2   force =     0.00001734    0.00012466    0.00027332
     atom   87 type  2   force =    -0.00001843    0.00013039   -0.00011803
     atom   88 type  2   force =     0.00001843   -0.00013039    0.00011803
     atom   89 type  2   force =    -0.00025641    0.00009502    0.00019879
     atom   90 type  2   force =     0.00025641   -0.00009502   -0.00019879
     atom   91 type  2   force =     0.00033149    0.00030713   -0.00019770
     atom   92 type  2   force =    -0.00033149   -0.00030713    0.00019770
     atom   93 type  2   force =    -0.00014024   -0.00021592    0.00020757
     atom   94 type  2   force =     0.00014024    0.00021592   -0.00020757
     atom   95 type  2   force =    -0.00000170   -0.00002294   -0.00022321
     atom   96 type  2   force =     0.00000170    0.00002294    0.00022321
     atom   97 type  2   force =    -0.00002218    0.00021773    0.00010730
     atom   98 type  2   force =     0.00002218   -0.00021773   -0.00010730
     atom   99 type  2   force =    -0.00010281    0.00049110   -0.00030332
     atom  100 type  2   force =     0.00010281   -0.00049110    0.00030332
     atom  101 type  2   force =     0.00016938   -0.00022647    0.00004959
     atom  102 type  2   force =    -0.00016938    0.00022647   -0.00004959
     atom  103 type  2   force =    -0.00005835   -0.00010902   -0.00036935
     atom  104 type  2   force =     0.00005835    0.00010902    0.00036935
     atom  105 type  4   force =     0.00017734   -0.00014374    0.00009563
     atom  106 type  4   force =    -0.00017734    0.00014374   -0.00009563
     atom  107 type  4   force =     0.00008121    0.00020043   -0.00001017
     atom  108 type  4   force =    -0.00008121   -0.00020043    0.00001017

     Total force =     0.005172     Total SCF correction =     0.000292

     BFGS Geometry Optimization

     bfgs converged in   1 scf cycles and   0 bfgs steps
     (criteria: energy <  1.0E-04 Ry, force <  1.0E-03 Ry/Bohr)

     End of BFGS Geometry Optimization

     Final energy   =    -897.4468464531 Ry
Begin final coordinates

ATOMIC_POSITIONS (angstrom)
C        0.549514072   2.421374300   3.556488556
C        4.539395309   8.098625306   7.235976713
C        1.995123976   7.692909531   1.813118329
C        3.093784921   2.827090184   8.979347371
C       -0.748953055   2.084530153   4.185679295
C        5.837861878   8.435470498   6.606785186
C        3.295987872   7.360003999   1.179567445
C        1.792921157   3.159996564   9.612898236
C        1.435127685   3.316548346   4.234244054
C        3.653781311   7.203451509   6.558221175
C        1.098278396   8.583572493   1.143648551
C        3.990630383   1.936427193   9.648817413
C        7.251159317   1.292265353   3.496459829
C       -2.162250183   9.227734282   7.296005362
C        4.263793700   6.567835059   1.863929872
C        0.825115144   3.952164761   8.928535319
C        0.970488976   1.888840398   2.320670809
C        4.118420029   8.631159433   8.471794366
C        1.579305449   7.151430100   3.044341741
C        3.509603411   3.368569674   7.748123897
C        2.678295717   3.642642044   3.669456995
C        2.410613303   6.877357815   7.123008242
C       -0.146972007   8.901566500   1.712336134
C        5.235880891   1.618433562   9.080129731
C        6.062637098   0.936608152   4.107269838
C       -0.973728107   9.583391721   6.685195120
C        5.452321670   6.215689493   1.250017266
C       -0.363412782   4.304310462   9.542447915
C        3.058647993   3.089707882   2.454185946
C        2.030261315   7.430292042   8.338279347
C       -0.523905642   8.337177928   2.923469041
C        5.612814294   2.182821823   7.868996545
C        5.070386785  10.352406118   2.168238758
C        0.018522303   0.167593817   8.624226233
C        6.445990140   5.091083700   3.178331724
C       -1.357081047   5.428916303   7.614133350
C        2.205883415   2.208877393   1.773964591
C        2.883025587   8.311122744   9.018500850
C        0.340480734   7.458123752   3.592445250
C        4.748428287   3.061876449   7.200020463
C        3.867803013  10.425179369   4.328347219
C        1.221106058   0.094820593   6.464117963
C        7.644597258   5.182803959   1.020785270
C       -2.555688266   5.337196038   9.771679755
O       -0.972903437   2.549156506   5.370477269
O        6.061817752   7.970844084   5.421988369
O        3.517018292   7.822732614  -0.004446000
O        1.571887794   2.697267362  10.796910898
O        1.094482805   3.862249908   5.419023583
O        3.994426103   6.657749864   5.373441695
O       -2.440001948   9.126370458  10.747142584
O        7.528910428   1.393629389   0.045323519
H        0.169941586   3.394053387   5.620683299
H        4.918967482   7.125947124   5.171782502
H       -1.519650433   8.659061474  10.539363878
H        6.608558937   1.860938778   0.253101860
H        7.458164154   0.972216259   2.480866388
H       -2.369254956   9.547783673   8.311598699
H        4.059151831   6.244330595   2.879199549
H        1.029757307   4.275669292   7.913265749
H        0.320387428   1.208759676   1.775770016
H        4.768521602   9.311240187   9.016695171
H        2.234554546   6.476222313   3.588784189
H        2.854354535   4.043777674   7.203681399
H        3.318448619   4.339668349   4.212268353
H        1.770460508   6.180331411   6.580196848
H        8.172766910   9.598269321   1.173809861
H       -3.083857972   0.921730527   9.618655670
H        5.906208936   1.228211951   5.147627288
H       -0.817299717   9.291787980   5.644837668
H        5.609526031   6.514049142   0.211815247
H       -0.520617240   4.005950856  10.580649940
H        4.027918910   3.334553184   2.016044194
H        1.060990325   7.185446798   8.776420907
H        7.471412595   8.573544642   3.369065174
H       -2.382503865   1.946455351   7.423400428
H        5.462063882   0.633691703   1.532361864
H       -0.373154787   9.886308289   9.260103205
H        6.051028603   5.884356819   3.823350709
H       -0.962119508   4.635643200   6.969114335
H        4.047050825  10.123682585   1.851514446
H        1.041858258   0.396317353   8.940950572
H        7.470832773   4.863321278   3.491160175
H       -2.381923624   5.656678772   7.301304769
H        5.685108987   9.447435276   2.042547861
H       -0.596199743   1.072564729   8.749917261
H        5.835918911   4.181815081   3.297179141
H       -0.747009719   6.338184877   7.495286019
H        2.515508791   1.774510058   0.823695150
H        2.573400127   8.745489977   9.968770332
H        0.037114536   7.013163179   4.540066596
H        5.051794436   3.506836797   6.252398968
H        3.979166279   0.264547122   5.357440005
H        1.109743070  10.255452849   5.435025148
H        7.532271069   5.542138068  -0.007956813
H       -2.443362018   4.977861965  10.800421845
H        3.737579118   9.332512771   4.339873226
H        1.351330031   1.187487179   6.452591883
H        7.778647262   4.090390784   1.009864843
H       -2.689738273   6.429609207   9.782600171
H        2.980486267   0.369689750   3.870035045
H        2.108422799  10.150310337   6.922430271
H       -0.433307989   5.648798673   1.480377021
H        5.522216942   4.871201334   9.312088089
N        5.052193609   0.259406655   3.559221547
N        0.036715271  10.260593372   7.233243401
N        6.461147693   5.531955923   1.791766516
N       -1.372238621   4.988044202   9.000698587
End final coordinates



     Writing output data file 2hp_1_444.save
 
     init_run     :    168.46s CPU    171.09s WALL (       1 calls)
     electrons    :   4344.02s CPU   4399.53s WALL (       1 calls)
     forces       :     61.17s CPU     61.43s WALL (       1 calls)

     Called by init_run:
     wfcinit      :    164.63s CPU    166.80s WALL (       1 calls)
     potinit      :      1.51s CPU      1.53s WALL (       1 calls)

     Called by electrons:
     c_bands      :   3907.63s CPU   3960.14s WALL (      13 calls)
     sum_band     :    423.80s CPU    425.41s WALL (      13 calls)
     v_of_rho     :      2.07s CPU      2.08s WALL (      14 calls)
     newd         :      3.95s CPU      5.39s WALL (      14 calls)
     mix_rho      :      0.49s CPU      0.53s WALL (      13 calls)

     Called by c_bands:
     init_us_2    :     44.65s CPU     44.69s WALL (    1008 calls)
     cegterg      :   3756.83s CPU   3809.15s WALL (     468 calls)

     Called by sum_band:
     sum_band:bec :      0.24s CPU      0.25s WALL (     468 calls)
     addusdens    :      4.33s CPU      5.66s WALL (      13 calls)

     Called by *egterg:
     h_psi        :   2316.70s CPU   2319.07s WALL (    2293 calls)
     s_psi        :    502.65s CPU    502.67s WALL (    2293 calls)
     g_psi        :     18.21s CPU     18.21s WALL (    1789 calls)
     cdiaghg      :    128.89s CPU    129.20s WALL (    2257 calls)

     Called by h_psi:
     h_psi:pot    :   2294.64s CPU   2296.35s WALL (    2293 calls)
     h_psi:calbec :    458.92s CPU    459.07s WALL (    2293 calls)
     vloc_psi     :   1333.28s CPU   1334.81s WALL (    2293 calls)
     add_vuspsi   :    502.43s CPU    502.46s WALL (    2293 calls)

     General routines
     calbec       :    650.94s CPU    651.09s WALL (    2905 calls)
     fft          :      0.77s CPU      1.07s WALL (     183 calls)
     fftw         :   1333.61s CPU   1335.03s WALL (  488006 calls)
     davcio       :      0.02s CPU      1.14s WALL (      36 calls)
 
     Parallel routines
     fft_scatter  :    156.87s CPU    157.15s WALL (  488189 calls)
 
     PWSCF        :     1h16m CPU        1h17m WALL

 
   This run was terminated on:  16:38:54   5Oct2017            

=------------------------------------------------------------------------------=
   JOB DONE.
=------------------------------------------------------------------------------=
