 Entering Gaussian System, Link 0=g09
 Input=2hc_1_rel-mega_dimer_0_mon-1.com
 Output=2hc_1_rel-mega_dimer_0_mon-1.out
 Initial command:
 /share/apps/gaussian/g09_D01/g09/l1.exe "/tmp/162428.1.all.q/Gau-3739.inp" -scrdir="/tmp/162428.1.all.q/"
 Entering Link 1 = /share/apps/gaussian/g09_D01/g09/l1.exe PID=      3740.
  
 Copyright (c) 1988,1990,1992,1993,1995,1998,2003,2009,2013,
            Gaussian, Inc.  All Rights Reserved.
  
 This is part of the Gaussian(R) 09 program.  It is based on
 the Gaussian(R) 03 system (copyright 2003, Gaussian, Inc.),
 the Gaussian(R) 98 system (copyright 1998, Gaussian, Inc.),
 the Gaussian(R) 94 system (copyright 1995, Gaussian, Inc.),
 the Gaussian 92(TM) system (copyright 1992, Gaussian, Inc.),
 the Gaussian 90(TM) system (copyright 1990, Gaussian, Inc.),
 the Gaussian 88(TM) system (copyright 1988, Gaussian, Inc.),
 the Gaussian 86(TM) system (copyright 1986, Carnegie Mellon
 University), and the Gaussian 82(TM) system (copyright 1983,
 Carnegie Mellon University). Gaussian is a federally registered
 trademark of Gaussian, Inc.
  
 This software contains proprietary and confidential information,
 including trade secrets, belonging to Gaussian, Inc.
  
 This software is provided under written license and may be
 used, copied, transmitted, or stored only in accord with that
 written license.
  
 The following legend is applicable only to US Government
 contracts under FAR:
  
                    RESTRICTED RIGHTS LEGEND
  
 Use, reproduction and disclosure by the US Government is
 subject to restrictions as set forth in subparagraphs (a)
 and (c) of the Commercial Computer Software - Restricted
 Rights clause in FAR 52.227-19.
  
 Gaussian, Inc.
 340 Quinnipiac St., Bldg. 40, Wallingford CT 06492
  
  
 ---------------------------------------------------------------
 Warning -- This program may not be used in any manner that
 competes with the business of Gaussian, Inc. or will provide
 assistance to any competitor of Gaussian, Inc.  The licensee
 of this program is prohibited from giving any competitor of
 Gaussian, Inc. access to this program.  By using this program,
 the user acknowledges that Gaussian, Inc. is engaged in the
 business of creating and licensing software in the field of
 computational chemistry and represents and warrants to the
 licensee that it is not a competitor of Gaussian, Inc. and that
 it will not use this program in any manner prohibited above.
 ---------------------------------------------------------------
  

 Cite this work as:
 Gaussian 09, Revision D.01,
 M. J. Frisch, G. W. Trucks, H. B. Schlegel, G. E. Scuseria, 
 M. A. Robb, J. R. Cheeseman, G. Scalmani, V. Barone, B. Mennucci, 
 G. A. Petersson, H. Nakatsuji, M. Caricato, X. Li, H. P. Hratchian, 
 A. F. Izmaylov, J. Bloino, G. Zheng, J. L. Sonnenberg, M. Hada, 
 M. Ehara, K. Toyota, R. Fukuda, J. Hasegawa, M. Ishida, T. Nakajima, 
 Y. Honda, O. Kitao, H. Nakai, T. Vreven, J. A. Montgomery, Jr., 
 J. E. Peralta, F. Ogliaro, M. Bearpark, J. J. Heyd, E. Brothers, 
 K. N. Kudin, V. N. Staroverov, T. Keith, R. Kobayashi, J. Normand, 
 K. Raghavachari, A. Rendell, J. C. Burant, S. S. Iyengar, J. Tomasi, 
 M. Cossi, N. Rega, J. M. Millam, M. Klene, J. E. Knox, J. B. Cross, 
 V. Bakken, C. Adamo, J. Jaramillo, R. Gomperts, R. E. Stratmann, 
 O. Yazyev, A. J. Austin, R. Cammi, C. Pomelli, J. W. Ochterski, 
 R. L. Martin, K. Morokuma, V. G. Zakrzewski, G. A. Voth, 
 P. Salvador, J. J. Dannenberg, S. Dapprich, A. D. Daniels, 
 O. Farkas, J. B. Foresman, J. V. Ortiz, J. Cioslowski, 
 and D. J. Fox, Gaussian, Inc., Wallingford CT, 2013.
 
 ******************************************
 Gaussian 09:  ES64L-G09RevD.01 24-Apr-2013
                 6-Nov-2017 
 ******************************************
 %chk=2hc_1_rel-mega_dimer_0.chk
 %nproc=4
 Will use up to    4 processors via shared memory.
 %mem=28GB
 ------------------------------------------
 #p wb97xd 6-311++G** td=(nstates=4) nosymm
 ------------------------------------------
 1/38=1/1;
 2/12=2,15=1,17=6,18=5,40=1/2;
 3/5=4,6=6,7=1111,11=9,16=1,25=1,30=1,74=-58/1,2,8,3;
 4//1;
 5/5=2,38=5/2;
 8/6=1,10=2,108=4/1;
 9/41=4,42=1,70=2/14;
 6/7=2,8=2,9=2,10=2/1;
 99/5=1,9=1/99;
 Leave Link    1 at Mon Nov  6 19:49:51 2017, MaxMem=  3758096384 cpu:         0.1
 (Enter /share/apps/gaussian/g09_D01/g09/l101.exe)
 -----
 Title
 -----
 Symbolic Z-matrix:
 Charge =  0 Multiplicity = 1
 C                    -2.78161  -1.92986   4.94906 
 C                    -3.89957  -1.10495   4.62304 
 H                    -2.8573   -2.66721   5.74398 
 C                    -1.5894   -1.80698   4.27351 
 C                    -3.73394  -0.16755   3.56643 
 N                    -5.07346  -1.20934   5.29752 
 C                    -1.41541  -0.872     3.22288 
 H                    -0.76491  -2.4603    4.56163 
 C                    -2.53385  -0.06773   2.89681 
 H                    -4.56211   0.46939   3.26587 
 C                    -5.21879  -2.19137   6.36071 
 C                    -6.18705  -0.32491   4.98381 
 C                    -0.21471  -0.74557   2.45765 
 H                    -2.43648   0.64979   2.08077 
 H                    -5.02617  -3.20909   5.98734 
 H                    -6.23846  -2.15122   6.75469 
 H                    -4.51921  -1.99012   7.18556 
 H                    -7.00493  -0.51606   5.68534 
 H                    -6.55497  -0.49358   3.95992 
 H                    -5.8863    0.73007   5.07245 
 C                     0.96817  -1.41246   2.64576 
 H                    -0.25758  -0.05055   1.61209 
 C                     2.08824  -1.23843   1.75948 
 H                     1.07416  -2.09981   3.4826 
 C                     3.38002  -1.90119   2.02727 
 O                     1.99078  -0.49847   0.71343 
 C                     4.46043  -1.698     1.11664 
 C                     3.61705  -2.72362   3.1491 
 H                     3.31167  -0.61359   0.09184 
 O                     4.30303  -0.94423   0.0109 
 C                     5.7133   -2.28044   1.366 
 C                     4.85279  -3.30849   3.38016 
 H                     2.81664  -2.92067   3.86049 
 C                     5.90593  -3.07695   2.48504 
 H                     6.5213   -2.07337   0.66433 
 H                     5.00161  -3.94637   4.25093 
 H                     6.88356  -3.52291   2.6748 
 
 NAtoms=     37 NQM=       37 NQMF=       0 NMMI=      0 NMMIF=      0
                NMic=       0 NMicF=      0.
                    Isotopes and Nuclear Properties:
 (Nuclear quadrupole moments (NQMom) in fm**2, nuclear magnetic moments (NMagM)
  in nuclear magnetons)

  Atom         1           2           3           4           5           6           7           8           9          10
 IAtWgt=          12          12           1          12          12          14          12           1          12           1
 AtmWgt=  12.0000000  12.0000000   1.0078250  12.0000000  12.0000000  14.0030740  12.0000000   1.0078250  12.0000000   1.0078250
 NucSpn=           0           0           1           0           0           2           0           1           0           1
 AtZEff=   0.0000000   0.0000000   0.0000000   0.0000000   0.0000000   0.0000000   0.0000000   0.0000000   0.0000000   0.0000000
 NQMom=    0.0000000   0.0000000   0.0000000   0.0000000   0.0000000   2.0440000   0.0000000   0.0000000   0.0000000   0.0000000
 NMagM=    0.0000000   0.0000000   2.7928460   0.0000000   0.0000000   0.4037610   0.0000000   2.7928460   0.0000000   2.7928460
 AtZNuc=   6.0000000   6.0000000   1.0000000   6.0000000   6.0000000   7.0000000   6.0000000   1.0000000   6.0000000   1.0000000

  Atom        11          12          13          14          15          16          17          18          19          20
 IAtWgt=          12          12          12           1           1           1           1           1           1           1
 AtmWgt=  12.0000000  12.0000000  12.0000000   1.0078250   1.0078250   1.0078250   1.0078250   1.0078250   1.0078250   1.0078250
 NucSpn=           0           0           0           1           1           1           1           1           1           1
 AtZEff=   0.0000000   0.0000000   0.0000000   0.0000000   0.0000000   0.0000000   0.0000000   0.0000000   0.0000000   0.0000000
 NQMom=    0.0000000   0.0000000   0.0000000   0.0000000   0.0000000   0.0000000   0.0000000   0.0000000   0.0000000   0.0000000
 NMagM=    0.0000000   0.0000000   0.0000000   2.7928460   2.7928460   2.7928460   2.7928460   2.7928460   2.7928460   2.7928460
 AtZNuc=   6.0000000   6.0000000   6.0000000   1.0000000   1.0000000   1.0000000   1.0000000   1.0000000   1.0000000   1.0000000

  Atom        21          22          23          24          25          26          27          28          29          30
 IAtWgt=          12           1          12           1          12          16          12          12           1          16
 AtmWgt=  12.0000000   1.0078250  12.0000000   1.0078250  12.0000000  15.9949146  12.0000000  12.0000000   1.0078250  15.9949146
 NucSpn=           0           1           0           1           0           0           0           0           1           0
 AtZEff=   0.0000000   0.0000000   0.0000000   0.0000000   0.0000000   0.0000000   0.0000000   0.0000000   0.0000000   0.0000000
 NQMom=    0.0000000   0.0000000   0.0000000   0.0000000   0.0000000   0.0000000   0.0000000   0.0000000   0.0000000   0.0000000
 NMagM=    0.0000000   2.7928460   0.0000000   2.7928460   0.0000000   0.0000000   0.0000000   0.0000000   2.7928460   0.0000000
 AtZNuc=   6.0000000   1.0000000   6.0000000   1.0000000   6.0000000   8.0000000   6.0000000   6.0000000   1.0000000   8.0000000

  Atom        31          32          33          34          35          36          37
 IAtWgt=          12          12           1          12           1           1           1
 AtmWgt=  12.0000000  12.0000000   1.0078250  12.0000000   1.0078250   1.0078250   1.0078250
 NucSpn=           0           0           1           0           1           1           1
 AtZEff=   0.0000000   0.0000000   0.0000000   0.0000000   0.0000000   0.0000000   0.0000000
 NQMom=    0.0000000   0.0000000   0.0000000   0.0000000   0.0000000   0.0000000   0.0000000
 NMagM=    0.0000000   0.0000000   2.7928460   0.0000000   2.7928460   2.7928460   2.7928460
 AtZNuc=   6.0000000   6.0000000   1.0000000   6.0000000   1.0000000   1.0000000   1.0000000
 Leave Link  101 at Mon Nov  6 19:49:51 2017, MaxMem=  3758096384 cpu:         0.2
 (Enter /share/apps/gaussian/g09_D01/g09/l202.exe)
                          Input orientation:                          
 ---------------------------------------------------------------------
 Center     Atomic      Atomic             Coordinates (Angstroms)
 Number     Number       Type             X           Y           Z
 ---------------------------------------------------------------------
      1          6           0       -2.781614   -1.929857    4.949057
      2          6           0       -3.899567   -1.104949    4.623044
      3          1           0       -2.857302   -2.667213    5.743983
      4          6           0       -1.589403   -1.806976    4.273514
      5          6           0       -3.733940   -0.167547    3.566427
      6          7           0       -5.073462   -1.209339    5.297522
      7          6           0       -1.415409   -0.871998    3.222876
      8          1           0       -0.764905   -2.460304    4.561627
      9          6           0       -2.533855   -0.067726    2.896805
     10          1           0       -4.562114    0.469394    3.265867
     11          6           0       -5.218792   -2.191368    6.360707
     12          6           0       -6.187049   -0.324912    4.983813
     13          6           0       -0.214710   -0.745572    2.457648
     14          1           0       -2.436476    0.649787    2.080770
     15          1           0       -5.026172   -3.209094    5.987337
     16          1           0       -6.238463   -2.151217    6.754688
     17          1           0       -4.519211   -1.990120    7.185557
     18          1           0       -7.004935   -0.516059    5.685339
     19          1           0       -6.554969   -0.493575    3.959922
     20          1           0       -5.886296    0.730066    5.072453
     21          6           0        0.968167   -1.412456    2.645758
     22          1           0       -0.257580   -0.050548    1.612086
     23          6           0        2.088236   -1.238428    1.759478
     24          1           0        1.074163   -2.099815    3.482603
     25          6           0        3.380024   -1.901192    2.027274
     26          8           0        1.990780   -0.498466    0.713431
     27          6           0        4.460431   -1.697998    1.116638
     28          6           0        3.617050   -2.723616    3.149104
     29          1           0        3.311671   -0.613585    0.091837
     30          8           0        4.303032   -0.944233    0.010896
     31          6           0        5.713299   -2.280435    1.366002
     32          6           0        4.852786   -3.308490    3.380164
     33          1           0        2.816640   -2.920673    3.860494
     34          6           0        5.905928   -3.076949    2.485036
     35          1           0        6.521299   -2.073366    0.664330
     36          1           0        5.001608   -3.946366    4.250925
     37          1           0        6.883564   -3.522908    2.674804
 ---------------------------------------------------------------------
                    Distance matrix (angstroms):
                    1          2          3          4          5
     1  C    0.000000
     2  C    1.427087   0.000000
     3  H    1.086890   2.187119   0.000000
     4  C    1.375800   2.439646   2.123642   0.000000
     5  C    2.433994   1.422179   3.429078   2.790473   0.000000
     6  N    2.427579   1.357883   2.689998   3.680276   2.424116
     7  C    2.442393   2.861080   3.414357   1.417144   2.447420
     8  H    2.120988   3.415679   2.412240   1.090708   3.881021
     9  C    2.782203   2.433290   3.868898   2.410873   1.377883
    10  H    3.429244   2.181617   4.345773   3.877399   1.087153
    11  C    2.828600   2.437239   2.486647   4.204354   3.756147
    12  C    3.764843   2.443601   4.141431   4.882559   2.837515
    13  C    3.768109   4.289086   4.634220   2.512713   3.734767
    14  H    3.873081   3.418024   4.959709   3.400198   2.135094
    15  H    2.784334   2.749174   2.248745   4.088338   4.096545
    16  H    3.906291   3.333019   3.566515   5.280955   4.513601
    17  H    2.832809   2.781000   2.301854   4.134889   4.127533
    18  H    4.514131   3.334452   4.672661   5.743492   3.912883
    19  H    4.156862   2.804402   4.645462   5.145892   2.866939
    20  H    4.090167   2.741595   4.600789   5.053531   2.776051
    21  C    4.430998   5.262989   5.080121   3.057188   4.950479
    22  H    4.586712   4.841663   5.538778   3.455719   3.989764
    23  C    5.862331   6.638645   6.509689   4.490952   6.189474
    24  H    4.128727   5.198880   4.570798   2.793900   5.182523
    25  C    6.819342   7.769458   7.301024   5.454326   7.482179
    26  O    6.539507   7.095709   7.315314   5.215755   6.404804
    27  C    8.196854   9.084941   8.712113   6.824825   8.688582
    28  C    6.694235   7.828928   6.975228   5.404783   7.793889
    29  H    7.902739   8.530840   8.615125   6.552185   7.868441
    30  O    8.691898   9.411714   9.333131   7.323594   8.822582
    31  C    9.226307  10.217499   9.631797   7.874468   9.927562
    32  C    7.914930   9.110655   8.089767   6.674910   9.145058
    33  H    5.788535   6.998984   5.983761   4.563345   7.111700
    34  C    9.102780  10.227785   9.358569   7.809704  10.127245
    35  H   10.243226  11.189446  10.682401   8.881478  10.827014
    36  H    8.070455   9.351098   8.101106   6.929569   9.542422
    37  H   10.056128  11.221323  10.248734   8.791557  11.170713
                    6          7          8          9         10
     6  N    0.000000
     7  C    4.218922   0.000000
     8  H    4.546440   2.176724   0.000000
     9  C    3.676456   1.415661   3.409581   0.000000
    10  H    2.684631   3.420955   4.967990   2.130385   0.000000
    11  C    1.454601   5.104159   4.811042   4.870047   4.133874
    12  C    1.456262   5.115540   5.842755   4.215160   2.494529
    13  C    5.646896   1.429418   2.769431   2.455762   4.585769
    14  H    4.556044   2.159355   4.315260   1.090972   2.440355
    15  H    2.115916   5.112912   4.555407   5.062729   4.599242
    16  H    2.089903   6.113260   5.904650   5.740062   4.674358
    17  H    2.116953   5.156222   4.604443   5.102022   4.627636
    18  H    2.088451   6.118269   6.631802   5.288429   3.576638
    19  H    2.120461   5.205912   6.144503   4.181019   2.319589
    20  H    2.114863   5.096702   6.055415   4.075387   2.255030
    21  C    6.601090   2.511293   2.787845   3.759718   5.874513
    22  H    6.173974   2.147089   3.842407   2.613853   4.640511
    23  C    7.988024   3.814621   4.181559   4.901814   7.029439
    24  H    6.471489   2.788003   2.162502   4.182145   6.198018
    25  C    9.090358   5.048255   4.890398   6.252331   8.380414
    26  O    8.451198   4.247230   5.123595   5.042319   7.098739
    27  C   10.421789   6.296349   6.305014   7.399109   9.524867
    28  C    9.079302   5.362795   4.611516   6.704554   8.781097
    29  H    9.887595   5.675867   6.325177   6.506611   8.558259
    30  O   10.767420   6.559162   6.977937   7.472601   9.549031
    31  C   11.530755   7.500010   7.225752   8.674963  10.805330
    32  C   10.325362   6.726924   5.802907   8.080758  10.145236
    33  H    8.200453   4.744878   3.678450   6.139691   8.141999
    34  C   11.486734   7.681679   7.013736   8.969666  11.079989
    35  H   12.516049   8.425009   8.272086   9.539515  11.665148
    36  H   10.492555   7.189348   5.963018   8.582581  10.579889
    37  H   12.457998   8.729299   7.949107  10.033711  12.136366
                   11         12         13         14         15
    11  C    0.000000
    12  C    2.513368   0.000000
    13  C    6.508843   6.498253   0.000000
    14  H    5.842200   4.841952   2.650530   0.000000
    15  H    1.101033   3.266987   6.455835   6.071141   0.000000
    16  H    1.093875   2.544412   7.531666   6.644264   1.782577
    17  H    1.100133   3.225256   6.513889   6.112753   1.782874
    18  H    2.540293   1.094355   7.521823   5.934891   3.355465
    19  H    3.229805   1.100984   6.520676   4.669098   3.717751
    20  H    3.261892   1.100585   6.417289   4.567042   4.134466
    21  C    7.258513   7.605680   1.370882   4.020404   7.094093
    22  H    7.193479   6.826597   1.095386   2.336177   7.201299
    23  C    8.687466   8.928112   2.456402   4.913411   8.507239
    24  H    6.920487   7.624245   2.132065   4.674402   6.687173
    25  C    9.633404  10.136798   3.800367   6.351537   9.383860
    26  O    9.313193   9.227306   2.822683   4.773751   9.186904
    27  C   11.019575  11.410926   4.956043   7.349080  10.770458
    28  C    9.416464  10.258669   4.367282   7.011873   9.110244
    29  H   10.703127  10.688332   4.248511   6.212339  10.536281
    30  O   11.512627  11.625630   5.141600   7.228156  11.308470
    31  C   12.019385  12.590906   6.220031   8.689990  11.728401
    32  C   10.562589  11.547787   5.753182   8.395816  10.217683
    33  H    8.446959   9.437491   3.985991   6.596274   8.131196
    34  C   11.813741  12.651391   6.549678   9.145911  11.480174
    35  H   13.049612  13.535772   7.095974   9.469086  12.765906
    36  H   10.582428  11.782958   6.377374   9.008845  10.203679
    37  H   12.721081  13.652825   7.625369  10.228754  12.365806
                   16         17         18         19         20
    16  H    0.000000
    17  H    1.779727   0.000000
    18  H    2.098744   3.256122   0.000000
    19  H    3.264762   4.097399   1.783266   0.000000
    20  H    3.354956   3.705879   1.783202   1.783857   0.000000
    21  C    8.328541   7.145263   8.579798   7.692135   7.580430
    22  H    8.162728   7.279218   7.895245   6.735408   6.653265
    23  C    9.752908   8.582874   9.930758   8.949958   8.856858
    24  H    8.011472   6.708929   8.522450   7.810986   7.680094
    25  C   10.720366   9.434707  11.097180  10.218640  10.102540
    26  O   10.341606   9.300184  10.278281   9.141638   9.086181
    27  C   12.102039  10.842098  12.398574  11.440015  11.340138
    28  C   10.509948   9.112064  11.141470  10.445117  10.292754
    29  H   11.745763  10.655441  11.735806  10.598447  10.545830
    30  O   12.572138  11.419353  12.659098  11.562616  11.499784
    31  C   13.111035  11.775218  13.547072  12.666163  12.543983
    32  C   11.650858  10.200659  12.398268  11.764214  11.597485
    33  H    9.537469   8.107816  10.274997   9.681309   9.515137
    34  C   12.906322  11.487368  13.545866  12.811052  12.658777
    35  H   14.138955  12.822878  14.511883  13.577387  13.462511
    36  H   11.654638  10.153076  12.569074  12.064863  11.878147
    37  H   13.809945  12.357978  14.525662  13.835554  13.671351
                   21         22         23         24         25
    21  C    0.000000
    22  H    2.103741   0.000000
    23  C    1.438865   2.633560   0.000000
    24  H    1.088121   3.077640   2.177037   0.000000
    25  C    2.537408   4.102368   1.476376   2.733940   0.000000
    26  O    2.369600   2.462384   1.285012   3.327585   2.371460
    27  C    3.823042   5.021871   2.500351   4.150429   1.427524
    28  C    2.998179   4.951815   2.544428   2.639436   1.411051
    29  H    3.557066   3.920168   2.160613   4.325808   2.325623
    30  O    4.275869   4.915452   2.837148   4.879930   2.415263
    31  C    4.990735   6.378428   3.792319   5.102373   2.454644
    32  C    4.384582   6.313171   3.815038   3.968549   2.445368
    33  H    2.677154   4.769044   2.788331   1.962864   2.171967
    34  C    5.213238   6.921703   4.298996   5.029501   2.823498
    35  H    5.932970   7.137453   4.642038   6.133079   3.428537
    36  H    5.026520   7.056906   4.693397   4.407368   3.428833
    37  H    6.280667   8.011404   5.389976   6.035468   3.914595
                   26         27         28         29         30
    26  O    0.000000
    27  C    2.775001   0.000000
    28  C    3.678118   2.427777   0.000000
    29  H    1.464372   1.883034   3.727247   0.000000
    30  O    2.457391   1.347443   3.672210   1.048178   0.000000
    31  C    4.178326   1.403956   2.787494   3.188997   2.368671
    32  C    4.816511   2.805562   1.386546   4.522239   4.152578
    33  H    4.056247   3.424285   1.088836   4.446402   4.575487
    34  C    5.011541   2.421462   2.409314   4.304153   3.638560
    35  H    4.796699   2.143049   3.877059   3.572173   2.573446
    36  H    5.785064   3.895098   2.150844   5.591183   5.242009
    37  H    6.077299   3.410242   3.396166   5.281505   4.517202
                   31         32         33         34         35
    31  C    0.000000
    32  C    2.419551   0.000000
    33  H    3.875955   2.127677   0.000000
    34  C    1.387003   1.401418   3.385263   0.000000
    35  H    1.089993   3.418365   4.965671   2.168140   0.000000
    36  H    3.406554   1.089614   2.445111   2.166113   4.322182
    37  H    2.150865   2.160455   4.278834   1.091175   2.504878
                   36         37
    36  H    0.000000
    37  H    2.491030   0.000000
 Symmetry turned off by external request.
 Stoichiometry    C17H17NO2
 Framework group  C1[X(C17H17NO2)]
 Deg. of freedom   105
 Full point group                 C1      NOp   1
 Rotational constants (GHZ):      1.0904251      0.1072611      0.0979095
 Leave Link  202 at Mon Nov  6 19:49:51 2017, MaxMem=  3758096384 cpu:         0.0
 (Enter /share/apps/gaussian/g09_D01/g09/l301.exe)
 Standard basis: 6-311++G(d,p) (5D, 7F)
 Ernie: Thresh=  0.10000D-02 Tol=  0.10000D-05 Strict=F.
   559 basis functions,   873 primitive gaussians,   579 cartesian basis functions
    71 alpha electrons       71 beta electrons
       nuclear repulsion energy      1358.4109805671 Hartrees.
 IExCor= 4639 DFT=T Ex+Corr=wB97XD ExCW=0 ScaHFX=  1.000000
 ScaDFX=  1.000000  1.000000  1.000000  1.000000 ScalE2=  1.000000  1.000000
 IRadAn=      0 IRanWt=     -1 IRanGd=            0 ICorTp=0 IEmpDi=121
  HFx wShort=  0.000000 wLong=  0.200000 cFull=  0.222036 cShort=  0.000000 cLong=  0.777964
  DFx wShort=  0.000000 wLong=  0.200000 cFull=  0.000000 cShort=  0.000000 cLong=  1.000000
 NAtoms=   37 NActive=   37 NUniq=   37 SFac= 1.00D+00 NAtFMM=   60 NAOKFM=F Big=F
 Integral buffers will be    131072 words long.
 Raffenetti 1 integral format.
 Two-electron integral symmetry is turned off.
 R6Disp:  Grimme-D2 Dispersion energy=       -0.0228555466 Hartrees.
 Nuclear repulsion after empirical dispersion term =     1358.3881250206 Hartrees.
 Leave Link  301 at Mon Nov  6 19:49:51 2017, MaxMem=  3758096384 cpu:         0.1
 (Enter /share/apps/gaussian/g09_D01/g09/l302.exe)
 NPDir=0 NMtPBC=     1 NCelOv=     1 NCel=       1 NClECP=     1 NCelD=      1
         NCelK=      1 NCelE2=     1 NClLst=     1 CellRange=     0.0.
 One-electron integrals computed using PRISM.
 NBasis=   559 RedAO= T EigKep=  1.16D-06  NBF=   559
 NBsUse=   553 1.00D-06 EigRej=  5.34D-07 NBFU=   553
 Precomputing XC quadrature grid using
 IXCGrd= 4 IRadAn=           0 IRanWt=          -1 IRanGd=           0 AccXCQ= 0.00D+00.
 Generated NRdTot=       0 NPtTot=           0 NUsed=           0 NTot=          32
 NSgBfM=   560   560   562   565   565 MxSgAt=    37 MxSgA2=    37.
 Leave Link  302 at Mon Nov  6 19:49:52 2017, MaxMem=  3758096384 cpu:         3.1
 (Enter /share/apps/gaussian/g09_D01/g09/l308.exe)
 Leave Link  308 at Mon Nov  6 19:49:52 2017, MaxMem=  3758096384 cpu:         0.3
 (Enter /share/apps/gaussian/g09_D01/g09/l303.exe)
 DipDrv:  MaxL=1.
 Leave Link  303 at Mon Nov  6 19:49:52 2017, MaxMem=  3758096384 cpu:         0.3
 (Enter /share/apps/gaussian/g09_D01/g09/l401.exe)
 ExpMin= 3.60D-02 ExpMax= 8.59D+03 ExpMxC= 1.30D+03 IAcc=3 IRadAn=         5 AccDes= 0.00D+00
 Harris functional with IExCor= 4639 and IRadAn=       5 diagonalized for initial guess.
 HarFok:  IExCor= 4639 AccDes= 0.00D+00 IRadAn=         5 IDoV= 1 UseB2=F ITyADJ=14
 ICtDFT=  3500011 ScaDFX=  1.000000  1.000000  1.000000  1.000000
 FoFCou: FMM=F IPFlag=           0 FMFlag=      100000 FMFlg1=           0
         NFxFlg=           0 DoJE=T BraDBF=F KetDBF=T FulRan=T
         wScrn=  0.000000 ICntrl=     500 IOpCl=  0 I1Cent=   200000004 NGrid=           0
         NMat0=    1 NMatS0=      1 NMatT0=    0 NMatD0=    1 NMtDS0=    0 NMtDT0=    0
 Symmetry not used in FoFCou.
 Harris En= -825.474436588507    
 JPrj=0 DoOrth=F DoCkMO=F.
 Leave Link  401 at Mon Nov  6 19:50:02 2017, MaxMem=  3758096384 cpu:        39.3
 (Enter /share/apps/gaussian/g09_D01/g09/l502.exe)
 Closed shell SCF:
 Using DIIS extrapolation, IDIIS=  1040.
 Two-electron integral symmetry not used.
 IVT=     1031295 IEndB=     1031295 NGot=  3758096384 MDV=  3757417550
 LenX=  3757417550 LenY=  3757081730
 Requested convergence on RMS density matrix=1.00D-08 within 128 cycles.
 Requested convergence on MAX density matrix=1.00D-06.
 Requested convergence on             energy=1.00D-06.
 No special actions if energy rises.
 Fock matrices will be formed incrementally for  20 cycles.

 Cycle   1  Pass 1  IDiag  1:
 FoFJK:  IHMeth= 1 ICntrl=       0 DoSepK=T KAlg= 0 I1Cent=   0 FoldK=F
 IRaf=         1 NMat=   1 IRICut=       1 DoRegI=T DoRafI=F ISym2E= 0.
 FoFCou: FMM=F IPFlag=           0 FMFlag=      100000 FMFlg1=           0
         NFxFlg=           0 DoJE=T BraDBF=F KetDBF=F FulRan=T
         wScrn=  0.000000 ICntrl=     500 IOpCl=  0 I1Cent=           0 NGrid=           0
         NMat0=    1 NMatS0=      1 NMatT0=    0 NMatD0=    1 NMtDS0=    0 NMtDT0=    0
 Symmetry not used in FoFCou.
 E= -862.876316840786    
 DIIS: error= 5.79D-02 at cycle   1 NSaved=   1.
 NSaved= 1 IEnMin= 1 EnMin= -862.876316840786     IErMin= 1 ErrMin= 5.79D-02
 ErrMax= 5.79D-02  0.00D+00 EMaxC= 1.00D-01 BMatC= 1.87D+00 BMatP= 1.87D+00
 IDIUse=3 WtCom= 4.21D-01 WtEn= 5.79D-01
 Coeff-Com:  0.100D+01
 Coeff-En:   0.100D+01
 Coeff:      0.100D+01
 Gap=     0.280 Goal=   None    Shift=    0.000
 GapD=    0.280 DampG=1.000 DampE=0.500 DampFc=0.5000 IDamp=-1.
 Damping current iteration by 5.00D-01
 RMSDP=2.62D-02 MaxDP=3.00D+00              OVMax= 1.99D-01

 Cycle   2  Pass 1  IDiag  1:
 RMSU=  5.50D-03    CP:  8.54D-01
 E= -863.003517753072     Delta-E=       -0.127200912286 Rises=F Damp=T
 DIIS: error= 2.68D-02 at cycle   2 NSaved=   2.
 NSaved= 2 IEnMin= 2 EnMin= -863.003517753072     IErMin= 2 ErrMin= 2.68D-02
 ErrMax= 2.68D-02  0.00D+00 EMaxC= 1.00D-01 BMatC= 3.94D-01 BMatP= 1.87D+00
 IDIUse=3 WtCom= 7.32D-01 WtEn= 2.68D-01
 Coeff-Com: -0.579D+00 0.158D+01
 Coeff-En:   0.000D+00 0.100D+01
 Coeff:     -0.424D+00 0.142D+01
 Gap=     0.275 Goal=   None    Shift=    0.000
 RMSDP=1.47D-02 MaxDP=1.58D+00 DE=-1.27D-01 OVMax= 2.24D-01

 Cycle   3  Pass 1  IDiag  1:
 RMSU=  5.36D-03    CP:  6.88D-01  1.41D+00
 E= -863.048910498880     Delta-E=       -0.045392745808 Rises=F Damp=F
 DIIS: error= 2.40D-02 at cycle   3 NSaved=   3.
 NSaved= 3 IEnMin= 3 EnMin= -863.048910498880     IErMin= 3 ErrMin= 2.40D-02
 ErrMax= 2.40D-02  0.00D+00 EMaxC= 1.00D-01 BMatC= 1.31D-01 BMatP= 3.94D-01
 IDIUse=3 WtCom= 7.60D-01 WtEn= 2.40D-01
 Coeff-Com: -0.377D+00 0.809D+00 0.567D+00
 Coeff-En:   0.000D+00 0.252D+00 0.748D+00
 Coeff:     -0.286D+00 0.676D+00 0.611D+00
 Gap=     0.271 Goal=   None    Shift=    0.000
 RMSDP=4.77D-03 MaxDP=3.63D-01 DE=-4.54D-02 OVMax= 1.10D-01

 Cycle   4  Pass 1  IDiag  1:
 RMSU=  1.79D-03    CP:  6.50D-01  1.56D+00  4.30D-01
 E= -863.152347934717     Delta-E=       -0.103437435836 Rises=F Damp=F
 DIIS: error= 5.27D-03 at cycle   4 NSaved=   4.
 NSaved= 4 IEnMin= 4 EnMin= -863.152347934717     IErMin= 4 ErrMin= 5.27D-03
 ErrMax= 5.27D-03  0.00D+00 EMaxC= 1.00D-01 BMatC= 1.21D-02 BMatP= 1.31D-01
 IDIUse=3 WtCom= 9.47D-01 WtEn= 5.27D-02
 Coeff-Com: -0.142D+00 0.307D+00 0.348D+00 0.487D+00
 Coeff-En:   0.000D+00 0.000D+00 0.178D-01 0.982D+00
 Coeff:     -0.135D+00 0.291D+00 0.331D+00 0.513D+00
 Gap=     0.239 Goal=   None    Shift=    0.000
 RMSDP=1.29D-03 MaxDP=1.22D-01 DE=-1.03D-01 OVMax= 2.51D-02

 Cycle   5  Pass 1  IDiag  1:
 RMSU=  4.78D-04    CP:  6.61D-01  1.60D+00  5.58D-01  7.59D-01
 E= -863.162204299589     Delta-E=       -0.009856364873 Rises=F Damp=F
 DIIS: error= 7.43D-04 at cycle   5 NSaved=   5.
 NSaved= 5 IEnMin= 5 EnMin= -863.162204299589     IErMin= 5 ErrMin= 7.43D-04
 ErrMax= 7.43D-04  0.00D+00 EMaxC= 1.00D-01 BMatC= 1.77D-04 BMatP= 1.21D-02
 IDIUse=3 WtCom= 9.93D-01 WtEn= 7.43D-03
 Coeff-Com:  0.236D-01-0.505D-01 0.457D-02 0.154D+00 0.868D+00
 Coeff-En:   0.000D+00 0.000D+00 0.000D+00 0.000D+00 0.100D+01
 Coeff:      0.234D-01-0.501D-01 0.454D-02 0.153D+00 0.869D+00
 Gap=     0.239 Goal=   None    Shift=    0.000
 RMSDP=4.14D-04 MaxDP=3.29D-02 DE=-9.86D-03 OVMax= 9.09D-03

 Cycle   6  Pass 1  IDiag  1:
 RMSU=  2.55D-04    CP:  6.58D-01  1.59D+00  5.54D-01  8.80D-01  1.03D+00
 E= -863.162454873572     Delta-E=       -0.000250573983 Rises=F Damp=F
 DIIS: error= 5.71D-04 at cycle   6 NSaved=   6.
 NSaved= 6 IEnMin= 6 EnMin= -863.162454873572     IErMin= 6 ErrMin= 5.71D-04
 ErrMax= 5.71D-04  0.00D+00 EMaxC= 1.00D-01 BMatC= 5.91D-05 BMatP= 1.77D-04
 IDIUse=3 WtCom= 9.94D-01 WtEn= 5.71D-03
 Coeff-Com:  0.287D-01-0.618D-01-0.425D-01 0.156D-02 0.442D+00 0.632D+00
 Coeff-En:   0.000D+00 0.000D+00 0.000D+00 0.000D+00 0.000D+00 0.100D+01
 Coeff:      0.286D-01-0.614D-01-0.423D-01 0.155D-02 0.440D+00 0.634D+00
 Gap=     0.241 Goal=   None    Shift=    0.000
 RMSDP=1.02D-04 MaxDP=8.14D-03 DE=-2.51D-04 OVMax= 4.69D-03

 Cycle   7  Pass 1  IDiag  1:
 RMSU=  6.70D-05    CP:  6.58D-01  1.60D+00  5.52D-01  8.99D-01  1.16D+00
                    CP:  1.04D+00
 E= -863.162529795014     Delta-E=       -0.000074921442 Rises=F Damp=F
 DIIS: error= 1.50D-04 at cycle   7 NSaved=   7.
 NSaved= 7 IEnMin= 7 EnMin= -863.162529795014     IErMin= 7 ErrMin= 1.50D-04
 ErrMax= 1.50D-04  0.00D+00 EMaxC= 1.00D-01 BMatC= 4.93D-06 BMatP= 5.91D-05
 IDIUse=3 WtCom= 9.98D-01 WtEn= 1.50D-03
 Coeff-Com:  0.217D-02-0.462D-02-0.827D-02-0.200D-01-0.341D-01 0.176D+00
 Coeff-Com:  0.888D+00
 Coeff-En:   0.000D+00 0.000D+00 0.000D+00 0.000D+00 0.000D+00 0.000D+00
 Coeff-En:   0.100D+01
 Coeff:      0.216D-02-0.461D-02-0.826D-02-0.200D-01-0.341D-01 0.176D+00
 Coeff:      0.889D+00
 Gap=     0.241 Goal=   None    Shift=    0.000
 RMSDP=5.47D-05 MaxDP=4.12D-03 DE=-7.49D-05 OVMax= 2.75D-03

 Cycle   8  Pass 1  IDiag  1:
 RMSU=  3.52D-05    CP:  6.58D-01  1.60D+00  5.49D-01  9.11D-01  1.19D+00
                    CP:  1.15D+00  1.06D+00
 E= -863.162542560852     Delta-E=       -0.000012765838 Rises=F Damp=F
 DIIS: error= 7.89D-05 at cycle   8 NSaved=   8.
 NSaved= 8 IEnMin= 8 EnMin= -863.162542560852     IErMin= 8 ErrMin= 7.89D-05
 ErrMax= 7.89D-05  0.00D+00 EMaxC= 1.00D-01 BMatC= 1.28D-06 BMatP= 4.93D-06
 IDIUse=1 WtCom= 1.00D+00 WtEn= 0.00D+00
 Coeff-Com: -0.328D-02 0.707D-02 0.239D-02-0.114D-01-0.952D-01-0.141D-01
 Coeff-Com:  0.412D+00 0.702D+00
 Coeff:     -0.328D-02 0.707D-02 0.239D-02-0.114D-01-0.952D-01-0.141D-01
 Coeff:      0.412D+00 0.702D+00
 Gap=     0.241 Goal=   None    Shift=    0.000
 RMSDP=2.56D-05 MaxDP=2.89D-03 DE=-1.28D-05 OVMax= 1.45D-03

 Cycle   9  Pass 1  IDiag  1:
 RMSU=  1.25D-05    CP:  6.58D-01  1.60D+00  5.48D-01  9.15D-01  1.22D+00
                    CP:  1.18D+00  1.20D+00  1.12D+00
 E= -863.162545697291     Delta-E=       -0.000003136439 Rises=F Damp=F
 DIIS: error= 2.81D-05 at cycle   9 NSaved=   9.
 NSaved= 9 IEnMin= 9 EnMin= -863.162545697291     IErMin= 9 ErrMin= 2.81D-05
 ErrMax= 2.81D-05  0.00D+00 EMaxC= 1.00D-01 BMatC= 1.50D-07 BMatP= 1.28D-06
 IDIUse=1 WtCom= 1.00D+00 WtEn= 0.00D+00
 Coeff-Com: -0.130D-02 0.277D-02 0.273D-02 0.143D-02-0.193D-01-0.366D-01
 Coeff-Com: -0.864D-01 0.147D+00 0.989D+00
 Coeff:     -0.130D-02 0.277D-02 0.273D-02 0.143D-02-0.193D-01-0.366D-01
 Coeff:     -0.864D-01 0.147D+00 0.989D+00
 Gap=     0.241 Goal=   None    Shift=    0.000
 RMSDP=1.43D-05 MaxDP=1.15D-03 DE=-3.14D-06 OVMax= 7.88D-04

 Cycle  10  Pass 1  IDiag  1:
 RMSU=  8.83D-06    CP:  6.58D-01  1.60D+00  5.48D-01  9.16D-01  1.22D+00
                    CP:  1.20D+00  1.28D+00  1.25D+00  1.16D+00
 E= -863.162546326814     Delta-E=       -0.000000629523 Rises=F Damp=F
 DIIS: error= 1.13D-05 at cycle  10 NSaved=  10.
 NSaved=10 IEnMin=10 EnMin= -863.162546326814     IErMin=10 ErrMin= 1.13D-05
 ErrMax= 1.13D-05  0.00D+00 EMaxC= 1.00D-01 BMatC= 2.11D-08 BMatP= 1.50D-07
 IDIUse=1 WtCom= 1.00D+00 WtEn= 0.00D+00
 Coeff-Com:  0.217D-03-0.469D-03 0.331D-03 0.223D-02 0.808D-02-0.728D-02
 Coeff-Com: -0.846D-01-0.519D-01 0.286D+00 0.847D+00
 Coeff:      0.217D-03-0.469D-03 0.331D-03 0.223D-02 0.808D-02-0.728D-02
 Coeff:     -0.846D-01-0.519D-01 0.286D+00 0.847D+00
 Gap=     0.241 Goal=   None    Shift=    0.000
 RMSDP=5.03D-06 MaxDP=4.31D-04 DE=-6.30D-07 OVMax= 2.66D-04

 Cycle  11  Pass 1  IDiag  1:
 RMSU=  1.79D-06    CP:  6.58D-01  1.60D+00  5.48D-01  9.16D-01  1.23D+00
                    CP:  1.20D+00  1.30D+00  1.30D+00  1.30D+00  1.13D+00
 E= -863.162546399997     Delta-E=       -0.000000073183 Rises=F Damp=F
 DIIS: error= 4.25D-06 at cycle  11 NSaved=  11.
 NSaved=11 IEnMin=11 EnMin= -863.162546399997     IErMin=11 ErrMin= 4.25D-06
 ErrMax= 4.25D-06  0.00D+00 EMaxC= 1.00D-01 BMatC= 4.94D-09 BMatP= 2.11D-08
 IDIUse=1 WtCom= 1.00D+00 WtEn= 0.00D+00
 Coeff-Com:  0.271D-03-0.578D-03-0.281D-03 0.758D-03 0.575D-02 0.296D-02
 Coeff-Com: -0.122D-01-0.370D-01-0.867D-01 0.287D+00 0.840D+00
 Coeff:      0.271D-03-0.578D-03-0.281D-03 0.758D-03 0.575D-02 0.296D-02
 Coeff:     -0.122D-01-0.370D-01-0.867D-01 0.287D+00 0.840D+00
 Gap=     0.241 Goal=   None    Shift=    0.000
 RMSDP=1.99D-06 MaxDP=9.14D-05 DE=-7.32D-08 OVMax= 8.01D-05

 Cycle  12  Pass 1  IDiag  1:
 RMSU=  9.67D-07    CP:  6.58D-01  1.60D+00  5.47D-01  9.16D-01  1.23D+00
                    CP:  1.20D+00  1.31D+00  1.31D+00  1.35D+00  1.21D+00
                    CP:  1.31D+00
 E= -863.162546412437     Delta-E=       -0.000000012440 Rises=F Damp=F
 DIIS: error= 2.47D-06 at cycle  12 NSaved=  12.
 NSaved=12 IEnMin=12 EnMin= -863.162546412437     IErMin=12 ErrMin= 2.47D-06
 ErrMax= 2.47D-06  0.00D+00 EMaxC= 1.00D-01 BMatC= 7.69D-10 BMatP= 4.94D-09
 IDIUse=1 WtCom= 1.00D+00 WtEn= 0.00D+00
 Coeff-Com:  0.682D-04-0.143D-03-0.145D-03 0.255D-05 0.981D-03 0.177D-02
 Coeff-Com:  0.962D-02-0.450D-02-0.784D-01-0.344D-01 0.297D+00 0.808D+00
 Coeff:      0.682D-04-0.143D-03-0.145D-03 0.255D-05 0.981D-03 0.177D-02
 Coeff:      0.962D-02-0.450D-02-0.784D-01-0.344D-01 0.297D+00 0.808D+00
 Gap=     0.241 Goal=   None    Shift=    0.000
 RMSDP=1.10D-06 MaxDP=8.23D-05 DE=-1.24D-08 OVMax= 2.84D-05

 Cycle  13  Pass 1  IDiag  1:
 RMSU=  4.26D-07    CP:  6.58D-01  1.60D+00  5.47D-01  9.16D-01  1.23D+00
                    CP:  1.20D+00  1.31D+00  1.31D+00  1.34D+00  1.27D+00
                    CP:  1.47D+00  1.15D+00
 E= -863.162546414251     Delta-E=       -0.000000001814 Rises=F Damp=F
 DIIS: error= 8.23D-07 at cycle  13 NSaved=  13.
 NSaved=13 IEnMin=13 EnMin= -863.162546414251     IErMin=13 ErrMin= 8.23D-07
 ErrMax= 8.23D-07  0.00D+00 EMaxC= 1.00D-01 BMatC= 1.96D-10 BMatP= 7.69D-10
 IDIUse=1 WtCom= 1.00D+00 WtEn= 0.00D+00
 Coeff-Com: -0.148D-04 0.321D-04-0.217D-04-0.140D-03-0.580D-03 0.187D-03
 Coeff-Com:  0.721D-02 0.415D-02-0.218D-01-0.670D-01-0.104D-01 0.394D+00
 Coeff-Com:  0.695D+00
 Coeff:     -0.148D-04 0.321D-04-0.217D-04-0.140D-03-0.580D-03 0.187D-03
 Coeff:      0.721D-02 0.415D-02-0.218D-01-0.670D-01-0.104D-01 0.394D+00
 Coeff:      0.695D+00
 Gap=     0.241 Goal=   None    Shift=    0.000
 RMSDP=3.40D-07 MaxDP=1.97D-05 DE=-1.81D-09 OVMax= 8.94D-06

 Cycle  14  Pass 1  IDiag  1:
 RMSU=  1.70D-07    CP:  6.58D-01  1.60D+00  5.47D-01  9.16D-01  1.23D+00
                    CP:  1.20D+00  1.31D+00  1.31D+00  1.35D+00  1.27D+00
                    CP:  1.52D+00  1.27D+00  9.47D-01
 E= -863.162546414444     Delta-E=       -0.000000000193 Rises=F Damp=F
 DIIS: error= 3.55D-07 at cycle  14 NSaved=  14.
 NSaved=14 IEnMin=14 EnMin= -863.162546414444     IErMin=14 ErrMin= 3.55D-07
 ErrMax= 3.55D-07  0.00D+00 EMaxC= 1.00D-01 BMatC= 1.13D-11 BMatP= 1.96D-10
 IDIUse=1 WtCom= 1.00D+00 WtEn= 0.00D+00
 Coeff-Com: -0.105D-04 0.222D-04 0.105D-04-0.431D-04-0.253D-03-0.204D-03
 Coeff-Com:  0.412D-03 0.973D-03 0.597D-02-0.954D-02-0.425D-01-0.833D-02
 Coeff-Com:  0.118D+00 0.935D+00
 Coeff:     -0.105D-04 0.222D-04 0.105D-04-0.431D-04-0.253D-03-0.204D-03
 Coeff:      0.412D-03 0.973D-03 0.597D-02-0.954D-02-0.425D-01-0.833D-02
 Coeff:      0.118D+00 0.935D+00
 Gap=     0.241 Goal=   None    Shift=    0.000
 RMSDP=1.46D-07 MaxDP=1.14D-05 DE=-1.93D-10 OVMax= 5.17D-06

 Cycle  15  Pass 1  IDiag  1:
 RMSU=  4.90D-08    CP:  6.58D-01  1.60D+00  5.47D-01  9.16D-01  1.23D+00
                    CP:  1.20D+00  1.31D+00  1.31D+00  1.35D+00  1.27D+00
                    CP:  1.52D+00  1.33D+00  1.02D+00  1.27D+00
 E= -863.162546414638     Delta-E=       -0.000000000194 Rises=F Damp=F
 DIIS: error= 1.34D-07 at cycle  15 NSaved=  15.
 NSaved=15 IEnMin=15 EnMin= -863.162546414638     IErMin=15 ErrMin= 1.34D-07
 ErrMax= 1.34D-07  0.00D+00 EMaxC= 1.00D-01 BMatC= 2.21D-12 BMatP= 1.13D-11
 IDIUse=1 WtCom= 1.00D+00 WtEn= 0.00D+00
 Coeff-Com: -0.213D-05 0.442D-05 0.646D-05 0.200D-05-0.652D-05-0.907D-04
 Coeff-Com: -0.691D-03-0.358D-03 0.448D-02 0.550D-02-0.125D-01-0.460D-01
 Coeff-Com: -0.642D-01 0.263D+00 0.851D+00
 Coeff:     -0.213D-05 0.442D-05 0.646D-05 0.200D-05-0.652D-05-0.907D-04
 Coeff:     -0.691D-03-0.358D-03 0.448D-02 0.550D-02-0.125D-01-0.460D-01
 Coeff:     -0.642D-01 0.263D+00 0.851D+00
 Gap=     0.241 Goal=   None    Shift=    0.000
 RMSDP=5.10D-08 MaxDP=3.06D-06 DE=-1.94D-10 OVMax= 2.27D-06

 Cycle  16  Pass 1  IDiag  1:
 RMSU=  1.99D-08    CP:  6.58D-01  1.60D+00  5.47D-01  9.16D-01  1.23D+00
                    CP:  1.20D+00  1.31D+00  1.31D+00  1.35D+00  1.27D+00
                    CP:  1.52D+00  1.35D+00  1.07D+00  1.40D+00  1.10D+00
 E= -863.162546414540     Delta-E=        0.000000000097 Rises=F Damp=F
 DIIS: error= 5.50D-08 at cycle  16 NSaved=  16.
 NSaved=16 IEnMin=15 EnMin= -863.162546414638     IErMin=16 ErrMin= 5.50D-08
 ErrMax= 5.50D-08  0.00D+00 EMaxC= 1.00D-01 BMatC= 3.80D-13 BMatP= 2.21D-12
 IDIUse=1 WtCom= 1.00D+00 WtEn= 0.00D+00
 Coeff-Com:  0.102D-05-0.216D-05-0.518D-06 0.745D-05 0.424D-04 0.122D-04
 Coeff-Com: -0.146D-03-0.276D-03-0.341D-03 0.273D-02 0.472D-02-0.227D-02
 Coeff-Com: -0.391D-01-0.140D+00 0.161D+00 0.101D+01
 Coeff:      0.102D-05-0.216D-05-0.518D-06 0.745D-05 0.424D-04 0.122D-04
 Coeff:     -0.146D-03-0.276D-03-0.341D-03 0.273D-02 0.472D-02-0.227D-02
 Coeff:     -0.391D-01-0.140D+00 0.161D+00 0.101D+01
 Gap=     0.241 Goal=   None    Shift=    0.000
 RMSDP=2.27D-08 MaxDP=1.17D-06 DE= 9.73D-11 OVMax= 1.17D-06

 Cycle  17  Pass 1  IDiag  1:
 RMSU=  7.40D-09    CP:  6.58D-01  1.60D+00  5.47D-01  9.16D-01  1.23D+00
                    CP:  1.20D+00  1.31D+00  1.31D+00  1.35D+00  1.27D+00
                    CP:  1.52D+00  1.35D+00  1.07D+00  1.48D+00  1.23D+00
                    CP:  1.26D+00
 E= -863.162546414575     Delta-E=       -0.000000000035 Rises=F Damp=F
 DIIS: error= 1.73D-08 at cycle  17 NSaved=  17.
 NSaved=17 IEnMin=15 EnMin= -863.162546414638     IErMin=17 ErrMin= 1.73D-08
 ErrMax= 1.73D-08  0.00D+00 EMaxC= 1.00D-01 BMatC= 4.02D-14 BMatP= 3.80D-13
 IDIUse=1 WtCom= 1.00D+00 WtEn= 0.00D+00
 Coeff-Com:  0.346D-06-0.723D-06-0.624D-06 0.153D-05 0.979D-05 0.110D-04
 Coeff-Com:  0.490D-04-0.220D-04-0.523D-03 0.466D-04 0.189D-02 0.570D-02
 Coeff-Com: -0.804D-03-0.531D-01-0.585D-01 0.188D+00 0.917D+00
 Coeff:      0.346D-06-0.723D-06-0.624D-06 0.153D-05 0.979D-05 0.110D-04
 Coeff:      0.490D-04-0.220D-04-0.523D-03 0.466D-04 0.189D-02 0.570D-02
 Coeff:     -0.804D-03-0.531D-01-0.585D-01 0.188D+00 0.917D+00
 Gap=     0.241 Goal=   None    Shift=    0.000
 RMSDP=8.82D-09 MaxDP=7.79D-07 DE=-3.46D-11 OVMax= 3.37D-07

 SCF Done:  E(RwB97XD) =  -863.162546415     A.U. after   17 cycles
            NFock= 17  Conv=0.88D-08     -V/T= 2.0047
 KE= 8.591566852567D+02 PE=-4.725819935099D+03 EE= 1.645112578407D+03
 Leave Link  502 at Mon Nov  6 19:59:43 2017, MaxMem=  3758096384 cpu:      2324.2
 (Enter /share/apps/gaussian/g09_D01/g09/l801.exe)
 DoSCS=F DFT=T ScalE2(SS,OS)=  1.000000  1.000000
 ExpMin= 3.60D-02 ExpMax= 8.59D+03 ExpMxC= 1.30D+03 IAcc=3 IRadAn=         5 AccDes= 0.00D+00
 HarFok:  IExCor=  205 AccDes= 0.00D+00 IRadAn=         5 IDoV=-2 UseB2=F ITyADJ=14
 ICtDFT= 12500011 ScaDFX=  1.000000  1.000000  1.000000  1.000000
 Largest valence mixing into a core orbital is  5.71D-05
 Largest core mixing into a valence orbital is  1.62D-05
 Range of M.O.s used for correlation:    21   553
 NBasis=   559 NAE=    71 NBE=    71 NFC=    20 NFV=     0
 NROrb=    533 NOA=    51 NOB=    51 NVA=   482 NVB=   482

 **** Warning!!: The largest alpha MO coefficient is  0.13546151D+03

 Leave Link  801 at Mon Nov  6 19:59:44 2017, MaxMem=  3758096384 cpu:         1.3
 (Enter /share/apps/gaussian/g09_D01/g09/l914.exe)
 RHF ground state
 MDV=  3758096384 DFT=T DoStab=F Mixed=T DoRPA=T DoScal=F NonHer=T
 Would need an additional         69850200000 words for in-memory AO integral storage.
 Making orbital integer symmetry assigments:
    16 initial guesses have been made.
 Convergence on wavefunction:    0.001000000000000
 Davidson Disk Diagonalization:  ConvIn= 1.00D-03 SkipCon=T Conv= 1.00D-03.
 Max sub-space:   200 roots to seek:    16 dimension of matrix:        49164
 Iteration     1 Dimension    16 NMult     0 NNew     16
 CISAX will form    16 AO SS matrices at one time.
 NMat=    16 NSing=    16 JSym2X= 0.
 FoFJK:  IHMeth= 1 ICntrl=       0 DoSepK=T KAlg= 0 I1Cent=   0 FoldK=F
 IRaf=         1 NMat=  32 IRICut=       1 DoRegI=T DoRafI=F ISym2E= 0.
 FoFCou: FMM=F IPFlag=           0 FMFlag=      100000 FMFlg1=           0
         NFxFlg=           0 DoJE=F BraDBF=F KetDBF=F FulRan=T
         wScrn=  0.000000 ICntrl=     500 IOpCl=  0 I1Cent=           0 NGrid=           0
         NMat0=   16 NMatS0=     16 NMatT0=    0 NMatD0=   16 NMtDS0=    0 NMtDT0=    0
 Symmetry not used in FoFCou.
 New state      2 was old state      7
 New state      3 was old state      2
 New state      4 was old state      9
 Excitation Energies [eV] at current iteration:
 Root      1 :     3.822803031976723
 Root      2 :     4.283718893165259
 Root      3 :     4.517691864835051
 Root      4 :     5.074991371711428
 Root      5 :     5.440027796060889
 Root      6 :     5.649324083105792
 Root      7 :     5.875247719217572
 Root      8 :     5.944998924358355
 Root      9 :     6.124269131231473
 Root     10 :     6.157350873134596
 Root     11 :     6.268394970466416
 Root     12 :     6.412512637284594
 Root     13 :     6.532727399180588
 Root     14 :     6.596793736691716
 Root     15 :     7.209621986151151
 Root     16 :     7.410119370784864
 Iteration     2 Dimension    24 NMult    16 NNew      8
 CISAX will form     8 AO SS matrices at one time.
 NMat=     8 NSing=     8 JSym2X= 0.
 Root      1 not converged, maximum delta is    0.056615035808999
 Root      2 not converged, maximum delta is    0.111675357319804
 Root      3 not converged, maximum delta is    0.105585117403322
 Root      4 not converged, maximum delta is    0.128530194351392
 Excitation Energies [eV] at current iteration:
 Root      1 :     3.383776927088979   Change is   -0.439026104887744
 Root      2 :     3.836931853129032   Change is   -0.446787040036226
 Root      3 :     3.955308488643364   Change is   -0.562383376191687
 Root      4 :     4.544908280977521   Change is   -0.530083090733907
 Iteration     3 Dimension    32 NMult    24 NNew      8
 CISAX will form     8 AO SS matrices at one time.
 NMat=     8 NSing=     8 JSym2X= 0.
 Root      1 not converged, maximum delta is    0.011860421798126
 Root      2 not converged, maximum delta is    0.017612451918444
 Root      3 not converged, maximum delta is    0.035231896660112
 Root      4 not converged, maximum delta is    0.040138510022207
 Excitation Energies [eV] at current iteration:
 Root      1 :     3.351332551379957   Change is   -0.032444375709021
 Root      2 :     3.810560538161985   Change is   -0.026371314967048
 Root      3 :     3.906552892495482   Change is   -0.048755596147883
 Root      4 :     4.497094755829201   Change is   -0.047813525148320
 Iteration     4 Dimension    40 NMult    32 NNew      8
 CISAX will form     8 AO SS matrices at one time.
 NMat=     8 NSing=     8 JSym2X= 0.
 Root      1 not converged, maximum delta is    0.008366446697401
 Root      2 not converged, maximum delta is    0.005356635165391
 Root      3 not converged, maximum delta is    0.018165977806982
 Root      4 not converged, maximum delta is    0.011320304541405
 Excitation Energies [eV] at current iteration:
 Root      1 :     3.346554147654978   Change is   -0.004778403724979
 Root      2 :     3.808862369476763   Change is   -0.001698168685221
 Root      3 :     3.893401242424939   Change is   -0.013151650070543
 Root      4 :     4.490670203632983   Change is   -0.006424552196217
 Iteration     5 Dimension    48 NMult    40 NNew      8
 CISAX will form     8 AO SS matrices at one time.
 NMat=     8 NSing=     8 JSym2X= 0.
 Root      1 not converged, maximum delta is    0.002715475866996
 Root      2 not converged, maximum delta is    0.001526163900150
 Root      3 not converged, maximum delta is    0.004891779932631
 Root      4 not converged, maximum delta is    0.002015816943019
 Excitation Energies [eV] at current iteration:
 Root      1 :     3.346063016135497   Change is   -0.000491131519481
 Root      2 :     3.808727249383005   Change is   -0.000135120093759
 Root      3 :     3.891726987849311   Change is   -0.001674254575628
 Root      4 :     4.490242283479547   Change is   -0.000427920153437
 Iteration     6 Dimension    56 NMult    48 NNew      8
 CISAX will form     8 AO SS matrices at one time.
 NMat=     8 NSing=     8 JSym2X= 0.
 Root      1 has converged.
 Root      2 has converged.
 Root      3 not converged, maximum delta is    0.001233390296643
 Root      4 not converged, maximum delta is    0.001370048629342
 Excitation Energies [eV] at current iteration:
 Root      1 :     3.346010691244821   Change is   -0.000052324890676
 Root      2 :     3.808715322179850   Change is   -0.000011927203155
 Root      3 :     3.891513667363565   Change is   -0.000213320485746
 Root      4 :     4.490183069900056   Change is   -0.000059213579491
 Iteration     7 Dimension    60 NMult    56 NNew      4
 CISAX will form     4 AO SS matrices at one time.
 NMat=     4 NSing=     4 JSym2X= 0.
 Root      1 has converged.
 Root      2 has converged.
 Root      3 has converged.
 Root      4 has converged.
 Excitation Energies [eV] at current iteration:
 Root      1 :     3.346010591674425   Change is   -0.000000099570396
 Root      2 :     3.808715256610824   Change is   -0.000000065569025
 Root      3 :     3.891495112380782   Change is   -0.000018554982783
 Root      4 :     4.490173011925042   Change is   -0.000010057975014
 Convergence achieved on expansion vectors.
 ***********************************************************************
 Excited states from <AA,BB:AA,BB> singles matrix:
 ***********************************************************************
 
 1PDM for each excited state written to RWF  633
 Ground to excited state transition densities written to RWF  633
 Ground to excited state transition electric dipole moments (Au):
       state          X           Y           Z        Dip. S.      Osc.
         1         3.5763     -0.3317     -1.3587     14.7463      1.2088
         2         0.1899     -0.0017     -0.0563      0.0392      0.0037
         3         0.4453      0.0706     -0.2724      0.2775      0.0265
         4         0.4896     -0.3724      0.1531      0.4018      0.0442
 Ground to excited state transition velocity dipole moments (Au):
       state          X           Y           Z        Dip. S.      Osc.
         1        -0.4340      0.0384      0.1674      0.2178      1.1811
         2        -0.0265     -0.0015      0.0070      0.0008      0.0036
         3        -0.0599     -0.0080      0.0339      0.0048      0.0224
         4        -0.0792      0.0664     -0.0311      0.0117      0.0471
 Ground to excited state transition magnetic dipole moments (Au):
       state          X           Y           Z
         1        -0.5055     -2.1519     -0.7820
         2        -0.0169     -0.3639      0.3535
         3         0.2897      0.5641      0.5179
         4        -0.2736     -0.3512     -0.1375
 Ground to excited state transition velocity quadrupole moments (Au):
       state          XX          YY          ZZ          XY          XZ          YZ
         1        -0.0643     -0.2209      2.0360      1.3650     -2.7471     -0.2421
         2        -0.0516     -0.0244      0.1183      0.0770     -0.1417     -0.0183
         3         2.0007      0.0056      0.7797      0.1187     -1.3273     -0.0614
         4         0.3708     -0.2834     -0.5992     -0.1788     -0.2621      0.6209
 <0|del|b> * <b|rxdel|0> + <0|del|b> * <b|delr+rdel|0>
 Rotatory Strengths (R) in cgs (10**-40 erg-esu-cm/Gauss)
       state          XX          YY          ZZ    R(velocity)    E-M Angle
         1       346.3188   -100.4612   -211.8192     11.3462       89.69
         2         8.4334      7.2144      1.8734      5.8404       75.56
         3        16.0012     -0.3024    -36.8708     -7.0573       94.33
         4         8.3816    -61.7143     64.6352      3.7675       86.99
 1/2[<0|r|b>*<b|rxdel|0> + (<0|rxdel|b>*<b|r|0>)*]
 Rotatory Strengths (R) in cgs (10**-40 erg-esu-cm/Gauss)
       state          XX          YY          ZZ     R(length)
         1      1278.5379   -504.8093   -751.3674      7.4537
         2         2.2668     -0.4316     14.0738      5.3030
         3       -91.2336    -28.1722     99.7630     -6.5476
         4        94.7312    -92.4748     14.8853      5.7139
  1/2[<0|del|b>*<b|r|0> + (<0|r|b>*<b|del|0>)*] (Au)
       state          X           Y           Z        Dip. S.   Osc.(frdel)
         1        -1.5521     -0.0127     -0.2275      1.7923      1.1949
         2        -0.0050      0.0000     -0.0004      0.0054      0.0036
         3        -0.0267     -0.0006     -0.0092      0.0365      0.0243
         4        -0.0388     -0.0247     -0.0048      0.0683      0.0455

 Excitation energies and oscillator strengths:
 
 Excited state symmetry could not be determined.
 Excited State   1:      Singlet-?Sym    3.3460 eV  370.54 nm  f=1.2088  <S**2>=0.000
      70 -> 72        -0.14014
      70 -> 74        -0.12196
      71 -> 72         0.65943
 This state for optimization and/or second-order correction.
 Total Energy, E(TD-HF/TD-KS) =  -863.039582783    
 Copying the excited state density for this state as the 1-particle RhoCI density.
 
 Excited state symmetry could not be determined.
 Excited State   2:      Singlet-?Sym    3.8087 eV  325.53 nm  f=0.0037  <S**2>=0.000
      68 -> 72         0.66398
      68 -> 74         0.14057
 
 Excited state symmetry could not be determined.
 Excited State   3:      Singlet-?Sym    3.8915 eV  318.60 nm  f=0.0265  <S**2>=0.000
      70 -> 72         0.63508
      70 -> 74         0.17788
      71 -> 72         0.14311
      71 -> 74        -0.13969
 
 Excited state symmetry could not be determined.
 Excited State   4:      Singlet-?Sym    4.4902 eV  276.12 nm  f=0.0442  <S**2>=0.000
      67 -> 72         0.27148
      67 -> 74        -0.12807
      70 -> 77         0.11652
      71 -> 74         0.27180
      71 -> 77         0.53405
 SavETr:  write IOETrn=   770 NScale= 10 NData=  16 NLR=1 NState=    4 LETran=      82.
 Leave Link  914 at Mon Nov  6 20:22:13 2017, MaxMem=  3758096384 cpu:      5399.3
 (Enter /share/apps/gaussian/g09_D01/g09/l601.exe)
 Copying SCF densities to generalized density rwf, IOpCl= 0 IROHF=0.

 **********************************************************************

            Population analysis using the SCF density.

 **********************************************************************

 Alpha  occ. eigenvalues --  -19.24247 -19.23379 -14.47978 -10.38265 -10.35619
 Alpha  occ. eigenvalues --  -10.35419 -10.33771 -10.33755 -10.31809 -10.30946
 Alpha  occ. eigenvalues --  -10.30835 -10.30162 -10.30142 -10.30073 -10.29842
 Alpha  occ. eigenvalues --  -10.29822 -10.29749 -10.29038 -10.28435 -10.28175
 Alpha  occ. eigenvalues --   -1.14935  -1.11100  -1.08217  -0.97225  -0.95647
 Alpha  occ. eigenvalues --   -0.91073  -0.87403  -0.87200  -0.84906  -0.84299
 Alpha  occ. eigenvalues --   -0.83581  -0.79489  -0.74739  -0.72270  -0.71546
 Alpha  occ. eigenvalues --   -0.69185  -0.67978  -0.64675  -0.63469  -0.61394
 Alpha  occ. eigenvalues --   -0.59780  -0.58993  -0.57923  -0.57831  -0.55778
 Alpha  occ. eigenvalues --   -0.55442  -0.54274  -0.52793  -0.52626  -0.51610
 Alpha  occ. eigenvalues --   -0.51517  -0.51252  -0.51038  -0.50312  -0.48741
 Alpha  occ. eigenvalues --   -0.48290  -0.47342  -0.46748  -0.46241  -0.46066
 Alpha  occ. eigenvalues --   -0.45352  -0.42853  -0.42172  -0.41915  -0.41401
 Alpha  occ. eigenvalues --   -0.35234  -0.35071  -0.34211  -0.33593  -0.29522
 Alpha  occ. eigenvalues --   -0.27103
 Alpha virt. eigenvalues --   -0.03030   0.02540   0.03205   0.03798   0.04301
 Alpha virt. eigenvalues --    0.04381   0.04877   0.05649   0.06177   0.06319
 Alpha virt. eigenvalues --    0.06806   0.06973   0.07800   0.07996   0.08059
 Alpha virt. eigenvalues --    0.08621   0.09242   0.09355   0.10472   0.10629
 Alpha virt. eigenvalues --    0.10931   0.11289   0.11998   0.12344   0.13062
 Alpha virt. eigenvalues --    0.13192   0.13434   0.13736   0.14253   0.14658
 Alpha virt. eigenvalues --    0.15223   0.15421   0.15795   0.15941   0.16056
 Alpha virt. eigenvalues --    0.16153   0.16535   0.16777   0.17193   0.17312
 Alpha virt. eigenvalues --    0.17522   0.17691   0.18346   0.18525   0.18952
 Alpha virt. eigenvalues --    0.19483   0.19497   0.19959   0.20121   0.20447
 Alpha virt. eigenvalues --    0.20682   0.20924   0.21278   0.21680   0.21912
 Alpha virt. eigenvalues --    0.22077   0.22372   0.22417   0.22889   0.23165
 Alpha virt. eigenvalues --    0.23476   0.23598   0.23965   0.24131   0.24810
 Alpha virt. eigenvalues --    0.24978   0.25409   0.25529   0.25862   0.26317
 Alpha virt. eigenvalues --    0.26517   0.26699   0.26930   0.27558   0.28045
 Alpha virt. eigenvalues --    0.28186   0.28619   0.29146   0.29402   0.29928
 Alpha virt. eigenvalues --    0.30270   0.30467   0.30577   0.30771   0.31107
 Alpha virt. eigenvalues --    0.31512   0.31751   0.32250   0.32628   0.33297
 Alpha virt. eigenvalues --    0.33609   0.33840   0.34285   0.34465   0.34689
 Alpha virt. eigenvalues --    0.35465   0.35712   0.35952   0.36774   0.37059
 Alpha virt. eigenvalues --    0.37338   0.37757   0.37804   0.38149   0.38555
 Alpha virt. eigenvalues --    0.39026   0.39257   0.39598   0.40268   0.40620
 Alpha virt. eigenvalues --    0.40864   0.41589   0.41741   0.42659   0.42846
 Alpha virt. eigenvalues --    0.43746   0.44017   0.44268   0.44954   0.46041
 Alpha virt. eigenvalues --    0.46475   0.47240   0.48318   0.49290   0.49461
 Alpha virt. eigenvalues --    0.49903   0.50504   0.50866   0.52121   0.52818
 Alpha virt. eigenvalues --    0.54368   0.54510   0.55468   0.56905   0.58483
 Alpha virt. eigenvalues --    0.59974   0.60697   0.61164   0.61510   0.61797
 Alpha virt. eigenvalues --    0.61968   0.62607   0.63044   0.63511   0.64088
 Alpha virt. eigenvalues --    0.64149   0.64637   0.65451   0.66309   0.66437
 Alpha virt. eigenvalues --    0.67048   0.67260   0.67409   0.68123   0.69104
 Alpha virt. eigenvalues --    0.69497   0.69915   0.71296   0.71472   0.71565
 Alpha virt. eigenvalues --    0.71919   0.72622   0.73437   0.73534   0.74276
 Alpha virt. eigenvalues --    0.74823   0.75580   0.75900   0.76103   0.76630
 Alpha virt. eigenvalues --    0.77368   0.78040   0.78480   0.78716   0.79289
 Alpha virt. eigenvalues --    0.79722   0.80440   0.80718   0.82322   0.83117
 Alpha virt. eigenvalues --    0.83534   0.84665   0.85183   0.85692   0.86590
 Alpha virt. eigenvalues --    0.87620   0.89153   0.89673   0.90820   0.91559
 Alpha virt. eigenvalues --    0.91921   0.94006   0.94318   0.94688   0.95319
 Alpha virt. eigenvalues --    0.95729   0.96541   0.96956   0.96998   0.97860
 Alpha virt. eigenvalues --    0.98659   0.99223   0.99414   1.00645   1.01430
 Alpha virt. eigenvalues --    1.02345   1.03345   1.03872   1.04399   1.05091
 Alpha virt. eigenvalues --    1.05686   1.06390   1.07299   1.07601   1.08521
 Alpha virt. eigenvalues --    1.08889   1.09704   1.10078   1.10634   1.12029
 Alpha virt. eigenvalues --    1.13332   1.13900   1.14616   1.15030   1.15310
 Alpha virt. eigenvalues --    1.16769   1.17747   1.18784   1.19681   1.20270
 Alpha virt. eigenvalues --    1.20618   1.21028   1.21613   1.22093   1.23430
 Alpha virt. eigenvalues --    1.25575   1.30733   1.31823   1.32246   1.34406
 Alpha virt. eigenvalues --    1.35113   1.36339   1.38236   1.39897   1.40228
 Alpha virt. eigenvalues --    1.41979   1.47779   1.48311   1.49498   1.51221
 Alpha virt. eigenvalues --    1.51608   1.52795   1.53737   1.55788   1.56238
 Alpha virt. eigenvalues --    1.57098   1.57686   1.58684   1.59666   1.60589
 Alpha virt. eigenvalues --    1.61628   1.61935   1.62528   1.62801   1.62885
 Alpha virt. eigenvalues --    1.63008   1.64283   1.64710   1.64914   1.65240
 Alpha virt. eigenvalues --    1.65708   1.66761   1.68021   1.68991   1.69291
 Alpha virt. eigenvalues --    1.70089   1.73236   1.75018   1.75182   1.75241
 Alpha virt. eigenvalues --    1.77398   1.78371   1.79200   1.79720   1.80538
 Alpha virt. eigenvalues --    1.80734   1.81306   1.82337   1.82675   1.83733
 Alpha virt. eigenvalues --    1.84654   1.84721   1.86602   1.87829   1.88726
 Alpha virt. eigenvalues --    1.90201   1.91068   1.93216   1.93918   1.95452
 Alpha virt. eigenvalues --    1.96861   1.97547   1.97877   2.00317   2.00619
 Alpha virt. eigenvalues --    2.00759   2.01616   2.01704   2.03403   2.03634
 Alpha virt. eigenvalues --    2.04663   2.04718   2.05505   2.06271   2.07040
 Alpha virt. eigenvalues --    2.08137   2.08999   2.11422   2.11659   2.12733
 Alpha virt. eigenvalues --    2.14240   2.14471   2.15536   2.17118   2.17452
 Alpha virt. eigenvalues --    2.17983   2.20027   2.20558   2.22913   2.24754
 Alpha virt. eigenvalues --    2.25007   2.25739   2.28617   2.31505   2.33592
 Alpha virt. eigenvalues --    2.35631   2.37055   2.37848   2.39865   2.41535
 Alpha virt. eigenvalues --    2.42650   2.42910   2.45311   2.46889   2.48032
 Alpha virt. eigenvalues --    2.49969   2.52582   2.54746   2.55142   2.55175
 Alpha virt. eigenvalues --    2.55448   2.56757   2.56939   2.57433   2.60524
 Alpha virt. eigenvalues --    2.62751   2.63535   2.67639   2.68108   2.69863
 Alpha virt. eigenvalues --    2.70237   2.72612   2.73806   2.74375   2.76566
 Alpha virt. eigenvalues --    2.77592   2.78204   2.78471   2.79699   2.80671
 Alpha virt. eigenvalues --    2.81226   2.81832   2.82375   2.83657   2.83752
 Alpha virt. eigenvalues --    2.84481   2.85348   2.85804   2.86339   2.86694
 Alpha virt. eigenvalues --    2.88362   2.89928   2.90273   2.91108   2.92021
 Alpha virt. eigenvalues --    2.92465   2.93589   2.94439   2.95465   2.96234
 Alpha virt. eigenvalues --    2.98000   2.98625   3.01013   3.01645   3.02652
 Alpha virt. eigenvalues --    3.03635   3.04602   3.06527   3.07191   3.08827
 Alpha virt. eigenvalues --    3.14655   3.17757   3.18750   3.19673   3.21112
 Alpha virt. eigenvalues --    3.21998   3.24167   3.26798   3.28690   3.30600
 Alpha virt. eigenvalues --    3.31145   3.33975   3.34539   3.38022   3.38283
 Alpha virt. eigenvalues --    3.41810   3.45417   3.46440   3.47404   3.50047
 Alpha virt. eigenvalues --    3.57024   3.59853   3.60817   3.62383   3.62927
 Alpha virt. eigenvalues --    3.64122   3.66110   3.68101   3.73440   3.76417
 Alpha virt. eigenvalues --    3.77442   3.77876   3.78320   3.78701   3.86045
 Alpha virt. eigenvalues --    3.88658   3.89124   3.92930   4.02075   4.05047
 Alpha virt. eigenvalues --    4.07790   4.09578   4.12496   4.13805   4.16229
 Alpha virt. eigenvalues --    4.26413   4.27720   4.29392   4.31108   4.37818
 Alpha virt. eigenvalues --    4.53116   4.76957   4.92507   4.93723   4.99952
 Alpha virt. eigenvalues --    5.15100   5.17681   5.18461   5.37990   5.65068
 Alpha virt. eigenvalues --    5.84426   5.96301  23.71289  23.79597  23.93928
 Alpha virt. eigenvalues --   24.01890  24.03307  24.03470  24.04783  24.07705
 Alpha virt. eigenvalues --   24.08182  24.08656  24.13601  24.14553  24.22758
 Alpha virt. eigenvalues --   24.25185  24.27971  24.30757  24.31400  35.74009
 Alpha virt. eigenvalues --   50.13862  50.17973
          Condensed to atoms (all electrons):
               1          2          3          4          5          6
     1  C    8.983099   0.586035   0.354293   1.456850  -1.742377  -0.293429
     2  C    0.586035  12.587621  -0.284258  -1.096824   0.312785   0.244832
     3  H    0.354293  -0.284258   0.538763   0.037716  -0.011958  -0.034829
     4  C    1.456850  -1.096824   0.037716  10.527807  -1.374975  -0.029486
     5  C   -1.742377   0.312785  -0.011958  -1.374975  10.459413  -0.257986
     6  N   -0.293429   0.244832  -0.034829  -0.029486  -0.257986   6.995817
     7  C   -1.009783  -2.095972   0.150358  -0.024740  -2.991633  -0.023774
     8  H    0.071549   0.186072  -0.038732   0.428045  -0.028284  -0.001200
     9  C   -1.278994  -2.568294  -0.030061  -0.953949   0.536564   0.065435
    10  H   -0.026332  -0.097648   0.000350  -0.012318   0.492170  -0.032985
    11  C    0.134748  -0.224852   0.019598   0.000416  -0.184577   0.302357
    12  C   -0.136822  -0.119613  -0.005224  -0.044041   0.218510   0.310808
    13  C   -0.378322  -0.074473   0.015179   1.292704   0.837757  -0.002707
    14  H    0.008469   0.034904   0.001658  -0.057490   0.003398  -0.001088
    15  H    0.029946   0.023056  -0.016041  -0.013565  -0.012692  -0.051634
    16  H    0.024986  -0.028941   0.008699   0.003441   0.001523  -0.047171
    17  H    0.019476  -0.002315  -0.011469  -0.007502  -0.001803  -0.058148
    18  H    0.012009  -0.006150   0.002305   0.005606   0.026299  -0.045702
    19  H    0.002820  -0.028686   0.000172  -0.001004   0.011456  -0.056625
    20  H   -0.016795   0.018108  -0.001296  -0.007576   0.017666  -0.055561
    21  C   -0.659029  -0.419122   0.044150  -0.802926   0.500127   0.004989
    22  H    0.011603   0.021870  -0.000870   0.059401   0.033093  -0.000767
    23  C    0.270001  -0.272442   0.016702  -1.679428  -0.417183   0.002729
    24  H   -0.180813  -0.060633   0.012428  -0.147022   0.055320  -0.000836
    25  C    0.032225  -0.079189   0.005105  -0.909373  -0.164495   0.000431
    26  O   -0.000324  -0.000373   0.000025   0.000063  -0.001716  -0.000002
    27  C    0.017062   0.001726  -0.000476  -0.019375  -0.027506   0.000010
    28  C    0.014382  -0.005896   0.002551  -0.179802   0.029323  -0.000022
    29  H    0.000202  -0.000596   0.000031  -0.008304  -0.000609   0.000002
    30  O    0.000214  -0.000033  -0.000004   0.001602  -0.000261   0.000000
    31  C    0.006992   0.000856  -0.000185   0.041029  -0.004332   0.000000
    32  C   -0.021536   0.001401  -0.000547   0.058545   0.011343  -0.000004
    33  H    0.015986   0.000919   0.000226  -0.014176  -0.003906   0.000038
    34  C   -0.000087  -0.000555   0.000208  -0.025018  -0.000150   0.000001
    35  H    0.000000   0.000006  -0.000001   0.000328  -0.000011   0.000000
    36  H   -0.000782  -0.000093  -0.000021   0.000424   0.000044   0.000000
    37  H    0.000017  -0.000007   0.000004  -0.000391   0.000000   0.000000
               7          8          9         10         11         12
     1  C   -1.009783   0.071549  -1.278994  -0.026332   0.134748  -0.136822
     2  C   -2.095972   0.186072  -2.568294  -0.097648  -0.224852  -0.119613
     3  H    0.150358  -0.038732  -0.030061   0.000350   0.019598  -0.005224
     4  C   -0.024740   0.428045  -0.953949  -0.012318   0.000416  -0.044041
     5  C   -2.991633  -0.028284   0.536564   0.492170  -0.184577   0.218510
     6  N   -0.023774  -0.001200   0.065435  -0.032985   0.302357   0.310808
     7  C   11.780620  -0.140064   0.193882  -0.024533   0.014193  -0.143787
     8  H   -0.140064   0.562259   0.039748   0.001310   0.002405  -0.000106
     9  C    0.193882   0.039748  10.534441   0.032705  -0.032534  -0.082073
    10  H   -0.024533   0.001310   0.032705   0.509683  -0.005578   0.013502
    11  C    0.014193   0.002405  -0.032534  -0.005578   5.241957  -0.117405
    12  C   -0.143787  -0.000106  -0.082073   0.013502  -0.117405   5.260360
    13  C   -1.697390  -0.017273  -0.245787  -0.000616  -0.007429   0.021242
    14  H   -0.073693  -0.004515   0.280673  -0.014059   0.000374   0.002951
    15  H   -0.013967   0.003213  -0.006587  -0.000716   0.416675  -0.003008
    16  H    0.007190  -0.000328   0.010930   0.001472   0.402979  -0.015823
    17  H   -0.007036   0.001422  -0.002683  -0.000140   0.417294   0.002881
    18  H   -0.006647  -0.000493  -0.017653   0.006068  -0.012453   0.400876
    19  H    0.010428  -0.000186   0.003765  -0.007450   0.001764   0.413730
    20  H   -0.001976   0.000125  -0.014579  -0.011838  -0.002571   0.425382
    21  C   -1.052314  -0.115494   0.342096  -0.015149   0.016425  -0.008706
    22  H   -0.153627   0.002122   0.041389   0.002237  -0.000312  -0.000517
    23  C    1.754509  -0.048034  -0.381605   0.001308   0.006626  -0.002538
    24  H    0.029707  -0.040296   0.047489  -0.000714  -0.000319   0.000195
    25  C    0.557648  -0.005634  -0.194243  -0.002201   0.002073  -0.000894
    26  O    0.020917   0.001149  -0.015581   0.000011  -0.000001   0.000005
    27  C    0.060775   0.010323  -0.053408  -0.000448   0.000064  -0.000022
    28  C    0.134375  -0.029375   0.011429   0.000652  -0.000441   0.000089
    29  H   -0.000186  -0.000382   0.001904   0.000004   0.000003  -0.000006
    30  O   -0.000451   0.000248  -0.001228   0.000001   0.000000   0.000000
    31  C    0.007327   0.003573  -0.020502  -0.000014  -0.000001  -0.000002
    32  C   -0.113993  -0.002935   0.044441   0.000004  -0.000176   0.000020
    33  H    0.016076  -0.008384  -0.006990   0.000020   0.000075  -0.000020
    34  C    0.033202  -0.001702  -0.002015   0.000006   0.000007   0.000000
    35  H   -0.000733   0.000004  -0.000009  -0.000001   0.000000   0.000000
    36  H   -0.002416   0.000120   0.000414  -0.000002  -0.000002   0.000000
    37  H    0.000498  -0.000020   0.000006   0.000000   0.000000   0.000000
              13         14         15         16         17         18
     1  C   -0.378322   0.008469   0.029946   0.024986   0.019476   0.012009
     2  C   -0.074473   0.034904   0.023056  -0.028941  -0.002315  -0.006150
     3  H    0.015179   0.001658  -0.016041   0.008699  -0.011469   0.002305
     4  C    1.292704  -0.057490  -0.013565   0.003441  -0.007502   0.005606
     5  C    0.837757   0.003398  -0.012692   0.001523  -0.001803   0.026299
     6  N   -0.002707  -0.001088  -0.051634  -0.047171  -0.058148  -0.045702
     7  C   -1.697390  -0.073693  -0.013967   0.007190  -0.007036  -0.006647
     8  H   -0.017273  -0.004515   0.003213  -0.000328   0.001422  -0.000493
     9  C   -0.245787   0.280673  -0.006587   0.010930  -0.002683  -0.017653
    10  H   -0.000616  -0.014059  -0.000716   0.001472  -0.000140   0.006068
    11  C   -0.007429   0.000374   0.416675   0.402979   0.417294  -0.012453
    12  C    0.021242   0.002951  -0.003008  -0.015823   0.002881   0.400876
    13  C   12.395746   0.024608  -0.001054  -0.001173   0.000381   0.002496
    14  H    0.024608   0.491890  -0.000218  -0.000077  -0.000137  -0.000074
    15  H   -0.001054  -0.000218   0.564346  -0.021742  -0.063145  -0.002682
    16  H   -0.001173  -0.000077  -0.021742   0.508199  -0.022189   0.013992
    17  H    0.000381  -0.000137  -0.063145  -0.022189   0.558579  -0.001647
    18  H    0.002496  -0.000074  -0.002682   0.013992  -0.001647   0.507092
    19  H   -0.001263   0.000690  -0.002352  -0.001898   0.001780  -0.022207
    20  H   -0.001606   0.000710   0.002641  -0.002185  -0.002319  -0.019039
    21  C    5.415897   0.032212  -0.001908   0.001210  -0.001516  -0.000399
    22  H    0.416413  -0.008018   0.000134  -0.000042   0.000068   0.000006
    23  C   -4.464549   0.030939  -0.000667   0.000471  -0.000825  -0.000284
    24  H    0.073899   0.003715  -0.000522   0.000010  -0.000212   0.000072
    25  C   -4.877942   0.025293  -0.000215   0.000121  -0.000193  -0.000063
    26  O    0.003907   0.001109   0.000000   0.000000   0.000000   0.000000
    27  C   -1.246933   0.007472  -0.000004   0.000003  -0.000002  -0.000003
    28  C   -1.764104  -0.004589   0.000051  -0.000026  -0.000027   0.000011
    29  H   -0.035566   0.000144  -0.000001   0.000000  -0.000001   0.000000
    30  O    0.045312   0.000017   0.000000   0.000000   0.000000   0.000000
    31  C   -0.151845   0.000266   0.000001   0.000000   0.000001   0.000000
    32  C    0.642767  -0.000857   0.000034  -0.000010   0.000014   0.000003
    33  H   -0.141772   0.000115   0.000012   0.000004  -0.000007  -0.000004
    34  C   -0.270810   0.000133  -0.000001   0.000000  -0.000003   0.000000
    35  H    0.002223   0.000010   0.000000   0.000000   0.000000   0.000000
    36  H    0.009755   0.000003   0.000000   0.000000   0.000001   0.000000
    37  H   -0.003435   0.000001   0.000000   0.000000   0.000000   0.000000
              19         20         21         22         23         24
     1  C    0.002820  -0.016795  -0.659029   0.011603   0.270001  -0.180813
     2  C   -0.028686   0.018108  -0.419122   0.021870  -0.272442  -0.060633
     3  H    0.000172  -0.001296   0.044150  -0.000870   0.016702   0.012428
     4  C   -0.001004  -0.007576  -0.802926   0.059401  -1.679428  -0.147022
     5  C    0.011456   0.017666   0.500127   0.033093  -0.417183   0.055320
     6  N   -0.056625  -0.055561   0.004989  -0.000767   0.002729  -0.000836
     7  C    0.010428  -0.001976  -1.052314  -0.153627   1.754509   0.029707
     8  H   -0.000186   0.000125  -0.115494   0.002122  -0.048034  -0.040296
     9  C    0.003765  -0.014579   0.342096   0.041389  -0.381605   0.047489
    10  H   -0.007450  -0.011838  -0.015149   0.002237   0.001308  -0.000714
    11  C    0.001764  -0.002571   0.016425  -0.000312   0.006626  -0.000319
    12  C    0.413730   0.425382  -0.008706  -0.000517  -0.002538   0.000195
    13  C   -0.001263  -0.001606   5.415897   0.416413  -4.464549   0.073899
    14  H    0.000690   0.000710   0.032212  -0.008018   0.030939   0.003715
    15  H   -0.002352   0.002641  -0.001908   0.000134  -0.000667  -0.000522
    16  H   -0.001898  -0.002185   0.001210  -0.000042   0.000471   0.000010
    17  H    0.001780  -0.002319  -0.001516   0.000068  -0.000825  -0.000212
    18  H   -0.022207  -0.019039  -0.000399   0.000006  -0.000284   0.000072
    19  H    0.553014  -0.062383   0.000448  -0.000171   0.000227   0.000048
    20  H   -0.062383   0.561835   0.000377  -0.000030  -0.000045  -0.000058
    21  C    0.000448   0.000377  16.247257   0.077217   0.834491   0.768374
    22  H   -0.000171  -0.000030   0.077217   0.465888   0.009502   0.000323
    23  C    0.000227  -0.000045   0.834491   0.009502  19.130733  -0.059335
    24  H    0.000048  -0.000058   0.768374   0.000323  -0.059335   0.860870
    25  C    0.000094   0.000042  -8.392223  -0.181856  -1.110559  -0.037705
    26  O   -0.000001  -0.000001  -0.378645  -0.010972   0.872130   0.005021
    27  C    0.000008   0.000006  -3.321975  -0.067417  -4.735716  -0.003512
    28  C   -0.000021  -0.000003  -3.022005   0.025614  -1.636825  -0.108494
    29  H    0.000000   0.000000  -0.014182  -0.000513   0.064049   0.002252
    30  O    0.000000   0.000000  -0.036349  -0.000695  -0.040119  -0.001782
    31  C    0.000000   0.000000  -0.391853   0.002196  -1.673440  -0.043756
    32  C   -0.000003   0.000001   1.064347   0.011431   1.402134   0.032467
    33  H    0.000001   0.000002  -0.176715   0.000941  -0.021649  -0.027495
    34  C    0.000000   0.000000  -0.750468  -0.003982  -1.567550  -0.012087
    35  H    0.000000   0.000000   0.002489  -0.000118  -0.010855   0.000136
    36  H    0.000000   0.000000   0.016006  -0.000143   0.016943   0.004811
    37  H    0.000000   0.000000  -0.010790  -0.000027  -0.012468  -0.000992
              25         26         27         28         29         30
     1  C    0.032225  -0.000324   0.017062   0.014382   0.000202   0.000214
     2  C   -0.079189  -0.000373   0.001726  -0.005896  -0.000596  -0.000033
     3  H    0.005105   0.000025  -0.000476   0.002551   0.000031  -0.000004
     4  C   -0.909373   0.000063  -0.019375  -0.179802  -0.008304   0.001602
     5  C   -0.164495  -0.001716  -0.027506   0.029323  -0.000609  -0.000261
     6  N    0.000431  -0.000002   0.000010  -0.000022   0.000002   0.000000
     7  C    0.557648   0.020917   0.060775   0.134375  -0.000186  -0.000451
     8  H   -0.005634   0.001149   0.010323  -0.029375  -0.000382   0.000248
     9  C   -0.194243  -0.015581  -0.053408   0.011429   0.001904  -0.001228
    10  H   -0.002201   0.000011  -0.000448   0.000652   0.000004   0.000001
    11  C    0.002073  -0.000001   0.000064  -0.000441   0.000003   0.000000
    12  C   -0.000894   0.000005  -0.000022   0.000089  -0.000006   0.000000
    13  C   -4.877942   0.003907  -1.246933  -1.764104  -0.035566   0.045312
    14  H    0.025293   0.001109   0.007472  -0.004589   0.000144   0.000017
    15  H   -0.000215   0.000000  -0.000004   0.000051  -0.000001   0.000000
    16  H    0.000121   0.000000   0.000003  -0.000026   0.000000   0.000000
    17  H   -0.000193   0.000000  -0.000002  -0.000027  -0.000001   0.000000
    18  H   -0.000063   0.000000  -0.000003   0.000011   0.000000   0.000000
    19  H    0.000094  -0.000001   0.000008  -0.000021   0.000000   0.000000
    20  H    0.000042  -0.000001   0.000006  -0.000003   0.000000   0.000000
    21  C   -8.392223  -0.378645  -3.321975  -3.022005  -0.014182  -0.036349
    22  H   -0.181856  -0.010972  -0.067417   0.025614  -0.000513  -0.000695
    23  C   -1.110559   0.872130  -4.735716  -1.636825   0.064049  -0.040119
    24  H   -0.037705   0.005021  -0.003512  -0.108494   0.002252  -0.001782
    25  C   22.757217  -0.020572   2.407776  -1.429606  -0.084425   0.047507
    26  O   -0.020572   8.112647  -0.011672  -0.246926   0.087052   0.024363
    27  C    2.407776  -0.011672  17.791033  -3.817324   0.005839   0.329186
    28  C   -1.429606  -0.246926  -3.817324  17.838774   0.041843  -0.039624
    29  H   -0.084425   0.087052   0.005839   0.041843   0.272827   0.219394
    30  O    0.047507   0.024363   0.329186  -0.039624   0.219394   8.162736
    31  C   -2.027257  -0.094239  -1.587576   2.526842   0.025676  -0.348795
    32  C   -2.458622   0.009061   0.534601  -3.327356   0.004262   0.004628
    33  H   -0.006559  -0.006166  -0.008652   0.847605   0.001044  -0.001914
    34  C    0.332410  -0.019371  -0.337681   1.539936   0.002295   0.008349
    35  H   -0.081734   0.000893  -0.172058   0.033964   0.001152  -0.023215
    36  H    0.032001   0.000861   0.042351  -0.132685   0.000283   0.000254
    37  H    0.090485  -0.000224   0.010814  -0.028411  -0.000108   0.000801
              31         32         33         34         35         36
     1  C    0.006992  -0.021536   0.015986  -0.000087   0.000000  -0.000782
     2  C    0.000856   0.001401   0.000919  -0.000555   0.000006  -0.000093
     3  H   -0.000185  -0.000547   0.000226   0.000208  -0.000001  -0.000021
     4  C    0.041029   0.058545  -0.014176  -0.025018   0.000328   0.000424
     5  C   -0.004332   0.011343  -0.003906  -0.000150  -0.000011   0.000044
     6  N    0.000000  -0.000004   0.000038   0.000001   0.000000   0.000000
     7  C    0.007327  -0.113993   0.016076   0.033202  -0.000733  -0.002416
     8  H    0.003573  -0.002935  -0.008384  -0.001702   0.000004   0.000120
     9  C   -0.020502   0.044441  -0.006990  -0.002015  -0.000009   0.000414
    10  H   -0.000014   0.000004   0.000020   0.000006  -0.000001  -0.000002
    11  C   -0.000001  -0.000176   0.000075   0.000007   0.000000  -0.000002
    12  C   -0.000002   0.000020  -0.000020   0.000000   0.000000   0.000000
    13  C   -0.151845   0.642767  -0.141772  -0.270810   0.002223   0.009755
    14  H    0.000266  -0.000857   0.000115   0.000133   0.000010   0.000003
    15  H    0.000001   0.000034   0.000012  -0.000001   0.000000   0.000000
    16  H    0.000000  -0.000010   0.000004   0.000000   0.000000   0.000000
    17  H    0.000001   0.000014  -0.000007  -0.000003   0.000000   0.000001
    18  H    0.000000   0.000003  -0.000004   0.000000   0.000000   0.000000
    19  H    0.000000  -0.000003   0.000001   0.000000   0.000000   0.000000
    20  H    0.000000   0.000001   0.000002   0.000000   0.000000   0.000000
    21  C   -0.391853   1.064347  -0.176715  -0.750468   0.002489   0.016006
    22  H    0.002196   0.011431   0.000941  -0.003982  -0.000118  -0.000143
    23  C   -1.673440   1.402134  -0.021649  -1.567550  -0.010855   0.016943
    24  H   -0.043756   0.032467  -0.027495  -0.012087   0.000136   0.004811
    25  C   -2.027257  -2.458622  -0.006559   0.332410  -0.081734   0.032001
    26  O   -0.094239   0.009061  -0.006166  -0.019371   0.000893   0.000861
    27  C   -1.587576   0.534601  -0.008652  -0.337681  -0.172058   0.042351
    28  C    2.526842  -3.327356   0.847605   1.539936   0.033964  -0.132685
    29  H    0.025676   0.004262   0.001044   0.002295   0.001152   0.000283
    30  O   -0.348795   0.004628  -0.001914   0.008349  -0.023215   0.000254
    31  C    9.827493  -0.835161   0.089740   0.650735   0.586285   0.005754
    32  C   -0.835161   9.932359  -0.290750  -0.619464  -0.006726   0.429293
    33  H    0.089740  -0.290750   0.588839   0.054002   0.000266  -0.022181
    34  C    0.650735  -0.619464   0.054002   7.068639  -0.016046  -0.096827
    35  H    0.586285  -0.006726   0.000266  -0.016046   0.456326   0.001126
    36  H    0.005754   0.429293  -0.022181  -0.096827   0.001126   0.483536
    37  H   -0.074763  -0.066378   0.002550   0.429705  -0.011134  -0.011422
              37
     1  C    0.000017
     2  C   -0.000007
     3  H    0.000004
     4  C   -0.000391
     5  C    0.000000
     6  N    0.000000
     7  C    0.000498
     8  H   -0.000020
     9  C    0.000006
    10  H    0.000000
    11  C    0.000000
    12  C    0.000000
    13  C   -0.003435
    14  H    0.000001
    15  H    0.000000
    16  H    0.000000
    17  H    0.000000
    18  H    0.000000
    19  H    0.000000
    20  H    0.000000
    21  C   -0.010790
    22  H   -0.000027
    23  C   -0.012468
    24  H   -0.000992
    25  C    0.090485
    26  O   -0.000224
    27  C    0.010814
    28  C   -0.028411
    29  H   -0.000108
    30  O    0.000801
    31  C   -0.074763
    32  C   -0.066378
    33  H    0.002550
    34  C    0.429705
    35  H   -0.011134
    36  H   -0.011422
    37  H    0.478441
 Mulliken charges:
               1
     1  C   -0.307539
     2  C   -0.553225
     3  H    0.225450
     4  C   -0.504692
     5  C   -0.320337
     6  N    0.066506
     7  C    0.807011
     8  H    0.169751
     9  C   -0.278535
    10  H    0.191238
    11  C   -0.391384
    12  C   -0.389945
    13  C    0.185762
    14  H    0.213059
    15  H    0.172613
    16  H    0.156371
    17  H    0.181420
    18  H    0.158667
    19  H    0.183805
    20  H    0.172965
    21  C    0.203657
    22  H    0.248628
    23  C   -0.277377
    24  H   -0.170554
    25  C    1.775133
    26  O   -0.332427
    27  C    0.192712
    28  C   -1.273878
    29  H    0.414620
    30  O   -0.350141
    31  C   -0.521048
    32  C   -0.438635
    33  H    0.118879
    34  C   -0.395807
    35  H    0.237433
    36  H    0.222595
    37  H    0.207247
 Sum of Mulliken charges =   0.00000
 Mulliken charges with hydrogens summed into heavy atoms:
               1
     1  C   -0.082088
     2  C   -0.553225
     4  C   -0.334941
     5  C   -0.129099
     6  N    0.066506
     7  C    0.807011
     9  C   -0.065476
    11  C    0.119021
    12  C    0.125492
    13  C    0.434390
    21  C    0.033102
    23  C   -0.277377
    25  C    1.775133
    26  O   -0.332427
    27  C    0.192712
    28  C   -1.154999
    30  O    0.064479
    31  C   -0.283615
    32  C   -0.216040
    34  C   -0.188560
 Electronic spatial extent (au):  <R**2>=          16329.8355
 Charge=              0.0000 electrons
 Dipole moment (field-independent basis, Debye):
    X=             -7.3881    Y=             -1.5036    Z=              6.0777  Tot=              9.6842
 Quadrupole moment (field-independent basis, Debye-Ang):
   XX=            -89.5234   YY=           -113.1120   ZZ=            -84.7653
   XY=             -0.6399   XZ=            -24.5171   YZ=            -17.1183
 Traceless Quadrupole moment (field-independent basis, Debye-Ang):
   XX=              6.2768   YY=            -17.3118   ZZ=             11.0349
   XY=             -0.6399   XZ=            -24.5171   YZ=            -17.1183
 Octapole moment (field-independent basis, Debye-Ang**2):
  XXX=           -225.4870  YYY=            518.3803  ZZZ=           -909.4375  XYY=             -9.4503
  XXY=            112.9615  XXZ=           -153.8395  XZZ=           -182.3891  YZZ=             71.4398
  YYZ=           -322.2116  XYZ=             13.6891
 Hexadecapole moment (field-independent basis, Debye-Ang**3):
 XXXX=          -9483.7796 YYYY=          -2390.2953 ZZZZ=          -7869.6333 XXXY=            611.7154
 XXXZ=            662.7986 YYYX=            786.5228 YYYZ=           1582.1253 ZZZX=            640.6074
 ZZZY=           1089.9182 XXYY=          -2083.4006 XXZZ=          -2224.0730 YYZZ=          -1618.8722
 XXYZ=            191.4963 YYXZ=            576.9295 ZZXY=            474.3392
 N-N= 1.358388125021D+03 E-N=-4.725819935264D+03  KE= 8.591566852567D+02
 Leave Link  601 at Mon Nov  6 20:22:14 2017, MaxMem=  3758096384 cpu:         0.4
 (Enter /share/apps/gaussian/g09_D01/g09/l9999.exe)
 1\1\GINC-NXN36\SP\RwB97XD TD-FC\6-311++G(d,p)\C17H17N1O2\BTX008\06-Nov
 -2017\0\\#p wb97xd 6-311++G** td=(nstates=4) nosymm\\Title\\0,1\C,0,-2
 .781614,-1.929857,4.949057\C,0,-3.899567,-1.104949,4.623044\H,0,-2.857
 302,-2.667213,5.743983\C,0,-1.589403,-1.806976,4.273514\C,0,-3.73394,-
 0.167547,3.566427\N,0,-5.073462,-1.209339,5.297522\C,0,-1.415409,-0.87
 1998,3.222876\H,0,-0.764905,-2.460304,4.561627\C,0,-2.533855,-0.067726
 ,2.896805\H,0,-4.562114,0.469394,3.265867\C,0,-5.218792,-2.191368,6.36
 0707\C,0,-6.187049,-0.324912,4.983813\C,0,-0.21471,-0.745572,2.457648\
 H,0,-2.436476,0.649787,2.08077\H,0,-5.026172,-3.209094,5.987337\H,0,-6
 .238463,-2.151217,6.754688\H,0,-4.519211,-1.99012,7.185557\H,0,-7.0049
 35,-0.516059,5.685339\H,0,-6.554969,-0.493575,3.959922\H,0,-5.886296,0
 .730066,5.072453\C,0,0.968167,-1.412456,2.645758\H,0,-0.25758,-0.05054
 8,1.612086\C,0,2.088236,-1.238428,1.759478\H,0,1.074163,-2.099815,3.48
 2603\C,0,3.380024,-1.901192,2.027274\O,0,1.99078,-0.498466,0.713431\C,
 0,4.460431,-1.697998,1.116638\C,0,3.61705,-2.723616,3.149104\H,0,3.311
 671,-0.613585,0.091837\O,0,4.303032,-0.944233,0.010896\C,0,5.713299,-2
 .280435,1.366002\C,0,4.852786,-3.30849,3.380164\H,0,2.81664,-2.920673,
 3.860494\C,0,5.905928,-3.076949,2.485036\H,0,6.521299,-2.073366,0.6643
 3\H,0,5.001608,-3.946366,4.250925\H,0,6.883564,-3.522908,2.674804\\Ver
 sion=ES64L-G09RevD.01\HF=-863.1625464\RMSD=8.817e-09\PG=C01 [X(C17H17N
 1O2)]\\@


 ANYONE WHO IS NOT SHOCKED BY QUANTUM THEORY HAS
 NOT UNDERSTOOD IT. -- NIELS BOHR(1885-1962)
 Job cpu time:       0 days  2 hours  9 minutes 30.8 seconds.
 File lengths (MBytes):  RWF=    454 Int=      0 D2E=      0 Chk=     70 Scr=      1
 Normal termination of Gaussian 09 at Mon Nov  6 20:22:14 2017.
