 Entering Gaussian System, Link 0=g09
 Input=1_optS1_Rotated_90.com
 Output=1_optS1_Rotated_90.out
 Initial command:
 /share/apps/gaussian/g09_D01/g09/l1.exe "/tmp/3866258.1.serial.q/Gau-11774.inp" -scrdir="/tmp/3866258.1.serial.q/"
 Entering Link 1 = /share/apps/gaussian/g09_D01/g09/l1.exe PID=     11775.
  
 Copyright (c) 1988,1990,1992,1993,1995,1998,2003,2009,2013,
            Gaussian, Inc.  All Rights Reserved.
  
 This is part of the Gaussian(R) 09 program.  It is based on
 the Gaussian(R) 03 system (copyright 2003, Gaussian, Inc.),
 the Gaussian(R) 98 system (copyright 1998, Gaussian, Inc.),
 the Gaussian(R) 94 system (copyright 1995, Gaussian, Inc.),
 the Gaussian 92(TM) system (copyright 1992, Gaussian, Inc.),
 the Gaussian 90(TM) system (copyright 1990, Gaussian, Inc.),
 the Gaussian 88(TM) system (copyright 1988, Gaussian, Inc.),
 the Gaussian 86(TM) system (copyright 1986, Carnegie Mellon
 University), and the Gaussian 82(TM) system (copyright 1983,
 Carnegie Mellon University). Gaussian is a federally registered
 trademark of Gaussian, Inc.
  
 This software contains proprietary and confidential information,
 including trade secrets, belonging to Gaussian, Inc.
  
 This software is provided under written license and may be
 used, copied, transmitted, or stored only in accord with that
 written license.
  
 The following legend is applicable only to US Government
 contracts under FAR:
  
                    RESTRICTED RIGHTS LEGEND
  
 Use, reproduction and disclosure by the US Government is
 subject to restrictions as set forth in subparagraphs (a)
 and (c) of the Commercial Computer Software - Restricted
 Rights clause in FAR 52.227-19.
  
 Gaussian, Inc.
 340 Quinnipiac St., Bldg. 40, Wallingford CT 06492
  
  
 ---------------------------------------------------------------
 Warning -- This program may not be used in any manner that
 competes with the business of Gaussian, Inc. or will provide
 assistance to any competitor of Gaussian, Inc.  The licensee
 of this program is prohibited from giving any competitor of
 Gaussian, Inc. access to this program.  By using this program,
 the user acknowledges that Gaussian, Inc. is engaged in the
 business of creating and licensing software in the field of
 computational chemistry and represents and warrants to the
 licensee that it is not a competitor of Gaussian, Inc. and that
 it will not use this program in any manner prohibited above.
 ---------------------------------------------------------------
  

 Cite this work as:
 Gaussian 09, Revision D.01,
 M. J. Frisch, G. W. Trucks, H. B. Schlegel, G. E. Scuseria, 
 M. A. Robb, J. R. Cheeseman, G. Scalmani, V. Barone, B. Mennucci, 
 G. A. Petersson, H. Nakatsuji, M. Caricato, X. Li, H. P. Hratchian, 
 A. F. Izmaylov, J. Bloino, G. Zheng, J. L. Sonnenberg, M. Hada, 
 M. Ehara, K. Toyota, R. Fukuda, J. Hasegawa, M. Ishida, T. Nakajima, 
 Y. Honda, O. Kitao, H. Nakai, T. Vreven, J. A. Montgomery, Jr., 
 J. E. Peralta, F. Ogliaro, M. Bearpark, J. J. Heyd, E. Brothers, 
 K. N. Kudin, V. N. Staroverov, T. Keith, R. Kobayashi, J. Normand, 
 K. Raghavachari, A. Rendell, J. C. Burant, S. S. Iyengar, J. Tomasi, 
 M. Cossi, N. Rega, J. M. Millam, M. Klene, J. E. Knox, J. B. Cross, 
 V. Bakken, C. Adamo, J. Jaramillo, R. Gomperts, R. E. Stratmann, 
 O. Yazyev, A. J. Austin, R. Cammi, C. Pomelli, J. W. Ochterski, 
 R. L. Martin, K. Morokuma, V. G. Zakrzewski, G. A. Voth, 
 P. Salvador, J. J. Dannenberg, S. Dapprich, A. D. Daniels, 
 O. Farkas, J. B. Foresman, J. V. Ortiz, J. Cioslowski, 
 and D. J. Fox, Gaussian, Inc., Wallingford CT, 2013.
 
 ******************************************
 Gaussian 09:  ES64L-G09RevD.01 24-Apr-2013
                20-Nov-2016 
 ******************************************
 %chk=1_optS1_Rotated_90.chk
 %mem=12GB
 %nproc=4
 Will use up to    4 processors via shared memory.
 ---------------------------------------------
 # wb97xd 6-311++g** opt td=(nstates=1,root=1)
 ---------------------------------------------
 1/14=-1,18=20,19=15,26=3,38=1/1,3;
 2/9=110,12=2,17=6,18=5,40=1/2;
 3/5=4,6=6,7=1111,11=9,16=1,25=1,30=1,71=1,74=-58/1,2,8,3;
 4//1;
 5/5=2,38=5/2;
 8/6=1,10=2,107=1,108=1/1;
 9/8=1,15=2,41=1,42=1,70=2/14;
 10/5=4/2;
 6/7=2,8=2,9=2,10=2/1;
 7/12=6,13=5,14=1/1,2,3,16;
 1/14=-1,18=20,19=15,26=3/3(2);
 2/9=110/2;
 99//99;
 2/9=110/2;
 3/5=4,6=6,7=1111,11=9,16=1,25=1,30=1,71=1,74=-58/1,2,8,3;
 4/5=5,16=3,69=1/1;
 5/5=2,38=5/2;
 8/6=1,10=2,107=1,108=1/1;
 9/8=1,15=2,41=1,42=1,49=4,70=2/14;
 10/5=4/2;
 7/12=6,13=5,14=1/1,2,3,16;
 1/14=-1,18=20,19=15,26=3/3(-8);
 2/9=110/2;
 6/7=2,8=2,9=2,10=2/1;
 99//99;
 -----
 title
 -----
 Symbolic Z-matrix:
 Charge =  0 Multiplicity = 1
 C                    -0.0683    0.4374    6.05263 
 H                     0.84751   0.94242   5.74629 
 H                    -0.58956   1.06639   6.78421 
 C                    -0.549     0.87764   3.65685 
 H                    -0.65486   1.96336   3.76325 
 N                    -0.89134   0.19103   4.88703 
 H                     0.20206  -0.50637   6.53548 
 H                    -1.20794   0.54327   2.85587 
 H                     0.48256   0.65454   3.37009 
 C                    -2.0309   -0.51028   4.9997 
 H                    -2.60112  -0.63091   4.08305 
 C                    -2.5311   -1.08391   6.1277 
 C                    -3.77412  -1.82491   6.02756 
 H                    -2.02596  -0.98426   7.07581 
 O                    -4.35613  -1.94192   4.93406 
 C                    -4.37343  -2.45086   7.23512 
 C                    -4.86927  -3.77439   7.15431 
 C                    -5.16364  -1.49171   7.88791 
 O                    -4.11465  -4.84406   7.40808 
 C                    -6.11379  -4.08878   7.71522 
 C                    -6.38907  -1.8065    8.43966 
 H                    -4.81155  -0.47119   7.96762 
 H                    -3.21959  -4.50185   7.64424 
 H                    -6.46181  -5.11161   7.63415 
 C                    -6.86128  -3.11826   8.3482 
 H                    -6.97635  -1.04459   8.93765 
 H                    -7.82293  -3.37841   8.77722 
 

 GradGradGradGradGradGradGradGradGradGradGradGradGradGradGradGradGradGrad
 Berny optimization.
 Initialization pass.
                           ----------------------------
                           !    Initial Parameters    !
                           ! (Angstroms and Degrees)  !
 --------------------------                            --------------------------
 ! Name  Definition              Value          Derivative Info.                !
 --------------------------------------------------------------------------------
 ! R1    R(1,2)                  1.0898         estimate D2E/DX2                !
 ! R2    R(1,3)                  1.0966         estimate D2E/DX2                !
 ! R3    R(1,6)                  1.448          estimate D2E/DX2                !
 ! R4    R(1,7)                  1.0941         estimate D2E/DX2                !
 ! R5    R(4,5)                  1.096          estimate D2E/DX2                !
 ! R6    R(4,6)                  1.4498         estimate D2E/DX2                !
 ! R7    R(4,8)                  1.0898         estimate D2E/DX2                !
 ! R8    R(4,9)                  1.0937         estimate D2E/DX2                !
 ! R9    R(6,10)                 1.3428         estimate D2E/DX2                !
 ! R10   R(10,11)                1.0863         estimate D2E/DX2                !
 ! R11   R(10,12)                1.3608         estimate D2E/DX2                !
 ! R12   R(12,13)                1.4506         estimate D2E/DX2                !
 ! R13   R(12,14)                1.0789         estimate D2E/DX2                !
 ! R14   R(13,15)                1.2442         estimate D2E/DX2                !
 ! R15   R(13,16)                1.4863         estimate D2E/DX2                !
 ! R16   R(16,17)                1.4157         estimate D2E/DX2                !
 ! R17   R(16,18)                1.4038         estimate D2E/DX2                !
 ! R18   R(17,19)                1.3334         estimate D2E/DX2                !
 ! R19   R(17,20)                1.4008         estimate D2E/DX2                !
 ! R20   R(18,21)                1.3803         estimate D2E/DX2                !
 ! R21   R(18,22)                1.0825         estimate D2E/DX2                !
 ! R22   R(19,23)                0.9869         estimate D2E/DX2                !
 ! R23   R(20,24)                1.0835         estimate D2E/DX2                !
 ! R24   R(20,25)                1.3789         estimate D2E/DX2                !
 ! R25   R(21,25)                1.3972         estimate D2E/DX2                !
 ! R26   R(21,26)                1.0832         estimate D2E/DX2                !
 ! R27   R(25,27)                1.0847         estimate D2E/DX2                !
 ! A1    A(2,1,3)              108.7348         estimate D2E/DX2                !
 ! A2    A(2,1,6)              109.2826         estimate D2E/DX2                !
 ! A3    A(2,1,7)              108.4308         estimate D2E/DX2                !
 ! A4    A(3,1,6)              111.373          estimate D2E/DX2                !
 ! A5    A(3,1,7)              108.5308         estimate D2E/DX2                !
 ! A6    A(6,1,7)              110.4234         estimate D2E/DX2                !
 ! A7    A(5,4,6)              111.3432         estimate D2E/DX2                !
 ! A8    A(5,4,8)              108.4749         estimate D2E/DX2                !
 ! A9    A(5,4,9)              108.5796         estimate D2E/DX2                !
 ! A10   A(6,4,8)              109.6073         estimate D2E/DX2                !
 ! A11   A(6,4,9)              110.4007         estimate D2E/DX2                !
 ! A12   A(8,4,9)              108.3615         estimate D2E/DX2                !
 ! A13   A(1,6,4)              117.9196         estimate D2E/DX2                !
 ! A14   A(1,6,10)             120.2438         estimate D2E/DX2                !
 ! A15   A(4,6,10)             121.26           estimate D2E/DX2                !
 ! A16   A(6,10,11)            115.6379         estimate D2E/DX2                !
 ! A17   A(6,10,12)            126.9902         estimate D2E/DX2                !
 ! A18   A(11,10,12)           117.3704         estimate D2E/DX2                !
 ! A19   A(10,12,13)           118.2363         estimate D2E/DX2                !
 ! A20   A(10,12,14)           121.1592         estimate D2E/DX2                !
 ! A21   A(13,12,14)           120.6013         estimate D2E/DX2                !
 ! A22   A(12,13,15)           120.633          estimate D2E/DX2                !
 ! A23   A(12,13,16)           120.3019         estimate D2E/DX2                !
 ! A24   A(15,13,16)           119.0645         estimate D2E/DX2                !
 ! A25   A(13,16,17)           119.247          estimate D2E/DX2                !
 ! A26   A(13,16,18)           108.4837         estimate D2E/DX2                !
 ! A27   A(17,16,18)           117.9165         estimate D2E/DX2                !
 ! A28   A(16,17,19)           122.7449         estimate D2E/DX2                !
 ! A29   A(16,17,20)           119.877          estimate D2E/DX2                !
 ! A30   A(19,17,20)           104.2724         estimate D2E/DX2                !
 ! A31   A(16,18,21)           121.9939         estimate D2E/DX2                !
 ! A32   A(16,18,22)           119.6898         estimate D2E/DX2                !
 ! A33   A(21,18,22)           118.3164         estimate D2E/DX2                !
 ! A34   A(17,19,23)           106.2981         estimate D2E/DX2                !
 ! A35   A(17,20,24)           117.8583         estimate D2E/DX2                !
 ! A36   A(17,20,25)           120.4949         estimate D2E/DX2                !
 ! A37   A(24,20,25)           121.6468         estimate D2E/DX2                !
 ! A38   A(18,21,25)           119.2099         estimate D2E/DX2                !
 ! A39   A(18,21,26)           120.3106         estimate D2E/DX2                !
 ! A40   A(25,21,26)           120.4795         estimate D2E/DX2                !
 ! A41   A(20,25,21)           120.5079         estimate D2E/DX2                !
 ! A42   A(20,25,27)           119.5623         estimate D2E/DX2                !
 ! A43   A(21,25,27)           119.9298         estimate D2E/DX2                !
 ! D1    D(2,1,6,4)            -13.4848         estimate D2E/DX2                !
 ! D2    D(2,1,6,10)           175.1118         estimate D2E/DX2                !
 ! D3    D(3,1,6,4)            106.669          estimate D2E/DX2                !
 ! D4    D(3,1,6,10)           -64.7344         estimate D2E/DX2                !
 ! D5    D(7,1,6,4)           -132.6736         estimate D2E/DX2                !
 ! D6    D(7,1,6,10)            55.923          estimate D2E/DX2                !
 ! D7    D(5,4,6,1)            -63.89           estimate D2E/DX2                !
 ! D8    D(5,4,6,10)           107.4215         estimate D2E/DX2                !
 ! D9    D(8,4,6,1)            176.0861         estimate D2E/DX2                !
 ! D10   D(8,4,6,10)           -12.6024         estimate D2E/DX2                !
 ! D11   D(9,4,6,1)             56.7938         estimate D2E/DX2                !
 ! D12   D(9,4,6,10)          -131.8947         estimate D2E/DX2                !
 ! D13   D(1,6,10,11)          178.6481         estimate D2E/DX2                !
 ! D14   D(1,6,10,12)           -1.819          estimate D2E/DX2                !
 ! D15   D(4,6,10,11)            7.5364         estimate D2E/DX2                !
 ! D16   D(4,6,10,12)         -172.9306         estimate D2E/DX2                !
 ! D17   D(6,10,12,13)        -178.8301         estimate D2E/DX2                !
 ! D18   D(6,10,12,14)           1.8149         estimate D2E/DX2                !
 ! D19   D(11,10,12,13)          0.6957         estimate D2E/DX2                !
 ! D20   D(11,10,12,14)       -178.6592         estimate D2E/DX2                !
 ! D21   D(10,12,13,15)          0.7511         estimate D2E/DX2                !
 ! D22   D(10,12,13,16)       -178.9788         estimate D2E/DX2                !
 ! D23   D(14,12,13,15)       -179.8903         estimate D2E/DX2                !
 ! D24   D(14,12,13,16)          0.3799         estimate D2E/DX2                !
 ! D25   D(12,13,16,17)       -135.266          estimate D2E/DX2                !
 ! D26   D(12,13,16,18)         85.887          estimate D2E/DX2                !
 ! D27   D(15,13,16,17)         45.0            estimate D2E/DX2                !
 ! D28   D(15,13,16,18)        -93.847          estimate D2E/DX2                !
 ! D29   D(13,16,17,19)         90.0            estimate D2E/DX2                !
 ! D30   D(13,16,17,20)       -134.969          estimate D2E/DX2                !
 ! D31   D(18,16,17,19)       -134.9361         estimate D2E/DX2                !
 ! D32   D(18,16,17,20)          0.095          estimate D2E/DX2                !
 ! D33   D(13,16,18,21)        139.4091         estimate D2E/DX2                !
 ! D34   D(13,16,18,22)        -40.6194         estimate D2E/DX2                !
 ! D35   D(17,16,18,21)         -0.0645         estimate D2E/DX2                !
 ! D36   D(17,16,18,22)        179.9069         estimate D2E/DX2                !
 ! D37   D(16,17,19,23)          0.2018         estimate D2E/DX2                !
 ! D38   D(20,17,19,23)       -140.5771         estimate D2E/DX2                !
 ! D39   D(16,17,20,24)        179.9736         estimate D2E/DX2                !
 ! D40   D(16,17,20,25)         -0.0695         estimate D2E/DX2                !
 ! D41   D(19,17,20,24)        -37.8583         estimate D2E/DX2                !
 ! D42   D(19,17,20,25)        142.0986         estimate D2E/DX2                !
 ! D43   D(16,18,21,25)          0.0065         estimate D2E/DX2                !
 ! D44   D(16,18,21,26)        179.9847         estimate D2E/DX2                !
 ! D45   D(22,18,21,25)       -179.9653         estimate D2E/DX2                !
 ! D46   D(22,18,21,26)          0.0129         estimate D2E/DX2                !
 ! D47   D(17,20,25,21)          0.0098         estimate D2E/DX2                !
 ! D48   D(17,20,25,27)        179.9995         estimate D2E/DX2                !
 ! D49   D(24,20,25,21)        179.9651         estimate D2E/DX2                !
 ! D50   D(24,20,25,27)         -0.0453         estimate D2E/DX2                !
 ! D51   D(18,21,25,20)          0.022          estimate D2E/DX2                !
 ! D52   D(18,21,25,27)       -179.9676         estimate D2E/DX2                !
 ! D53   D(26,21,25,20)       -179.9561         estimate D2E/DX2                !
 ! D54   D(26,21,25,27)          0.0543         estimate D2E/DX2                !
 --------------------------------------------------------------------------------
 Trust Radius=3.00D-01 FncErr=1.00D-07 GrdErr=1.00D-06
 Number of steps in this run=    134 maximum allowed number of steps=    162.
 GradGradGradGradGradGradGradGradGradGradGradGradGradGradGradGradGradGrad

                          Input orientation:                          
 ---------------------------------------------------------------------
 Center     Atomic      Atomic             Coordinates (Angstroms)
 Number     Number       Type             X           Y           Z
 ---------------------------------------------------------------------
      1          6           0       -0.068303    0.437404    6.052627
      2          1           0        0.847511    0.942424    5.746285
      3          1           0       -0.589561    1.066391    6.784212
      4          6           0       -0.549002    0.877643    3.656852
      5          1           0       -0.654862    1.963356    3.763248
      6          7           0       -0.891337    0.191031    4.887026
      7          1           0        0.202055   -0.506373    6.535485
      8          1           0       -1.207939    0.543270    2.855869
      9          1           0        0.482557    0.654542    3.370093
     10          6           0       -2.030896   -0.510282    4.999698
     11          1           0       -2.601123   -0.630909    4.083048
     12          6           0       -2.531103   -1.083907    6.127700
     13          6           0       -3.774121   -1.824910    6.027557
     14          1           0       -2.025955   -0.984255    7.075807
     15          8           0       -4.356129   -1.941923    4.934063
     16          6           0       -4.373429   -2.450864    7.235120
     17          6           0       -4.869270   -3.774387    7.154306
     18          6           0       -5.163639   -1.491710    7.887913
     19          8           0       -4.114651   -4.844056    7.408083
     20          6           0       -6.113787   -4.088776    7.715223
     21          6           0       -6.389069   -1.806499    8.439664
     22          1           0       -4.811547   -0.471187    7.967618
     23          1           0       -3.219591   -4.501850    7.644236
     24          1           0       -6.461808   -5.111607    7.634153
     25          6           0       -6.861278   -3.118258    8.348199
     26          1           0       -6.976353   -1.044590    8.937647
     27          1           0       -7.822928   -3.378413    8.777216
 ---------------------------------------------------------------------
                    Distance matrix (angstroms):
                    1          2          3          4          5
     1  C    0.000000
     2  H    1.089773   0.000000
     3  H    1.096609   1.777029   0.000000
     4  C    2.482865   2.513995   3.133313   0.000000
     5  H    2.813155   2.689212   3.151989   1.096038   0.000000
     6  N    1.448002   2.080026   2.111075   1.449813   2.111856
     7  H    1.094057   1.771570   1.778232   3.281175   3.810403
     8  H    3.395474   3.569132   4.010976   1.089761   1.773662
     9  H    2.747106   2.421231   3.602120   1.093672   1.778001
    10  C    2.420441   3.309527   2.783493   2.434251   3.088877
    11  H    3.381673   4.139422   3.771406   2.582359   3.258899
    12  C    2.895756   3.958096   2.970586   3.725787   4.289141
    13  C    4.341863   5.394138   4.367330   4.829640   5.404427
    14  H    2.626863   3.706282   2.520597   4.163809   4.641267
    15  O    5.029695   6.004751   5.163337   4.906673   5.506487
    16  C    5.317376   6.402284   5.185756   6.205578   6.735501
    17  C    6.480907   7.544031   6.471940   7.248329   7.885569
    18  C    5.749104   6.829750   5.355766   6.694071   7.019930
    19  O    6.789993   7.801793   6.910055   7.715142   8.461431
    20  C    7.732943   8.811887   7.613121   8.491321   9.057940
    21  C    7.119349   8.196277   6.680443   8.011635   8.304325
    22  H    5.195295   6.241598   4.646479   6.210583   6.393885
    23  H    6.071249   7.055753   6.217878   7.209037   7.964847
    24  H    8.612180   9.676852   8.565824   9.308668   9.937788
    25  C    8.003555   9.093103   7.700116   8.821609   9.239274
    26  H    7.631566   8.680199   7.062906   8.537717   8.705366
    27  H    9.061901  10.150502   8.720663   9.861143  10.249661
                    6          7          8          9         10
     6  N    0.000000
     7  H    2.097450   0.000000
     8  H    2.085644   4.077917   0.000000
     9  H    2.098456   3.383210   1.770476   0.000000
    10  C    1.342806   2.710115   2.526506   3.214012   0.000000
    11  H    2.060421   3.726629   2.196731   3.416105   1.086259
    12  C    2.419415   2.823117   3.886302   4.439454   1.360750
    13  C    3.698008   4.219775   4.717326   5.597241   2.413208
    14  H    2.731193   2.341869   4.561837   4.765565   2.129531
    15  O    4.068967   5.040080   4.517320   5.709687   2.731413
    16  C    4.961665   5.020517   6.177621   6.939927   3.774975
    17  C    6.057148   6.064750   7.108028   7.910609   4.832503
    18  C    5.485389   5.620554   6.716411   7.542985   4.372536
    19  O    6.488264   6.181494   7.628558   8.226437   5.378099
    20  C    7.320480   7.356307   8.314837   9.213630   6.070396
    21  C    6.843714   6.982775   7.971467   8.886874   5.701510
    22  H    5.029575   5.214255   6.336016   7.101552   4.067198
    23  H    5.919975   5.375949   7.240748   7.652619   4.933477
    24  H    8.166689   8.174492   9.078148   9.982730   6.909814
    25  C    7.653189   7.745873   8.690956   9.640927   6.430132
    26  H    7.413616   7.588782   8.531350   9.461504   6.344327
    27  H    8.713292   8.813304   9.705670  10.699663   7.486218
                   11         12         13         14         15
    11  H    0.000000
    12  C    2.095402   0.000000
    13  C    2.565672   1.450588   0.000000
    14  H    3.067943   1.078894   2.204906   0.000000
    15  O    2.350113   2.343434   1.244249   3.306646   0.000000
    16  C    4.048315   2.547374   1.486337   2.772536   2.356731
    17  C    4.945560   3.709397   2.503872   3.984399   2.924160
    18  C    4.667382   3.192945   2.345785   3.280562   3.095157
    19  O    5.576488   4.276181   3.337223   4.401263   3.821186
    20  C    6.122772   4.938127   3.667062   5.172743   3.928510
    21  C    5.891574   4.555351   3.557605   4.644670   4.054679
    22  H    4.472289   2.993518   2.583149   2.969527   3.401901
    23  H    5.296106   3.802135   3.176030   3.757839   3.897433
    24  H    6.898687   5.825994   4.539515   6.084700   4.665969
    25  C    6.521298   5.274431   4.072919   5.436294   4.394981
    26  H    6.548351   5.259050   4.396796   5.289285   4.868210
    27  H    7.539976   6.347291   5.134865   6.498591   5.371408
                   16         17         18         19         20
    16  C    0.000000
    17  C    1.415663   0.000000
    18  C    1.403762   2.415667   0.000000
    19  O    2.413348   1.333433   3.545256   0.000000
    20  C    2.437643   1.400818   2.770805   2.159011   0.000000
    21  C    2.434941   2.799021   1.380290   3.932415   2.410267
    22  H    2.155835   3.402343   1.082492   4.463264   3.853114
    23  H    2.388569   1.868335   3.591608   0.986917   2.924388
    24  H    3.405893   2.134148   3.853997   2.373149   1.083454
    25  C    2.806021   2.413293   2.395726   3.377301   1.378879
    26  H    3.413418   3.882254   2.141913   4.996484   3.391963
    27  H    3.890688   3.393336   3.379694   4.215917   2.133919
                   21         22         23         24         25
    21  C    0.000000
    22  H    2.120015   0.000000
    23  H    4.235944   4.345705   0.000000
    24  H    3.402628   4.936401   3.299072   0.000000
    25  C    1.397161   3.369455   3.958760   2.154734   0.000000
    26  H    1.083234   2.440519   5.266767   4.301684   2.158886
    27  H    2.154253   4.263312   4.872009   2.482580   1.084669
                   26         27
    26  H    0.000000
    27  H    2.487802   0.000000
 Stoichiometry    C11H13NO2
 Framework group  C1[X(C11H13NO2)]
 Deg. of freedom    75
 Full point group                 C1      NOp   1
 Largest Abelian subgroup         C1      NOp   1
 Largest concise Abelian subgroup C1      NOp   1
                         Standard orientation:                         
 ---------------------------------------------------------------------
 Center     Atomic      Atomic             Coordinates (Angstroms)
 Number     Number       Type             X           Y           Z
 ---------------------------------------------------------------------
      1          6           0       -3.864622    0.273127   -1.485213
      2          1           0       -4.930475    0.218632   -1.705653
      3          1           0       -3.500487    1.272600   -1.751688
      4          6           0       -4.806445   -0.001523    0.795611
      5          1           0       -5.261076    0.994406    0.847921
      6          7           0       -3.651709   -0.009057   -0.081022
      7          1           0       -3.345004   -0.463099   -2.105639
      8          1           0       -4.504759   -0.296624    1.800339
      9          1           0       -5.559715   -0.710199    0.439968
     10          6           0       -2.404879   -0.097039    0.409692
     11          1           0       -2.332053   -0.288641    1.476436
     12          6           0       -1.241151    0.019062   -0.285938
     13          6           0        0.007894   -0.135029    0.435414
     14          1           0       -1.241908    0.230514   -1.343908
     15          8           0        0.009439   -0.380904    1.655126
     16          6           0        1.306160    0.005227   -0.274537
     17          6           0        2.333664   -0.937350   -0.029826
     18          6           0        1.654265    1.364884   -0.301087
     19          8           0        2.469331   -2.057281   -0.740736
     20          6           0        3.647768   -0.498919    0.178024
     21          6           0        2.950746    1.791991   -0.096349
     22          1           0        0.891508    2.110087   -0.487267
     23          1           0        1.744047   -2.050068   -1.410002
     24          1           0        4.408209   -1.248203    0.362886
     25          6           0        3.950212    0.845974    0.144849
     26          1           0        3.188984    2.848365   -0.123013
     27          1           0        4.972860    1.168682    0.307812
 ---------------------------------------------------------------------
 Rotational constants (GHZ):      1.7218231      0.2961325      0.2857810
 Standard basis: 6-311++G(d,p) (5D, 7F)
 There are   413 symmetry adapted cartesian basis functions of A   symmetry.
 There are   399 symmetry adapted basis functions of A   symmetry.
   399 basis functions,   621 primitive gaussians,   413 cartesian basis functions
    51 alpha electrons       51 beta electrons
       nuclear repulsion energy       835.2333342252 Hartrees.
 NAtoms=   27 NActive=   27 NUniq=   27 SFac= 1.00D+00 NAtFMM=   60 NAOKFM=F Big=F
 Integral buffers will be    131072 words long.
 Raffenetti 1 integral format.
 Two-electron integral symmetry is turned on.
 Nuclear repulsion after empirical dispersion term =      835.2180549630 Hartrees.
 One-electron integrals computed using PRISM.
 NBasis=   399 RedAO= T EigKep=  1.13D-06  NBF=   399
 NBsUse=   398 1.00D-06 EigRej=  9.86D-07 NBFU=   398
 ExpMin= 3.60D-02 ExpMax= 8.59D+03 ExpMxC= 1.30D+03 IAcc=3 IRadAn=         5 AccDes= 0.00D+00
 Harris functional with IExCor= 4639 and IRadAn=       5 diagonalized for initial guess.
 HarFok:  IExCor= 4639 AccDes= 0.00D+00 IRadAn=         5 IDoV= 1 UseB2=F ITyADJ=14
 ICtDFT=  3500011 ScaDFX=  1.000000  1.000000  1.000000  1.000000
 FoFCou: FMM=F IPFlag=           0 FMFlag=      100000 FMFlg1=           0
         NFxFlg=           0 DoJE=T BraDBF=F KetDBF=T FulRan=T
         wScrn=  0.000000 ICntrl=     500 IOpCl=  0 I1Cent=   200000004 NGrid=           0
         NMat0=    1 NMatS0=      1 NMatT0=    0 NMatD0=    1 NMtDS0=    0 NMtDT0=    0
 Petite list used in FoFCou.
 Requested convergence on RMS density matrix=1.00D-08 within 128 cycles.
 Requested convergence on MAX density matrix=1.00D-06.
 Requested convergence on             energy=1.00D-06.
 No special actions if energy rises.
 SCF Done:  E(RwB97XD) =  -632.058017329     A.U. after   18 cycles
            NFock= 18  Conv=0.31D-08     -V/T= 2.0037
 DoSCS=F DFT=T ScalE2(SS,OS)=  1.000000  1.000000
 ExpMin= 3.60D-02 ExpMax= 8.59D+03 ExpMxC= 1.30D+03 IAcc=3 IRadAn=         5 AccDes= 0.00D+00
 HarFok:  IExCor=  205 AccDes= 0.00D+00 IRadAn=         5 IDoV=-2 UseB2=F ITyADJ=14
 ICtDFT= 12500011 ScaDFX=  1.000000  1.000000  1.000000  1.000000
 Range of M.O.s used for correlation:    15   398
 NBasis=   399 NAE=    51 NBE=    51 NFC=    14 NFV=     0
 NROrb=    384 NOA=    37 NOB=    37 NVA=   347 NVB=   347

 **** Warning!!: The largest alpha MO coefficient is  0.14003807D+03

 Would need an additional         17529300000 words for in-memory AO integral storage.
 Orbital symmetries:
       Occupied  (A) (A) (A) (A) (A) (A) (A) (A) (A) (A) (A) (A)
                 (A) (A) (A) (A) (A) (A) (A) (A) (A) (A) (A) (A)
                 (A) (A) (A) (A) (A) (A) (A) (A) (A) (A) (A) (A)
                 (A) (A) (A) (A) (A) (A) (A) (A) (A) (A) (A) (A)
                 (A) (A) (A)
       Virtual   (A) (A) (A) (A) (A) (A) (A) (A) (A) (A) (A) (A)
                 (A) (A) (A) (A) (A) (A) (A) (A) (A) (A) (A) (A)
                 (A) (A) (A) (A) (A) (A) (A) (A) (A) (A) (A) (A)
                 (A) (A) (A) (A) (A) (A) (A) (A) (A) (A) (A) (A)
                 (A) (A) (A) (A) (A) (A) (A) (A) (A) (A) (A) (A)
                 (A) (A) (A) (A) (A) (A) (A) (A) (A) (A) (A) (A)
                 (A) (A) (A) (A) (A) (A) (A) (A) (A) (A) (A) (A)
                 (A) (A) (A) (A) (A) (A) (A) (A) (A) (A) (A) (A)
                 (A) (A) (A) (A) (A) (A) (A) (A) (A) (A) (A) (A)
                 (A) (A) (A) (A) (A) (A) (A) (A) (A) (A) (A) (A)
                 (A) (A) (A) (A) (A) (A) (A) (A) (A) (A) (A) (A)
                 (A) (A) (A) (A) (A) (A) (A) (A) (A) (A) (A) (A)
                 (A) (A) (A) (A) (A) (A) (A) (A) (A) (A) (A) (A)
                 (A) (A) (A) (A) (A) (A) (A) (A) (A) (A) (A) (A)
                 (A) (A) (A) (A) (A) (A) (A) (A) (A) (A) (A) (A)
                 (A) (A) (A) (A) (A) (A) (A) (A) (A) (A) (A) (A)
                 (A) (A) (A) (A) (A) (A) (A) (A) (A) (A) (A) (A)
                 (A) (A) (A) (A) (A) (A) (A) (A) (A) (A) (A) (A)
                 (A) (A) (A) (A) (A) (A) (A) (A) (A) (A) (A) (A)
                 (A) (A) (A) (A) (A) (A) (A) (A) (A) (A) (A) (A)
                 (A) (A) (A) (A) (A) (A) (A) (A) (A) (A) (A) (A)
                 (A) (A) (A) (A) (A) (A) (A) (A) (A) (A) (A) (A)
                 (A) (A) (A) (A) (A) (A) (A) (A) (A) (A) (A) (A)
                 (A) (A) (A) (A) (A) (A) (A) (A) (A) (A) (A) (A)
                 (A) (A) (A) (A) (A) (A) (A) (A) (A) (A) (A) (A)
                 (A) (A) (A) (A) (A) (A) (A) (A) (A) (A) (A) (A)
                 (A) (A) (A) (A) (A) (A) (A) (A) (A) (A) (A) (A)
                 (A) (A) (A) (A) (A) (A) (A) (A) (A) (A) (A) (A)
                 (A) (A) (A) (A) (A) (A) (A) (A) (A) (A) (A)
     8 initial guesses have been made.
 Convergence on wavefunction:    0.000001000000000
 Iteration     1 Dimension     8 NMult     0 NNew      8
 CISAX will form     8 AO SS matrices at one time.
 Iteration     2 Dimension    12 NMult     8 NNew      4
 Iteration     3 Dimension    16 NMult    12 NNew      4
 Iteration     4 Dimension    20 NMult    16 NNew      4
 Iteration     5 Dimension    24 NMult    20 NNew      4
 Iteration     6 Dimension    28 NMult    24 NNew      4
 Iteration     7 Dimension    32 NMult    28 NNew      4
 Iteration     8 Dimension    36 NMult    32 NNew      4
 Iteration     9 Dimension    40 NMult    36 NNew      4
 Iteration    10 Dimension    44 NMult    40 NNew      4
 Iteration    11 Dimension    48 NMult    44 NNew      4
 Iteration    12 Dimension    52 NMult    48 NNew      4
 Iteration    13 Dimension    56 NMult    52 NNew      4
 Iteration    14 Dimension    60 NMult    56 NNew      4
 Iteration    15 Dimension    64 NMult    60 NNew      4
 ***********************************************************************
 Excited states from <AA,BB:AA,BB> singles matrix:
 ***********************************************************************
 
 Ground to excited state transition densities written to RWF  633
 Ground to excited state transition electric dipole moments (Au):
       state          X           Y           Z        Dip. S.      Osc.
         1        -0.7287      0.6270     -0.0503      0.9267      0.0846
 Ground to excited state transition velocity dipole moments (Au):
       state          X           Y           Z        Dip. S.      Osc.
         1         0.1006     -0.0872      0.0087      0.0178      0.0866
 Ground to excited state transition magnetic dipole moments (Au):
       state          X           Y           Z
         1         0.0584     -0.0891     -0.8258
 Ground to excited state transition velocity quadrupole moments (Au):
       state          XX          YY          ZZ          XY          XZ          YZ
         1         0.1067      0.0727     -0.0689     -0.4193      0.0119      0.0504
 <0|del|b> * <b|rxdel|0> + <0|del|b> * <b|delr+rdel|0>
 Rotatory Strengths (R) in cgs (10**-40 erg-esu-cm/Gauss)
       state          XX          YY          ZZ    R(velocity)    E-M Angle
         1        -5.1761     19.1288     19.4634     11.1387       86.66
 1/2[<0|r|b>*<b|rxdel|0> + (<0|rxdel|b>*<b|r|0>)*]
 Rotatory Strengths (R) in cgs (10**-40 erg-esu-cm/Gauss)
       state          XX          YY          ZZ     R(length)
         1        30.0826     39.5129    -29.3502     13.4151
  1/2[<0|del|b>*<b|r|0> + (<0|r|b>*<b|del|0>)*] (Au)
       state          X           Y           Z        Dip. S.   Osc.(frdel)
         1        -0.0733     -0.0547     -0.0004      0.1284      0.0856

 Excitation energies and oscillator strengths:
 
 Excited State   1:      Singlet-A      3.7266 eV  332.70 nm  f=0.0846  <S**2>=0.000
      50 -> 52         0.22800
      51 -> 52         0.63781
 This state for optimization and/or second-order correction.
 Total Energy, E(TD-HF/TD-KS) =  -631.921068999    
 Copying the excited state density for this state as the 1-particle RhoCI density.
 SavETr:  write IOETrn=   770 NScale= 10 NData=  16 NLR=1 NState=    1 LETran=      28.
          IDoAtm=111111111111111111111111111
          Differentiating once with respect to electric field.
                with respect to dipole field.
          Differentiating once with respect to nuclear coordinates.
          There are     1 degrees of freedom in the 1st order CPHF.  IDoFFX=0 NUNeed=     1.
 LinEq1:  Iter=  0 NonCon=     1 RMS=2.80D-03 Max=1.15D-01 NDo=     1
 AX will form     1 AO Fock derivatives at one time.
 LinEq1:  Iter=  1 NonCon=     1 RMS=1.42D-03 Max=5.27D-02 NDo=     1
 LinEq1:  Iter=  2 NonCon=     1 RMS=8.64D-04 Max=2.72D-02 NDo=     1
 LinEq1:  Iter=  3 NonCon=     1 RMS=3.80D-04 Max=1.16D-02 NDo=     1
 LinEq1:  Iter=  4 NonCon=     1 RMS=2.91D-04 Max=9.98D-03 NDo=     1
 LinEq1:  Iter=  5 NonCon=     1 RMS=1.40D-04 Max=5.03D-03 NDo=     1
 LinEq1:  Iter=  6 NonCon=     1 RMS=5.30D-05 Max=1.55D-03 NDo=     1
 LinEq1:  Iter=  7 NonCon=     1 RMS=3.41D-05 Max=1.27D-03 NDo=     1
 LinEq1:  Iter=  8 NonCon=     1 RMS=1.42D-05 Max=5.24D-04 NDo=     1
 LinEq1:  Iter=  9 NonCon=     1 RMS=7.00D-06 Max=2.45D-04 NDo=     1
 LinEq1:  Iter= 10 NonCon=     1 RMS=2.96D-06 Max=1.85D-04 NDo=     1
 LinEq1:  Iter= 11 NonCon=     1 RMS=1.60D-06 Max=6.30D-05 NDo=     1
 LinEq1:  Iter= 12 NonCon=     1 RMS=7.60D-07 Max=3.86D-05 NDo=     1
 LinEq1:  Iter= 13 NonCon=     1 RMS=3.59D-07 Max=7.34D-06 NDo=     1
 LinEq1:  Iter= 14 NonCon=     1 RMS=1.63D-07 Max=4.60D-06 NDo=     1
 LinEq1:  Iter= 15 NonCon=     1 RMS=6.92D-08 Max=1.46D-06 NDo=     1
 LinEq1:  Iter= 16 NonCon=     1 RMS=3.39D-08 Max=9.14D-07 NDo=     1
 LinEq1:  Iter= 17 NonCon=     1 RMS=1.46D-08 Max=3.78D-07 NDo=     1
 LinEq1:  Iter= 18 NonCon=     1 RMS=5.91D-09 Max=1.90D-07 NDo=     1
 LinEq1:  Iter= 19 NonCon=     1 RMS=2.13D-09 Max=8.48D-08 NDo=     1
 LinEq1:  Iter= 20 NonCon=     1 RMS=8.65D-10 Max=3.20D-08 NDo=     1
 LinEq1:  Iter= 21 NonCon=     1 RMS=3.57D-10 Max=1.13D-08 NDo=     1
 LinEq1:  Iter= 22 NonCon=     1 RMS=1.39D-10 Max=5.12D-09 NDo=     1
 LinEq1:  Iter= 23 NonCon=     1 RMS=4.82D-11 Max=1.53D-09 NDo=     1
 LinEq1:  Iter= 24 NonCon=     0 RMS=2.36D-11 Max=5.94D-10 NDo=     1
 Linear equations converged to 1.000D-10 1.000D-09 after    24 iterations.
 End of Minotr F.D. properties file   721 does not exist.
 End of Minotr F.D. properties file   722 does not exist.
 End of Minotr F.D. properties file   788 does not exist.

 **********************************************************************

            Population analysis using the SCF density.

 **********************************************************************

 Orbital symmetries:
       Occupied  (A) (A) (A) (A) (A) (A) (A) (A) (A) (A) (A) (A)
                 (A) (A) (A) (A) (A) (A) (A) (A) (A) (A) (A) (A)
                 (A) (A) (A) (A) (A) (A) (A) (A) (A) (A) (A) (A)
                 (A) (A) (A) (A) (A) (A) (A) (A) (A) (A) (A) (A)
                 (A) (A) (A)
       Virtual   (A) (A) (A) (A) (A) (A) (A) (A) (A) (A) (A) (A)
                 (A) (A) (A) (A) (A) (A) (A) (A) (A) (A) (A) (A)
                 (A) (A) (A) (A) (A) (A) (A) (A) (A) (A) (A) (A)
                 (A) (A) (A) (A) (A) (A) (A) (A) (A) (A) (A) (A)
                 (A) (A) (A) (A) (A) (A) (A) (A) (A) (A) (A) (A)
                 (A) (A) (A) (A) (A) (A) (A) (A) (A) (A) (A) (A)
                 (A) (A) (A) (A) (A) (A) (A) (A) (A) (A) (A) (A)
                 (A) (A) (A) (A) (A) (A) (A) (A) (A) (A) (A) (A)
                 (A) (A) (A) (A) (A) (A) (A) (A) (A) (A) (A) (A)
                 (A) (A) (A) (A) (A) (A) (A) (A) (A) (A) (A) (A)
                 (A) (A) (A) (A) (A) (A) (A) (A) (A) (A) (A) (A)
                 (A) (A) (A) (A) (A) (A) (A) (A) (A) (A) (A) (A)
                 (A) (A) (A) (A) (A) (A) (A) (A) (A) (A) (A) (A)
                 (A) (A) (A) (A) (A) (A) (A) (A) (A) (A) (A) (A)
                 (A) (A) (A) (A) (A) (A) (A) (A) (A) (A) (A) (A)
                 (A) (A) (A) (A) (A) (A) (A) (A) (A) (A) (A) (A)
                 (A) (A) (A) (A) (A) (A) (A) (A) (A) (A) (A) (A)
                 (A) (A) (A) (A) (A) (A) (A) (A) (A) (A) (A) (A)
                 (A) (A) (A) (A) (A) (A) (A) (A) (A) (A) (A) (A)
                 (A) (A) (A) (A) (A) (A) (A) (A) (A) (A) (A) (A)
                 (A) (A) (A) (A) (A) (A) (A) (A) (A) (A) (A) (A)
                 (A) (A) (A) (A) (A) (A) (A) (A) (A) (A) (A) (A)
                 (A) (A) (A) (A) (A) (A) (A) (A) (A) (A) (A) (A)
                 (A) (A) (A) (A) (A) (A) (A) (A) (A) (A) (A) (A)
                 (A) (A) (A) (A) (A) (A) (A) (A) (A) (A) (A) (A)
                 (A) (A) (A) (A) (A) (A) (A) (A) (A) (A) (A) (A)
                 (A) (A) (A) (A) (A) (A) (A) (A) (A) (A) (A) (A)
                 (A) (A) (A) (A) (A) (A) (A) (A) (A) (A) (A) (A)
                 (A) (A) (A) (A) (A) (A) (A) (A) (A) (A) (A)
 The electronic state is 1-A.
 Alpha  occ. eigenvalues --  -19.27912 -19.20237 -14.48379 -10.36127 -10.35357
 Alpha  occ. eigenvalues --  -10.33698 -10.33490 -10.33232 -10.29156 -10.28813
 Alpha  occ. eigenvalues --  -10.28506 -10.27835 -10.27638 -10.26365  -1.18041
 Alpha  occ. eigenvalues --   -1.10918  -1.08170  -0.95464  -0.88512  -0.86270
 Alpha  occ. eigenvalues --   -0.84794  -0.83790  -0.79433  -0.73715  -0.70084
 Alpha  occ. eigenvalues --   -0.68668  -0.64795  -0.62443  -0.60562  -0.58429
 Alpha  occ. eigenvalues --   -0.57995  -0.57380  -0.55425  -0.53618  -0.51533
 Alpha  occ. eigenvalues --   -0.51310  -0.51080  -0.50349  -0.49226  -0.49045
 Alpha  occ. eigenvalues --   -0.47595  -0.46225  -0.46108  -0.44701  -0.42872
 Alpha  occ. eigenvalues --   -0.40830  -0.40143  -0.32686  -0.31792  -0.28937
 Alpha  occ. eigenvalues --   -0.27859
 Alpha virt. eigenvalues --    0.01100   0.02919   0.03684   0.04432   0.05024
 Alpha virt. eigenvalues --    0.05690   0.05716   0.05867   0.06482   0.07307
 Alpha virt. eigenvalues --    0.07637   0.08011   0.08630   0.09238   0.10041
 Alpha virt. eigenvalues --    0.10827   0.11640   0.12523   0.13189   0.13750
 Alpha virt. eigenvalues --    0.14018   0.14366   0.14643   0.15056   0.15282
 Alpha virt. eigenvalues --    0.16091   0.16122   0.16724   0.16765   0.17199
 Alpha virt. eigenvalues --    0.17589   0.17925   0.18362   0.18475   0.18777
 Alpha virt. eigenvalues --    0.18939   0.19284   0.19860   0.19996   0.20217
 Alpha virt. eigenvalues --    0.20990   0.21539   0.22123   0.22314   0.22616
 Alpha virt. eigenvalues --    0.23154   0.23232   0.23404   0.24464   0.24584
 Alpha virt. eigenvalues --    0.24891   0.25829   0.26388   0.26909   0.27233
 Alpha virt. eigenvalues --    0.28304   0.28904   0.29249   0.29417   0.30156
 Alpha virt. eigenvalues --    0.31029   0.31382   0.31667   0.32466   0.32986
 Alpha virt. eigenvalues --    0.33348   0.33660   0.33990   0.34387   0.35175
 Alpha virt. eigenvalues --    0.35301   0.35614   0.35755   0.36106   0.36935
 Alpha virt. eigenvalues --    0.37181   0.37237   0.38183   0.38634   0.39580
 Alpha virt. eigenvalues --    0.40204   0.40566   0.41454   0.42314   0.42593
 Alpha virt. eigenvalues --    0.43356   0.44171   0.44638   0.44920   0.45052
 Alpha virt. eigenvalues --    0.45542   0.47718   0.49513   0.50196   0.51441
 Alpha virt. eigenvalues --    0.52344   0.52785   0.54399   0.55544   0.57643
 Alpha virt. eigenvalues --    0.58483   0.59825   0.61087   0.61677   0.62755
 Alpha virt. eigenvalues --    0.63140   0.64892   0.65303   0.65533   0.66156
 Alpha virt. eigenvalues --    0.66768   0.67675   0.69101   0.69781   0.70037
 Alpha virt. eigenvalues --    0.70985   0.71408   0.72071   0.72676   0.72747
 Alpha virt. eigenvalues --    0.73708   0.74494   0.74914   0.75793   0.76714
 Alpha virt. eigenvalues --    0.77956   0.78184   0.79779   0.80609   0.82064
 Alpha virt. eigenvalues --    0.82325   0.83171   0.83290   0.84104   0.84712
 Alpha virt. eigenvalues --    0.85693   0.86652   0.87887   0.88277   0.90971
 Alpha virt. eigenvalues --    0.92670   0.94553   0.94669   0.95155   0.96253
 Alpha virt. eigenvalues --    0.96808   0.97380   0.97904   1.00576   1.01804
 Alpha virt. eigenvalues --    1.02603   1.03476   1.04338   1.06336   1.08139
 Alpha virt. eigenvalues --    1.08857   1.09550   1.10121   1.13043   1.14337
 Alpha virt. eigenvalues --    1.15915   1.17756   1.19139   1.21147   1.23615
 Alpha virt. eigenvalues --    1.24796   1.27710   1.28688   1.30007   1.31237
 Alpha virt. eigenvalues --    1.34526   1.35436   1.36308   1.37717   1.41687
 Alpha virt. eigenvalues --    1.43001   1.43548   1.46293   1.46532   1.49807
 Alpha virt. eigenvalues --    1.51298   1.52466   1.53884   1.55980   1.57587
 Alpha virt. eigenvalues --    1.59331   1.60078   1.61310   1.62628   1.63152
 Alpha virt. eigenvalues --    1.64014   1.65166   1.65681   1.66327   1.67261
 Alpha virt. eigenvalues --    1.68642   1.72449   1.72631   1.73195   1.74485
 Alpha virt. eigenvalues --    1.74889   1.76641   1.77922   1.78728   1.79275
 Alpha virt. eigenvalues --    1.81016   1.82126   1.83024   1.83765   1.85142
 Alpha virt. eigenvalues --    1.85413   1.85852   1.87584   1.88644   1.90182
 Alpha virt. eigenvalues --    1.92574   1.95446   1.96049   1.98261   2.02234
 Alpha virt. eigenvalues --    2.04093   2.05146   2.05476   2.05680   2.06461
 Alpha virt. eigenvalues --    2.07613   2.09727   2.10684   2.11571   2.13721
 Alpha virt. eigenvalues --    2.14111   2.15488   2.18569   2.18966   2.20321
 Alpha virt. eigenvalues --    2.22270   2.24546   2.25732   2.26638   2.28996
 Alpha virt. eigenvalues --    2.34149   2.40809   2.41237   2.44059   2.46077
 Alpha virt. eigenvalues --    2.47890   2.49946   2.51238   2.52657   2.55614
 Alpha virt. eigenvalues --    2.55784   2.58210   2.58524   2.59657   2.62582
 Alpha virt. eigenvalues --    2.62687   2.64844   2.66072   2.68854   2.69142
 Alpha virt. eigenvalues --    2.71379   2.71793   2.73777   2.76717   2.79855
 Alpha virt. eigenvalues --    2.80427   2.81776   2.82762   2.83691   2.84646
 Alpha virt. eigenvalues --    2.84826   2.86887   2.87962   2.89030   2.91583
 Alpha virt. eigenvalues --    2.91864   2.94482   2.95199   2.95976   2.96310
 Alpha virt. eigenvalues --    3.00851   3.01756   3.03484   3.06115   3.07674
 Alpha virt. eigenvalues --    3.10433   3.12304   3.13312   3.15257   3.18753
 Alpha virt. eigenvalues --    3.21843   3.24430   3.26839   3.29816   3.31686
 Alpha virt. eigenvalues --    3.35610   3.39724   3.43145   3.45625   3.52108
 Alpha virt. eigenvalues --    3.54435   3.57841   3.64181   3.65557   3.66855
 Alpha virt. eigenvalues --    3.68245   3.71666   3.74582   3.80880   3.83124
 Alpha virt. eigenvalues --    3.83965   3.85464   3.92757   3.94491   3.95031
 Alpha virt. eigenvalues --    4.01674   4.09758   4.13536   4.14563   4.15304
 Alpha virt. eigenvalues --    4.23323   4.27174   4.36809   4.49105   4.93387
 Alpha virt. eigenvalues --    4.99163   5.17169   5.20467   5.24237   5.40594
 Alpha virt. eigenvalues --    5.53714   5.79779   5.90686  23.74069  23.93618
 Alpha virt. eigenvalues --   24.04169  24.05276  24.06769  24.07287  24.12832
 Alpha virt. eigenvalues --   24.19681  24.25969  24.31058  24.34298  35.70142
 Alpha virt. eigenvalues --   50.05415  50.18741
          Condensed to atoms (all electrons):
               1          2          3          4          5          6
     1  C    5.187524   0.384526   0.412363  -0.062354   0.012727   0.248232
     2  H    0.384526   0.497848  -0.023966   0.013265  -0.008389  -0.047438
     3  H    0.412363  -0.023966   0.539976  -0.011642   0.002069  -0.060478
     4  C   -0.062354   0.013265  -0.011642   5.170261   0.404476   0.267003
     5  H    0.012727  -0.008389   0.002069   0.404476   0.565210  -0.049288
     6  N    0.248232  -0.047438  -0.060478   0.267003  -0.049288   6.864761
     7  H    0.419386  -0.021236  -0.053147   0.005518   0.001978  -0.043543
     8  H   -0.005639   0.002292  -0.000373   0.400306  -0.030740  -0.094671
     9  H   -0.008726   0.000660   0.002115   0.413193  -0.062366  -0.052003
    10  C   -0.084616   0.009217  -0.016871  -0.118575  -0.033437   0.190878
    11  H    0.005702   0.000256  -0.002619  -0.015726   0.004879  -0.055571
    12  C    0.064685   0.003802   0.040872  -0.161289   0.016044  -0.288415
    13  C   -0.072576  -0.000168  -0.012006   0.013632  -0.005691   0.015404
    14  H    0.013259   0.001423  -0.003199  -0.011113   0.000863  -0.033338
    15  O   -0.000226   0.000229   0.000019   0.006881  -0.000130   0.011451
    16  C   -0.069256  -0.002090   0.004567  -0.005366   0.000384  -0.004462
    17  C   -0.021228  -0.001688   0.002217   0.000825   0.000697  -0.012082
    18  C    0.027191   0.002485  -0.006252   0.019435  -0.001543   0.019464
    19  O    0.000512   0.000030  -0.000066   0.000029  -0.000004   0.000112
    20  C    0.001114   0.000005   0.000237  -0.000539   0.000051   0.000415
    21  C   -0.004796  -0.000337   0.003690  -0.001441   0.000091  -0.002612
    22  H    0.002232   0.000424  -0.003613   0.001972  -0.000197   0.002687
    23  H   -0.000112  -0.000018   0.000096  -0.000185  -0.000007  -0.000013
    24  H   -0.000058  -0.000004   0.000005   0.000025   0.000000   0.000014
    25  C    0.002277   0.000161  -0.000946   0.000467  -0.000039   0.000448
    26  H   -0.000453  -0.000035   0.000219  -0.000036   0.000010  -0.000154
    27  H    0.000051   0.000004  -0.000025   0.000009  -0.000001   0.000013
               7          8          9         10         11         12
     1  C    0.419386  -0.005639  -0.008726  -0.084616   0.005702   0.064685
     2  H   -0.021236   0.002292   0.000660   0.009217   0.000256   0.003802
     3  H   -0.053147  -0.000373   0.002115  -0.016871  -0.002619   0.040872
     4  C    0.005518   0.400306   0.413193  -0.118575  -0.015726  -0.161289
     5  H    0.001978  -0.030740  -0.062366  -0.033437   0.004879   0.016044
     6  N   -0.043543  -0.094671  -0.052003   0.190878  -0.055571  -0.288415
     7  H    0.533491  -0.002906  -0.002032   0.000119   0.001558  -0.015260
     8  H   -0.002906   0.536751  -0.021442   0.055524  -0.011106   0.025231
     9  H   -0.002032  -0.021442   0.558750  -0.012988  -0.000374   0.013071
    10  C    0.000119   0.055524  -0.012988   8.874124   0.385661  -1.897850
    11  H    0.001558  -0.011106  -0.000374   0.385661   0.476299  -0.110353
    12  C   -0.015260   0.025231   0.013071  -1.897850  -0.110353  10.998427
    13  C    0.004982   0.001658   0.001158  -0.254706   0.035960  -1.322470
    14  H   -0.004273  -0.000110   0.000110  -0.139888   0.004824   0.540712
    15  O    0.000226  -0.001595   0.000036   0.030071   0.037265  -0.360057
    16  C   -0.012666   0.004226  -0.000766  -2.016274  -0.014724   0.963964
    17  C    0.002166  -0.000173  -0.000551   0.079685   0.005741  -0.973882
    18  C    0.002418  -0.002503   0.001198   1.236060   0.032885  -1.406354
    19  O    0.000012  -0.000030   0.000010  -0.002012   0.000128   0.001855
    20  C   -0.000632   0.000067  -0.000064  -0.124897  -0.001585   0.186838
    21  C   -0.002798   0.001088   0.000007  -0.473459  -0.017823   0.518158
    22  H    0.001661  -0.000341   0.000056   0.059474   0.002409  -0.080752
    23  H   -0.000249   0.000056   0.000002  -0.009810  -0.000619   0.011028
    24  H   -0.000008  -0.000001   0.000002  -0.003064   0.000007  -0.014306
    25  C    0.000723  -0.000288   0.000009   0.216722   0.005724  -0.058806
    26  H   -0.000093   0.000030  -0.000001  -0.015865  -0.000475   0.002252
    27  H    0.000012  -0.000007   0.000000   0.002850   0.000129  -0.003980
              13         14         15         16         17         18
     1  C   -0.072576   0.013259  -0.000226  -0.069256  -0.021228   0.027191
     2  H   -0.000168   0.001423   0.000229  -0.002090  -0.001688   0.002485
     3  H   -0.012006  -0.003199   0.000019   0.004567   0.002217  -0.006252
     4  C    0.013632  -0.011113   0.006881  -0.005366   0.000825   0.019435
     5  H   -0.005691   0.000863  -0.000130   0.000384   0.000697  -0.001543
     6  N    0.015404  -0.033338   0.011451  -0.004462  -0.012082   0.019464
     7  H    0.004982  -0.004273   0.000226  -0.012666   0.002166   0.002418
     8  H    0.001658  -0.000110  -0.001595   0.004226  -0.000173  -0.002503
     9  H    0.001158   0.000110   0.000036  -0.000766  -0.000551   0.001198
    10  C   -0.254706  -0.139888   0.030071  -2.016274   0.079685   1.236060
    11  H    0.035960   0.004824   0.037265  -0.014724   0.005741   0.032885
    12  C   -1.322470   0.540712  -0.360057   0.963964  -0.973882  -1.406354
    13  C    9.276033  -0.094584   0.628426  -3.349472   0.743756   1.642180
    14  H   -0.094584   0.529432  -0.007409   0.148681  -0.009703  -0.134155
    15  O    0.628426  -0.007409   8.016737  -0.064399   0.024324   0.001816
    16  C   -3.349472   0.148681  -0.064399  16.910470  -3.304307  -6.024598
    17  C    0.743756  -0.009703   0.024324  -3.304307  11.819566  -1.346312
    18  C    1.642180  -0.134155   0.001816  -6.024598  -1.346312  15.265243
    19  O   -0.013886   0.001993  -0.001435   0.017698   0.243524  -0.192509
    20  C   -0.190008   0.007630  -0.039948   0.739666  -0.816118  -0.779473
    21  C   -1.561307   0.024723  -0.024039   2.934196   0.727521  -5.361640
    22  H    0.101385  -0.006787   0.000014  -0.202608  -0.009843   0.658390
    23  H   -0.018848  -0.000773   0.001325   0.039231  -0.023205   0.005788
    24  H   -0.014018  -0.000236  -0.000689  -0.020595  -0.011456   0.030944
    25  C    0.916742  -0.013174   0.022696  -1.761184  -0.855960   2.744192
    26  H   -0.052259   0.001310  -0.001618   0.120418   0.060002  -0.228590
    27  H    0.024748  -0.000162  -0.000095  -0.014698  -0.072362   0.124195
              19         20         21         22         23         24
     1  C    0.000512   0.001114  -0.004796   0.002232  -0.000112  -0.000058
     2  H    0.000030   0.000005  -0.000337   0.000424  -0.000018  -0.000004
     3  H   -0.000066   0.000237   0.003690  -0.003613   0.000096   0.000005
     4  C    0.000029  -0.000539  -0.001441   0.001972  -0.000185   0.000025
     5  H   -0.000004   0.000051   0.000091  -0.000197  -0.000007   0.000000
     6  N    0.000112   0.000415  -0.002612   0.002687  -0.000013   0.000014
     7  H    0.000012  -0.000632  -0.002798   0.001661  -0.000249  -0.000008
     8  H   -0.000030   0.000067   0.001088  -0.000341   0.000056  -0.000001
     9  H    0.000010  -0.000064   0.000007   0.000056   0.000002   0.000002
    10  C   -0.002012  -0.124897  -0.473459   0.059474  -0.009810  -0.003064
    11  H    0.000128  -0.001585  -0.017823   0.002409  -0.000619   0.000007
    12  C    0.001855   0.186838   0.518158  -0.080752   0.011028  -0.014306
    13  C   -0.013886  -0.190008  -1.561307   0.101385  -0.018848  -0.014018
    14  H    0.001993   0.007630   0.024723  -0.006787  -0.000773  -0.000236
    15  O   -0.001435  -0.039948  -0.024039   0.000014   0.001325  -0.000689
    16  C    0.017698   0.739666   2.934196  -0.202608   0.039231  -0.020595
    17  C    0.243524  -0.816118   0.727521  -0.009843  -0.023205  -0.011456
    18  C   -0.192509  -0.779473  -5.361640   0.658390   0.005788   0.030944
    19  O    7.875446  -0.128247   0.153635  -0.004450   0.260243  -0.009478
    20  C   -0.128247   6.428633   0.747666  -0.000783   0.007725   0.384328
    21  C    0.153635   0.747666  11.033776  -0.299667   0.019942  -0.000455
    22  H   -0.004450  -0.000783  -0.299667   0.488572  -0.001302   0.000897
    23  H    0.260243   0.007725   0.019942  -0.001302   0.439734   0.001753
    24  H   -0.009478   0.384328  -0.000455   0.000897   0.001753   0.449993
    25  C   -0.092737  -0.225330  -2.425724   0.076361  -0.022364  -0.041446
    26  H    0.002817   0.015281   0.554885  -0.016079   0.000521   0.001145
    27  H   -0.004554  -0.079146  -0.180704   0.004511  -0.001107  -0.008199
              25         26         27
     1  C    0.002277  -0.000453   0.000051
     2  H    0.000161  -0.000035   0.000004
     3  H   -0.000946   0.000219  -0.000025
     4  C    0.000467  -0.000036   0.000009
     5  H   -0.000039   0.000010  -0.000001
     6  N    0.000448  -0.000154   0.000013
     7  H    0.000723  -0.000093   0.000012
     8  H   -0.000288   0.000030  -0.000007
     9  H    0.000009  -0.000001   0.000000
    10  C    0.216722  -0.015865   0.002850
    11  H    0.005724  -0.000475   0.000129
    12  C   -0.058806   0.002252  -0.003980
    13  C    0.916742  -0.052259   0.024748
    14  H   -0.013174   0.001310  -0.000162
    15  O    0.022696  -0.001618  -0.000095
    16  C   -1.761184   0.120418  -0.014698
    17  C   -0.855960   0.060002  -0.072362
    18  C    2.744192  -0.228590   0.124195
    19  O   -0.092737   0.002817  -0.004554
    20  C   -0.225330   0.015281  -0.079146
    21  C   -2.425724   0.554885  -0.180704
    22  H    0.076361  -0.016079   0.004511
    23  H   -0.022364   0.000521  -0.001107
    24  H   -0.041446   0.001145  -0.008199
    25  C    7.575741  -0.141433   0.530575
    26  H   -0.141433   0.490371  -0.015703
    27  H    0.530575  -0.015703   0.496791
 Mulliken charges:
               1
     1  C   -0.451741
     2  H    0.188741
     3  H    0.186759
     4  C   -0.329031
     5  H    0.182355
     6  N    0.123188
     7  H    0.184593
     8  H    0.144697
     9  H    0.170935
    10  C    0.063927
    11  H    0.231549
    12  C   -0.693166
    13  C   -0.444066
    14  H    0.183947
    15  O   -0.279877
    16  C    0.983966
    17  C   -0.251154
    18  C   -0.329955
    19  O   -0.108637
    20  C   -0.132886
    21  C   -0.362573
    22  H    0.225377
    23  H    0.291168
    24  H    0.254900
    25  C   -0.453408
    26  H    0.223535
    27  H    0.196857
 Sum of Mulliken charges =   0.00000
 Mulliken charges with hydrogens summed into heavy atoms:
               1
     1  C    0.108353
     4  C    0.168957
     6  N    0.123188
    10  C    0.295476
    12  C   -0.509220
    13  C   -0.444066
    15  O   -0.279877
    16  C    0.983966
    17  C   -0.251154
    18  C   -0.104577
    19  O    0.182531
    20  C    0.122014
    21  C   -0.139039
    25  C   -0.256551
 Electronic spatial extent (au):  <R**2>=           3953.9246
 Charge=              0.0000 electrons
 Dipole moment (field-independent basis, Debye):
    X=             -4.9974    Y=              1.3094    Z=             -3.1330  Tot=              6.0418
 Quadrupole moment (field-independent basis, Debye-Ang):
   XX=            -57.9788   YY=            -82.9241   ZZ=            -86.0824
   XY=              2.4111   XZ=              0.6724   YZ=              1.7564
 Traceless Quadrupole moment (field-independent basis, Debye-Ang):
   XX=             17.6829   YY=             -7.2623   ZZ=            -10.4206
   XY=              2.4111   XZ=              0.6724   YZ=              1.7564
 Octapole moment (field-independent basis, Debye-Ang**2):
  XXX=            -90.4903  YYY=              5.6029  ZZZ=            -14.2982  XYY=             -2.2306
  XXY=             10.4183  XXZ=             13.8975  XZZ=            -24.0925  YZZ=             -8.8043
  YYZ=             -3.7603  XYZ=              2.0438
 Hexadecapole moment (field-independent basis, Debye-Ang**3):
 XXXX=          -3707.6871 YYYY=           -545.8098 ZZZZ=           -408.1404 XXXY=             16.2051
 XXXZ=             42.1506 YYYX=             19.4963 YYYZ=              7.6636 ZZZX=            -16.7175
 ZZZY=             20.0823 XXYY=           -825.0097 XXZZ=           -779.5049 YYZZ=           -154.1296
 XXYZ=            -12.3422 YYXZ=              1.5884 ZZXY=            -20.0592
 N-N= 8.352180549630D+02 E-N=-3.144659617119D+03  KE= 6.297460053502D+02
 Calling FoFJK, ICntrl=  10005127 FMM=F ISym2X=0 I1Cent= 0 IOpClX= 0 NMat=1 NMatS=1 NMatT=0.
 ***** Axes restored to original set *****
 -------------------------------------------------------------------
 Center     Atomic                   Forces (Hartrees/Bohr)
 Number     Number              X              Y              Z
 -------------------------------------------------------------------
      1        6          -0.000375036   -0.000141006   -0.001218006
      2        1           0.000143585    0.000148822   -0.000025191
      3        1          -0.000126051    0.000094153    0.000324147
      4        6          -0.000085960   -0.000513705    0.001191356
      5        1          -0.000002998    0.000360430   -0.000252119
      6        7           0.004695490    0.002235533   -0.000573478
      7        1          -0.000242847    0.000003896    0.000244138
      8        1          -0.000162594    0.000007372    0.000034648
      9        1           0.000251289    0.000016354   -0.000261116
     10        6          -0.002528748   -0.000527177   -0.000375764
     11        1           0.000194010   -0.000480379    0.000114761
     12        6          -0.000868750    0.003456206    0.001451954
     13        6           0.017940712    0.001318031   -0.031117507
     14        1          -0.000742176   -0.001708138    0.004452864
     15        8           0.000490451   -0.009431423    0.016704502
     16        6           0.002932492    0.039877423   -0.020472723
     17        6          -0.022015099   -0.021276979    0.021449105
     18        6           0.005305036   -0.000319038    0.023936644
     19        8           0.044954293   -0.005572296   -0.004987199
     20        6          -0.044693265    0.010649164   -0.009067655
     21        6           0.007268941    0.005941625    0.004321587
     22        1           0.002377051    0.002164058   -0.004338631
     23        1          -0.000827344   -0.005243834   -0.005137767
     24        1           0.000233709   -0.001327989    0.005536042
     25        6          -0.012677533   -0.020029222    0.001071209
     26        1          -0.001153056    0.000822514   -0.002002092
     27        1          -0.000285600   -0.000524395   -0.001003706
 -------------------------------------------------------------------
 Cartesian Forces:  Max     0.044954293 RMS     0.011555897

 GradGradGradGradGradGradGradGradGradGradGradGradGradGradGradGradGradGrad
 Berny optimization.
 FormGI is forming the generalized inverse of G from B-inverse, IUseBI=4.
 Internal  Forces:  Max     0.035856667 RMS     0.008496104
 Search for a local minimum.
 Step number   1 out of a maximum of  134
 All quantities printed in internal units (Hartrees-Bohrs-Radians)
 Mixed Optimization -- RFO/linear search
 Second derivative matrix not updated -- first step.
 ITU=  0
     Eigenvalues ---    0.00947   0.01033   0.01057   0.01187   0.01420
     Eigenvalues ---    0.01445   0.01964   0.02017   0.02151   0.02167
     Eigenvalues ---    0.02211   0.02238   0.02255   0.02291   0.02448
     Eigenvalues ---    0.02529   0.02572   0.02608   0.03071   0.03590
     Eigenvalues ---    0.07401   0.07416   0.07589   0.07635   0.15999
     Eigenvalues ---    0.16000   0.16000   0.16000   0.16000   0.16000
     Eigenvalues ---    0.16000   0.16000   0.16000   0.16000   0.16000
     Eigenvalues ---    0.16000   0.16000   0.19087   0.20504   0.21868
     Eigenvalues ---    0.22000   0.22000   0.22000   0.22580   0.24709
     Eigenvalues ---    0.24813   0.25000   0.25000   0.33854   0.34060
     Eigenvalues ---    0.34124   0.34348   0.34392   0.34839   0.34840
     Eigenvalues ---    0.35249   0.35436   0.35580   0.35606   0.35695
     Eigenvalues ---    0.36128   0.38168   0.38269   0.38508   0.40495
     Eigenvalues ---    0.41978   0.44485   0.45616   0.47828   0.48768
     Eigenvalues ---    0.50064   0.52796   0.56581   0.58702   0.85398
 RFO step:  Lambda=-3.70824395D-02 EMin= 9.46683085D-03
 Linear search not attempted -- first point.
 Iteration  1 RMS(Cart)=  0.12698087 RMS(Int)=  0.00728313
 Iteration  2 RMS(Cart)=  0.01410490 RMS(Int)=  0.00199293
 Iteration  3 RMS(Cart)=  0.00022584 RMS(Int)=  0.00198895
 Iteration  4 RMS(Cart)=  0.00000148 RMS(Int)=  0.00198895
 Iteration  5 RMS(Cart)=  0.00000001 RMS(Int)=  0.00198895
 Variable       Old X    -DE/DX   Delta X   Delta X   Delta X     New X
                                 (Linear)    (Quad)   (Total)
    R1        2.05937   0.00020   0.00000   0.00051   0.00051   2.05988
    R2        2.07229   0.00033   0.00000   0.00088   0.00088   2.07317
    R3        2.73633  -0.00087   0.00000  -0.00206  -0.00206   2.73427
    R4        2.06747   0.00004   0.00000   0.00011   0.00011   2.06758
    R5        2.07121   0.00033   0.00000   0.00088   0.00088   2.07209
    R6        2.73975  -0.00066   0.00000  -0.00158  -0.00158   2.73817
    R7        2.05935   0.00007   0.00000   0.00019   0.00019   2.05954
    R8        2.06674   0.00030   0.00000   0.00079   0.00079   2.06753
    R9        2.53753   0.00467   0.00000   0.00775   0.00775   2.54529
   R10        2.05273  -0.00014   0.00000  -0.00037  -0.00037   2.05236
   R11        2.57145   0.00182   0.00000   0.00322   0.00322   2.57467
   R12        2.74121   0.00198   0.00000   0.00474   0.00474   2.74595
   R13        2.03881   0.00341   0.00000   0.00855   0.00855   2.04737
   R14        2.35129  -0.01402   0.00000  -0.01574  -0.01574   2.33555
   R15        2.80877   0.01288   0.00000   0.03430   0.03430   2.84307
   R16        2.67522   0.03352   0.00000   0.06893   0.06904   2.74426
   R17        2.65273   0.00644   0.00000   0.01172   0.01208   2.66481
   R18        2.51982   0.03172   0.00000   0.05083   0.05083   2.57066
   R19        2.64716   0.03586   0.00000   0.07196   0.07214   2.71930
   R20        2.60837   0.01029   0.00000   0.02038   0.02034   2.62871
   R21        2.04561   0.00249   0.00000   0.00633   0.00633   2.05194
   R22        1.86500  -0.00380   0.00000  -0.00706  -0.00706   1.85794
   R23        2.04743   0.00076   0.00000   0.00195   0.00195   2.04938
   R24        2.60570  -0.00494   0.00000  -0.00788  -0.00811   2.59759
   R25        2.64025   0.01879   0.00000   0.04022   0.03983   2.68008
   R26        2.04702   0.00028   0.00000   0.00072   0.00072   2.04773
   R27        2.04973  -0.00002   0.00000  -0.00005  -0.00005   2.04968
    A1        1.89778  -0.00004   0.00000  -0.00013  -0.00013   1.89765
    A2        1.90734   0.00008   0.00000   0.00069   0.00069   1.90803
    A3        1.89247   0.00011   0.00000   0.00104   0.00104   1.89351
    A4        1.94383   0.00005   0.00000  -0.00001  -0.00001   1.94382
    A5        1.89422  -0.00022   0.00000  -0.00169  -0.00169   1.89253
    A6        1.92725   0.00003   0.00000   0.00011   0.00011   1.92736
    A7        1.94330   0.00039   0.00000   0.00207   0.00207   1.94537
    A8        1.89324  -0.00016   0.00000  -0.00115  -0.00115   1.89210
    A9        1.89507  -0.00021   0.00000  -0.00060  -0.00061   1.89447
   A10        1.91301  -0.00029   0.00000  -0.00172  -0.00172   1.91128
   A11        1.92686   0.00028   0.00000   0.00160   0.00160   1.92845
   A12        1.89127  -0.00003   0.00000  -0.00028  -0.00028   1.89098
   A13        2.05809  -0.00001   0.00000  -0.00010  -0.00010   2.05799
   A14        2.09865  -0.00001   0.00000  -0.00010  -0.00010   2.09855
   A15        2.11639   0.00002   0.00000   0.00000   0.00000   2.11639
   A16        2.01826   0.00004   0.00000   0.00038   0.00037   2.01863
   A17        2.21640   0.00028   0.00000   0.00107   0.00107   2.21746
   A18        2.04850  -0.00032   0.00000  -0.00149  -0.00150   2.04700
   A19        2.06361   0.00424   0.00000   0.01651   0.01651   2.08012
   A20        2.11463   0.00136   0.00000   0.00944   0.00943   2.12406
   A21        2.10489  -0.00560   0.00000  -0.02589  -0.02590   2.07899
   A22        2.10544   0.01679   0.00000   0.05852   0.05847   2.16391
   A23        2.09966  -0.00525   0.00000  -0.01825  -0.01830   2.08137
   A24        2.07807  -0.01154   0.00000  -0.04019  -0.04024   2.03783
   A25        2.08125  -0.00729   0.00000  -0.00981  -0.01396   2.06729
   A26        1.89340   0.02011   0.00000   0.11790   0.11924   2.01264
   A27        2.05803  -0.00848   0.00000  -0.02653  -0.02963   2.02840
   A28        2.14230  -0.02692   0.00000  -0.08487  -0.09407   2.04824
   A29        2.09225   0.00035   0.00000   0.01819   0.01558   2.10783
   A30        1.81990   0.03245   0.00000   0.17063   0.17147   1.99136
   A31        2.12919   0.00220   0.00000  -0.00206  -0.00216   2.12703
   A32        2.08898  -0.00476   0.00000  -0.01756  -0.01833   2.07065
   A33        2.06501   0.00257   0.00000   0.01964   0.01899   2.08400
   A34        1.85525   0.00744   0.00000   0.03773   0.03773   1.89298
   A35        2.05702   0.00234   0.00000   0.01592   0.01495   2.07196
   A36        2.10303  -0.00016   0.00000  -0.00895  -0.00956   2.09348
   A37        2.12314  -0.00218   0.00000  -0.00701  -0.00751   2.11563
   A38        2.08060   0.01004   0.00000   0.03627   0.03558   2.11619
   A39        2.09982  -0.00515   0.00000  -0.01877  -0.01890   2.08092
   A40        2.10276  -0.00489   0.00000  -0.01749  -0.01758   2.08518
   A41        2.10326  -0.00397   0.00000  -0.01710  -0.01765   2.08561
   A42        2.08676   0.00120   0.00000   0.00456   0.00477   2.09153
   A43        2.09317   0.00277   0.00000   0.01254   0.01279   2.10596
    D1       -0.23535  -0.00003   0.00000  -0.00132  -0.00132  -0.23668
    D2        3.05628   0.00004   0.00000   0.00013   0.00013   3.05640
    D3        1.86173   0.00000   0.00000  -0.00103  -0.00103   1.86069
    D4       -1.12983   0.00007   0.00000   0.00041   0.00041  -1.12941
    D5       -2.31559  -0.00023   0.00000  -0.00310  -0.00310  -2.31869
    D6        0.97604  -0.00016   0.00000  -0.00165  -0.00165   0.97439
    D7       -1.11509  -0.00004   0.00000   0.00048   0.00048  -1.11461
    D8        1.87486  -0.00011   0.00000  -0.00099  -0.00099   1.87387
    D9        3.07328   0.00010   0.00000   0.00173   0.00173   3.07501
   D10       -0.21995   0.00003   0.00000   0.00026   0.00026  -0.21970
   D11        0.99124   0.00015   0.00000   0.00217   0.00217   0.99341
   D12       -2.30200   0.00008   0.00000   0.00070   0.00070  -2.30130
   D13        3.11800   0.00000   0.00000  -0.00013  -0.00013   3.11787
   D14       -0.03175  -0.00041   0.00000  -0.00672  -0.00672  -0.03847
   D15        0.13154   0.00008   0.00000   0.00138   0.00138   0.13291
   D16       -3.01821  -0.00033   0.00000  -0.00522  -0.00522  -3.02343
   D17       -3.12117   0.00017   0.00000   0.00305   0.00308  -3.11810
   D18        0.03168  -0.00012   0.00000  -0.00228  -0.00231   0.02937
   D19        0.01214  -0.00025   0.00000  -0.00364  -0.00361   0.00854
   D20       -3.11819  -0.00054   0.00000  -0.00897  -0.00899  -3.12719
   D21        0.01311  -0.00006   0.00000  -0.00005   0.00022   0.01333
   D22       -3.12377  -0.00090   0.00000  -0.01778  -0.01800   3.14142
   D23       -3.13968   0.00027   0.00000   0.00548   0.00570  -3.13398
   D24        0.00663  -0.00057   0.00000  -0.01224  -0.01252  -0.00589
   D25       -2.36084  -0.00291   0.00000  -0.04635  -0.04454  -2.40538
   D26        1.49901  -0.00557   0.00000  -0.13744  -0.13977   1.35924
   D27        0.78540  -0.00381   0.00000  -0.06406  -0.06172   0.72368
   D28       -1.63794  -0.00647   0.00000  -0.15515  -0.15695  -1.79489
   D29        1.57080  -0.02563   0.00000  -0.24120  -0.23302   1.33777
   D30       -2.35565  -0.00332   0.00000  -0.01698  -0.01608  -2.37173
   D31       -2.35508  -0.01140   0.00000  -0.08386  -0.07726  -2.43234
   D32        0.00166   0.01092   0.00000   0.14036   0.13969   0.14134
   D33        2.43315  -0.00513   0.00000   0.00130   0.00564   2.43879
   D34       -0.70894   0.00089   0.00000   0.06351   0.06552  -0.64342
   D35       -0.00113  -0.00809   0.00000  -0.09511  -0.09288  -0.09401
   D36        3.13997  -0.00206   0.00000  -0.03291  -0.03300   3.10696
   D37        0.00352   0.00142   0.00000   0.00797   0.00666   0.01018
   D38       -2.45353  -0.01024   0.00000  -0.14834  -0.14703  -2.60056
   D39        3.14113  -0.00034   0.00000  -0.02972  -0.03242   3.10872
   D40       -0.00121  -0.00668   0.00000  -0.09909  -0.10064  -0.10186
   D41       -0.66075  -0.00284   0.00000   0.06850   0.07713  -0.58363
   D42        2.48009  -0.00919   0.00000  -0.00088   0.00890   2.48899
   D43        0.00011   0.00079   0.00000   0.00561   0.00561   0.00572
   D44        3.14133   0.00418   0.00000   0.05208   0.05190  -3.08996
   D45       -3.14099  -0.00515   0.00000  -0.05576  -0.05471   3.08749
   D46        0.00022  -0.00176   0.00000  -0.00929  -0.00842  -0.00819
   D47        0.00017  -0.00084   0.00000   0.00701   0.00866   0.00883
   D48        3.14158   0.00189   0.00000   0.02348   0.02350  -3.11810
   D49        3.14098  -0.00743   0.00000  -0.06503  -0.06130   3.07968
   D50       -0.00079  -0.00470   0.00000  -0.04856  -0.04646  -0.04725
   D51        0.00038   0.00383   0.00000   0.04019   0.03962   0.04000
   D52       -3.14103   0.00108   0.00000   0.02366   0.02465  -3.11638
   D53       -3.14083   0.00043   0.00000  -0.00635  -0.00678   3.13558
   D54        0.00095  -0.00231   0.00000  -0.02288  -0.02176  -0.02081
         Item               Value     Threshold  Converged?
 Maximum Force            0.035857     0.000450     NO 
 RMS     Force            0.008496     0.000300     NO 
 Maximum Displacement     0.690870     0.001800     NO 
 RMS     Displacement     0.134746     0.001200     NO 
 Predicted change in Energy=-2.337164D-02
 GradGradGradGradGradGradGradGradGradGradGradGradGradGradGradGradGradGrad

                          Input orientation:                          
 ---------------------------------------------------------------------
 Center     Atomic      Atomic             Coordinates (Angstroms)
 Number     Number       Type             X           Y           Z
 ---------------------------------------------------------------------
      1          6           0       -0.133825    0.520606    6.085631
      2          1           0        0.793214    1.025601    5.814018
      3          1           0       -0.716772    1.181746    6.738804
      4          6           0       -0.450761    0.805250    3.641334
      5          1           0       -0.582234    1.893433    3.671255
      6          7           0       -0.866954    0.186605    4.883748
      7          1           0        0.115893   -0.385944    6.645003
      8          1           0       -1.047203    0.408969    2.819743
      9          1           0        0.602128    0.587393    3.438859
     10          6           0       -2.003145   -0.532697    4.960119
     11          1           0       -2.504881   -0.721078    4.015501
     12          6           0       -2.570554   -1.054332    6.083608
     13          6           0       -3.791769   -1.832770    5.964625
     14          1           0       -2.137665   -0.899292    7.064613
     15          8           0       -4.357098   -2.071427    4.891804
     16          6           0       -4.419578   -2.409723    7.204165
     17          6           0       -4.933909   -3.766772    7.151619
     18          6           0       -5.151268   -1.496171    7.990668
     19          8           0       -4.028501   -4.780781    7.201865
     20          6           0       -6.212783   -4.092078    7.725510
     21          6           0       -6.358759   -1.843507    8.587624
     22          1           0       -4.783622   -0.478738    8.084022
     23          1           0       -3.128971   -4.391427    7.278643
     24          1           0       -6.578530   -5.109460    7.640246
     25          6           0       -6.907523   -3.142479    8.436204
     26          1           0       -6.909366   -1.093572    9.143186
     27          1           0       -7.861125   -3.396051    8.886533
 ---------------------------------------------------------------------
                    Distance matrix (angstroms):
                    1          2          3          4          5
     1  C    0.000000
     2  H    1.090043   0.000000
     3  H    1.097073   1.777545   0.000000
     4  C    2.481140   2.513281   3.131586   0.000000
     5  H    2.813350   2.690060   3.151898   1.096505   0.000000
     6  N    1.446913   2.079777   2.110472   1.448976   2.112929
     7  H    1.094116   1.772501   1.777577   3.280559   3.811315
     8  H    3.393043   3.568340   4.008167   1.089859   1.773387
     9  H    2.747997   2.422792   3.603108   1.094090   1.778332
    10  C    2.422928   3.313164   2.785281   2.437046   3.092938
    11  H    3.383655   4.142823   3.772857   2.586327   3.263548
    12  C    2.901393   3.964055   2.977555   3.730452   4.296765
    13  C    4.351273   5.405093   4.375187   4.849656   5.426348
    14  H    2.643840   3.722802   2.540828   4.179707   4.661927
    15  O    5.097048   6.080113   5.219820   5.009832   5.608873
    16  C    5.310897   6.395870   5.179380   6.227465   6.761939
    17  C    6.523706   7.586564   6.514790   7.302335   7.942791
    18  C    5.733349   6.814250   5.329462   6.804999   7.143026
    19  O    6.672270   7.673925   6.836205   7.528702   8.299826
    20  C    7.805114   8.884169   7.680687   8.594488   9.163320
    21  C    7.113284   8.189957   6.663506   8.147770   8.455984
    22  H    5.158766   6.206211   4.594136   6.337175   6.538453
    23  H    5.875563   6.846375   6.096752   6.885367   7.681054
    24  H    8.697626   9.763028   8.645929   9.408755  10.037380
    25  C    8.051482   9.140574   7.739863   8.959080   9.384798
    26  H    7.606719   8.654709   7.021848   8.694221   8.882389
    27  H    9.104748  10.192593   8.752757  10.003827  10.400002
                    6          7          8          9         10
     6  N    0.000000
     7  H    2.096621   0.000000
     8  H    2.083759   4.076431   0.000000
     9  H    2.099175   3.385730   1.770715   0.000000
    10  C    1.346907   2.711216   2.526216   3.218118   0.000000
    11  H    2.064109   3.727607   2.198105   3.420251   1.086062
    12  C    2.425251   2.824695   3.887758   4.444757   1.362455
    13  C    3.714931   4.222089   4.737965   5.616317   2.428662
    14  H    2.747736   2.349068   4.573792   4.781505   2.140416
    15  O    4.156908   5.091386   4.626144   5.811566   2.813086
    16  C    4.974574   4.997883   6.208147   6.955412   3.794485
    17  C    6.108400   6.098127   7.162991   7.961849   4.883778
    18  C    5.553381   5.548550   6.871053   7.626386   4.474727
    19  O    6.328031   6.066357   7.417859   8.026221   5.212841
    20  C    7.413545   7.413169   8.426696   9.312135   6.167466
    21  C    6.928202   6.915156   8.158108   8.992942   5.817937
    22  H    5.101444   5.107312   6.516247   7.191695   4.182431
    23  H    5.640090   5.193701   6.874543   7.311202   4.640348
    24  H    8.262488   8.253328   9.180735  10.083038   7.004570
    25  C    7.758300   7.754692   8.860065   9.761160   6.553400
    26  H    7.502827   7.489720   8.752629   9.580581   6.471756
    27  H    8.819079   8.815782   9.885022  10.824585   7.611272
                   11         12         13         14         15
    11  H    0.000000
    12  C    2.095815   0.000000
    13  C    2.586702   1.453096   0.000000
    14  H    3.076311   1.083421   2.194860   0.000000
    15  O    2.453988   2.376262   1.235921   3.319771   0.000000
    16  C    4.084748   2.551788   1.504486   2.740073   2.337811
    17  C    5.001166   3.752789   2.540433   4.006119   2.883343
    18  C    4.837984   3.239164   2.463003   3.208683   3.250321
    19  O    5.381034   4.154820   3.205866   4.319729   3.575606
    20  C    6.235091   5.018923   3.750534   5.218933   3.944172
    21  C    6.084122   4.609056   3.670106   4.585711   4.209238
    22  H    4.669502   3.038196   2.703519   2.866557   3.592887
    23  H    4.950661   3.588334   2.951723   3.636413   3.547914
    24  H    6.999379   5.910251   4.616324   6.146394   4.660294
    25  C    6.692462   5.357645   4.187118   5.446530   4.496064
    26  H    6.769889   5.309223   4.513211   5.208391   5.054159
    27  H    7.718276   6.428856   5.247957   6.504706   5.476377
                   16         17         18         19         20
    16  C    0.000000
    17  C    1.452198   0.000000
    18  C    1.410154   2.430407   0.000000
    19  O    2.403095   1.360332   3.559703   0.000000
    20  C    2.513505   1.438992   2.817066   2.349385   0.000000
    21  C    2.448466   2.791282   1.391055   3.997251   2.412597
    22  H    2.152993   3.420984   1.085840   4.456006   3.902213
[...]
 Alpha  occ. eigenvalues --   -0.48140  -0.47233  -0.46585  -0.43803  -0.43575
 Alpha  occ. eigenvalues --   -0.42875  -0.40505  -0.34790  -0.34568  -0.31376
 Alpha  occ. eigenvalues --   -0.25489
 Alpha virt. eigenvalues --   -0.01507   0.03319   0.04177   0.05000   0.05439
 Alpha virt. eigenvalues --    0.05572   0.06046   0.06515   0.07543   0.07676
 Alpha virt. eigenvalues --    0.08214   0.09124   0.09171   0.09501   0.09938
 Alpha virt. eigenvalues --    0.10052   0.11304   0.11832   0.12376   0.13519
 Alpha virt. eigenvalues --    0.14234   0.14488   0.15023   0.15387   0.15845
 Alpha virt. eigenvalues --    0.15985   0.16214   0.16544   0.16987   0.17057
 Alpha virt. eigenvalues --    0.17467   0.18121   0.18283   0.18638   0.18763
 Alpha virt. eigenvalues --    0.19187   0.19593   0.19799   0.20164   0.20451
 Alpha virt. eigenvalues --    0.20747   0.21650   0.22224   0.22519   0.22894
 Alpha virt. eigenvalues --    0.23567   0.23767   0.24225   0.24545   0.24857
 Alpha virt. eigenvalues --    0.25563   0.26079   0.26415   0.27616   0.27912
 Alpha virt. eigenvalues --    0.28590   0.28832   0.29338   0.29418   0.30029
 Alpha virt. eigenvalues --    0.30650   0.30993   0.31612   0.31986   0.32613
 Alpha virt. eigenvalues --    0.32893   0.33195   0.34049   0.34295   0.34645
 Alpha virt. eigenvalues --    0.35776   0.36125   0.36610   0.36906   0.37601
 Alpha virt. eigenvalues --    0.38034   0.38330   0.38595   0.39276   0.39380
 Alpha virt. eigenvalues --    0.40111   0.40705   0.41867   0.42239   0.42794
 Alpha virt. eigenvalues --    0.43411   0.44689   0.45434   0.46178   0.47278
 Alpha virt. eigenvalues --    0.48266   0.50458   0.51223   0.51633   0.52593
 Alpha virt. eigenvalues --    0.53694   0.54142   0.54663   0.56938   0.58949
 Alpha virt. eigenvalues --    0.59223   0.60755   0.61243   0.61756   0.62855
 Alpha virt. eigenvalues --    0.63706   0.65041   0.65575   0.66168   0.67528
 Alpha virt. eigenvalues --    0.67672   0.68196   0.68806   0.69364   0.70709
 Alpha virt. eigenvalues --    0.71365   0.71898   0.72133   0.73229   0.73467
 Alpha virt. eigenvalues --    0.74279   0.75213   0.75912   0.76970   0.77183
 Alpha virt. eigenvalues --    0.78789   0.79255   0.79822   0.80883   0.81663
 Alpha virt. eigenvalues --    0.82829   0.83623   0.84276   0.85578   0.87260
 Alpha virt. eigenvalues --    0.89861   0.89907   0.91938   0.92782   0.93197
 Alpha virt. eigenvalues --    0.94920   0.96654   0.97002   0.97317   0.98021
 Alpha virt. eigenvalues --    0.98710   1.00313   1.01671   1.03180   1.05123
 Alpha virt. eigenvalues --    1.05920   1.07436   1.08328   1.08536   1.08931
 Alpha virt. eigenvalues --    1.10769   1.12726   1.14600   1.15412   1.17461
 Alpha virt. eigenvalues --    1.18377   1.19455   1.20213   1.21160   1.23189
 Alpha virt. eigenvalues --    1.24007   1.26217   1.29121   1.30260   1.31162
 Alpha virt. eigenvalues --    1.34119   1.36086   1.36955   1.38954   1.39830
 Alpha virt. eigenvalues --    1.42189   1.46301   1.47204   1.50342   1.52274
 Alpha virt. eigenvalues --    1.52852   1.53250   1.54745   1.56125   1.58314
 Alpha virt. eigenvalues --    1.59402   1.61293   1.61989   1.62655   1.63512
 Alpha virt. eigenvalues --    1.64179   1.64499   1.64972   1.66001   1.67629
 Alpha virt. eigenvalues --    1.69552   1.71066   1.73514   1.74095   1.74793
 Alpha virt. eigenvalues --    1.75485   1.76802   1.78407   1.79774   1.80203
 Alpha virt. eigenvalues --    1.81869   1.82141   1.84082   1.85477   1.87056
 Alpha virt. eigenvalues --    1.87719   1.90068   1.90815   1.92579   1.96667
 Alpha virt. eigenvalues --    1.96941   1.99136   1.99747   2.01242   2.01803
 Alpha virt. eigenvalues --    2.03421   2.04110   2.05144   2.06717   2.07805
 Alpha virt. eigenvalues --    2.08105   2.10177   2.11901   2.12299   2.12968
 Alpha virt. eigenvalues --    2.15554   2.17388   2.21222   2.23855   2.24134
 Alpha virt. eigenvalues --    2.26657   2.27083   2.31103   2.31871   2.34760
 Alpha virt. eigenvalues --    2.37819   2.39624   2.41442   2.45194   2.47630
 Alpha virt. eigenvalues --    2.50760   2.52097   2.54513   2.55144   2.55671
 Alpha virt. eigenvalues --    2.57374   2.58203   2.60818   2.61493   2.63402
 Alpha virt. eigenvalues --    2.66056   2.66923   2.69634   2.70482   2.73050
 Alpha virt. eigenvalues --    2.74752   2.75577   2.76955   2.78824   2.79984
 Alpha virt. eigenvalues --    2.80569   2.81966   2.82308   2.82977   2.83825
 Alpha virt. eigenvalues --    2.84913   2.85764   2.86810   2.88887   2.90405
 Alpha virt. eigenvalues --    2.93141   2.94354   2.95932   2.98147   2.99915
 Alpha virt. eigenvalues --    3.02511   3.04004   3.05777   3.09141   3.11037
 Alpha virt. eigenvalues --    3.14767   3.16282   3.17130   3.17914   3.20291
 Alpha virt. eigenvalues --    3.21119   3.28520   3.28708   3.29817   3.33169
 Alpha virt. eigenvalues --    3.35977   3.38912   3.43361   3.48013   3.48510
 Alpha virt. eigenvalues --    3.57184   3.58813   3.62850   3.67215   3.68290
 Alpha virt. eigenvalues --    3.73339   3.74979   3.77623   3.83519   3.84244
 Alpha virt. eigenvalues --    3.87650   3.91569   3.95468   3.96238   4.03368
 Alpha virt. eigenvalues --    4.12016   4.13061   4.14623   4.18176   4.26292
 Alpha virt. eigenvalues --    4.28453   4.36616   4.52985   4.92856   4.99695
 Alpha virt. eigenvalues --    5.13208   5.18734   5.20102   5.43858   5.57604
 Alpha virt. eigenvalues --    5.83026   5.90887  23.70424  23.96977  24.02470
 Alpha virt. eigenvalues --   24.03406  24.06785  24.08239  24.12896  24.16218
 Alpha virt. eigenvalues --   24.22648  24.27543  24.31368  35.72141  50.10438
 Alpha virt. eigenvalues --   50.13536
          Condensed to atoms (all electrons):
               1          2          3          4          5          6
     1  C    5.156565   0.387011   0.391019  -0.065119   0.003384   0.230274
     2  H    0.387011   0.506617  -0.028985   0.010276  -0.006946  -0.055237
     3  H    0.391019  -0.028985   0.554262  -0.005750   0.001634  -0.067909
     4  C   -0.065119   0.010276  -0.005750   5.158952   0.406544   0.254452
     5  H    0.003384  -0.006946   0.001634   0.406544   0.586714  -0.063171
     6  N    0.230274  -0.055237  -0.067909   0.254452  -0.063171   6.923386
     7  H    0.435694  -0.012625  -0.050503   0.005159   0.001318  -0.049466
     8  H   -0.005660   0.003886  -0.002358   0.391802  -0.031562  -0.094978
     9  H    0.000664  -0.003221   0.002010   0.431204  -0.070878  -0.062028
    10  C   -0.291473   0.036477   0.001693  -0.068507  -0.031677   0.258984
    11  H    0.008793  -0.000928   0.000929  -0.032653   0.007822  -0.078265
    12  C    0.276697   0.005192   0.010862  -0.196810   0.016916  -0.331945
    13  C   -0.025375  -0.011088   0.016915  -0.011084   0.009235  -0.004328
    14  H    0.020855  -0.001712  -0.002307  -0.011222   0.002861  -0.042132
    15  O   -0.005283  -0.000472   0.000074  -0.001646  -0.000032  -0.000049
    16  C   -0.116041  -0.007940   0.008961   0.037639   0.004052  -0.057079
    17  C   -0.006722  -0.000496  -0.000728   0.005990   0.000734  -0.018822
    18  C    0.025741   0.000172  -0.002892   0.016510  -0.001020   0.051157
    19  O   -0.000006  -0.000001   0.000045  -0.000178   0.000001  -0.000232
    20  C    0.002147   0.000039  -0.001052   0.001716   0.000119  -0.004881
    21  C    0.006889   0.000683   0.002788  -0.005191  -0.000546   0.027140
    22  H    0.003240   0.000351  -0.004262   0.001664  -0.000542   0.006213
    23  H   -0.000915  -0.000088   0.000028   0.000198  -0.000010   0.000783
    24  H   -0.000029  -0.000001  -0.000001  -0.000019   0.000000  -0.000004
    25  C    0.000637   0.000013   0.000111   0.001112   0.000018   0.000016
    26  H   -0.000514  -0.000035   0.000200  -0.000161   0.000006  -0.000052
    27  H    0.000002  -0.000001  -0.000003   0.000027   0.000000   0.000024
               7          8          9         10         11         12
     1  C    0.435694  -0.005660   0.000664  -0.291473   0.008793   0.276697
     2  H   -0.012625   0.003886  -0.003221   0.036477  -0.000928   0.005192
     3  H   -0.050503  -0.002358   0.002010   0.001693   0.000929   0.010862
     4  C    0.005159   0.391802   0.431204  -0.068507  -0.032653  -0.196810
     5  H    0.001318  -0.031562  -0.070878  -0.031677   0.007822   0.016916
     6  N   -0.049466  -0.094978  -0.062028   0.258984  -0.078265  -0.331945
     7  H    0.523645  -0.000861  -0.000819   0.003190  -0.004474   0.016131
     8  H   -0.000861   0.552837  -0.018956   0.099804  -0.008451  -0.016692
     9  H   -0.000819  -0.018956   0.573110  -0.005977  -0.001900  -0.006876
    10  C    0.003190   0.099804  -0.005977   8.423850   0.198949  -1.803220
    11  H   -0.004474  -0.008451  -0.001900   0.198949   0.549117   0.231833
    12  C    0.016131  -0.016692  -0.006876  -1.803220   0.231833  15.410601
    13  C   -0.044827  -0.003254  -0.007604  -1.029444   0.016238   2.485827
    14  H   -0.006713  -0.002850  -0.001684  -0.215201   0.025462   0.690792
    15  O   -0.000755   0.001682   0.000090  -0.004550  -0.007359  -0.694993
    16  C   -0.006852  -0.000900   0.001030   0.760160   0.002287  -5.779299
    17  C   -0.001934  -0.000389   0.000134  -0.017603   0.028042  -1.259984
    18  C    0.005589  -0.000027  -0.000773   0.304821  -0.064529  -2.366367
    19  O   -0.000105   0.000073  -0.000005  -0.005832  -0.001390  -0.031238
    20  C   -0.000296  -0.000548   0.000046  -0.071942   0.008730  -0.990388
    21  C    0.000313   0.002053  -0.000468   0.091263  -0.025304   0.886551
    22  H    0.000954   0.000232   0.000173  -0.004823  -0.003993  -0.101532
    23  H    0.000253   0.000054   0.000026   0.006693  -0.001983  -0.001610
    24  H    0.000002   0.000012  -0.000002  -0.000065  -0.000063  -0.004430
    25  C   -0.000016  -0.000179   0.000022   0.029385   0.000504  -0.247980
    26  H    0.000017   0.000059  -0.000009   0.003918  -0.000136   0.005025
    27  H    0.000000  -0.000009   0.000001   0.000045   0.000030  -0.002455
              13         14         15         16         17         18
     1  C   -0.025375   0.020855  -0.005283  -0.116041  -0.006722   0.025741
     2  H   -0.011088  -0.001712  -0.000472  -0.007940  -0.000496   0.000172
     3  H    0.016915  -0.002307   0.000074   0.008961  -0.000728  -0.002892
     4  C   -0.011084  -0.011222  -0.001646   0.037639   0.005990   0.016510
     5  H    0.009235   0.002861  -0.000032   0.004052   0.000734  -0.001020
     6  N   -0.004328  -0.042132  -0.000049  -0.057079  -0.018822   0.051157
     7  H   -0.044827  -0.006713  -0.000755  -0.006852  -0.001934   0.005589
     8  H   -0.003254  -0.002850   0.001682  -0.000900  -0.000389  -0.000027
     9  H   -0.007604  -0.001684   0.000090   0.001030   0.000134  -0.000773
    10  C   -1.029444  -0.215201  -0.004550   0.760160  -0.017603   0.304821
    11  H    0.016238   0.025462  -0.007359   0.002287   0.028042  -0.064529
    12  C    2.485827   0.690792  -0.694993  -5.779299  -1.259984  -2.366367
    13  C   15.299688   0.008490   0.789953  -2.820900  -0.952077  -4.077108
    14  H    0.008490   0.535263   0.005657  -0.035872   0.025847  -0.170888
    15  O    0.789953   0.005657   8.079458   0.058719   0.183992  -0.151897
    16  C   -2.820900  -0.035872   0.058719  16.275445   0.170595  -0.813685
    17  C   -0.952077   0.025847   0.183992   0.170595  17.167305  -5.688933
    18  C   -4.077108  -0.170888  -0.151897  -0.813685  -5.688933  17.148546
    19  O   -0.111825  -0.000198  -0.030248   0.150155   0.326762   0.052591
    20  C   -4.335194  -0.001368  -0.060353  -1.429871  -3.051325   4.001975
    21  C    1.811845  -0.027399  -0.013349  -1.457084   0.884545  -3.031877
    22  H   -0.107082  -0.010075  -0.002062  -0.063093  -0.018594   0.700109
    23  H    0.035620  -0.001694   0.093571  -0.207235   0.119429  -0.014769
    24  H   -0.030633  -0.000243   0.000167  -0.072835  -0.127816   0.047782
    25  C   -0.964814  -0.002943  -0.001671   0.216257  -1.667521   0.760055
    26  H    0.023670  -0.000230   0.000300   0.023442   0.058519  -0.180427
    27  H    0.006951   0.000066   0.000012   0.077883   0.006805  -0.055556
              19         20         21         22         23         24
     1  C   -0.000006   0.002147   0.006889   0.003240  -0.000915  -0.000029
     2  H   -0.000001   0.000039   0.000683   0.000351  -0.000088  -0.000001
     3  H    0.000045  -0.001052   0.002788  -0.004262   0.000028  -0.000001
     4  C   -0.000178   0.001716  -0.005191   0.001664   0.000198  -0.000019
     5  H    0.000001   0.000119  -0.000546  -0.000542  -0.000010   0.000000
     6  N   -0.000232  -0.004881   0.027140   0.006213   0.000783  -0.000004
     7  H   -0.000105  -0.000296   0.000313   0.000954   0.000253   0.000002
     8  H    0.000073  -0.000548   0.002053   0.000232   0.000054   0.000012
     9  H   -0.000005   0.000046  -0.000468   0.000173   0.000026  -0.000002
    10  C   -0.005832  -0.071942   0.091263  -0.004823   0.006693  -0.000065
    11  H   -0.001390   0.008730  -0.025304  -0.003993  -0.001983  -0.000063
    12  C   -0.031238  -0.990388   0.886551  -0.101532  -0.001610  -0.004430
    13  C   -0.111825  -4.335194   1.811845  -0.107082   0.035620  -0.030633
    14  H   -0.000198  -0.001368  -0.027399  -0.010075  -0.001694  -0.000243
    15  O   -0.030248  -0.060353  -0.013349  -0.002062   0.093571   0.000167
    16  C    0.150155  -1.429871  -1.457084  -0.063093  -0.207235  -0.072835
    17  C    0.326762  -3.051325   0.884545  -0.018594   0.119429  -0.127816
    18  C    0.052591   4.001975  -3.031877   0.700109  -0.014769   0.047782
    19  O    8.015892  -0.363603   0.001933  -0.000571   0.244269  -0.026414
    20  C   -0.363603  12.491478  -2.001271   0.128991   0.037388   0.571149
    21  C    0.001933  -2.001271   9.244226  -0.207720   0.014315  -0.013854
    22  H   -0.000571   0.128991  -0.207720   0.468188  -0.000664   0.001376
    23  H    0.244269   0.037388   0.014315  -0.000664   0.369247   0.002132
    24  H   -0.026414   0.571149  -0.013854   0.001376   0.002132   0.457517
    25  C    0.025908   1.449034  -0.076108   0.013491  -0.012026  -0.032454
    26  H   -0.000100  -0.017079   0.472017  -0.012801   0.000513   0.000802
    27  H    0.001235  -0.103074  -0.044543  -0.000215  -0.000354  -0.010520
              25         26         27
     1  C    0.000637  -0.000514   0.000002
     2  H    0.000013  -0.000035  -0.000001
     3  H    0.000111   0.000200  -0.000003
     4  C    0.001112  -0.000161   0.000027
     5  H    0.000018   0.000006   0.000000
     6  N    0.000016  -0.000052   0.000024
     7  H   -0.000016   0.000017   0.000000
     8  H   -0.000179   0.000059  -0.000009
     9  H    0.000022  -0.000009   0.000001
    10  C    0.029385   0.003918   0.000045
    11  H    0.000504  -0.000136   0.000030
    12  C   -0.247980   0.005025  -0.002455
    13  C   -0.964814   0.023670   0.006951
    14  H   -0.002943  -0.000230   0.000066
    15  O   -0.001671   0.000300   0.000012
    16  C    0.216257   0.023442   0.077883
    17  C   -1.667521   0.058519   0.006805
    18  C    0.760055  -0.180427  -0.055556
    19  O    0.025908  -0.000100   0.001235
    20  C    1.449034  -0.017079  -0.103074
    21  C   -0.076108   0.472017  -0.044543
    22  H    0.013491  -0.012801  -0.000215
    23  H   -0.012026   0.000513  -0.000354
    24  H   -0.032454   0.000802  -0.010520
    25  C    6.433910  -0.060162   0.446191
    26  H   -0.060162   0.470123  -0.008776
    27  H    0.446191  -0.008776   0.470087
 Mulliken charges:
               1
     1  C   -0.432474
     2  H    0.179057
     3  H    0.175220
     4  C   -0.324909
     5  H    0.165026
     6  N    0.178151
     7  H    0.187979
     8  H    0.135179
     9  H    0.172689
    10  C   -0.668916
    11  H    0.152693
    12  C   -0.200608
    13  C    0.032204
    14  H    0.219437
    15  O   -0.238956
    16  C    1.082061
    17  C   -0.165755
    18  C   -0.494298
    19  O   -0.246917
    20  C   -0.260566
    21  C   -0.541845
    22  H    0.213047
    23  H    0.316829
    24  H    0.238443
    25  C   -0.310789
    26  H    0.221870
    27  H    0.216149
 Sum of Mulliken charges =   0.00000
 Mulliken charges with hydrogens summed into heavy atoms:
               1
     1  C    0.109783
     4  C    0.147985
     6  N    0.178151
    10  C   -0.516223
    12  C    0.018829
    13  C    0.032204
    15  O   -0.238956
    16  C    1.082061
    17  C   -0.165755
    18  C   -0.281251
    19  O    0.069911
    20  C   -0.022123
    21  C   -0.319976
    25  C   -0.094641
 Electronic spatial extent (au):  <R**2>=           3806.2259
 Charge=              0.0000 electrons
 Dipole moment (field-independent basis, Debye):
    X=             -2.6089    Y=              4.0991    Z=              0.4456  Tot=              4.8793
 Quadrupole moment (field-independent basis, Debye-Ang):
   XX=            -63.5928   YY=            -88.7670   ZZ=            -81.8686
   XY=              3.3435   XZ=             -0.5013   YZ=             -0.3440
 Traceless Quadrupole moment (field-independent basis, Debye-Ang):
   XX=             14.4833   YY=            -10.6908   ZZ=             -3.7925
   XY=              3.3435   XZ=             -0.5013   YZ=             -0.3440
 Octapole moment (field-independent basis, Debye-Ang**2):
  XXX=            -47.1596  YYY=             15.7477  ZZZ=              2.9991  XYY=              3.3429
  XXY=             28.0003  XXZ=              8.8544  XZZ=            -21.6100  YZZ=             -7.6185
  YYZ=             -0.7134  XYZ=              1.6565
 Hexadecapole moment (field-independent basis, Debye-Ang**3):
 XXXX=          -3491.4566 YYYY=           -785.1572 ZZZZ=           -302.0069 XXXY=             38.2631
 XXXZ=             28.3496 YYYX=             17.2758 YYYZ=             -7.5250 ZZZX=             -8.4576
 ZZZY=              2.8481 XXYY=           -803.7801 XXZZ=           -716.1489 YYZZ=           -194.3504
 XXYZ=             10.9687 YYXZ=             -4.7238 ZZXY=            -16.0912
 N-N= 8.379638673857D+02 E-N=-3.149527509333D+03  KE= 6.294778718794D+02
 1\1\GINC-DN42\FOpt\RwB97XD TD-FC\6-311++G(d,p)\C11H13N1O2\CA12053\21-N
 ov-2016\0\\# wb97xd 6-311++g** opt td=(nstates=1,root=1)\\title\\0,1\C
 ,-0.1395057113,0.6867744802,6.0317581526\H,0.5047670218,1.4413499019,5
 .584134425\H,-0.6069344086,1.105139681,6.9263649179\C,-1.1823336011,1.
 0162602081,3.7985187845\H,-1.3511533648,2.0809132136,3.9785071704\N,-1
 .1502584469,0.2937088508,5.05962481\H,0.4684751458,-0.1752641076,6.314
 1612714\H,-1.9849896735,0.6312326046,3.1721623541\H,-0.2318799312,0.89
 14718005,3.2736979496\C,-2.0182507517,-0.6786581957,5.3210272416\H,-2.
 7172020517,-0.9153984006,4.5265695734\C,-2.1102701784,-1.39516283,6.50
 37526644\C,-3.0171623956,-2.5406256571,6.5807527519\H,-1.3683686196,-1
 .2519685453,7.2880265359\O,-2.3019748117,-3.5088986233,6.08452614\C,-4
 .3149649744,-2.5987108066,7.1363005961\C,-5.0332042691,-3.8295656736,7
 .1549915287\C,-4.9545840547,-1.4594656189,7.6752552952\O,-4.4837139595
 ,-4.966026377,6.6644021502\C,-6.3132235603,-3.8840739224,7.6758354266\
 C,-6.2369401359,-1.5294932207,8.1949192585\H,-4.42158255,-0.5138357123
 ,7.6813914118\H,-3.5851356407,-4.7648441425,6.3494503994\H,-6.82720080
 15,-4.838487347,7.6712716883\C,-6.9219502655,-2.7408798801,8.195513288
 1\H,-6.7014761768,-0.6392650019,8.6043071129\H,-7.9245393711,-2.804923
 278,8.6017257135\\Version=ES64L-G09RevD.01\State=1-A\HF=-632.105479\RM
 SD=6.081e-09\RMSF=7.761e-06\Dipole=2.4974292,3.8877568,-1.4513348\PG=C
 01 [X(C11H13N1O2)]\\@


 AN OPTIMIST IS A GUY
 THAT HAS NEVER HAD
 MUCH EXPERIENCE
   (CERTAIN MAXIMS OF ARCHY  -- DON MARQUIS)
 Job cpu time:       4 days 12 hours 59 minutes 31.3 seconds.
 File lengths (MBytes):  RWF=    157 Int=      0 D2E=      0 Chk=     25 Scr=      1
 Normal termination of Gaussian 09 at Mon Nov 21 22:56:45 2016.
