 Entering Gaussian System, Link 0=g09
 Input=1_optS1_rotated_cis.com
 Output=1_optS1_rotated_cis.out
 Initial command:
 /share/apps/gaussian/g09_D01/g09/l1.exe "/tmp/4030604.1.chemistry.q/Gau-2429.inp" -scrdir="/tmp/4030604.1.chemistry.q/"
 Entering Link 1 = /share/apps/gaussian/g09_D01/g09/l1.exe PID=      2430.
  
 Copyright (c) 1988,1990,1992,1993,1995,1998,2003,2009,2013,
            Gaussian, Inc.  All Rights Reserved.
  
 This is part of the Gaussian(R) 09 program.  It is based on
 the Gaussian(R) 03 system (copyright 2003, Gaussian, Inc.),
 the Gaussian(R) 98 system (copyright 1998, Gaussian, Inc.),
 the Gaussian(R) 94 system (copyright 1995, Gaussian, Inc.),
 the Gaussian 92(TM) system (copyright 1992, Gaussian, Inc.),
 the Gaussian 90(TM) system (copyright 1990, Gaussian, Inc.),
 the Gaussian 88(TM) system (copyright 1988, Gaussian, Inc.),
 the Gaussian 86(TM) system (copyright 1986, Carnegie Mellon
 University), and the Gaussian 82(TM) system (copyright 1983,
 Carnegie Mellon University). Gaussian is a federally registered
 trademark of Gaussian, Inc.
  
 This software contains proprietary and confidential information,
 including trade secrets, belonging to Gaussian, Inc.
  
 This software is provided under written license and may be
 used, copied, transmitted, or stored only in accord with that
 written license.
  
 The following legend is applicable only to US Government
 contracts under FAR:
  
                    RESTRICTED RIGHTS LEGEND
  
 Use, reproduction and disclosure by the US Government is
 subject to restrictions as set forth in subparagraphs (a)
 and (c) of the Commercial Computer Software - Restricted
 Rights clause in FAR 52.227-19.
  
 Gaussian, Inc.
 340 Quinnipiac St., Bldg. 40, Wallingford CT 06492
  
  
 ---------------------------------------------------------------
 Warning -- This program may not be used in any manner that
 competes with the business of Gaussian, Inc. or will provide
 assistance to any competitor of Gaussian, Inc.  The licensee
 of this program is prohibited from giving any competitor of
 Gaussian, Inc. access to this program.  By using this program,
 the user acknowledges that Gaussian, Inc. is engaged in the
 business of creating and licensing software in the field of
 computational chemistry and represents and warrants to the
 licensee that it is not a competitor of Gaussian, Inc. and that
 it will not use this program in any manner prohibited above.
 ---------------------------------------------------------------
  

 Cite this work as:
 Gaussian 09, Revision D.01,
 M. J. Frisch, G. W. Trucks, H. B. Schlegel, G. E. Scuseria, 
 M. A. Robb, J. R. Cheeseman, G. Scalmani, V. Barone, B. Mennucci, 
 G. A. Petersson, H. Nakatsuji, M. Caricato, X. Li, H. P. Hratchian, 
 A. F. Izmaylov, J. Bloino, G. Zheng, J. L. Sonnenberg, M. Hada, 
 M. Ehara, K. Toyota, R. Fukuda, J. Hasegawa, M. Ishida, T. Nakajima, 
 Y. Honda, O. Kitao, H. Nakai, T. Vreven, J. A. Montgomery, Jr., 
 J. E. Peralta, F. Ogliaro, M. Bearpark, J. J. Heyd, E. Brothers, 
 K. N. Kudin, V. N. Staroverov, T. Keith, R. Kobayashi, J. Normand, 
 K. Raghavachari, A. Rendell, J. C. Burant, S. S. Iyengar, J. Tomasi, 
 M. Cossi, N. Rega, J. M. Millam, M. Klene, J. E. Knox, J. B. Cross, 
 V. Bakken, C. Adamo, J. Jaramillo, R. Gomperts, R. E. Stratmann, 
 O. Yazyev, A. J. Austin, R. Cammi, C. Pomelli, J. W. Ochterski, 
 R. L. Martin, K. Morokuma, V. G. Zakrzewski, G. A. Voth, 
 P. Salvador, J. J. Dannenberg, S. Dapprich, A. D. Daniels, 
 O. Farkas, J. B. Foresman, J. V. Ortiz, J. Cioslowski, 
 and D. J. Fox, Gaussian, Inc., Wallingford CT, 2013.
 
 ******************************************
 Gaussian 09:  ES64L-G09RevD.01 24-Apr-2013
                20-Jul-2017 
 ******************************************
 %chk=1_optS1_rotated_cis.chk
 %mem=28GB
 %nproc=4
 Will use up to    4 processors via shared memory.
 ---------------------------------------------
 # wb97xd 6-311++g** opt td=(nstates=1,root=1)
 ---------------------------------------------
 1/14=-1,18=20,19=15,26=3,38=1/1,3;
 2/9=110,12=2,17=6,18=5,40=1/2;
 3/5=4,6=6,7=1111,11=9,16=1,25=1,30=1,71=1,74=-58/1,2,8,3;
 4//1;
 5/5=2,38=5/2;
 8/6=1,10=2,107=1,108=1/1;
 9/8=1,15=2,41=1,42=1,70=2/14;
 10/5=4/2;
 6/7=2,8=2,9=2,10=2/1;
 7/12=6,13=5,14=1/1,2,3,16;
 1/14=-1,18=20,19=15,26=3/3(2);
 2/9=110/2;
 99//99;
 2/9=110/2;
 3/5=4,6=6,7=1111,11=9,16=1,25=1,30=1,71=1,74=-58/1,2,8,3;
 4/5=5,16=3,69=1/1;
 5/5=2,38=5/2;
 8/6=1,10=2,107=1,108=1/1;
 9/8=1,15=2,41=1,42=1,49=4,70=2/14;
 10/5=4/2;
 7/12=6,13=5,14=1/1,2,3,16;
 1/14=-1,18=20,19=15,26=3/3(-8);
 2/9=110/2;
 6/7=2,8=2,9=2,10=2/1;
 99//99;
 ----------------------
 restarted optimization
 ----------------------
 Symbolic Z-matrix:
 Charge =  0 Multiplicity = 1
 C                     0.26613  -0.42562   8.68319 
 H                     1.28593  -0.21719   9.0087 
 H                    -0.38232   0.4028    9.00704 
 C                     1.15484   0.23721   6.48947 
 H                     0.86018   1.29655   6.51591 
 N                     0.25184  -0.60389   7.24954 
 H                    -0.06692  -1.33958   9.18118 
 H                     1.17012  -0.0892    5.44822 
 H                     2.16762   0.14672   6.88842 
 C                    -0.90598  -1.01096   6.64179 
 H                    -0.85496  -1.04447   5.55976 
 C                    -2.05716  -1.40419   7.28525 
 C                    -3.20756  -1.83371   6.59129 
 H                    -2.15201  -1.33313   8.36169 
 O                    -3.24207  -1.77862   5.28433 
 C                    -4.45403  -2.29873   7.20673 
 C                    -5.20564  -3.3527    6.64092 
 C                    -4.94919  -1.66533   8.35921 
 O                    -4.86134  -3.95552   5.47681 
 C                    -6.35626  -3.80082   7.27624 
 C                    -6.10826  -2.10641   8.97451 
 H                    -4.38683  -0.84026   8.77895 
 H                    -4.16496  -3.44193   5.05168 
 H                    -6.90491  -4.61839   6.82379 
 C                    -6.80351  -3.18589   8.43756 
 H                    -6.46447  -1.6158    9.87234 
 H                    -7.70856  -3.54337   8.91531 
 

 GradGradGradGradGradGradGradGradGradGradGradGradGradGradGradGradGradGrad
 Berny optimization.
 Initialization pass.
                           ----------------------------
                           !    Initial Parameters    !
                           ! (Angstroms and Degrees)  !
 --------------------------                            --------------------------
 ! Name  Definition              Value          Derivative Info.                !
 --------------------------------------------------------------------------------
 ! R1    R(1,2)                  1.0906         estimate D2E/DX2                !
 ! R2    R(1,3)                  1.1007         estimate D2E/DX2                !
 ! R3    R(1,6)                  1.4448         estimate D2E/DX2                !
 ! R4    R(1,7)                  1.0928         estimate D2E/DX2                !
 ! R5    R(4,5)                  1.0999         estimate D2E/DX2                !
 ! R6    R(4,6)                  1.4493         estimate D2E/DX2                !
 ! R7    R(4,8)                  1.0913         estimate D2E/DX2                !
 ! R8    R(4,9)                  1.0923         estimate D2E/DX2                !
 ! R9    R(6,10)                 1.3695         estimate D2E/DX2                !
 ! R10   R(10,11)                1.0838         estimate D2E/DX2                !
 ! R11   R(10,12)                1.3762         estimate D2E/DX2                !
 ! R12   R(12,13)                1.4105         estimate D2E/DX2                !
 ! R13   R(12,14)                1.083          estimate D2E/DX2                !
 ! R14   R(13,15)                1.3086         estimate D2E/DX2                !
 ! R15   R(13,16)                1.4658         estimate D2E/DX2                !
 ! R16   R(16,17)                1.4128         estimate D2E/DX2                !
 ! R17   R(16,18)                1.4052         estimate D2E/DX2                !
 ! R18   R(17,19)                1.3554         estimate D2E/DX2                !
 ! R19   R(17,20)                1.3887         estimate D2E/DX2                !
 ! R20   R(18,21)                1.3844         estimate D2E/DX2                !
 ! R21   R(18,22)                1.0831         estimate D2E/DX2                !
 ! R22   R(19,23)                0.9641         estimate D2E/DX2                !
 ! R23   R(20,24)                1.0836         estimate D2E/DX2                !
 ! R24   R(20,25)                1.3881         estimate D2E/DX2                !
 ! R25   R(21,25)                1.3917         estimate D2E/DX2                !
 ! R26   R(21,26)                1.0834         estimate D2E/DX2                !
 ! R27   R(25,27)                1.084          estimate D2E/DX2                !
 ! A1    A(2,1,3)              108.6146         estimate D2E/DX2                !
 ! A2    A(2,1,6)              109.2084         estimate D2E/DX2                !
 ! A3    A(2,1,7)              107.9872         estimate D2E/DX2                !
 ! A4    A(3,1,6)              112.2712         estimate D2E/DX2                !
 ! A5    A(3,1,7)              108.4103         estimate D2E/DX2                !
 ! A6    A(6,1,7)              110.2421         estimate D2E/DX2                !
 ! A7    A(5,4,6)              112.2983         estimate D2E/DX2                !
 ! A8    A(5,4,8)              108.3463         estimate D2E/DX2                !
 ! A9    A(5,4,9)              108.6277         estimate D2E/DX2                !
 ! A10   A(6,4,8)              109.6036         estimate D2E/DX2                !
 ! A11   A(6,4,9)              109.7599         estimate D2E/DX2                !
 ! A12   A(8,4,9)              108.1028         estimate D2E/DX2                !
 ! A13   A(1,6,4)              116.2716         estimate D2E/DX2                !
 ! A14   A(1,6,10)             119.0374         estimate D2E/DX2                !
 ! A15   A(4,6,10)             117.808          estimate D2E/DX2                !
 ! A16   A(6,10,11)            114.3586         estimate D2E/DX2                !
 ! A17   A(6,10,12)            125.7774         estimate D2E/DX2                !
 ! A18   A(11,10,12)           119.8259         estimate D2E/DX2                !
 ! A19   A(10,12,13)           122.6309         estimate D2E/DX2                !
 ! A20   A(10,12,14)           121.2831         estimate D2E/DX2                !
 ! A21   A(13,12,14)           115.9505         estimate D2E/DX2                !
 ! A22   A(12,13,15)           120.0053         estimate D2E/DX2                !
 ! A23   A(12,13,16)           125.7027         estimate D2E/DX2                !
 ! A24   A(15,13,16)           114.2214         estimate D2E/DX2                !
 ! A25   A(13,16,17)           121.3934         estimate D2E/DX2                !
 ! A26   A(13,16,18)           120.065          estimate D2E/DX2                !
 ! A27   A(17,16,18)           118.5082         estimate D2E/DX2                !
 ! A28   A(16,17,19)           122.7272         estimate D2E/DX2                !
 ! A29   A(16,17,20)           119.8896         estimate D2E/DX2                !
 ! A30   A(19,17,20)           117.3803         estimate D2E/DX2                !
 ! A31   A(16,18,21)           121.0588         estimate D2E/DX2                !
 ! A32   A(16,18,22)           118.5707         estimate D2E/DX2                !
 ! A33   A(21,18,22)           120.3413         estimate D2E/DX2                !
 ! A34   A(17,19,23)           108.9833         estimate D2E/DX2                !
 ! A35   A(17,20,24)           118.1633         estimate D2E/DX2                !
 ! A36   A(17,20,25)           120.4492         estimate D2E/DX2                !
 ! A37   A(24,20,25)           121.3616         estimate D2E/DX2                !
 ! A38   A(18,21,25)           119.5964         estimate D2E/DX2                !
 ! A39   A(18,21,26)           119.9553         estimate D2E/DX2                !
 ! A40   A(25,21,26)           120.4468         estimate D2E/DX2                !
 ! A41   A(20,25,21)           120.3595         estimate D2E/DX2                !
 ! A42   A(20,25,27)           119.4469         estimate D2E/DX2                !
 ! A43   A(21,25,27)           120.1866         estimate D2E/DX2                !
 ! D1    D(2,1,6,4)            -36.2809         estimate D2E/DX2                !
 ! D2    D(2,1,6,10)           173.367          estimate D2E/DX2                !
 ! D3    D(3,1,6,4)             84.2466         estimate D2E/DX2                !
 ! D4    D(3,1,6,10)           -66.1054         estimate D2E/DX2                !
 ! D5    D(7,1,6,4)           -154.7715         estimate D2E/DX2                !
 ! D6    D(7,1,6,10)            54.8765         estimate D2E/DX2                !
 ! D7    D(5,4,6,1)            -68.2087         estimate D2E/DX2                !
 ! D8    D(5,4,6,10)            82.5192         estimate D2E/DX2                !
 ! D9    D(8,4,6,1)            171.3144         estimate D2E/DX2                !
 ! D10   D(8,4,6,10)           -37.9577         estimate D2E/DX2                !
 ! D11   D(9,4,6,1)             52.7322         estimate D2E/DX2                !
 ! D12   D(9,4,6,10)          -156.54           estimate D2E/DX2                !
 ! D13   D(1,6,10,11)          175.3836         estimate D2E/DX2                !
 ! D14   D(1,6,10,12)           -6.8768         estimate D2E/DX2                !
 ! D15   D(4,6,10,11)           25.482          estimate D2E/DX2                !
 ! D16   D(4,6,10,12)         -156.7783         estimate D2E/DX2                !
 ! D17   D(6,10,12,13)        -178.896          estimate D2E/DX2                !
 ! D18   D(6,10,12,14)           5.5069         estimate D2E/DX2                !
 ! D19   D(11,10,12,13)         -1.2696         estimate D2E/DX2                !
 ! D20   D(11,10,12,14)       -176.8666         estimate D2E/DX2                !
 ! D21   D(10,12,13,15)         -4.9163         estimate D2E/DX2                !
 ! D22   D(10,12,13,16)        178.3218         estimate D2E/DX2                !
 ! D23   D(14,12,13,15)        170.8994         estimate D2E/DX2                !
 ! D24   D(14,12,13,16)         -5.8625         estimate D2E/DX2                !
 ! D25   D(12,13,16,17)       -143.0747         estimate D2E/DX2                !
 ! D26   D(12,13,16,18)         39.056          estimate D2E/DX2                !
 ! D27   D(15,13,16,17)         40.0            estimate D2E/DX2                !
 ! D28   D(15,13,16,18)       -137.8694         estimate D2E/DX2                !
 ! D29   D(13,16,17,19)         -2.9735         estimate D2E/DX2                !
 ! D30   D(13,16,17,20)        177.6621         estimate D2E/DX2                !
 ! D31   D(18,16,17,19)        174.9282         estimate D2E/DX2                !
 ! D32   D(18,16,17,20)         -4.4363         estimate D2E/DX2                !
 ! D33   D(13,16,18,21)       -178.5453         estimate D2E/DX2                !
 ! D34   D(13,16,18,22)         -0.5013         estimate D2E/DX2                !
 ! D35   D(17,16,18,21)          3.5244         estimate D2E/DX2                !
 ! D36   D(17,16,18,22)       -178.4317         estimate D2E/DX2                !
 ! D37   D(16,17,19,23)        -10.9682         estimate D2E/DX2                !
 ! D38   D(20,17,19,23)        168.4113         estimate D2E/DX2                !
 ! D39   D(16,17,20,24)       -179.2996         estimate D2E/DX2                !
 ! D40   D(16,17,20,25)          2.524          estimate D2E/DX2                !
 ! D41   D(19,17,20,24)          1.3025         estimate D2E/DX2                !
 ! D42   D(19,17,20,25)       -176.8739         estimate D2E/DX2                !
 ! D43   D(16,18,21,25)         -0.6468         estimate D2E/DX2                !
 ! D44   D(16,18,21,26)        178.9212         estimate D2E/DX2                !
 ! D45   D(22,18,21,25)       -178.6563         estimate D2E/DX2                !
 ! D46   D(22,18,21,26)          0.9117         estimate D2E/DX2                !
 ! D47   D(17,20,25,21)          0.4238         estimate D2E/DX2                !
 ! D48   D(17,20,25,27)        179.463          estimate D2E/DX2                !
 ! D49   D(24,20,25,21)       -177.6934         estimate D2E/DX2                !
 ! D50   D(24,20,25,27)          1.3458         estimate D2E/DX2                !
 ! D51   D(18,21,25,20)         -1.3752         estimate D2E/DX2                !
 ! D52   D(18,21,25,27)        179.5928         estimate D2E/DX2                !
 ! D53   D(26,21,25,20)        179.059          estimate D2E/DX2                !
 ! D54   D(26,21,25,27)          0.0269         estimate D2E/DX2                !
 --------------------------------------------------------------------------------
 Trust Radius=3.00D-01 FncErr=1.00D-07 GrdErr=1.00D-06
 Number of steps in this run=    134 maximum allowed number of steps=    162.
 GradGradGradGradGradGradGradGradGradGradGradGradGradGradGradGradGradGrad

                          Input orientation:                          
 ---------------------------------------------------------------------
 Center     Atomic      Atomic             Coordinates (Angstroms)
 Number     Number       Type             X           Y           Z
 ---------------------------------------------------------------------
      1          6           0        0.266127   -0.425621    8.683186
      2          1           0        1.285925   -0.217187    9.008699
      3          1           0       -0.382317    0.402802    9.007044
      4          6           0        1.154837    0.237210    6.489474
      5          1           0        0.860179    1.296549    6.515911
      6          7           0        0.251843   -0.603886    7.249537
      7          1           0       -0.066919   -1.339577    9.181177
      8          1           0        1.170117   -0.089203    5.448222
      9          1           0        2.167617    0.146719    6.888419
     10          6           0       -0.905981   -1.010961    6.641793
     11          1           0       -0.854962   -1.044469    5.559762
     12          6           0       -2.057164   -1.404188    7.285247
     13          6           0       -3.207560   -1.833708    6.591290
     14          1           0       -2.152007   -1.333133    8.361694
     15          8           0       -3.242071   -1.778617    5.284333
     16          6           0       -4.454034   -2.298733    7.206731
     17          6           0       -5.205636   -3.352698    6.640923
     18          6           0       -4.949187   -1.665329    8.359210
     19          8           0       -4.861338   -3.955519    5.476806
     20          6           0       -6.356258   -3.800818    7.276241
     21          6           0       -6.108261   -2.106413    8.974510
     22          1           0       -4.386828   -0.840255    8.778952
     23          1           0       -4.164959   -3.441933    5.051675
     24          1           0       -6.904913   -4.618391    6.823788
     25          6           0       -6.803505   -3.185891    8.437564
     26          1           0       -6.464468   -1.615796    9.872342
     27          1           0       -7.708562   -3.543373    8.915306
 ---------------------------------------------------------------------
                    Distance matrix (angstroms):
                    1          2          3          4          5
     1  C    0.000000
     2  H    1.090592   0.000000
     3  H    1.100749   1.779725   0.000000
     4  C    2.457951   2.563231   2.954390   0.000000
     5  H    2.831227   2.947312   2.923752   1.099873   0.000000
     6  N    1.444760   2.076900   2.122360   1.449323   2.126013
     7  H    1.092808   1.766266   1.779237   3.350255   3.861647
     8  H    3.375702   3.564658   3.913737   1.091322   1.776606
     9  H    2.676645   2.324951   3.325104   1.092277   1.780524
    10  C    2.425643   3.322164   2.804882   2.414146   2.908568
    11  H    3.375736   4.142820   3.768520   2.558585   3.055535
    12  C    2.882622   3.944046   3.005813   3.693832   4.049290
    13  C    4.292463   5.352421   4.338184   4.830070   5.133292
    14  H    2.602750   3.671965   2.561591   4.111740   4.404022
    15  O    5.068555   6.067266   5.176423   4.984849   5.272749
    16  C    5.288515   6.366086   5.207523   6.197169   6.453227
    17  C    6.532902   7.588027   6.554900   7.305203   7.643641
    18  C    5.370413   6.433940   5.055013   6.661432   6.776371
    19  O    7.002281   8.014875   7.177685   7.402623   7.835796
    20  C    7.564882   8.616658   7.506935   8.563949   8.867819
    21  C    6.598693   7.631797   6.251692   8.026242   8.135356
    22  H    4.672374   5.711490   4.199205   6.092018   6.100686
    23  H    6.474607   7.467875   6.688446   6.625978   7.060397
    24  H    8.512373   9.551663   8.516058   9.415317   9.766164
    25  C    7.593361   8.635872   7.377987   8.879634   9.083891
    26  H    6.937688   7.922788   6.466532   8.539979   8.567254
    27  H    8.565624   9.590257   8.321934   9.936665  10.129426
                    6          7          8          9         10
     6  N    0.000000
     7  H    2.091431   0.000000
     8  H    2.086351   4.126578   0.000000
     9  H    2.089020   3.529726   1.767720   0.000000
    10  C    1.369532   2.694529   2.566015   3.293638   0.000000
    11  H    2.067479   3.717896   2.241856   3.510020   1.083751
    12  C    2.444028   2.749509   3.939440   4.517915   1.376184
    13  C    3.730043   4.100647   4.849119   5.736105   2.444735
    14  H    2.747215   2.240354   4.590445   4.797880   2.148124
    15  O    4.177254   5.045765   4.727408   5.961941   2.808792
    16  C    5.001961   4.905629   6.293286   7.065962   3.816568
    17  C    6.140884   6.075522   7.261072   8.165295   4.895995
    18  C    5.422984   4.961682   6.957292   7.489703   4.441310
    19  O    6.365582   6.599391   7.164332   8.259976   5.066800
    20  C    7.340851   7.017284   8.588601   9.401591   6.155595
    21  C    6.758997   6.093321   8.335384   8.827147   5.805626
    22  H    4.890015   4.367232   6.522076   6.892676   4.088139
    23  H    5.691507   6.186002   6.313564   7.506902   4.365666
    24  H    8.216853   7.941415   9.360119  10.247988   7.002418
    25  C    7.606320   7.024488   9.061142   9.694699   6.537271
    26  H    7.280927   6.440702   8.954899   9.301782   6.457480
    27  H    8.647741   7.957519  10.138190  10.736106   7.606384
                   11         12         13         14         15
    11  H    0.000000
    12  C    2.133538   0.000000
    13  C    2.687316   1.410487   0.000000
    14  H    3.101044   1.082951   2.121108   0.000000
    15  O    2.512593   2.355389   1.308573   3.294973   0.000000
    16  C    4.151988   2.559563   1.465849   2.750573   2.331306
    17  C    5.042341   3.758287   2.510399   4.045287   2.858961
    18  C    4.998505   3.096028   2.487400   2.816838   3.518799
    19  O    4.952993   4.200373   2.911895   4.747626   2.719921
    20  C    6.388116   4.922005   3.775312   4.994338   4.213687
    21  C    6.354949   4.445010   3.764063   4.077432   4.684005
    22  H    4.783196   2.824271   2.676469   2.326254   3.795175
    23  H    4.118503   3.685654   2.423513   4.410809   1.916370
    24  H    7.139509   5.834785   4.634537   5.978979   4.883713
    25  C    6.946409   5.199044   4.262388   5.007485   4.960555
    26  H    7.098684   5.114896   4.628200   4.578130   5.608938
    27  H    8.029697   6.258714   5.346309   6.005577   6.020621
                   16         17         18         19         20
    16  C    0.000000
    17  C    1.412759   0.000000
    18  C    1.405199   2.421877   0.000000
    19  O    2.429707   1.355397   3.682518   0.000000
    20  C    2.424778   1.388658   2.777226   2.344501   0.000000
    21  C    2.428682   2.795279   1.384414   4.148246   2.411769
    22  H    2.145589   3.399115   1.083133   4.564449   3.860276
    23  H    2.456570   1.901757   3.835508   0.964080   3.143133
    24  H    3.396214   2.126725   3.860435   2.535736   1.083587
    25  C    2.796787   2.410172   2.399322   3.623593   1.388105
    26  H    3.407892   3.878602   2.141985   5.231163   3.394963
    27  H    3.880762   3.387302   3.383850   4.483284   2.140453
                   21         22         23         24         25
    21  C    0.000000
    22  H    2.145863   0.000000
    23  H    4.576972   4.550884   0.000000
    24  H    3.401514   4.943453   3.468686   0.000000
    25  C    1.391744   3.385097   4.300201   2.160234   0.000000
    26  H    1.083370   2.472560   5.644586   4.301541   2.153772
    27  H    2.151587   4.284782   5.243573   2.485149   1.084047
                   26         27
    26  H    0.000000
    27  H    2.485808   0.000000
 Stoichiometry    C11H13NO2
 Framework group  C1[X(C11H13NO2)]
 Deg. of freedom    75
 Full point group                 C1      NOp   1
 Largest Abelian subgroup         C1      NOp   1
 Largest concise Abelian subgroup C1      NOp   1
                         Standard orientation:                         
 ---------------------------------------------------------------------
 Center     Atomic      Atomic             Coordinates (Angstroms)
 Number     Number       Type             X           Y           Z
 ---------------------------------------------------------------------
      1          6           0       -3.655997    1.537583   -0.630604
      2          1           0       -4.657146    1.807806   -0.968351
      3          1           0       -3.392644    2.171106    0.230176
      4          6           0       -4.827301   -0.410491    0.304584
      5          1           0       -4.993188   -0.019879    1.319288
      6          7           0       -3.628241    0.130558   -0.303740
      7          1           0       -2.956771    1.750915   -1.442886
      8          1           0       -4.749576   -1.497453    0.363382
      9          1           0       -5.696221   -0.165118   -0.310103
     10          6           0       -2.431275   -0.454888    0.012715
     11          1           0       -2.508130   -1.491014    0.321020
     12          6           0       -1.194984    0.143268   -0.074903
     13          6           0        0.000923   -0.531344    0.247867
     14          1           0       -1.093873    1.190456   -0.331723
     15          8           0       -0.043624   -1.742851    0.740441
     16          6           0        1.352362    0.027235    0.146295
     17          6           0        2.446908   -0.764790   -0.266686
     18          6           0        1.590065    1.364837    0.505322
     19          8           0        2.333552   -2.088455   -0.535319
     20          6           0        3.704914   -0.191773   -0.398760
     21          6           0        2.852060    1.922062    0.389258
     22          1           0        0.755971    1.965614    0.846692
     23          1           0        1.470923   -2.396697   -0.234805
     24          1           0        4.522109   -0.822399   -0.728403
     25          6           0        3.906940    1.143479   -0.077631
     26          1           0        3.011502    2.960237    0.654706
     27          1           0        4.897620    1.571885   -0.178529
 ---------------------------------------------------------------------
 Rotational constants (GHZ):      1.5800667      0.3175645      0.2748850
 Standard basis: 6-311++G(d,p) (5D, 7F)
 There are   413 symmetry adapted cartesian basis functions of A   symmetry.
 There are   399 symmetry adapted basis functions of A   symmetry.
   399 basis functions,   621 primitive gaussians,   413 cartesian basis functions
    51 alpha electrons       51 beta electrons
       nuclear repulsion energy       834.8324261003 Hartrees.
 NAtoms=   27 NActive=   27 NUniq=   27 SFac= 1.00D+00 NAtFMM=   60 NAOKFM=F Big=F
 Integral buffers will be    131072 words long.
 Raffenetti 1 integral format.
 Two-electron integral symmetry is turned on.
 Nuclear repulsion after empirical dispersion term =      834.8172215614 Hartrees.
 One-electron integrals computed using PRISM.
 NBasis=   399 RedAO= T EigKep=  2.89D-06  NBF=   399
 NBsUse=   397 1.00D-06 EigRej=  8.18D-07 NBFU=   397
 ExpMin= 3.60D-02 ExpMax= 8.59D+03 ExpMxC= 1.30D+03 IAcc=3 IRadAn=         5 AccDes= 0.00D+00
 Harris functional with IExCor= 4639 and IRadAn=       5 diagonalized for initial guess.
 HarFok:  IExCor= 4639 AccDes= 0.00D+00 IRadAn=         5 IDoV= 1 UseB2=F ITyADJ=14
 ICtDFT=  3500011 ScaDFX=  1.000000  1.000000  1.000000  1.000000
 FoFCou: FMM=F IPFlag=           0 FMFlag=      100000 FMFlg1=           0
         NFxFlg=           0 DoJE=T BraDBF=F KetDBF=T FulRan=T
         wScrn=  0.000000 ICntrl=     500 IOpCl=  0 I1Cent=   200000004 NGrid=           0
         NMat0=    1 NMatS0=      1 NMatT0=    0 NMatD0=    1 NMtDS0=    0 NMtDT0=    0
 Petite list used in FoFCou.
 Requested convergence on RMS density matrix=1.00D-08 within 128 cycles.
 Requested convergence on MAX density matrix=1.00D-06.
 Requested convergence on             energy=1.00D-06.
 No special actions if energy rises.
 SCF Done:  E(RwB97XD) =  -632.135026366     A.U. after   18 cycles
            NFock= 18  Conv=0.35D-08     -V/T= 2.0043
 DoSCS=F DFT=T ScalE2(SS,OS)=  1.000000  1.000000
 ExpMin= 3.60D-02 ExpMax= 8.59D+03 ExpMxC= 1.30D+03 IAcc=3 IRadAn=         5 AccDes= 0.00D+00
 HarFok:  IExCor=  205 AccDes= 0.00D+00 IRadAn=         5 IDoV=-2 UseB2=F ITyADJ=14
 ICtDFT= 12500011 ScaDFX=  1.000000  1.000000  1.000000  1.000000
 Range of M.O.s used for correlation:    15   397
 NBasis=   399 NAE=    51 NBE=    51 NFC=    14 NFV=     0
 NROrb=    383 NOA=    37 NOB=    37 NVA=   346 NVB=   346

 **** Warning!!: The largest alpha MO coefficient is  0.10672427D+03

 Would need an additional         15381800000 words for in-memory AO integral storage.
 Orbital symmetries:
       Occupied  (A) (A) (A) (A) (A) (A) (A) (A) (A) (A) (A) (A)
                 (A) (A) (A) (A) (A) (A) (A) (A) (A) (A) (A) (A)
                 (A) (A) (A) (A) (A) (A) (A) (A) (A) (A) (A) (A)
                 (A) (A) (A) (A) (A) (A) (A) (A) (A) (A) (A) (A)
                 (A) (A) (A)
       Virtual   (A) (A) (A) (A) (A) (A) (A) (A) (A) (A) (A) (A)
                 (A) (A) (A) (A) (A) (A) (A) (A) (A) (A) (A) (A)
                 (A) (A) (A) (A) (A) (A) (A) (A) (A) (A) (A) (A)
                 (A) (A) (A) (A) (A) (A) (A) (A) (A) (A) (A) (A)
                 (A) (A) (A) (A) (A) (A) (A) (A) (A) (A) (A) (A)
                 (A) (A) (A) (A) (A) (A) (A) (A) (A) (A) (A) (A)
                 (A) (A) (A) (A) (A) (A) (A) (A) (A) (A) (A) (A)
                 (A) (A) (A) (A) (A) (A) (A) (A) (A) (A) (A) (A)
                 (A) (A) (A) (A) (A) (A) (A) (A) (A) (A) (A) (A)
                 (A) (A) (A) (A) (A) (A) (A) (A) (A) (A) (A) (A)
                 (A) (A) (A) (A) (A) (A) (A) (A) (A) (A) (A) (A)
                 (A) (A) (A) (A) (A) (A) (A) (A) (A) (A) (A) (A)
                 (A) (A) (A) (A) (A) (A) (A) (A) (A) (A) (A) (A)
                 (A) (A) (A) (A) (A) (A) (A) (A) (A) (A) (A) (A)
                 (A) (A) (A) (A) (A) (A) (A) (A) (A) (A) (A) (A)
                 (A) (A) (A) (A) (A) (A) (A) (A) (A) (A) (A) (A)
                 (A) (A) (A) (A) (A) (A) (A) (A) (A) (A) (A) (A)
                 (A) (A) (A) (A) (A) (A) (A) (A) (A) (A) (A) (A)
                 (A) (A) (A) (A) (A) (A) (A) (A) (A) (A) (A) (A)
                 (A) (A) (A) (A) (A) (A) (A) (A) (A) (A) (A) (A)
                 (A) (A) (A) (A) (A) (A) (A) (A) (A) (A) (A) (A)
                 (A) (A) (A) (A) (A) (A) (A) (A) (A) (A) (A) (A)
                 (A) (A) (A) (A) (A) (A) (A) (A) (A) (A) (A) (A)
                 (A) (A) (A) (A) (A) (A) (A) (A) (A) (A) (A) (A)
                 (A) (A) (A) (A) (A) (A) (A) (A) (A) (A) (A) (A)
                 (A) (A) (A) (A) (A) (A) (A) (A) (A) (A) (A) (A)
                 (A) (A) (A) (A) (A) (A) (A) (A) (A) (A) (A) (A)
                 (A) (A) (A) (A) (A) (A) (A) (A) (A) (A) (A) (A)
                 (A) (A) (A) (A) (A) (A) (A) (A) (A) (A)
     8 initial guesses have been made.
 Convergence on wavefunction:    0.000001000000000
 Iteration     1 Dimension     8 NMult     0 NNew      8
 CISAX will form     8 AO SS matrices at one time.
 New state      1 was old state      3
 Iteration     2 Dimension    12 NMult     8 NNew      4
 Iteration     3 Dimension    16 NMult    12 NNew      4
 Iteration     4 Dimension    20 NMult    16 NNew      4
 Iteration     5 Dimension    24 NMult    20 NNew      4
 Iteration     6 Dimension    28 NMult    24 NNew      4
 Iteration     7 Dimension    32 NMult    28 NNew      4
 Iteration     8 Dimension    36 NMult    32 NNew      4
 Iteration     9 Dimension    40 NMult    36 NNew      4
 Iteration    10 Dimension    44 NMult    40 NNew      4
 Iteration    11 Dimension    48 NMult    44 NNew      4
 ***********************************************************************
 Excited states from <AA,BB:AA,BB> singles matrix:
 ***********************************************************************
 
 Ground to excited state transition densities written to RWF  633
 Ground to excited state transition electric dipole moments (Au):
       state          X           Y           Z        Dip. S.      Osc.
         1         0.5389      0.0807     -0.0280      0.2977      0.0258
 Ground to excited state transition velocity dipole moments (Au):
       state          X           Y           Z        Dip. S.      Osc.
         1        -0.0712     -0.0085      0.0038      0.0052      0.0265
 Ground to excited state transition magnetic dipole moments (Au):
       state          X           Y           Z
         1         0.0140     -0.6429      0.3007
 Ground to excited state transition velocity quadrupole moments (Au):
       state          XX          YY          ZZ          XY          XZ          YZ
         1        -0.0876     -0.0049     -0.0014     -0.0084      0.0371     -0.0054
 <0|del|b> * <b|rxdel|0> + <0|del|b> * <b|delr+rdel|0>
 Rotatory Strengths (R) in cgs (10**-40 erg-esu-cm/Gauss)
       state          XX          YY          ZZ    R(velocity)    E-M Angle
         1        18.7529      1.5253     10.2633     10.1805       83.69
 1/2[<0|r|b>*<b|rxdel|0> + (<0|rxdel|b>*<b|r|0>)*]
 Rotatory Strengths (R) in cgs (10**-40 erg-esu-cm/Gauss)
       state          XX          YY          ZZ     R(length)
         1        -5.3214     36.6994      5.9625     12.4468
  1/2[<0|del|b>*<b|r|0> + (<0|r|b>*<b|del|0>)*] (Au)
       state          X           Y           Z        Dip. S.   Osc.(frdel)
         1        -0.0384     -0.0007     -0.0001      0.0392      0.0261

 Excitation energies and oscillator strengths:
 
 Excited State   1:      Singlet-A      3.5320 eV  351.03 nm  f=0.0258  <S**2>=0.000
      48 -> 52         0.38558
      49 -> 52         0.49827
      51 -> 52         0.26472
 This state for optimization and/or second-order correction.
 Total Energy, E(TD-HF/TD-KS) =  -632.005228947    
 Copying the excited state density for this state as the 1-particle RhoCI density.
 SavETr:  write IOETrn=   770 NScale= 10 NData=  16 NLR=1 NState=    1 LETran=      28.
          IDoAtm=111111111111111111111111111
          Differentiating once with respect to electric field.
                with respect to dipole field.
          Differentiating once with respect to nuclear coordinates.
          There are     1 degrees of freedom in the 1st order CPHF.  IDoFFX=0 NUNeed=     1.
 LinEq1:  Iter=  0 NonCon=     1 RMS=1.00D-02 Max=5.74D-01 NDo=     1
 AX will form     1 AO Fock derivatives at one time.
 LinEq1:  Iter=  1 NonCon=     1 RMS=2.52D-03 Max=9.78D-02 NDo=     1
 LinEq1:  Iter=  2 NonCon=     1 RMS=1.53D-03 Max=4.70D-02 NDo=     1
 LinEq1:  Iter=  3 NonCon=     1 RMS=7.82D-04 Max=3.85D-02 NDo=     1
 LinEq1:  Iter=  4 NonCon=     1 RMS=3.69D-04 Max=1.28D-02 NDo=     1
 LinEq1:  Iter=  5 NonCon=     1 RMS=2.05D-04 Max=9.56D-03 NDo=     1
 LinEq1:  Iter=  6 NonCon=     1 RMS=9.52D-05 Max=4.11D-03 NDo=     1
 LinEq1:  Iter=  7 NonCon=     1 RMS=5.06D-05 Max=2.37D-03 NDo=     1
 LinEq1:  Iter=  8 NonCon=     1 RMS=2.15D-05 Max=1.01D-03 NDo=     1
 LinEq1:  Iter=  9 NonCon=     1 RMS=9.71D-06 Max=2.53D-04 NDo=     1
 LinEq1:  Iter= 10 NonCon=     1 RMS=4.51D-06 Max=1.80D-04 NDo=     1
 LinEq1:  Iter= 11 NonCon=     1 RMS=1.76D-06 Max=5.71D-05 NDo=     1
 LinEq1:  Iter= 12 NonCon=     1 RMS=7.43D-07 Max=2.66D-05 NDo=     1
 LinEq1:  Iter= 13 NonCon=     1 RMS=3.79D-07 Max=1.16D-05 NDo=     1
 LinEq1:  Iter= 14 NonCon=     1 RMS=1.47D-07 Max=3.49D-06 NDo=     1
 LinEq1:  Iter= 15 NonCon=     1 RMS=6.01D-08 Max=1.63D-06 NDo=     1
 LinEq1:  Iter= 16 NonCon=     1 RMS=2.58D-08 Max=8.11D-07 NDo=     1
 LinEq1:  Iter= 17 NonCon=     1 RMS=1.19D-08 Max=3.78D-07 NDo=     1
 LinEq1:  Iter= 18 NonCon=     1 RMS=6.07D-09 Max=1.64D-07 NDo=     1
 LinEq1:  Iter= 19 NonCon=     1 RMS=2.67D-09 Max=8.70D-08 NDo=     1
 LinEq1:  Iter= 20 NonCon=     1 RMS=1.07D-09 Max=2.27D-08 NDo=     1
 LinEq1:  Iter= 21 NonCon=     1 RMS=4.20D-10 Max=8.68D-09 NDo=     1
 LinEq1:  Iter= 22 NonCon=     1 RMS=1.47D-10 Max=3.36D-09 NDo=     1
 LinEq1:  Iter= 23 NonCon=     1 RMS=5.45D-11 Max=1.27D-09 NDo=     1
 LinEq1:  Iter= 24 NonCon=     0 RMS=2.24D-11 Max=5.67D-10 NDo=     1
 Linear equations converged to 1.000D-10 1.000D-09 after    24 iterations.
 End of Minotr F.D. properties file   721 does not exist.
 End of Minotr F.D. properties file   722 does not exist.
 End of Minotr F.D. properties file   788 does not exist.

 **********************************************************************

            Population analysis using the SCF density.

 **********************************************************************

 Orbital symmetries:
       Occupied  (A) (A) (A) (A) (A) (A) (A) (A) (A) (A) (A) (A)
                 (A) (A) (A) (A) (A) (A) (A) (A) (A) (A) (A) (A)
                 (A) (A) (A) (A) (A) (A) (A) (A) (A) (A) (A) (A)
                 (A) (A) (A) (A) (A) (A) (A) (A) (A) (A) (A) (A)
                 (A) (A) (A)
       Virtual   (A) (A) (A) (A) (A) (A) (A) (A) (A) (A) (A) (A)
                 (A) (A) (A) (A) (A) (A) (A) (A) (A) (A) (A) (A)
                 (A) (A) (A) (A) (A) (A) (A) (A) (A) (A) (A) (A)
                 (A) (A) (A) (A) (A) (A) (A) (A) (A) (A) (A) (A)
                 (A) (A) (A) (A) (A) (A) (A) (A) (A) (A) (A) (A)
                 (A) (A) (A) (A) (A) (A) (A) (A) (A) (A) (A) (A)
                 (A) (A) (A) (A) (A) (A) (A) (A) (A) (A) (A) (A)
                 (A) (A) (A) (A) (A) (A) (A) (A) (A) (A) (A) (A)
                 (A) (A) (A) (A) (A) (A) (A) (A) (A) (A) (A) (A)
                 (A) (A) (A) (A) (A) (A) (A) (A) (A) (A) (A) (A)
                 (A) (A) (A) (A) (A) (A) (A) (A) (A) (A) (A) (A)
                 (A) (A) (A) (A) (A) (A) (A) (A) (A) (A) (A) (A)
                 (A) (A) (A) (A) (A) (A) (A) (A) (A) (A) (A) (A)
                 (A) (A) (A) (A) (A) (A) (A) (A) (A) (A) (A) (A)
                 (A) (A) (A) (A) (A) (A) (A) (A) (A) (A) (A) (A)
                 (A) (A) (A) (A) (A) (A) (A) (A) (A) (A) (A) (A)
                 (A) (A) (A) (A) (A) (A) (A) (A) (A) (A) (A) (A)
                 (A) (A) (A) (A) (A) (A) (A) (A) (A) (A) (A) (A)
                 (A) (A) (A) (A) (A) (A) (A) (A) (A) (A) (A) (A)
                 (A) (A) (A) (A) (A) (A) (A) (A) (A) (A) (A) (A)
                 (A) (A) (A) (A) (A) (A) (A) (A) (A) (A) (A) (A)
                 (A) (A) (A) (A) (A) (A) (A) (A) (A) (A) (A) (A)
                 (A) (A) (A) (A) (A) (A) (A) (A) (A) (A) (A) (A)
                 (A) (A) (A) (A) (A) (A) (A) (A) (A) (A) (A) (A)
                 (A) (A) (A) (A) (A) (A) (A) (A) (A) (A) (A) (A)
                 (A) (A) (A) (A) (A) (A) (A) (A) (A) (A) (A) (A)
                 (A) (A) (A) (A) (A) (A) (A) (A) (A) (A) (A) (A)
                 (A) (A) (A) (A) (A) (A) (A) (A) (A) (A) (A) (A)
                 (A) (A) (A) (A) (A) (A) (A) (A) (A) (A)
 The electronic state is 1-A.
 Alpha  occ. eigenvalues --  -19.25738 -19.21074 -14.49491 -10.37089 -10.35864
 Alpha  occ. eigenvalues --  -10.35206 -10.34015 -10.33691 -10.29551 -10.29480
 Alpha  occ. eigenvalues --  -10.29197 -10.28455 -10.28149 -10.28003  -1.15462
 Alpha  occ. eigenvalues --   -1.09347  -1.08655  -0.95857  -0.89657  -0.86411
 Alpha  occ. eigenvalues --   -0.85297  -0.84142  -0.80466  -0.73985  -0.70398
 Alpha  occ. eigenvalues --   -0.69222  -0.65426  -0.63126  -0.61026  -0.59342
 Alpha  occ. eigenvalues --   -0.58641  -0.57575  -0.55407  -0.53754  -0.51981
 Alpha  occ. eigenvalues --   -0.51807  -0.51253  -0.50578  -0.49948  -0.49424
 Alpha  occ. eigenvalues --   -0.47463  -0.46628  -0.45888  -0.44248  -0.42634
 Alpha  occ. eigenvalues --   -0.41934  -0.40902  -0.33901  -0.32300  -0.30481
 Alpha  occ. eigenvalues --   -0.29484
 Alpha virt. eigenvalues --   -0.00814   0.02773   0.04188   0.04941   0.05539
 Alpha virt. eigenvalues --    0.05698   0.06213   0.06384   0.07189   0.07608
 Alpha virt. eigenvalues --    0.07760   0.08249   0.08571   0.09611   0.10045
 Alpha virt. eigenvalues --    0.10975   0.12293   0.12555   0.13083   0.13204
 Alpha virt. eigenvalues --    0.13623   0.14007   0.14596   0.15266   0.15579
 Alpha virt. eigenvalues --    0.16057   0.16510   0.16726   0.17033   0.17704
 Alpha virt. eigenvalues --    0.17893   0.18092   0.18132   0.18673   0.19071
 Alpha virt. eigenvalues --    0.19465   0.19845   0.20306   0.20761   0.21034
 Alpha virt. eigenvalues --    0.21064   0.21844   0.22242   0.22673   0.23047
 Alpha virt. eigenvalues --    0.23200   0.23671   0.24454   0.24981   0.25355
 Alpha virt. eigenvalues --    0.25491   0.26504   0.26713   0.27038   0.27449
 Alpha virt. eigenvalues --    0.27744   0.28777   0.29091   0.29557   0.29707
 Alpha virt. eigenvalues --    0.30760   0.30971   0.30977   0.32137   0.32515
 Alpha virt. eigenvalues --    0.32925   0.33153   0.33820   0.34222   0.34310
 Alpha virt. eigenvalues --    0.34808   0.35475   0.35880   0.36178   0.36628
 Alpha virt. eigenvalues --    0.37161   0.37855   0.38086   0.38835   0.39391
 Alpha virt. eigenvalues --    0.39982   0.40391   0.40898   0.41354   0.42059
 Alpha virt. eigenvalues --    0.42871   0.43319   0.44659   0.45572   0.45860
 Alpha virt. eigenvalues --    0.46921   0.48416   0.48839   0.49729   0.51620
 Alpha virt. eigenvalues --    0.51731   0.53410   0.55746   0.56539   0.58161
 Alpha virt. eigenvalues --    0.59609   0.61004   0.62511   0.62787   0.64036
 Alpha virt. eigenvalues --    0.64613   0.65123   0.65791   0.66522   0.67530
 Alpha virt. eigenvalues --    0.67880   0.68343   0.69260   0.69841   0.70403
 Alpha virt. eigenvalues --    0.70938   0.71583   0.71937   0.72503   0.73762
 Alpha virt. eigenvalues --    0.74390   0.74967   0.75764   0.76812   0.77632
 Alpha virt. eigenvalues --    0.78243   0.78669   0.79881   0.80813   0.81860
 Alpha virt. eigenvalues --    0.82372   0.82731   0.83995   0.85176   0.86923
 Alpha virt. eigenvalues --    0.87262   0.87455   0.90205   0.91511   0.92522
 Alpha virt. eigenvalues --    0.93969   0.94603   0.96274   0.96709   0.97235
 Alpha virt. eigenvalues --    0.98265   0.98742   0.99551   0.99842   1.00738
 Alpha virt. eigenvalues --    1.01619   1.03262   1.04371   1.08616   1.09404
 Alpha virt. eigenvalues --    1.11217   1.13292   1.13446   1.14536   1.15592
 Alpha virt. eigenvalues --    1.17465   1.18603   1.20225   1.20966   1.22301
 Alpha virt. eigenvalues --    1.23449   1.27792   1.28579   1.30451   1.32137
 Alpha virt. eigenvalues --    1.33410   1.34955   1.36806   1.38310   1.39576
 Alpha virt. eigenvalues --    1.40037   1.42173   1.48673   1.49566   1.52421
 Alpha virt. eigenvalues --    1.53152   1.56075   1.57331   1.57504   1.58797
 Alpha virt. eigenvalues --    1.60276   1.60443   1.61252   1.61866   1.62867
 Alpha virt. eigenvalues --    1.64011   1.65442   1.66318   1.67451   1.68239
 Alpha virt. eigenvalues --    1.69044   1.70941   1.72667   1.73535   1.74923
 Alpha virt. eigenvalues --    1.76014   1.77094   1.77662   1.78214   1.80342
 Alpha virt. eigenvalues --    1.80974   1.81839   1.83319   1.83879   1.85500
 Alpha virt. eigenvalues --    1.86852   1.87982   1.88774   1.90417   1.91602
 Alpha virt. eigenvalues --    1.96400   1.98168   1.99736   2.01544   2.02453
 Alpha virt. eigenvalues --    2.03436   2.04381   2.04854   2.06240   2.06612
 Alpha virt. eigenvalues --    2.08238   2.09949   2.10843   2.12324   2.14498
 Alpha virt. eigenvalues --    2.16230   2.17730   2.19141   2.20168   2.21624
 Alpha virt. eigenvalues --    2.22699   2.27037   2.27836   2.30112   2.35550
 Alpha virt. eigenvalues --    2.37194   2.38908   2.43143   2.45202   2.46634
 Alpha virt. eigenvalues --    2.49631   2.50495   2.51139   2.53841   2.56235
 Alpha virt. eigenvalues --    2.56612   2.58480   2.59795   2.61820   2.63408
 Alpha virt. eigenvalues --    2.66547   2.67799   2.70541   2.71471   2.73179
 Alpha virt. eigenvalues --    2.74396   2.75525   2.77914   2.79431   2.79701
 Alpha virt. eigenvalues --    2.80901   2.82682   2.83274   2.84470   2.84962
 Alpha virt. eigenvalues --    2.85961   2.87782   2.88697   2.90575   2.90837
 Alpha virt. eigenvalues --    2.92957   2.94562   2.96028   2.97442   2.99781
 Alpha virt. eigenvalues --    3.01305   3.02931   3.03884   3.05680   3.08895
 Alpha virt. eigenvalues --    3.10855   3.12600   3.13204   3.20356   3.21222
 Alpha virt. eigenvalues --    3.22006   3.26092   3.29789   3.31111   3.32461
 Alpha virt. eigenvalues --    3.34953   3.39912   3.45924   3.49923   3.52445
 Alpha virt. eigenvalues --    3.58198   3.60008   3.63576   3.65037   3.66698
 Alpha virt. eigenvalues --    3.69770   3.70202   3.78595   3.79550   3.83821
 Alpha virt. eigenvalues --    3.86338   3.90012   3.91177   3.93180   4.03520
 Alpha virt. eigenvalues --    4.09613   4.14004   4.15745   4.16725   4.27832
 Alpha virt. eigenvalues --    4.28981   4.36973   4.57471   4.94798   4.97870
 Alpha virt. eigenvalues --    5.12681   5.15414   5.23798   5.39301   5.58837
 Alpha virt. eigenvalues --    5.85071   5.91495  23.71133  23.90831  24.03266
 Alpha virt. eigenvalues --   24.05565  24.06257  24.06553  24.10735  24.18477
 Alpha virt. eigenvalues --   24.24333  24.25783  24.33555  35.66741  50.11809
 Alpha virt. eigenvalues --   50.13634
          Condensed to atoms (all electrons):
               1          2          3          4          5          6
     1  C    5.351718   0.386065   0.419462  -0.123560   0.015612   0.263893
     2  H    0.386065   0.516278  -0.032623   0.014475  -0.008339  -0.048144
     3  H    0.419462  -0.032623   0.530994  -0.021165   0.009581  -0.056880
     4  C   -0.123560   0.014475  -0.021165   5.249675   0.401790   0.269359
     5  H    0.015612  -0.008339   0.009581   0.401790   0.562396  -0.031973
     6  N    0.263893  -0.048144  -0.056880   0.269359  -0.031973   6.758055
     7  H    0.394512  -0.018150  -0.047019   0.013460  -0.000791  -0.034060
     8  H    0.005204   0.003176  -0.001744   0.398450  -0.038907  -0.074852
     9  H   -0.026199   0.007682   0.000602   0.411421  -0.059579  -0.055484
    10  C   -0.175406   0.011367  -0.026740  -0.059058  -0.083574   0.163296
    11  H    0.011625  -0.000277  -0.002856  -0.013689   0.005763  -0.068161
    12  C    0.363537   0.010292   0.058978  -0.189379   0.058214  -0.207555
    13  C   -0.284003  -0.014379  -0.021116  -0.032390  -0.008627   0.013950
    14  H    0.032608   0.000970   0.008018  -0.007404   0.001336  -0.040539
    15  O   -0.002864  -0.000055   0.000062   0.001651  -0.000130   0.003497
    16  C   -0.159985  -0.002865  -0.011812   0.024624  -0.003358  -0.000742
    17  C   -0.002175   0.000428  -0.002694  -0.005384   0.000418  -0.009942
    18  C   -0.015093  -0.001079   0.005037   0.005494  -0.000709   0.010771
    19  O   -0.000454  -0.000020   0.000015  -0.000103  -0.000012   0.000007
    20  C    0.000196   0.000018  -0.000334   0.000087   0.000043  -0.000851
    21  C    0.004970   0.000403   0.002439  -0.000030  -0.000018   0.001757
    22  H   -0.003250   0.000147  -0.003920   0.000105   0.000005  -0.000648
    23  H   -0.000293  -0.000009   0.000043   0.000262  -0.000013   0.000151
    24  H   -0.000049   0.000000  -0.000003  -0.000003   0.000000   0.000002
    25  C   -0.002000  -0.000118   0.000264  -0.000125  -0.000029   0.000082
    26  H    0.000019   0.000010   0.000131   0.000051   0.000002  -0.000038
    27  H   -0.000054  -0.000002  -0.000003   0.000002  -0.000001   0.000004
               7          8          9         10         11         12
     1  C    0.394512   0.005204  -0.026199  -0.175406   0.011625   0.363537
     2  H   -0.018150   0.003176   0.007682   0.011367  -0.000277   0.010292
     3  H   -0.047019  -0.001744   0.000602  -0.026740  -0.002856   0.058978
     4  C    0.013460   0.398450   0.411421  -0.059058  -0.013689  -0.189379
     5  H   -0.000791  -0.038907  -0.059579  -0.083574   0.005763   0.058214
     6  N   -0.034060  -0.074852  -0.055484   0.163296  -0.068161  -0.207555
     7  H    0.524686  -0.002420   0.000001   0.031078   0.000517  -0.067882
     8  H   -0.002420   0.529810  -0.014412   0.056336  -0.004341  -0.021629
     9  H    0.000001  -0.014412   0.555059   0.024985  -0.002000  -0.006210
    10  C    0.031078   0.056336   0.024985   8.347577   0.406221  -2.061326
    11  H    0.000517  -0.004341  -0.002000   0.406221   0.461657   0.025571
    12  C   -0.067882  -0.021629  -0.006210  -2.061326   0.025571  18.223879
    13  C    0.024024   0.007441   0.003640  -1.675303  -0.046523  -1.285525
    14  H   -0.022048  -0.000757  -0.001146  -0.106752   0.009416   0.766661
    15  O    0.000231   0.000390   0.000051   0.120118   0.020806  -0.246660
    16  C    0.010809   0.004324   0.000054   1.178540  -0.012189  -7.855432
    17  C   -0.004944  -0.000985  -0.000695  -0.604376  -0.008896   0.242751
    18  C    0.008538   0.001001   0.001043   0.514663  -0.006277  -1.411855
    19  O    0.000206   0.000046   0.000009  -0.000961  -0.000710  -0.138531
    20  C    0.000025  -0.000172  -0.000058  -0.021392  -0.000928  -0.131898
    21  C   -0.002678   0.000269   0.000131  -0.037379  -0.003298   0.444607
    22  H    0.003120   0.000243  -0.000045  -0.022201  -0.001209  -0.129487
    23  H    0.000013   0.000077   0.000011  -0.008451  -0.001613  -0.013093
    24  H    0.000010   0.000004   0.000000   0.000022  -0.000132  -0.008153
    25  C    0.000059  -0.000058   0.000007  -0.010184   0.001362  -0.042869
    26  H   -0.000140   0.000001   0.000002   0.002078  -0.000034  -0.000769
    27  H    0.000038  -0.000001   0.000000   0.001588   0.000050  -0.003726
              13         14         15         16         17         18
     1  C   -0.284003   0.032608  -0.002864  -0.159985  -0.002175  -0.015093
     2  H   -0.014379   0.000970  -0.000055  -0.002865   0.000428  -0.001079
     3  H   -0.021116   0.008018   0.000062  -0.011812  -0.002694   0.005037
     4  C   -0.032390  -0.007404   0.001651   0.024624  -0.005384   0.005494
     5  H   -0.008627   0.001336  -0.000130  -0.003358   0.000418  -0.000709
     6  N    0.013950  -0.040539   0.003497  -0.000742  -0.009942   0.010771
     7  H    0.024024  -0.022048   0.000231   0.010809  -0.004944   0.008538
     8  H    0.007441  -0.000757   0.000390   0.004324  -0.000985   0.001001
     9  H    0.003640  -0.001146   0.000051   0.000054  -0.000695   0.001043
    10  C   -1.675303  -0.106752   0.120118   1.178540  -0.604376   0.514663
    11  H   -0.046523   0.009416   0.020806  -0.012189  -0.008896  -0.006277
    12  C   -1.285525   0.766661  -0.246660  -7.855432   0.242751  -1.411855
    13  C   12.505151  -0.108070   0.772074  -1.235186   0.452023  -1.887777
    14  H   -0.108070   0.640774   0.002921  -0.138259   0.137244  -0.265125
    15  O    0.772074   0.002921   8.182168  -0.337733  -0.010365  -0.097757
    16  C   -1.235186  -0.138259  -0.337733  18.571668  -3.049097   0.082131
    17  C    0.452023   0.137244  -0.010365  -3.049097  15.438413  -6.435095
    18  C   -1.887777  -0.265125  -0.097757   0.082131  -6.435095  15.875210
    19  O   -0.084705  -0.004030  -0.038187   0.340252   0.309935   0.040759
    20  C   -0.919108  -0.019684  -0.030770  -2.389583  -0.716370   1.819758
    21  C    0.291736   0.017079  -0.009743  -0.879218   1.396079  -1.773046
    22  H    0.014266  -0.028759  -0.008875  -0.105164  -0.097474   0.729471
    23  H   -0.029345  -0.002411   0.049029  -0.185337   0.065910   0.043316
    24  H   -0.029420  -0.000779  -0.001506  -0.063746  -0.064465   0.038981
    25  C    0.137812   0.012012   0.007056   0.517128  -0.636309  -0.708708
    26  H   -0.004968  -0.000049   0.000098   0.003955   0.032592  -0.099539
    27  H   -0.000813  -0.000302  -0.000011   0.093594  -0.016692  -0.006231
              19         20         21         22         23         24
     1  C   -0.000454   0.000196   0.004970  -0.003250  -0.000293  -0.000049
     2  H   -0.000020   0.000018   0.000403   0.000147  -0.000009   0.000000
     3  H    0.000015  -0.000334   0.002439  -0.003920   0.000043  -0.000003
     4  C   -0.000103   0.000087  -0.000030   0.000105   0.000262  -0.000003
     5  H   -0.000012   0.000043  -0.000018   0.000005  -0.000013   0.000000
     6  N    0.000007  -0.000851   0.001757  -0.000648   0.000151   0.000002
     7  H    0.000206   0.000025  -0.002678   0.003120   0.000013   0.000010
     8  H    0.000046  -0.000172   0.000269   0.000243   0.000077   0.000004
     9  H    0.000009  -0.000058   0.000131  -0.000045   0.000011   0.000000
    10  C   -0.000961  -0.021392  -0.037379  -0.022201  -0.008451   0.000022
    11  H   -0.000710  -0.000928  -0.003298  -0.001209  -0.001613  -0.000132
    12  C   -0.138531  -0.131898   0.444607  -0.129487  -0.013093  -0.008153
    13  C   -0.084705  -0.919108   0.291736   0.014266  -0.029345  -0.029420
    14  H   -0.004030  -0.019684   0.017079  -0.028759  -0.002411  -0.000779
    15  O   -0.038187  -0.030770  -0.009743  -0.008875   0.049029  -0.001506
    16  C    0.340252  -2.389583  -0.879218  -0.105164  -0.185337  -0.063746
    17  C    0.309935  -0.716370   1.396079  -0.097474   0.065910  -0.064465
    18  C    0.040759   1.819758  -1.773046   0.729471   0.043316   0.038981
    19  O    7.992652  -0.434010  -0.004647  -0.000502   0.258477  -0.026227
    20  C   -0.434010   9.074163  -0.635895   0.074222   0.126786   0.537238
    21  C   -0.004647  -0.635895   7.155984  -0.110721  -0.001147   0.003569
    22  H   -0.000502   0.074222  -0.110721   0.551966   0.001588   0.002247
    23  H    0.258477   0.126786  -0.001147   0.001588   0.394551   0.002709
    24  H   -0.026227   0.537238   0.003569   0.002247   0.002709   0.466768
    25  C    0.018026   0.117816   0.366534  -0.022212  -0.010241  -0.076234
    26  H    0.000190   0.009178   0.427930  -0.010795   0.000257   0.000793
    27  H    0.000869  -0.142163  -0.079876  -0.000859  -0.000489  -0.012981
              25         26         27
     1  C   -0.002000   0.000019  -0.000054
     2  H   -0.000118   0.000010  -0.000002
     3  H    0.000264   0.000131  -0.000003
     4  C   -0.000125   0.000051   0.000002
     5  H   -0.000029   0.000002  -0.000001
     6  N    0.000082  -0.000038   0.000004
     7  H    0.000059  -0.000140   0.000038
     8  H   -0.000058   0.000001  -0.000001
     9  H    0.000007   0.000002   0.000000
    10  C   -0.010184   0.002078   0.001588
    11  H    0.001362  -0.000034   0.000050
    12  C   -0.042869  -0.000769  -0.003726
    13  C    0.137812  -0.004968  -0.000813
    14  H    0.012012  -0.000049  -0.000302
    15  O    0.007056   0.000098  -0.000011
    16  C    0.517128   0.003955   0.093594
    17  C   -0.636309   0.032592  -0.016692
    18  C   -0.708708  -0.099539  -0.006231
    19  O    0.018026   0.000190   0.000869
    20  C    0.117816   0.009178  -0.142163
    21  C    0.366534   0.427930  -0.079876
    22  H   -0.022212  -0.010795  -0.000859
    23  H   -0.010241   0.000257  -0.000489
    24  H   -0.076234   0.000793  -0.012981
    25  C    6.101030  -0.039123   0.479114
    26  H   -0.039123   0.480176  -0.010192
    27  H    0.479114  -0.010192   0.495398
 Mulliken charges:
               1
     1  C   -0.454040
     2  H    0.174750
     3  H    0.193284
     4  C   -0.338616
     5  H    0.180901
     6  N    0.145046
     7  H    0.188805
     8  H    0.153505
     9  H    0.161131
    10  C    0.035234
    11  H    0.230145
    12  C   -0.372514
    13  C   -0.554860
    14  H    0.117075
    15  O   -0.375497
    16  C    1.602625
    17  C   -0.409835
    18  C   -0.467882
    19  O   -0.228343
    20  C   -0.316312
    21  C   -0.575790
    22  H    0.168739
    23  H    0.309261
    24  H    0.231354
    25  C   -0.210091
    26  H    0.208186
    27  H    0.203739
 Sum of Mulliken charges =   0.00000
 Mulliken charges with hydrogens summed into heavy atoms:
               1
     1  C    0.102798
     4  C    0.156920
     6  N    0.145046
    10  C    0.265379
    12  C   -0.255440
    13  C   -0.554860
    15  O   -0.375497
    16  C    1.602625
    17  C   -0.409835
    18  C   -0.299143
    19  O    0.080918
    20  C   -0.084958
    21  C   -0.367604
    25  C   -0.006351
 Electronic spatial extent (au):  <R**2>=           3931.1511
 Charge=              0.0000 electrons
 Dipole moment (field-independent basis, Debye):
    X=             -5.6926    Y=              3.8298    Z=             -0.5766  Tot=              6.8851
 Quadrupole moment (field-independent basis, Debye-Ang):
   XX=            -58.2086   YY=            -83.9087   ZZ=            -88.4095
   XY=              3.1291   XZ=             -0.4583   YZ=              1.4237
 Traceless Quadrupole moment (field-independent basis, Debye-Ang):
   XX=             18.6336   YY=             -7.0664   ZZ=            -11.5672
   XY=              3.1291   XZ=             -0.4583   YZ=              1.4237
 Octapole moment (field-independent basis, Debye-Ang**2):
  XXX=            -91.9144  YYY=              5.7925  ZZZ=             -1.2217  XYY=            -17.7251
  XXY=             15.1190  XXZ=             -1.5606  XZZ=            -12.5446  YZZ=             -0.5837
  YYZ=             -0.3201  XYZ=              4.9325
 Hexadecapole moment (field-independent basis, Debye-Ang**3):
 XXXX=          -3589.4036 YYYY=           -811.4638 ZZZZ=           -199.9857 XXXY=             32.8470
 XXXZ=            -38.7395 YYYX=             16.4399 YYYZ=             12.0293 ZZZX=             -5.1624
 ZZZY=             -3.3482 XXYY=           -817.1667 XXZZ=           -777.1715 YYZZ=           -180.9853
 XXYZ=            -24.2930 YYXZ=             19.3490 ZZXY=            -18.0467
 N-N= 8.348172215614D+02 E-N=-3.143284861048D+03  KE= 6.294276450533D+02
 Calling FoFJK, ICntrl=  10005127 FMM=F ISym2X=0 I1Cent= 0 IOpClX= 0 NMat=1 NMatS=1 NMatT=0.
 ***** Axes restored to original set *****
 -------------------------------------------------------------------
 Center     Atomic                   Forces (Hartrees/Bohr)
 Number     Number              X              Y              Z
 -------------------------------------------------------------------
      1        6           0.000086526   -0.000293615   -0.000531745
      2        1           0.000108825    0.000142237   -0.000024120
      3        1          -0.000220795    0.000374934    0.000105745
      4        6           0.000031764   -0.000699005    0.000012676
      5        1          -0.000131723    0.000100452    0.000121690
      6        7           0.001659907   -0.000955756    0.001028751
      7        1          -0.000029015    0.000011013   -0.000191983
      8        1          -0.000131568    0.000104755   -0.000074775
      9        1           0.000087227    0.000116707    0.000016457
     10        6          -0.003126646    0.001425656    0.000216559
     11        1          -0.000022655    0.000273115   -0.000034573
     12        6          -0.003020173    0.002806331   -0.001978649
     13        6           0.008197334    0.000974113    0.006289777
     14        1           0.000216239   -0.003422884    0.000061294
     15        8          -0.000934748   -0.004013891   -0.005907976
     16        6          -0.004320140    0.004884809    0.002602360
     17        6           0.000968462    0.003747854   -0.008487332
     18        6           0.000453187   -0.003427386    0.001676640
     19        8          -0.000929352    0.000209927    0.005328782
     20        6          -0.002769823   -0.000549932    0.003389072
     21        6           0.003774942    0.000244334    0.001956895
     22        1          -0.001459143    0.001813603   -0.000639338
     23        1           0.001984040   -0.001425515   -0.002189385
     24        1           0.000368246   -0.000130327    0.000270080
     25        6          -0.000759407   -0.002601283   -0.002960028
     26        1           0.000129056   -0.000036820    0.000199227
     27        1          -0.000210566    0.000326573   -0.000256102
 -------------------------------------------------------------------
 Cartesian Forces:  Max     0.008487332 RMS     0.002386549

 GradGradGradGradGradGradGradGradGradGradGradGradGradGradGradGradGradGrad
 Berny optimization.
 FormGI is forming the generalized inverse of G from B-inverse, IUseBI=4.
 GSVD:  received Info=                   1 from GESDD.
 Internal  Forces:  Max     0.005756868 RMS     0.001344176
 Search for a local minimum.
 Step number   1 out of a maximum of  134
 All quantities printed in internal units (Hartrees-Bohrs-Radians)
 Mixed Optimization -- RFO/linear search
 Second derivative matrix not updated -- first step.
 ITU=  0
     Eigenvalues ---    0.01039   0.01100   0.01218   0.01611   0.01751
     Eigenvalues ---    0.01781   0.01950   0.02006   0.02095   0.02108
     Eigenvalues ---    0.02157   0.02199   0.02201   0.02220   0.02236
     Eigenvalues ---    0.02244   0.02255   0.02260   0.02282   0.02404
     Eigenvalues ---    0.07310   0.07334   0.07641   0.07676   0.15977
     Eigenvalues ---    0.15991   0.15992   0.15994   0.15998   0.16000
     Eigenvalues ---    0.16000   0.16000   0.16000   0.16000   0.16000
     Eigenvalues ---    0.16000   0.16000   0.21999   0.22002   0.22007
     Eigenvalues ---    0.22054   0.22471   0.22959   0.24450   0.24981
     Eigenvalues ---    0.24982   0.24999   0.25000   0.33599   0.33696
     Eigenvalues ---    0.34490   0.34551   0.34660   0.34744   0.35510
     Eigenvalues ---    0.35545   0.35564   0.35590   0.35618   0.35640
     Eigenvalues ---    0.36242   0.38334   0.38940   0.41195   0.42304
     Eigenvalues ---    0.43926   0.45298   0.46254   0.47449   0.48023
     Eigenvalues ---    0.49806   0.51067   0.53889   0.54605   0.64867
 RFO step:  Lambda=-3.23000754D-03 EMin= 1.03933499D-02
 Linear search not attempted -- first point.
 Iteration  1 RMS(Cart)=  0.05770482 RMS(Int)=  0.00159537
 Iteration  2 RMS(Cart)=  0.00260440 RMS(Int)=  0.00029142
 Iteration  3 RMS(Cart)=  0.00000460 RMS(Int)=  0.00029141
 Iteration  4 RMS(Cart)=  0.00000000 RMS(Int)=  0.00029141
 Variable       Old X    -DE/DX   Delta X   Delta X   Delta X     New X
                                 (Linear)    (Quad)   (Total)
    R1        2.06092   0.00012   0.00000   0.00034   0.00034   2.06126
    R2        2.08011   0.00045   0.00000   0.00133   0.00133   2.08144
    R3        2.73020  -0.00059   0.00000  -0.00149  -0.00149   2.72871
    R4        2.06511  -0.00009   0.00000  -0.00025  -0.00025   2.06486
    R5        2.07846   0.00013   0.00000   0.00039   0.00039   2.07885
    R6        2.73882  -0.00036   0.00000  -0.00093  -0.00093   2.73789
    R7        2.06230   0.00003   0.00000   0.00009   0.00009   2.06240
    R8        2.06410   0.00008   0.00000   0.00023   0.00023   2.06434
    R9        2.58804   0.00113   0.00000   0.00220   0.00220   2.59025
   R10        2.04799   0.00002   0.00000   0.00006   0.00006   2.04805
   R11        2.60061  -0.00157   0.00000  -0.00313  -0.00313   2.59748
   R12        2.66543  -0.00427   0.00000  -0.00964  -0.00964   2.65579
   R13        2.04648  -0.00018   0.00000  -0.00050  -0.00050   2.04598
   R14        2.47284   0.00576   0.00000   0.00883   0.00883   2.48167
   R15        2.77005   0.00174   0.00000   0.00476   0.00476   2.77481
   R16        2.66973   0.00074   0.00000   0.00173   0.00196   2.67168
   R17        2.65544  -0.00004   0.00000  -0.00016  -0.00012   2.65532
   R18        2.56133  -0.00188   0.00000  -0.00347  -0.00347   2.55786
   R19        2.62418   0.00283   0.00000   0.00602   0.00618   2.63037
   R20        2.61616  -0.00122   0.00000  -0.00263  -0.00279   2.61337
   R21        2.04683   0.00037   0.00000   0.00104   0.00104   2.04787
   R22        1.82185   0.00164   0.00000   0.00299   0.00299   1.82483
   R23        2.04768  -0.00020   0.00000  -0.00055  -0.00055   2.04713
   R24        2.62314  -0.00232   0.00000  -0.00476  -0.00481   2.61833
   R25        2.63001   0.00220   0.00000   0.00459   0.00438   2.63439
   R26        2.04727   0.00010   0.00000   0.00028   0.00028   2.04756
   R27        2.04855  -0.00005   0.00000  -0.00013  -0.00013   2.04842
    A1        1.89568  -0.00003   0.00000  -0.00040  -0.00040   1.89529
    A2        1.90605  -0.00002   0.00000  -0.00009  -0.00009   1.90596
    A3        1.88473   0.00016   0.00000   0.00126   0.00126   1.88599
    A4        1.95950  -0.00001   0.00000  -0.00017  -0.00017   1.95933
    A5        1.89212   0.00010   0.00000   0.00058   0.00058   1.89270
    A6        1.92409  -0.00020   0.00000  -0.00112  -0.00112   1.92297
    A7        1.95998  -0.00031   0.00000  -0.00232  -0.00232   1.95765
    A8        1.89100   0.00003   0.00000  -0.00037  -0.00037   1.89063
    A9        1.89591  -0.00001   0.00000  -0.00041  -0.00041   1.89550
   A10        1.91294   0.00005   0.00000   0.00047   0.00047   1.91341
   A11        1.91567   0.00020   0.00000   0.00149   0.00149   1.91716
   A12        1.88675   0.00005   0.00000   0.00124   0.00124   1.88799
   A13        2.02932   0.00000   0.00000  -0.00054  -0.00054   2.02878
   A14        2.07760   0.00011   0.00000  -0.00011  -0.00011   2.07748
   A15        2.05614  -0.00014   0.00000  -0.00120  -0.00121   2.05493
   A16        1.99593  -0.00019   0.00000  -0.00128  -0.00137   1.99457
   A17        2.19523   0.00019   0.00000   0.00066   0.00057   2.19580
   A18        2.09136  -0.00002   0.00000  -0.00025  -0.00034   2.09102
   A19        2.14031   0.00042   0.00000   0.00277   0.00212   2.14244
   A20        2.11679   0.00072   0.00000   0.00615   0.00550   2.12229
   A21        2.02372  -0.00103   0.00000  -0.00463  -0.00528   2.01844
   A22        2.09449   0.00344   0.00000   0.01451   0.01397   2.10846
   A23        2.19393  -0.00125   0.00000  -0.00406  -0.00459   2.18933
   A24        1.99354  -0.00214   0.00000  -0.00763  -0.00817   1.98537
   A25        2.11872  -0.00323   0.00000  -0.01208  -0.01283   2.10589
   A26        2.09553   0.00277   0.00000   0.01159   0.01081   2.10635
   A27        2.06836   0.00050   0.00000   0.00233   0.00239   2.07075
   A28        2.14199   0.00295   0.00000   0.01180   0.01029   2.15229
   A29        2.09247  -0.00102   0.00000  -0.00363  -0.00408   2.08839
   A30        2.04867  -0.00191   0.00000  -0.00735  -0.00876   2.03991
   A31        2.11288   0.00002   0.00000  -0.00039  -0.00030   2.11257
   A32        2.06945   0.00070   0.00000   0.00471   0.00462   2.07406
   A33        2.10035  -0.00070   0.00000  -0.00385  -0.00395   2.09640
   A34        1.90212   0.00479   0.00000   0.02937   0.02937   1.93149
   A35        2.06234  -0.00022   0.00000  -0.00102  -0.00130   2.06103
   A36        2.10224   0.00029   0.00000   0.00171   0.00196   2.10419
   A37        2.11816  -0.00005   0.00000   0.00008  -0.00021   2.11795
   A38        2.08735   0.00020   0.00000   0.00040   0.00017   2.08752
   A39        2.09362  -0.00017   0.00000  -0.00055  -0.00057   2.09304
   A40        2.10219  -0.00003   0.00000   0.00032   0.00030   2.10249
   A41        2.10067   0.00003   0.00000   0.00005   0.00001   2.10068
   A42        2.08474   0.00001   0.00000   0.00019   0.00018   2.08492
   A43        2.09765  -0.00003   0.00000  -0.00006  -0.00007   2.09758
    D1       -0.63322  -0.00001   0.00000  -0.00087  -0.00087  -0.63409
    D2        3.02583   0.00011   0.00000   0.00316   0.00316   3.02899
    D3        1.47038  -0.00006   0.00000  -0.00153  -0.00153   1.46885
    D4       -1.15376   0.00006   0.00000   0.00250   0.00250  -1.15126
    D5       -2.70127  -0.00008   0.00000  -0.00168  -0.00168  -2.70295
    D6        0.95778   0.00004   0.00000   0.00235   0.00235   0.96012
    D7       -1.19047   0.00005   0.00000   0.00459   0.00459  -1.18588
    D8        1.44023   0.00000   0.00000   0.00095   0.00095   1.44118
    D9        2.99000   0.00018   0.00000   0.00625   0.00625   2.99625
   D10       -0.66249   0.00013   0.00000   0.00261   0.00261  -0.65987
   D11        0.92035  -0.00004   0.00000   0.00356   0.00356   0.92391
   D12       -2.73214  -0.00008   0.00000  -0.00009  -0.00009  -2.73222
   D13        3.06102   0.00014   0.00000   0.00472   0.00472   3.06574
   D14       -0.12002  -0.00052   0.00000  -0.02089  -0.02089  -0.14091
   D15        0.44474   0.00022   0.00000   0.00861   0.00860   0.45335
   D16       -2.73630  -0.00044   0.00000  -0.01700  -0.01700  -2.75330
   D17       -3.12232   0.00196   0.00000   0.07584   0.07594  -3.04639
   D18        0.09611   0.00024   0.00000   0.00639   0.00630   0.10241
   D19       -0.02216   0.00127   0.00000   0.04892   0.04902   0.02686
   D20       -3.08691  -0.00046   0.00000  -0.02052  -0.02062  -3.10752
   D21       -0.08581   0.00179   0.00000   0.08970   0.08998   0.00417
   D22        3.11230   0.00063   0.00000   0.02539   0.02531   3.13761
   D23        2.98276   0.00350   0.00000   0.15612   0.15620   3.13895
   D24       -0.10232   0.00233   0.00000   0.09181   0.09153  -0.01079
   D25       -2.49712   0.00049   0.00000   0.01124   0.01104  -2.48609
   D26        0.68165  -0.00074   0.00000  -0.04780  -0.04798   0.63368
   D27        0.69813  -0.00078   0.00000  -0.05045  -0.05027   0.64786
   D28       -2.40627  -0.00201   0.00000  -0.10949  -0.10929  -2.51556
   D29       -0.05190   0.00100   0.00000   0.03794   0.03857  -0.01332
   D30        3.10079  -0.00120   0.00000  -0.05280  -0.05249   3.04829
   D31        3.05307   0.00226   0.00000   0.09628   0.09659  -3.13352
   D32       -0.07743   0.00006   0.00000   0.00554   0.00552  -0.07191
   D33       -3.11620   0.00148   0.00000   0.06688   0.06741  -3.04880
   D34       -0.00875   0.00183   0.00000   0.08242   0.08284   0.07409
   D35        0.06151   0.00037   0.00000   0.00985   0.00989   0.07140
   D36       -3.11422   0.00072   0.00000   0.02539   0.02532  -3.08890
   D37       -0.19143  -0.00014   0.00000  -0.00829  -0.00835  -0.19978
   D38        2.93933   0.00201   0.00000   0.08033   0.08039   3.01972
   D39       -3.12937   0.00057   0.00000   0.02283   0.02268  -3.10669
   D40        0.04405  -0.00010   0.00000  -0.00422  -0.00423   0.03982
   D41        0.02273  -0.00154   0.00000  -0.06326  -0.06275  -0.04002
   D42       -3.08703  -0.00221   0.00000  -0.09031  -0.08966   3.10650
   D43       -0.01129  -0.00071   0.00000  -0.02620  -0.02618  -0.03747
   D44        3.12276  -0.00008   0.00000  -0.00178  -0.00183   3.12094
   D45       -3.11814  -0.00109   0.00000  -0.04218  -0.04197   3.12307
   D46        0.01591  -0.00046   0.00000  -0.01775  -0.01762  -0.00171
   D47        0.00740  -0.00030   0.00000  -0.01250  -0.01243  -0.00503
   D48        3.13222  -0.00001   0.00000   0.00012   0.00011   3.13233
   D49       -3.10133  -0.00099   0.00000  -0.04042  -0.04021  -3.14154
   D50        0.02349  -0.00070   0.00000  -0.02780  -0.02767  -0.00418
   D51       -0.02400   0.00068   0.00000   0.02752   0.02746   0.00346
   D52        3.13449   0.00038   0.00000   0.01480   0.01483  -3.13387
   D53        3.12517   0.00005   0.00000   0.00297   0.00297   3.12814
   D54        0.00047  -0.00025   0.00000  -0.00974  -0.00965  -0.00918
         Item               Value     Threshold  Converged?
 Maximum Force            0.005757     0.000450     NO 
 RMS     Force            0.001344     0.000300     NO 
 Maximum Displacement     0.181231     0.001800     NO 
 RMS     Displacement     0.057678     0.001200     NO 
 Predicted change in Energy=-1.810865D-03
 GradGradGradGradGradGradGradGradGradGradGradGradGradGradGradGradGradGrad

                          Input orientation:                          
 ---------------------------------------------------------------------
 Center     Atomic      Atomic             Coordinates (Angstroms)
 Number     Number       Type             X           Y           Z
 ---------------------------------------------------------------------
      1          6           0        0.262247   -0.476759    8.679941
      2          1           0        1.289638   -0.311138    9.006781
      3          1           0       -0.359094    0.359552    9.037312
      4          6           0        1.159462    0.239019    6.508118
      5          1           0        0.896890    1.304872    6.580166
      6          7           0        0.235774   -0.602287    7.241682
      7          1           0       -0.096959   -1.397798    9.145342
      8          1           0        1.156083   -0.044733    5.454283
      9          1           0        2.172134    0.102677    6.894441
     10          6           0       -0.938745   -0.948534    6.625700
     11          1           0       -0.890982   -0.948566    5.542970
     12          6           0       -2.091554   -1.348030    7.258762
     13          6           0       -3.226268   -1.795684    6.560810
     14          1           0       -2.181851   -1.329831    8.337520
     15          8           0       -3.228670   -1.855638    5.248936
     16          6           0       -4.483718   -2.239646    7.175482
     17          6           0       -5.210975   -3.321604    6.628422
     18          6           0       -4.975206   -1.614953    8.334192
     19          8           0       -4.820029   -3.996543    5.522190
     20          6           0       -6.339656   -3.797242    7.289720
     21          6           0       -6.098987   -2.095409    8.981329
     22          1           0       -4.447375   -0.754263    8.727865
     23          1           0       -4.101161   -3.531545    5.075531
     24          1           0       -6.858627   -4.648242    6.865463
     25          6           0       -6.782741   -3.189569    8.453413
     26          1           0       -6.451119   -1.611162    9.884393
     27          1           0       -7.668794   -3.569361    8.949072
 ---------------------------------------------------------------------
                    Distance matrix (angstroms):
                    1          2          3          4          5
     1  C    0.000000
     2  H    1.090774   0.000000
     3  H    1.101451   1.780190   0.000000
     4  C    2.456450   2.561823   2.952518   0.000000
     5  H    2.825957   2.941803   2.916966   1.100081   0.000000
     6  N    1.443969   2.076289   2.122096   1.448831   2.124131
     7  H    1.092675   1.767110   1.780074   3.348539   3.856460
     8  H    3.374975   3.564975   3.911177   1.091372   1.776577
     9  H    2.677951   2.326375   3.326408   1.092400   1.780531
    10  C    2.425873   3.322877   2.804097   2.413832   2.906797
    11  H    3.375370   4.142391   3.768886   2.558552   3.057816
    12  C    2.884309   3.945019   3.013386   3.694766   4.053292
    13  C    4.289524   5.346032   4.358760   4.835020   5.158900
    14  H    2.611244   3.679250   2.581892   4.119754   4.416853
    15  O    5.085234   6.076347   5.243408   5.022831   5.364814
    16  C    5.281605   6.356449   5.218694   6.199568   6.470622
    17  C    6.500618   7.548342   6.549383   7.298972   7.662416
    18  C    5.370841   6.434328   5.069668   6.663776   6.788482
    19  O    6.941887   7.940568   7.157625   7.393670   7.868130
    20  C    7.519537   8.561971   7.490003   8.552139   8.882715
    21  C    6.570857   7.601056   6.243104   8.015698   8.140626
    22  H    4.718034   5.760857   4.248574   6.111507   6.116683
    23  H    6.431393   7.408540   6.696223   6.628998   7.115853
    24  H    8.449878   9.475755   8.487571   9.396956   9.781053
    25  C    7.552649   8.588066   7.362095   8.866678   9.093172
    26  H    6.914250   7.898075   6.458640   8.528971   8.568220
    27  H    8.516926   9.532726   8.299148   9.919684  10.136114
                    6          7          8          9         10
     6  N    0.000000
     7  H    2.089849   0.000000
     8  H    2.086296   4.126113   0.000000
     9  H    2.089747   3.530829   1.768656   0.000000
    10  C    1.370699   2.694260   2.564641   3.294668   0.000000
    11  H    2.067634   3.716096   2.239477   3.509169   1.083783
    12  C    2.443947   2.745919   3.937242   4.518441   1.374529
    13  C    3.724717   4.078075   4.847188   5.732175   2.440212
    14  H    2.752288   2.236955   4.594163   4.805386   2.149657
    15  O    4.188591   5.019882   4.748432   5.975899   2.821714
    16  C    4.995891   4.881876   6.291862   7.061574   3.812619
    17  C    6.118648   6.015736   7.256440   8.142897   4.887066
    18  C    5.419721   4.949992   6.953573   7.490501   4.433517
    19  O    6.327619   6.495237   7.164868   8.220524   5.056922
    20  C    7.310699   6.940601   8.581158   9.371029   6.142141
    21  C    6.736838   6.044660   8.323543   8.808980   5.787262
    22  H    4.915661   4.417527   6.528286   6.921971   4.094792
    23  H    5.664076   6.095069   6.319804   7.474639   4.367590
    24  H    8.175684   7.841135   9.349829  10.204250   6.985007
    25  C    7.577722   6.956213   9.050398   9.667422   6.520357
    26  H    7.260598   6.400553   8.941426   9.286417   6.437734
    27  H    8.613995   7.879525  10.124970  10.702768   7.586854
                   11         12         13         14         15
    11  H    0.000000
    12  C    2.131874   0.000000
    13  C    2.684617   1.405385   0.000000
    14  H    3.101808   1.082684   2.112942   0.000000
    15  O    2.524682   2.364339   1.313246   3.303280   0.000000
    16  C    4.152076   2.554284   1.468368   2.734354   2.331135
    17  C    5.046965   3.744745   2.504410   4.007964   2.825168
    18  C    4.991580   3.089215   2.497265   2.807871   3.553467
    19  O    4.972726   4.180297   2.909053   4.690141   2.681524
    20  C    6.391725   4.903669   3.772364   4.947055   4.196769
    21  C    6.345146   4.425532   3.768456   4.042841   4.714549
    22  H    4.777995   2.839141   2.696625   2.369863   3.847235
    23  H    4.146749   3.684122   2.446365   4.378569   1.897360
    24  H    7.144885   5.811288   4.628600   5.920392   4.856788
    25  C    6.943025   5.179353   4.263023   4.963894   4.967844
    26  H    7.085345   5.095978   4.634643   4.549573   5.650789
    27  H    8.025511   6.236752   5.346566   5.957855   6.028479
                   16         17         18         19         20
    16  C    0.000000
    17  C    1.413794   0.000000
    18  C    1.405137   2.424438   0.000000
    19  O    2.435809   1.353562   3.688280   0.000000
    20  C    2.425626   1.391930   2.777594   2.339477   0.000000
    21  C    2.427134   2.797908   1.382935   4.149179   2.411575
    22  H    2.148855   3.403232   1.083684   4.574670   3.861180
    23  H    2.495024   1.920217   3.880226   0.965660   3.159761
    24  H    3.396710   2.128594   3.860736   2.526851   1.083294
[...]
 Alpha  occ. eigenvalues --   -0.25488
 Alpha virt. eigenvalues --   -0.01508   0.03320   0.04176   0.05000   0.05440
 Alpha virt. eigenvalues --    0.05572   0.06046   0.06515   0.07543   0.07676
 Alpha virt. eigenvalues --    0.08214   0.09123   0.09172   0.09501   0.09938
 Alpha virt. eigenvalues --    0.10053   0.11305   0.11832   0.12376   0.13520
 Alpha virt. eigenvalues --    0.14233   0.14488   0.15023   0.15387   0.15845
 Alpha virt. eigenvalues --    0.15985   0.16214   0.16544   0.16986   0.17057
 Alpha virt. eigenvalues --    0.17467   0.18121   0.18283   0.18638   0.18763
 Alpha virt. eigenvalues --    0.19187   0.19593   0.19798   0.20163   0.20451
 Alpha virt. eigenvalues --    0.20747   0.21650   0.22225   0.22519   0.22894
 Alpha virt. eigenvalues --    0.23566   0.23767   0.24226   0.24545   0.24857
 Alpha virt. eigenvalues --    0.25563   0.26079   0.26416   0.27618   0.27913
 Alpha virt. eigenvalues --    0.28591   0.28830   0.29337   0.29418   0.30029
 Alpha virt. eigenvalues --    0.30649   0.30993   0.31613   0.31987   0.32613
 Alpha virt. eigenvalues --    0.32893   0.33194   0.34048   0.34294   0.34646
 Alpha virt. eigenvalues --    0.35776   0.36126   0.36611   0.36905   0.37602
 Alpha virt. eigenvalues --    0.38032   0.38331   0.38595   0.39276   0.39379
 Alpha virt. eigenvalues --    0.40112   0.40703   0.41867   0.42238   0.42793
 Alpha virt. eigenvalues --    0.43411   0.44688   0.45435   0.46178   0.47277
 Alpha virt. eigenvalues --    0.48266   0.50457   0.51221   0.51634   0.52590
 Alpha virt. eigenvalues --    0.53693   0.54146   0.54661   0.56938   0.58947
 Alpha virt. eigenvalues --    0.59223   0.60753   0.61243   0.61754   0.62854
 Alpha virt. eigenvalues --    0.63704   0.65040   0.65573   0.66167   0.67528
 Alpha virt. eigenvalues --    0.67673   0.68196   0.68809   0.69362   0.70711
 Alpha virt. eigenvalues --    0.71362   0.71898   0.72130   0.73229   0.73470
 Alpha virt. eigenvalues --    0.74278   0.75211   0.75913   0.76968   0.77184
 Alpha virt. eigenvalues --    0.78789   0.79258   0.79821   0.80883   0.81664
 Alpha virt. eigenvalues --    0.82830   0.83623   0.84275   0.85578   0.87260
 Alpha virt. eigenvalues --    0.89861   0.89906   0.91935   0.92781   0.93199
 Alpha virt. eigenvalues --    0.94920   0.96653   0.97000   0.97320   0.98023
 Alpha virt. eigenvalues --    0.98708   1.00311   1.01669   1.03181   1.05123
 Alpha virt. eigenvalues --    1.05919   1.07433   1.08324   1.08533   1.08933
 Alpha virt. eigenvalues --    1.10771   1.12718   1.14606   1.15412   1.17460
 Alpha virt. eigenvalues --    1.18378   1.19455   1.20212   1.21159   1.23194
 Alpha virt. eigenvalues --    1.24003   1.26219   1.29121   1.30257   1.31161
 Alpha virt. eigenvalues --    1.34121   1.36083   1.36955   1.38953   1.39831
 Alpha virt. eigenvalues --    1.42191   1.46303   1.47202   1.50336   1.52278
 Alpha virt. eigenvalues --    1.52853   1.53252   1.54744   1.56123   1.58311
 Alpha virt. eigenvalues --    1.59404   1.61291   1.61989   1.62654   1.63513
 Alpha virt. eigenvalues --    1.64179   1.64499   1.64970   1.66001   1.67629
 Alpha virt. eigenvalues --    1.69550   1.71066   1.73514   1.74097   1.74794
 Alpha virt. eigenvalues --    1.75485   1.76801   1.78406   1.79773   1.80202
 Alpha virt. eigenvalues --    1.81868   1.82142   1.84078   1.85474   1.87058
 Alpha virt. eigenvalues --    1.87720   1.90070   1.90814   1.92580   1.96668
 Alpha virt. eigenvalues --    1.96938   1.99134   1.99747   2.01241   2.01804
 Alpha virt. eigenvalues --    2.03422   2.04109   2.05145   2.06718   2.07804
 Alpha virt. eigenvalues --    2.08106   2.10175   2.11900   2.12298   2.12968
 Alpha virt. eigenvalues --    2.15554   2.17387   2.21218   2.23855   2.24134
 Alpha virt. eigenvalues --    2.26660   2.27082   2.31103   2.31870   2.34762
 Alpha virt. eigenvalues --    2.37818   2.39625   2.41440   2.45196   2.47630
 Alpha virt. eigenvalues --    2.50761   2.52096   2.54513   2.55143   2.55671
 Alpha virt. eigenvalues --    2.57375   2.58205   2.60816   2.61491   2.63402
 Alpha virt. eigenvalues --    2.66057   2.66923   2.69632   2.70487   2.73051
 Alpha virt. eigenvalues --    2.74749   2.75579   2.76957   2.78823   2.79984
 Alpha virt. eigenvalues --    2.80566   2.81965   2.82305   2.82976   2.83827
 Alpha virt. eigenvalues --    2.84912   2.85764   2.86809   2.88886   2.90409
 Alpha virt. eigenvalues --    2.93142   2.94353   2.95930   2.98148   2.99916
 Alpha virt. eigenvalues --    3.02508   3.04006   3.05778   3.09139   3.11042
 Alpha virt. eigenvalues --    3.14766   3.16280   3.17130   3.17914   3.20291
 Alpha virt. eigenvalues --    3.21118   3.28519   3.28706   3.29815   3.33167
 Alpha virt. eigenvalues --    3.35973   3.38912   3.43358   3.48011   3.48511
 Alpha virt. eigenvalues --    3.57183   3.58812   3.62850   3.67216   3.68290
 Alpha virt. eigenvalues --    3.73338   3.74978   3.77620   3.83519   3.84244
 Alpha virt. eigenvalues --    3.87649   3.91568   3.95468   3.96239   4.03368
 Alpha virt. eigenvalues --    4.12017   4.13061   4.14623   4.18175   4.26291
 Alpha virt. eigenvalues --    4.28452   4.36615   4.52986   4.92855   4.99696
 Alpha virt. eigenvalues --    5.13207   5.18734   5.20104   5.43861   5.57605
 Alpha virt. eigenvalues --    5.83023   5.90887  23.70423  23.96975  24.02468
 Alpha virt. eigenvalues --   24.03405  24.06784  24.08239  24.12897  24.16214
 Alpha virt. eigenvalues --   24.22649  24.27540  24.31368  35.72141  50.10437
 Alpha virt. eigenvalues --   50.13535
          Condensed to atoms (all electrons):
               1          2          3          4          5          6
     1  C    5.156594   0.387009   0.391028  -0.065102   0.003406   0.230296
     2  H    0.387009   0.506624  -0.028979   0.010278  -0.006955  -0.055229
     3  H    0.391028  -0.028979   0.554261  -0.005791   0.001640  -0.067941
     4  C   -0.065102   0.010278  -0.005791   5.158992   0.406457   0.254490
     5  H    0.003406  -0.006955   0.001640   0.406457   0.586756  -0.063181
     6  N    0.230296  -0.055229  -0.067941   0.254490  -0.063181   6.923348
     7  H    0.435679  -0.012635  -0.050506   0.005192   0.001316  -0.049444
     8  H   -0.005659   0.003886  -0.002354   0.391816  -0.031567  -0.094983
     9  H    0.000635  -0.003214   0.002012   0.431267  -0.070877  -0.062019
    10  C   -0.291496   0.036460   0.001683  -0.068469  -0.031707   0.259014
    11  H    0.008798  -0.000929   0.000922  -0.032644   0.007826  -0.078233
    12  C    0.276928   0.005226   0.010900  -0.196884   0.016965  -0.331953
    13  C   -0.025465  -0.011096   0.016940  -0.011124   0.009238  -0.004339
    14  H    0.020859  -0.001712  -0.002295  -0.011228   0.002864  -0.042123
    15  O   -0.005293  -0.000472   0.000074  -0.001652  -0.000032  -0.000062
    16  C   -0.116175  -0.007952   0.008976   0.037597   0.004048  -0.057080
    17  C   -0.006748  -0.000497  -0.000722   0.005942   0.000733  -0.018834
    18  C    0.025751   0.000174  -0.002907   0.016571  -0.001027   0.051155
    19  O   -0.000006  -0.000001   0.000045  -0.000177   0.000001  -0.000232
    20  C    0.002144   0.000039  -0.001051   0.001711   0.000118  -0.004877
    21  C    0.006906   0.000684   0.002781  -0.005182  -0.000545   0.027132
    22  H    0.003233   0.000351  -0.004259   0.001673  -0.000544   0.006206
    23  H   -0.000915  -0.000088   0.000028   0.000199  -0.000010   0.000783
    24  H   -0.000029  -0.000001  -0.000001  -0.000019   0.000000  -0.000004
    25  C    0.000633   0.000013   0.000111   0.001113   0.000017   0.000016
    26  H   -0.000513  -0.000035   0.000200  -0.000161   0.000006  -0.000052
    27  H    0.000002  -0.000001  -0.000003   0.000027   0.000000   0.000023
               7          8          9         10         11         12
     1  C    0.435679  -0.005659   0.000635  -0.291496   0.008798   0.276928
     2  H   -0.012635   0.003886  -0.003214   0.036460  -0.000929   0.005226
     3  H   -0.050506  -0.002354   0.002012   0.001683   0.000922   0.010900
     4  C    0.005192   0.391816   0.431267  -0.068469  -0.032644  -0.196884
     5  H    0.001316  -0.031567  -0.070877  -0.031707   0.007826   0.016965
     6  N   -0.049444  -0.094983  -0.062019   0.259014  -0.078233  -0.331953
     7  H    0.523658  -0.000865  -0.000820   0.003181  -0.004466   0.016021
     8  H   -0.000865   0.552829  -0.018956   0.099759  -0.008455  -0.016717
     9  H   -0.000820  -0.018956   0.573091  -0.005952  -0.001895  -0.006906
    10  C    0.003181   0.099759  -0.005952   8.422373   0.199004  -1.804313
    11  H   -0.004466  -0.008455  -0.001895   0.199004   0.549115   0.231850
    12  C    0.016021  -0.016717  -0.006906  -1.804313   0.231850  15.417209
    13  C   -0.044799  -0.003232  -0.007605  -1.029706   0.016256   2.489710
    14  H   -0.006725  -0.002849  -0.001684  -0.215137   0.025463   0.690931
    15  O   -0.000752   0.001686   0.000090  -0.004491  -0.007374  -0.695611
    16  C   -0.006811  -0.000856   0.001038   0.761726   0.002151  -5.787120
    17  C   -0.001926  -0.000365   0.000134  -0.017280   0.027914  -1.260535
    18  C    0.005591  -0.000036  -0.000770   0.305419  -0.064451  -2.368040
    19  O   -0.000105   0.000072  -0.000005  -0.005825  -0.001385  -0.031202
    20  C   -0.000294  -0.000542   0.000046  -0.071724   0.008704  -0.989748
    21  C    0.000309   0.002039  -0.000468   0.090838  -0.025259   0.887833
    22  H    0.000954   0.000232   0.000173  -0.004737  -0.003989  -0.101688
    23  H    0.000253   0.000054   0.000026   0.006696  -0.001983  -0.001640
    24  H    0.000002   0.000012  -0.000002  -0.000066  -0.000063  -0.004419
    25  C   -0.000015  -0.000178   0.000022   0.029527   0.000499  -0.248511
    26  H    0.000017   0.000059  -0.000009   0.003904  -0.000136   0.005055
    27  H    0.000000  -0.000008   0.000001   0.000048   0.000030  -0.002472
              13         14         15         16         17         18
     1  C   -0.025465   0.020859  -0.005293  -0.116175  -0.006748   0.025751
     2  H   -0.011096  -0.001712  -0.000472  -0.007952  -0.000497   0.000174
     3  H    0.016940  -0.002295   0.000074   0.008976  -0.000722  -0.002907
     4  C   -0.011124  -0.011228  -0.001652   0.037597   0.005942   0.016571
     5  H    0.009238   0.002864  -0.000032   0.004048   0.000733  -0.001027
     6  N   -0.004339  -0.042123  -0.000062  -0.057080  -0.018834   0.051155
     7  H   -0.044799  -0.006725  -0.000752  -0.006811  -0.001926   0.005591
     8  H   -0.003232  -0.002849   0.001686  -0.000856  -0.000365  -0.000036
     9  H   -0.007605  -0.001684   0.000090   0.001038   0.000134  -0.000770
    10  C   -1.029706  -0.215137  -0.004491   0.761726  -0.017280   0.305419
    11  H    0.016256   0.025463  -0.007374   0.002151   0.027914  -0.064451
    12  C    2.489710   0.690931  -0.695611  -5.787120  -1.260535  -2.368040
    13  C   15.310144   0.008511   0.789847  -2.829491  -0.952920  -4.082963
    14  H    0.008511   0.535272   0.005660  -0.036048   0.025821  -0.170927
    15  O    0.789847   0.005660   8.079603   0.059168   0.184074  -0.151917
    16  C   -2.829491  -0.036048   0.059168  16.285173   0.170214  -0.810585
    17  C   -0.952920   0.025821   0.184074   0.170214  17.164933  -5.688162
    18  C   -4.082963  -0.170927  -0.151917  -0.810585  -5.688162  17.154230
    19  O   -0.111856  -0.000195  -0.030224   0.150269   0.326589   0.052615
    20  C   -4.335034  -0.001392  -0.060311  -1.428195  -3.048429   4.001097
    21  C    1.815093  -0.027333  -0.013398  -1.457787   0.884453  -3.035404
    22  H   -0.107284  -0.010085  -0.002059  -0.062946  -0.018573   0.700262
    23  H    0.035646  -0.001696   0.093562  -0.207254   0.119465  -0.014774
    24  H   -0.030606  -0.000243   0.000166  -0.072836  -0.127756   0.047754
    25  C   -0.966539  -0.002965  -0.001654   0.217225  -1.667226   0.761740
    26  H    0.023729  -0.000228   0.000299   0.023434   0.058508  -0.180534
    27  H    0.006907   0.000065   0.000012   0.077879   0.006806  -0.055502
              19         20         21         22         23         24
     1  C   -0.000006   0.002144   0.006906   0.003233  -0.000915  -0.000029
     2  H   -0.000001   0.000039   0.000684   0.000351  -0.000088  -0.000001
     3  H    0.000045  -0.001051   0.002781  -0.004259   0.000028  -0.000001
     4  C   -0.000177   0.001711  -0.005182   0.001673   0.000199  -0.000019
     5  H    0.000001   0.000118  -0.000545  -0.000544  -0.000010   0.000000
     6  N   -0.000232  -0.004877   0.027132   0.006206   0.000783  -0.000004
     7  H   -0.000105  -0.000294   0.000309   0.000954   0.000253   0.000002
     8  H    0.000072  -0.000542   0.002039   0.000232   0.000054   0.000012
     9  H   -0.000005   0.000046  -0.000468   0.000173   0.000026  -0.000002
    10  C   -0.005825  -0.071724   0.090838  -0.004737   0.006696  -0.000066
    11  H   -0.001385   0.008704  -0.025259  -0.003989  -0.001983  -0.000063
    12  C   -0.031202  -0.989748   0.887833  -0.101688  -0.001640  -0.004419
    13  C   -0.111856  -4.335034   1.815093  -0.107284   0.035646  -0.030606
    14  H   -0.000195  -0.001392  -0.027333  -0.010085  -0.001696  -0.000243
    15  O   -0.030224  -0.060311  -0.013398  -0.002059   0.093562   0.000166
    16  C    0.150269  -1.428195  -1.457787  -0.062946  -0.207254  -0.072836
    17  C    0.326589  -3.048429   0.884453  -0.018573   0.119465  -0.127756
    18  C    0.052615   4.001097  -3.035404   0.700262  -0.014774   0.047754
    19  O    8.015872  -0.363589   0.001908  -0.000571   0.244288  -0.026414
    20  C   -0.363589  12.486378  -2.000324   0.128979   0.037375   0.571072
    21  C    0.001908  -2.000324   9.244646  -0.207837   0.014304  -0.013841
    22  H   -0.000571   0.128979  -0.207837   0.468204  -0.000664   0.001376
    23  H    0.244288   0.037375   0.014304  -0.000664   0.369217   0.002132
    24  H   -0.026414   0.571072  -0.013841   0.001376   0.002132   0.457509
    25  C    0.025917   1.448614  -0.077338   0.013557  -0.012019  -0.032455
    26  H   -0.000100  -0.017063   0.472101  -0.012805   0.000513   0.000802
    27  H    0.001235  -0.103071  -0.044559  -0.000213  -0.000353  -0.010517
              25         26         27
     1  C    0.000633  -0.000513   0.000002
     2  H    0.000013  -0.000035  -0.000001
     3  H    0.000111   0.000200  -0.000003
     4  C    0.001113  -0.000161   0.000027
     5  H    0.000017   0.000006   0.000000
     6  N    0.000016  -0.000052   0.000023
     7  H   -0.000015   0.000017   0.000000
     8  H   -0.000178   0.000059  -0.000008
     9  H    0.000022  -0.000009   0.000001
    10  C    0.029527   0.003904   0.000048
    11  H    0.000499  -0.000136   0.000030
    12  C   -0.248511   0.005055  -0.002472
    13  C   -0.966539   0.023729   0.006907
    14  H   -0.002965  -0.000228   0.000065
    15  O   -0.001654   0.000299   0.000012
    16  C    0.217225   0.023434   0.077879
    17  C   -1.667226   0.058508   0.006806
    18  C    0.761740  -0.180534  -0.055502
    19  O    0.025917  -0.000100   0.001235
    20  C    1.448614  -0.017063  -0.103071
    21  C   -0.077338   0.472101  -0.044559
    22  H    0.013557  -0.012805  -0.000213
    23  H   -0.012019   0.000513  -0.000353
    24  H   -0.032455   0.000802  -0.010517
    25  C    6.434719  -0.060206   0.446205
    26  H   -0.060206   0.470125  -0.008776
    27  H    0.446205  -0.008776   0.470082
 Mulliken charges:
               1
     1  C   -0.432499
     2  H    0.179051
     3  H    0.175209
     4  C   -0.324895
     5  H    0.165053
     6  N    0.178123
     7  H    0.187988
     8  H    0.135177
     9  H    0.172646
    10  C   -0.668730
    11  H    0.152731
    12  C   -0.200870
    13  C    0.032037
    14  H    0.219419
    15  O   -0.238940
    16  C    1.082239
    17  C   -0.165611
    18  C   -0.494363
    19  O   -0.246924
    20  C   -0.260633
    21  C   -0.541755
    22  H    0.213055
    23  H    0.316855
    24  H    0.238445
    25  C   -0.310824
    26  H    0.221866
    27  H    0.216152
 Sum of Mulliken charges =   0.00000
 Mulliken charges with hydrogens summed into heavy atoms:
               1
     1  C    0.109748
     4  C    0.147981
     6  N    0.178123
    10  C   -0.516000
    12  C    0.018549
    13  C    0.032037
    15  O   -0.238940
    16  C    1.082239
    17  C   -0.165611
    18  C   -0.281308
    19  O    0.069931
    20  C   -0.022188
    21  C   -0.319890
    25  C   -0.094672
 Electronic spatial extent (au):  <R**2>=           3806.3727
 Charge=              0.0000 electrons
 Dipole moment (field-independent basis, Debye):
    X=             -2.6081    Y=              4.0984    Z=              0.4463  Tot=              4.8783
 Quadrupole moment (field-independent basis, Debye-Ang):
   XX=            -63.5922   YY=            -88.7666   ZZ=            -81.8675
   XY=              3.3443   XZ=             -0.4980   YZ=             -0.3463
 Traceless Quadrupole moment (field-independent basis, Debye-Ang):
   XX=             14.4832   YY=            -10.6911   ZZ=             -3.7921
   XY=              3.3443   XZ=             -0.4980   YZ=             -0.3463
 Octapole moment (field-independent basis, Debye-Ang**2):
  XXX=            -47.1548  YYY=             15.7431  ZZZ=              2.9968  XYY=              3.3454
  XXY=             27.9976  XXZ=              8.8698  XZZ=            -21.6083  YZZ=             -7.6223
  YYZ=             -0.7125  XYZ=              1.6554
 Hexadecapole moment (field-independent basis, Debye-Ang**3):
 XXXX=          -3491.6726 YYYY=           -785.0901 ZZZZ=           -302.0154 XXXY=             38.2782
 XXXZ=             28.3971 YYYX=             17.2877 YYYZ=             -7.5226 ZZZX=             -8.4657
 ZZZY=              2.8416 XXYY=           -803.8286 XXZZ=           -716.1790 YYZZ=           -194.3378
 XXYZ=             10.9506 YYXZ=             -4.7095 ZZXY=            -16.0841
 N-N= 8.379589746115D+02 E-N=-3.149517701027D+03  KE= 6.294778225791D+02
 1\1\GINC-NXN36\FOpt\RwB97XD TD-FC\6-311++G(d,p)\C11H13N1O2\BTX008\20-J
 ul-2017\0\\# wb97xd 6-311++g** opt td=(nstates=1,root=1)\\restarted op
 timization\\0,1\C,0.6910106259,-0.6517579743,8.459081681\H,1.573177920
 8,-0.0157040371,8.5043713007\H,0.1165272406,-0.5272841064,9.3801313546
 \C,0.3338619174,0.8864619171,6.5382049854\H,0.3577092817,1.7723837222,
 7.1777193412\N,-0.1055273613,-0.2705623919,7.3009070694\H,1.0093764002
 ,-1.6927513772,8.3725612663\H,-0.3502623778,1.0652467447,5.7106581386\
 H,1.3356551784,0.7103016038,6.1385349645\C,-1.1995129867,-0.9460084403
 ,6.9629059708\H,-1.7124412137,-0.6010647094,6.0720302317\C,-1.73527284
 2,-2.0269956774,7.6448939674\C,-2.8573142416,-2.7608756685,7.059286526
 2\H,-1.199325885,-2.4609123958,8.487781453\O,-2.2665577012,-3.59810712
 15,6.2559229399\C,-4.233706774,-2.6477293113,7.3576621523\C,-5.1812220
 305,-3.4878735147,6.7037434527\C,-4.7271179005,-1.7054478358,8.2883496
 758\O,-4.7844342942,-4.4208883145,5.8058748169\C,-6.5314860018,-3.3621
 854072,6.9753110753\C,-6.0825790886,-1.5919242354,8.5513448857\H,-4.02
 20496221,-1.0628958209,8.8063720995\H,-3.8142191264,-4.3908260752,5.73
 602576\H,-7.2208489311,-4.0187138161,6.4568007417\C,-6.9900434003,-2.4
 178676584,7.8947677036\H,-6.4318982667,-0.8615013244,9.2727026457\H,-8
 .0517840089,-2.3369355341,8.095890347\\Version=ES64L-G09RevD.01\State=
 1-A\HF=-632.1054594\RMSD=7.992e-09\RMSF=5.703e-06\Dipole=3.555687,3.16
 84376,0.8778494\PG=C01 [X(C11H13N1O2)]\\@


 IT WAS AN ACT OF DESPARATION. FOR SIX YEARS I HAD STRUGGLED WITH THE
 BLACKBODY THEORY. I KNEW THE PROBLEM WAS FUNDAMENTAL, AND I KNEW
 THE ANSWER. I HAD TO FIND A THEORETICAL EXPLANATION AT ANY COST,
 EXCEPT FOR THE INVIOLABLITY OF THE TWO LAWS OF THERMODYNAMICS.
   -- MAX PLANCK, 1931
 Job cpu time:       2 days  2 hours 45 minutes  2.2 seconds.
 File lengths (MBytes):  RWF=    157 Int=      0 D2E=      0 Chk=     23 Scr=      1
 Normal termination of Gaussian 09 at Thu Jul 20 23:23:08 2017.
