 Entering Gaussian System, Link 0=g09
 Input=1_optS1_rotated.com
 Output=1_optS1_rotated.out
 Initial command:
 /share/apps/gaussian/g09_D01/g09/l1.exe "/tmp/4030278.1.chemistry.q/Gau-9536.inp" -scrdir="/tmp/4030278.1.chemistry.q/"
 Entering Link 1 = /share/apps/gaussian/g09_D01/g09/l1.exe PID=      9537.
  
 Copyright (c) 1988,1990,1992,1993,1995,1998,2003,2009,2013,
            Gaussian, Inc.  All Rights Reserved.
  
 This is part of the Gaussian(R) 09 program.  It is based on
 the Gaussian(R) 03 system (copyright 2003, Gaussian, Inc.),
 the Gaussian(R) 98 system (copyright 1998, Gaussian, Inc.),
 the Gaussian(R) 94 system (copyright 1995, Gaussian, Inc.),
 the Gaussian 92(TM) system (copyright 1992, Gaussian, Inc.),
 the Gaussian 90(TM) system (copyright 1990, Gaussian, Inc.),
 the Gaussian 88(TM) system (copyright 1988, Gaussian, Inc.),
 the Gaussian 86(TM) system (copyright 1986, Carnegie Mellon
 University), and the Gaussian 82(TM) system (copyright 1983,
 Carnegie Mellon University). Gaussian is a federally registered
 trademark of Gaussian, Inc.
  
 This software contains proprietary and confidential information,
 including trade secrets, belonging to Gaussian, Inc.
  
 This software is provided under written license and may be
 used, copied, transmitted, or stored only in accord with that
 written license.
  
 The following legend is applicable only to US Government
 contracts under FAR:
  
                    RESTRICTED RIGHTS LEGEND
  
 Use, reproduction and disclosure by the US Government is
 subject to restrictions as set forth in subparagraphs (a)
 and (c) of the Commercial Computer Software - Restricted
 Rights clause in FAR 52.227-19.
  
 Gaussian, Inc.
 340 Quinnipiac St., Bldg. 40, Wallingford CT 06492
  
  
 ---------------------------------------------------------------
 Warning -- This program may not be used in any manner that
 competes with the business of Gaussian, Inc. or will provide
 assistance to any competitor of Gaussian, Inc.  The licensee
 of this program is prohibited from giving any competitor of
 Gaussian, Inc. access to this program.  By using this program,
 the user acknowledges that Gaussian, Inc. is engaged in the
 business of creating and licensing software in the field of
 computational chemistry and represents and warrants to the
 licensee that it is not a competitor of Gaussian, Inc. and that
 it will not use this program in any manner prohibited above.
 ---------------------------------------------------------------
  

 Cite this work as:
 Gaussian 09, Revision D.01,
 M. J. Frisch, G. W. Trucks, H. B. Schlegel, G. E. Scuseria, 
 M. A. Robb, J. R. Cheeseman, G. Scalmani, V. Barone, B. Mennucci, 
 G. A. Petersson, H. Nakatsuji, M. Caricato, X. Li, H. P. Hratchian, 
 A. F. Izmaylov, J. Bloino, G. Zheng, J. L. Sonnenberg, M. Hada, 
 M. Ehara, K. Toyota, R. Fukuda, J. Hasegawa, M. Ishida, T. Nakajima, 
 Y. Honda, O. Kitao, H. Nakai, T. Vreven, J. A. Montgomery, Jr., 
 J. E. Peralta, F. Ogliaro, M. Bearpark, J. J. Heyd, E. Brothers, 
 K. N. Kudin, V. N. Staroverov, T. Keith, R. Kobayashi, J. Normand, 
 K. Raghavachari, A. Rendell, J. C. Burant, S. S. Iyengar, J. Tomasi, 
 M. Cossi, N. Rega, J. M. Millam, M. Klene, J. E. Knox, J. B. Cross, 
 V. Bakken, C. Adamo, J. Jaramillo, R. Gomperts, R. E. Stratmann, 
 O. Yazyev, A. J. Austin, R. Cammi, C. Pomelli, J. W. Ochterski, 
 R. L. Martin, K. Morokuma, V. G. Zakrzewski, G. A. Voth, 
 P. Salvador, J. J. Dannenberg, S. Dapprich, A. D. Daniels, 
 O. Farkas, J. B. Foresman, J. V. Ortiz, J. Cioslowski, 
 and D. J. Fox, Gaussian, Inc., Wallingford CT, 2013.
 
 ******************************************
 Gaussian 09:  ES64L-G09RevD.01 24-Apr-2013
                19-Jul-2017 
 ******************************************
 %chk=1_optS1_rotated.chk
 %mem=28GB
 %nproc=4
 Will use up to    4 processors via shared memory.
 ---------------------------------------------
 # wb97xd 6-311++g** opt td=(nstates=1,root=1)
 ---------------------------------------------
 1/14=-1,18=20,19=15,26=3,38=1/1,3;
 2/9=110,12=2,17=6,18=5,40=1/2;
 3/5=4,6=6,7=1111,11=9,16=1,25=1,30=1,71=1,74=-58/1,2,8,3;
 4//1;
 5/5=2,38=5/2;
 8/6=1,10=2,107=1,108=1/1;
 9/8=1,15=2,41=1,42=1,70=2/14;
 10/5=4/2;
 6/7=2,8=2,9=2,10=2/1;
 7/12=6,13=5,14=1/1,2,3,16;
 1/14=-1,18=20,19=15,26=3/3(2);
 2/9=110/2;
 99//99;
 2/9=110/2;
 3/5=4,6=6,7=1111,11=9,16=1,25=1,30=1,71=1,74=-58/1,2,8,3;
 4/5=5,16=3,69=1/1;
 5/5=2,38=5/2;
 8/6=1,10=2,107=1,108=1/1;
 9/8=1,15=2,41=1,42=1,49=4,70=2/14;
 10/5=4/2;
 7/12=6,13=5,14=1/1,2,3,16;
 1/14=-1,18=20,19=15,26=3/3(-8);
 2/9=110/2;
 6/7=2,8=2,9=2,10=2/1;
 99//99;
 ----------------------
 restarted optimization
 ----------------------
 Symbolic Z-matrix:
 Charge =  0 Multiplicity = 1
 C                    -0.00594   0.2586    8.59834 
 H                     0.94413   0.71519   8.8749 
 H                    -0.7869    1.02805   8.62294 
 C                     1.26628   0.02525   6.479 
 H                     1.26581   1.09307   6.23187 
 N                     0.11245  -0.33121   7.28121 
 H                    -0.24991  -0.50826   9.33952 
 H                     1.25577  -0.54423   5.54993 
 H                     2.19036  -0.20785   7.01553 
 C                    -0.90377  -1.04026   6.76384 
 H                    -0.74347  -1.4294    5.76242 
 C                    -2.0926   -1.32356   7.36221 
 C                    -3.0517   -2.13261   6.63434 
 H                    -2.32474  -0.94996   8.34738 
 O                    -2.78381  -2.56547   5.49899 
 C                    -4.37343  -2.45086   7.23512 
 C                    -4.51367  -3.62265   8.01701 
 C                    -5.50342  -1.63575   7.06407 
 O                    -3.50419  -4.46402   8.24302 
 C                    -5.75358  -3.9358    8.58873 
 C                    -6.72297  -1.94821   7.63001 
 H                    -5.42813  -0.73207   6.47292 
 H                    -2.72094  -4.08923   7.77392 
 H                    -5.82417  -4.84058   9.18055 
 C                    -6.841    -3.10987   8.39726 
 H                    -7.57736  -1.29932   7.48047 
 H                    -7.79399  -3.36691   8.84697 
 

 GradGradGradGradGradGradGradGradGradGradGradGradGradGradGradGradGradGrad
 Berny optimization.
 Initialization pass.
                           ----------------------------
                           !    Initial Parameters    !
                           ! (Angstroms and Degrees)  !
 --------------------------                            --------------------------
 ! Name  Definition              Value          Derivative Info.                !
 --------------------------------------------------------------------------------
 ! R1    R(1,2)                  1.0898         estimate D2E/DX2                !
 ! R2    R(1,3)                  1.0966         estimate D2E/DX2                !
 ! R3    R(1,6)                  1.448          estimate D2E/DX2                !
 ! R4    R(1,7)                  1.0941         estimate D2E/DX2                !
 ! R5    R(4,5)                  1.096          estimate D2E/DX2                !
 ! R6    R(4,6)                  1.4498         estimate D2E/DX2                !
 ! R7    R(4,8)                  1.0898         estimate D2E/DX2                !
 ! R8    R(4,9)                  1.0937         estimate D2E/DX2                !
 ! R9    R(6,10)                 1.3428         estimate D2E/DX2                !
 ! R10   R(10,11)                1.0863         estimate D2E/DX2                !
 ! R11   R(10,12)                1.3608         estimate D2E/DX2                !
 ! R12   R(12,13)                1.4506         estimate D2E/DX2                !
 ! R13   R(12,14)                1.0789         estimate D2E/DX2                !
 ! R14   R(13,15)                1.2442         estimate D2E/DX2                !
 ! R15   R(13,16)                1.4863         estimate D2E/DX2                !
 ! R16   R(16,17)                1.4157         estimate D2E/DX2                !
 ! R17   R(16,18)                1.4038         estimate D2E/DX2                !
 ! R18   R(17,19)                1.3334         estimate D2E/DX2                !
 ! R19   R(17,20)                1.4008         estimate D2E/DX2                !
 ! R20   R(18,21)                1.3803         estimate D2E/DX2                !
 ! R21   R(18,22)                1.0825         estimate D2E/DX2                !
 ! R22   R(19,23)                0.9869         estimate D2E/DX2                !
 ! R23   R(20,24)                1.0835         estimate D2E/DX2                !
 ! R24   R(20,25)                1.3789         estimate D2E/DX2                !
 ! R25   R(21,25)                1.3972         estimate D2E/DX2                !
 ! R26   R(21,26)                1.0832         estimate D2E/DX2                !
 ! R27   R(25,27)                1.0847         estimate D2E/DX2                !
 ! A1    A(2,1,3)              108.7348         estimate D2E/DX2                !
 ! A2    A(2,1,6)              109.2826         estimate D2E/DX2                !
 ! A3    A(2,1,7)              108.4308         estimate D2E/DX2                !
 ! A4    A(3,1,6)              111.373          estimate D2E/DX2                !
 ! A5    A(3,1,7)              108.5308         estimate D2E/DX2                !
 ! A6    A(6,1,7)              110.4234         estimate D2E/DX2                !
 ! A7    A(5,4,6)              111.3432         estimate D2E/DX2                !
 ! A8    A(5,4,8)              108.4749         estimate D2E/DX2                !
 ! A9    A(5,4,9)              108.5796         estimate D2E/DX2                !
 ! A10   A(6,4,8)              109.6073         estimate D2E/DX2                !
 ! A11   A(6,4,9)              110.4007         estimate D2E/DX2                !
 ! A12   A(8,4,9)              108.3615         estimate D2E/DX2                !
 ! A13   A(1,6,4)              117.9196         estimate D2E/DX2                !
 ! A14   A(1,6,10)             120.2438         estimate D2E/DX2                !
 ! A15   A(4,6,10)             121.26           estimate D2E/DX2                !
 ! A16   A(6,10,11)            115.6379         estimate D2E/DX2                !
 ! A17   A(6,10,12)            126.9902         estimate D2E/DX2                !
 ! A18   A(11,10,12)           117.3704         estimate D2E/DX2                !
 ! A19   A(10,12,13)           118.2363         estimate D2E/DX2                !
 ! A20   A(10,12,14)           121.1592         estimate D2E/DX2                !
 ! A21   A(13,12,14)           120.6013         estimate D2E/DX2                !
 ! A22   A(12,13,15)           120.633          estimate D2E/DX2                !
 ! A23   A(12,13,16)           120.3019         estimate D2E/DX2                !
 ! A24   A(15,13,16)           119.0645         estimate D2E/DX2                !
 ! A25   A(13,16,17)           119.247          estimate D2E/DX2                !
 ! A26   A(13,16,18)           122.8365         estimate D2E/DX2                !
 ! A27   A(17,16,18)           117.9165         estimate D2E/DX2                !
 ! A28   A(16,17,19)           122.7449         estimate D2E/DX2                !
 ! A29   A(16,17,20)           119.877          estimate D2E/DX2                !
 ! A30   A(19,17,20)           117.3781         estimate D2E/DX2                !
 ! A31   A(16,18,21)           121.9939         estimate D2E/DX2                !
 ! A32   A(16,18,22)           119.6898         estimate D2E/DX2                !
 ! A33   A(21,18,22)           118.3164         estimate D2E/DX2                !
 ! A34   A(17,19,23)           106.2981         estimate D2E/DX2                !
 ! A35   A(17,20,24)           117.8583         estimate D2E/DX2                !
 ! A36   A(17,20,25)           120.4949         estimate D2E/DX2                !
 ! A37   A(24,20,25)           121.6468         estimate D2E/DX2                !
 ! A38   A(18,21,25)           119.2099         estimate D2E/DX2                !
 ! A39   A(18,21,26)           120.3106         estimate D2E/DX2                !
 ! A40   A(25,21,26)           120.4795         estimate D2E/DX2                !
 ! A41   A(20,25,21)           120.5079         estimate D2E/DX2                !
 ! A42   A(20,25,27)           119.5623         estimate D2E/DX2                !
 ! A43   A(21,25,27)           119.9298         estimate D2E/DX2                !
 ! D1    D(2,1,6,4)            -13.4848         estimate D2E/DX2                !
 ! D2    D(2,1,6,10)           175.1118         estimate D2E/DX2                !
 ! D3    D(3,1,6,4)            106.669          estimate D2E/DX2                !
 ! D4    D(3,1,6,10)           -64.7344         estimate D2E/DX2                !
 ! D5    D(7,1,6,4)           -132.6736         estimate D2E/DX2                !
 ! D6    D(7,1,6,10)            55.923          estimate D2E/DX2                !
 ! D7    D(5,4,6,1)            -63.89           estimate D2E/DX2                !
 ! D8    D(5,4,6,10)           107.4215         estimate D2E/DX2                !
 ! D9    D(8,4,6,1)            176.0861         estimate D2E/DX2                !
 ! D10   D(8,4,6,10)           -12.6024         estimate D2E/DX2                !
 ! D11   D(9,4,6,1)             56.7938         estimate D2E/DX2                !
 ! D12   D(9,4,6,10)          -131.8947         estimate D2E/DX2                !
 ! D13   D(1,6,10,11)          178.6481         estimate D2E/DX2                !
 ! D14   D(1,6,10,12)           -1.819          estimate D2E/DX2                !
 ! D15   D(4,6,10,11)            7.5364         estimate D2E/DX2                !
 ! D16   D(4,6,10,12)         -172.9306         estimate D2E/DX2                !
 ! D17   D(6,10,12,13)        -178.8301         estimate D2E/DX2                !
 ! D18   D(6,10,12,14)           1.8149         estimate D2E/DX2                !
 ! D19   D(11,10,12,13)          0.6957         estimate D2E/DX2                !
 ! D20   D(11,10,12,14)       -178.6592         estimate D2E/DX2                !
 ! D21   D(10,12,13,15)          0.7511         estimate D2E/DX2                !
 ! D22   D(10,12,13,16)       -178.9788         estimate D2E/DX2                !
 ! D23   D(14,12,13,15)       -179.8903         estimate D2E/DX2                !
 ! D24   D(14,12,13,16)          0.3799         estimate D2E/DX2                !
 ! D25   D(12,13,16,17)        -90.266          estimate D2E/DX2                !
 ! D26   D(12,13,16,18)         89.6781         estimate D2E/DX2                !
 ! D27   D(15,13,16,17)         90.0            estimate D2E/DX2                !
 ! D28   D(15,13,16,18)        -90.0559         estimate D2E/DX2                !
 ! D29   D(13,16,17,19)          0.0215         estimate D2E/DX2                !
 ! D30   D(13,16,17,20)       -179.9582         estimate D2E/DX2                !
 ! D31   D(18,16,17,19)       -179.9253         estimate D2E/DX2                !
 ! D32   D(18,16,17,20)          0.095          estimate D2E/DX2                !
 ! D33   D(13,16,18,21)        179.9907         estimate D2E/DX2                !
 ! D34   D(13,16,18,22)         -0.0379         estimate D2E/DX2                !
 ! D35   D(17,16,18,21)         -0.0645         estimate D2E/DX2                !
 ! D36   D(17,16,18,22)        179.9069         estimate D2E/DX2                !
 ! D37   D(16,17,19,23)          0.2018         estimate D2E/DX2                !
 ! D38   D(20,17,19,23)       -179.818          estimate D2E/DX2                !
 ! D39   D(16,17,20,24)        179.9736         estimate D2E/DX2                !
 ! D40   D(16,17,20,25)         -0.0695         estimate D2E/DX2                !
 ! D41   D(19,17,20,24)         -0.0072         estimate D2E/DX2                !
 ! D42   D(19,17,20,25)        179.9497         estimate D2E/DX2                !
 ! D43   D(16,18,21,25)          0.0065         estimate D2E/DX2                !
 ! D44   D(16,18,21,26)        179.9847         estimate D2E/DX2                !
 ! D45   D(22,18,21,25)       -179.9653         estimate D2E/DX2                !
 ! D46   D(22,18,21,26)          0.0129         estimate D2E/DX2                !
 ! D47   D(17,20,25,21)          0.0098         estimate D2E/DX2                !
 ! D48   D(17,20,25,27)        179.9995         estimate D2E/DX2                !
 ! D49   D(24,20,25,21)        179.9651         estimate D2E/DX2                !
 ! D50   D(24,20,25,27)         -0.0453         estimate D2E/DX2                !
 ! D51   D(18,21,25,20)          0.022          estimate D2E/DX2                !
 ! D52   D(18,21,25,27)       -179.9676         estimate D2E/DX2                !
 ! D53   D(26,21,25,20)       -179.9561         estimate D2E/DX2                !
 ! D54   D(26,21,25,27)          0.0543         estimate D2E/DX2                !
 --------------------------------------------------------------------------------
 Trust Radius=3.00D-01 FncErr=1.00D-07 GrdErr=1.00D-06
 Number of steps in this run=    134 maximum allowed number of steps=    162.
 GradGradGradGradGradGradGradGradGradGradGradGradGradGradGradGradGradGrad

                          Input orientation:                          
 ---------------------------------------------------------------------
 Center     Atomic      Atomic             Coordinates (Angstroms)
 Number     Number       Type             X           Y           Z
 ---------------------------------------------------------------------
      1          6           0       -0.005944    0.258601    8.598337
      2          1           0        0.944130    0.715194    8.874902
      3          1           0       -0.786901    1.028050    8.622937
      4          6           0        1.266281    0.025251    6.478995
      5          1           0        1.265811    1.093067    6.231874
      6          7           0        0.112445   -0.331212    7.281213
      7          1           0       -0.249914   -0.508263    9.339524
      8          1           0        1.255768   -0.544225    5.549928
      9          1           0        2.190355   -0.207852    7.015529
     10          6           0       -0.903771   -1.040262    6.763835
     11          1           0       -0.743468   -1.429398    5.762419
     12          6           0       -2.092605   -1.323564    7.362212
     13          6           0       -3.051698   -2.132606    6.634340
     14          1           0       -2.324738   -0.949962    8.347376
     15          8           0       -2.783806   -2.565468    5.498990
     16          6           0       -4.373429   -2.450864    7.235120
     17          6           0       -4.513671   -3.622647    8.017014
     18          6           0       -5.503423   -1.635755    7.064072
     19          8           0       -3.504190   -4.464022    8.243022
     20          6           0       -5.753578   -3.935798    8.588730
     21          6           0       -6.722968   -1.948206    7.630010
     22          1           0       -5.428133   -0.732066    6.472916
     23          1           0       -2.720941   -4.089230    7.773919
     24          1           0       -5.824166   -4.840583    9.180553
     25          6           0       -6.840999   -3.109867    8.397258
     26          1           0       -7.577360   -1.299323    7.480475
     27          1           0       -7.793993   -3.366913    8.846966
 ---------------------------------------------------------------------
                    Distance matrix (angstroms):
                    1          2          3          4          5
     1  C    0.000000
     2  H    1.089773   0.000000
     3  H    1.096609   1.777029   0.000000
     4  C    2.482865   2.513995   3.133313   0.000000
     5  H    2.813155   2.689212   3.151989   1.096038   0.000000
     6  N    1.448002   2.080026   2.111075   1.449813   2.111856
     7  H    1.094057   1.771570   1.778232   3.281175   3.810403
     8  H    3.395474   3.569132   4.010976   1.089761   1.773662
     9  H    2.747106   2.421231   3.602120   1.093672   1.778001
    10  C    2.420441   3.309527   2.783493   2.434251   3.088877
    11  H    3.381673   4.139422   3.771406   2.582359   3.258899
    12  C    2.895756   3.958096   2.970586   3.725787   4.289141
    13  C    4.341863   5.394138   4.367330   4.829640   5.404427
    14  H    2.626863   3.706282   2.520597   4.163809   4.641267
    15  O    5.029695   6.004751   5.163337   4.906673   5.506487
    16  C    5.317376   6.402284   5.185756   6.205578   6.735501
    17  C    5.976757   7.024275   5.990404   7.005748   7.669883
    18  C    6.013720   7.097676   5.636621   6.995009   7.345853
    19  O    5.887881   6.856465   6.139288   6.784008   7.594661
    20  C    7.115362   8.159223   7.022025   8.331825   8.950759
    21  C    7.136250   8.211446   6.714231   8.309481   8.661681
    22  H    5.907535   6.962028   5.409402   6.737117   6.942485
    23  H    5.191773   6.142264   5.536055   5.873987   6.717760
    24  H    7.758374   8.761845   7.754085   9.013834   9.704159
    25  C    7.622663   8.687202   7.336580   8.901500   9.384771
    26  H    7.810447   8.866707   7.268577   8.998191   9.245767
    27  H    8.594177   9.644645   8.274372   9.960052  10.431212
                    6          7          8          9         10
     6  N    0.000000
     7  H    2.097450   0.000000
     8  H    2.085644   4.077917   0.000000
     9  H    2.098456   3.383210   1.770476   0.000000
    10  C    1.342806   2.710115   2.526506   3.214012   0.000000
    11  H    2.060421   3.726629   2.196731   3.416105   1.086259
    12  C    2.419415   2.823117   3.886302   4.439454   1.360750
    13  C    3.698008   4.219775   4.717326   5.597241   2.413208
    14  H    2.731193   2.341869   4.561837   4.765565   2.129531
    15  O    4.068967   5.040080   4.517320   5.709687   2.731413
    16  C    4.961665   5.020517   6.177621   6.939927   3.774975
    17  C    5.725024   5.443165   6.989251   7.589978   4.612001
    18  C    5.769485   5.835090   7.012185   7.825311   4.647747
    19  O    5.575415   5.238384   6.728653   7.214539   4.546681
    20  C    7.008058   6.527021   8.358709   8.915078   5.935908
    21  C    7.032724   6.848088   8.364098   9.102404   5.952955
    22  H    5.613558   5.922962   6.749942   7.655755   4.544169
    23  H    4.732181   4.623897   5.772990   6.305639   3.690337
    24  H    7.693197   7.061626   9.042434   9.506949   6.670327
    25  C    7.570791   7.148330   8.958094   9.586252   6.496308
    26  H    7.753067   7.600875   9.073111   9.839499   6.716954
    27  H    8.612713   8.082550  10.036743  10.631135   7.564912
                   11         12         13         14         15
    11  H    0.000000
    12  C    2.095402   0.000000
    13  C    2.565672   1.450588   0.000000
    14  H    3.067943   1.078894   2.204906   0.000000
    15  O    2.350113   2.343434   1.244249   3.306646   0.000000
    16  C    4.048315   2.547374   1.486337   2.772536   2.356731
    17  C    4.909987   3.402368   2.503872   3.470420   3.232724
    18  C    4.939034   3.438027   2.538206   3.495886   3.272639
    19  O    4.794155   3.553995   2.868468   3.708183   3.413675
    20  C    6.274654   4.661635   3.790950   4.553066   4.499316
    21  C    6.285816   4.679974   3.808358   4.566786   4.520980
    22  H    4.789276   3.502351   2.763153   3.632098   3.361898
    23  H    3.877015   2.865871   2.288322   3.215717   2.738815
    24  H    7.009517   5.440619   4.637124   5.298785   5.289031
    25  C    6.851733   5.177784   4.292054   5.006426   5.015690
    26  H    7.047745   5.486083   4.678880   5.335130   5.339248
    27  H    7.935887   6.235832   5.376671   6.000333   6.078917
                   16         17         18         19         20
    16  C    0.000000
    17  C    1.415663   0.000000
    18  C    1.403762   2.415667   0.000000
    19  O    2.413348   1.333433   3.658682   0.000000
    20  C    2.437643   1.400818   2.770805   2.336296   0.000000
    21  C    2.434941   2.799021   1.380290   4.131059   2.410267
    22  H    2.155835   3.402343   1.082492   4.556570   3.853114
    23  H    2.388569   1.868335   3.776987   0.986917   3.143938
    24  H    3.405893   2.134148   3.853997   2.530425   1.083454
    25  C    2.806021   2.413293   2.395726   3.604417   1.378879
    26  H    3.413418   3.882254   2.141913   5.214165   3.391963
    27  H    3.890688   3.393336   3.379694   4.468870   2.133919
                   21         22         23         24         25
    21  C    0.000000
    22  H    2.120015   0.000000
    23  H    4.541026   4.504670   0.000000
    24  H    3.402628   4.936401   3.489005   0.000000
    25  C    1.397161   3.369455   4.280488   2.154734   0.000000
    26  H    1.083234   2.440519   5.608431   4.301684   2.158886
    27  H    2.154253   4.263312   5.235363   2.482580   1.084669
                   26         27
    26  H    0.000000
    27  H    2.487802   0.000000
 Stoichiometry    C11H13NO2
 Framework group  C1[X(C11H13NO2)]
 Deg. of freedom    75
 Full point group                 C1      NOp   1
 Largest Abelian subgroup         C1      NOp   1
 Largest concise Abelian subgroup C1      NOp   1
                         Standard orientation:                         
 ---------------------------------------------------------------------
 Center     Atomic      Atomic             Coordinates (Angstroms)
 Number     Number       Type             X           Y           Z
 ---------------------------------------------------------------------
      1          6           0        3.506465   -0.552677   -1.665110
      2          1           0        4.520286   -0.521056   -2.063571
      3          1           0        3.128693   -1.579100   -1.744444
      4          6           0        4.801146    0.006576    0.378333
      5          1           0        5.282876   -0.973133    0.475315
      6          7           0        3.518874   -0.099751   -0.289822
      7          1           0        2.874289    0.098685   -2.275881
      8          1           0        4.660415    0.422450    1.375741
      9          1           0        5.468300    0.669173   -0.180227
     10          6           0        2.367173    0.042652    0.385777
     11          1           0        2.464866    0.364545    1.418636
     12          6           0        1.108686   -0.163984   -0.088727
     13          6           0       -0.009162    0.072570    0.804952
     14          1           0        0.941844   -0.504814   -1.098683
     15          8           0        0.182471    0.467583    1.969167
     16          6           0       -1.402076   -0.160420    0.341590
     17          6           0       -2.117670    0.902451   -0.260351
     18          6           0       -2.050650   -1.398505    0.472152
     19          8           0       -1.594954    2.116846   -0.433721
     20          6           0       -3.431506    0.697729   -0.701048
     21          6           0       -3.345223   -1.595541    0.035737
     22          1           0       -1.529691   -2.231374    0.926816
     23          1           0       -0.677147    2.077393   -0.073056
     24          1           0       -3.948787    1.533690   -1.156528
     25          6           0       -4.034845   -0.533465   -0.554580
     26          1           0       -3.819399   -2.562760    0.149930
     27          1           0       -5.052818   -0.675185   -0.901210
 ---------------------------------------------------------------------
 Rotational constants (GHZ):      1.5670884      0.3063497      0.3008662
 Standard basis: 6-311++G(d,p) (5D, 7F)
 There are   413 symmetry adapted cartesian basis functions of A   symmetry.
 There are   399 symmetry adapted basis functions of A   symmetry.
   399 basis functions,   621 primitive gaussians,   413 cartesian basis functions
    51 alpha electrons       51 beta electrons
       nuclear repulsion energy       836.6950014528 Hartrees.
 NAtoms=   27 NActive=   27 NUniq=   27 SFac= 1.00D+00 NAtFMM=   60 NAOKFM=F Big=F
 Integral buffers will be    131072 words long.
 Raffenetti 1 integral format.
 Two-electron integral symmetry is turned on.
 Nuclear repulsion after empirical dispersion term =      836.6795869674 Hartrees.
 One-electron integrals computed using PRISM.
 NBasis=   399 RedAO= T EigKep=  3.81D-06  NBF=   399
 NBsUse=   397 1.00D-06 EigRej=  7.23D-07 NBFU=   397
 ExpMin= 3.60D-02 ExpMax= 8.59D+03 ExpMxC= 1.30D+03 IAcc=3 IRadAn=         5 AccDes= 0.00D+00
 Harris functional with IExCor= 4639 and IRadAn=       5 diagonalized for initial guess.
 HarFok:  IExCor= 4639 AccDes= 0.00D+00 IRadAn=         5 IDoV= 1 UseB2=F ITyADJ=14
 ICtDFT=  3500011 ScaDFX=  1.000000  1.000000  1.000000  1.000000
 FoFCou: FMM=F IPFlag=           0 FMFlag=      100000 FMFlg1=           0
         NFxFlg=           0 DoJE=T BraDBF=F KetDBF=T FulRan=T
         wScrn=  0.000000 ICntrl=     500 IOpCl=  0 I1Cent=   200000004 NGrid=           0
         NMat0=    1 NMatS0=      1 NMatT0=    0 NMatD0=    1 NMtDS0=    0 NMtDT0=    0
 Petite list used in FoFCou.
 Requested convergence on RMS density matrix=1.00D-08 within 128 cycles.
 Requested convergence on MAX density matrix=1.00D-06.
 Requested convergence on             energy=1.00D-06.
 No special actions if energy rises.
 SCF Done:  E(RwB97XD) =  -632.130532552     A.U. after   17 cycles
            NFock= 17  Conv=0.56D-08     -V/T= 2.0040
 DoSCS=F DFT=T ScalE2(SS,OS)=  1.000000  1.000000
 ExpMin= 3.60D-02 ExpMax= 8.59D+03 ExpMxC= 1.30D+03 IAcc=3 IRadAn=         5 AccDes= 0.00D+00
 HarFok:  IExCor=  205 AccDes= 0.00D+00 IRadAn=         5 IDoV=-2 UseB2=F ITyADJ=14
 ICtDFT= 12500011 ScaDFX=  1.000000  1.000000  1.000000  1.000000
 Range of M.O.s used for correlation:    15   397
 NBasis=   399 NAE=    51 NBE=    51 NFC=    14 NFV=     0
 NROrb=    383 NOA=    37 NOB=    37 NVA=   346 NVB=   346

 **** Warning!!: The largest alpha MO coefficient is  0.11867673D+03

 Would need an additional         15381800000 words for in-memory AO integral storage.
 Orbital symmetries:
       Occupied  (A) (A) (A) (A) (A) (A) (A) (A) (A) (A) (A) (A)
                 (A) (A) (A) (A) (A) (A) (A) (A) (A) (A) (A) (A)
                 (A) (A) (A) (A) (A) (A) (A) (A) (A) (A) (A) (A)
                 (A) (A) (A) (A) (A) (A) (A) (A) (A) (A) (A) (A)
                 (A) (A) (A)
       Virtual   (A) (A) (A) (A) (A) (A) (A) (A) (A) (A) (A) (A)
                 (A) (A) (A) (A) (A) (A) (A) (A) (A) (A) (A) (A)
                 (A) (A) (A) (A) (A) (A) (A) (A) (A) (A) (A) (A)
                 (A) (A) (A) (A) (A) (A) (A) (A) (A) (A) (A) (A)
                 (A) (A) (A) (A) (A) (A) (A) (A) (A) (A) (A) (A)
                 (A) (A) (A) (A) (A) (A) (A) (A) (A) (A) (A) (A)
                 (A) (A) (A) (A) (A) (A) (A) (A) (A) (A) (A) (A)
                 (A) (A) (A) (A) (A) (A) (A) (A) (A) (A) (A) (A)
                 (A) (A) (A) (A) (A) (A) (A) (A) (A) (A) (A) (A)
                 (A) (A) (A) (A) (A) (A) (A) (A) (A) (A) (A) (A)
                 (A) (A) (A) (A) (A) (A) (A) (A) (A) (A) (A) (A)
                 (A) (A) (A) (A) (A) (A) (A) (A) (A) (A) (A) (A)
                 (A) (A) (A) (A) (A) (A) (A) (A) (A) (A) (A) (A)
                 (A) (A) (A) (A) (A) (A) (A) (A) (A) (A) (A) (A)
                 (A) (A) (A) (A) (A) (A) (A) (A) (A) (A) (A) (A)
                 (A) (A) (A) (A) (A) (A) (A) (A) (A) (A) (A) (A)
                 (A) (A) (A) (A) (A) (A) (A) (A) (A) (A) (A) (A)
                 (A) (A) (A) (A) (A) (A) (A) (A) (A) (A) (A) (A)
                 (A) (A) (A) (A) (A) (A) (A) (A) (A) (A) (A) (A)
                 (A) (A) (A) (A) (A) (A) (A) (A) (A) (A) (A) (A)
                 (A) (A) (A) (A) (A) (A) (A) (A) (A) (A) (A) (A)
                 (A) (A) (A) (A) (A) (A) (A) (A) (A) (A) (A) (A)
                 (A) (A) (A) (A) (A) (A) (A) (A) (A) (A) (A) (A)
                 (A) (A) (A) (A) (A) (A) (A) (A) (A) (A) (A) (A)
                 (A) (A) (A) (A) (A) (A) (A) (A) (A) (A) (A) (A)
                 (A) (A) (A) (A) (A) (A) (A) (A) (A) (A) (A) (A)
                 (A) (A) (A) (A) (A) (A) (A) (A) (A) (A) (A) (A)
                 (A) (A) (A) (A) (A) (A) (A) (A) (A) (A) (A) (A)
                 (A) (A) (A) (A) (A) (A) (A) (A) (A) (A)
     8 initial guesses have been made.
 Convergence on wavefunction:    0.000001000000000
 Iteration     1 Dimension     8 NMult     0 NNew      8
 CISAX will form     8 AO SS matrices at one time.
 Iteration     2 Dimension    12 NMult     8 NNew      4
 Iteration     3 Dimension    16 NMult    12 NNew      4
 Iteration     4 Dimension    20 NMult    16 NNew      4
 Iteration     5 Dimension    24 NMult    20 NNew      4
 Iteration     6 Dimension    28 NMult    24 NNew      4
 Iteration     7 Dimension    32 NMult    28 NNew      4
 Iteration     8 Dimension    36 NMult    32 NNew      4
 Iteration     9 Dimension    40 NMult    36 NNew      4
 Iteration    10 Dimension    44 NMult    40 NNew      4
 Iteration    11 Dimension    48 NMult    44 NNew      4
 Iteration    12 Dimension    52 NMult    48 NNew      4
 Iteration    13 Dimension    56 NMult    52 NNew      4
 ***********************************************************************
 Excited states from <AA,BB:AA,BB> singles matrix:
 ***********************************************************************
 
 Ground to excited state transition densities written to RWF  633
 Ground to excited state transition electric dipole moments (Au):
       state          X           Y           Z        Dip. S.      Osc.
         1         0.0784     -0.0277     -0.0226      0.0074      0.0007
 Ground to excited state transition velocity dipole moments (Au):
       state          X           Y           Z        Dip. S.      Osc.
         1        -0.0097     -0.0006      0.0053      0.0001      0.0006
 Ground to excited state transition magnetic dipole moments (Au):
       state          X           Y           Z
         1         0.1256      0.2466      0.7402
 Ground to excited state transition velocity quadrupole moments (Au):
       state          XX          YY          ZZ          XY          XZ          YZ
         1        -0.0690      0.0045      0.0075      0.0286     -0.0005     -0.0057
 <0|del|b> * <b|rxdel|0> + <0|del|b> * <b|delr+rdel|0>
 Rotatory Strengths (R) in cgs (10**-40 erg-esu-cm/Gauss)
       state          XX          YY          ZZ    R(velocity)    E-M Angle
         1         9.8424      6.5377     -3.5953      4.2616       73.13
 1/2[<0|r|b>*<b|rxdel|0> + (<0|rxdel|b>*<b|r|0>)*]
 Rotatory Strengths (R) in cgs (10**-40 erg-esu-cm/Gauss)
       state          XX          YY          ZZ     R(length)
         1        -6.9645      4.8296     11.8534      3.2395
  1/2[<0|del|b>*<b|r|0> + (<0|r|b>*<b|del|0>)*] (Au)
       state          X           Y           Z        Dip. S.   Osc.(frdel)
         1        -0.0008      0.0000     -0.0001      0.0009      0.0006

 Excitation energies and oscillator strengths:
 
 Excited State   1:      Singlet-A      3.8279 eV  323.89 nm  f=0.0007  <S**2>=0.000
      48 -> 52        -0.40265
      49 -> 52         0.47229
      51 -> 52        -0.25491
 This state for optimization and/or second-order correction.
 Total Energy, E(TD-HF/TD-KS) =  -631.989858831    
 Copying the excited state density for this state as the 1-particle RhoCI density.
 SavETr:  write IOETrn=   770 NScale= 10 NData=  16 NLR=1 NState=    1 LETran=      28.
          IDoAtm=111111111111111111111111111
          Differentiating once with respect to electric field.
                with respect to dipole field.
          Differentiating once with respect to nuclear coordinates.
          There are     1 degrees of freedom in the 1st order CPHF.  IDoFFX=0 NUNeed=     1.
 LinEq1:  Iter=  0 NonCon=     1 RMS=8.56D-03 Max=4.84D-01 NDo=     1
 AX will form     1 AO Fock derivatives at one time.
 LinEq1:  Iter=  1 NonCon=     1 RMS=2.24D-03 Max=7.97D-02 NDo=     1
 LinEq1:  Iter=  2 NonCon=     1 RMS=1.40D-03 Max=4.69D-02 NDo=     1
 LinEq1:  Iter=  3 NonCon=     1 RMS=6.61D-04 Max=3.22D-02 NDo=     1
 LinEq1:  Iter=  4 NonCon=     1 RMS=3.37D-04 Max=9.91D-03 NDo=     1
 LinEq1:  Iter=  5 NonCon=     1 RMS=1.41D-04 Max=6.04D-03 NDo=     1
 LinEq1:  Iter=  6 NonCon=     1 RMS=6.83D-05 Max=1.97D-03 NDo=     1
 LinEq1:  Iter=  7 NonCon=     1 RMS=3.69D-05 Max=1.47D-03 NDo=     1
 LinEq1:  Iter=  8 NonCon=     1 RMS=1.43D-05 Max=5.17D-04 NDo=     1
 LinEq1:  Iter=  9 NonCon=     1 RMS=7.64D-06 Max=2.61D-04 NDo=     1
 LinEq1:  Iter= 10 NonCon=     1 RMS=3.36D-06 Max=1.28D-04 NDo=     1
 LinEq1:  Iter= 11 NonCon=     1 RMS=1.40D-06 Max=4.15D-05 NDo=     1
 LinEq1:  Iter= 12 NonCon=     1 RMS=5.62D-07 Max=1.24D-05 NDo=     1
 LinEq1:  Iter= 13 NonCon=     1 RMS=3.10D-07 Max=6.03D-06 NDo=     1
 LinEq1:  Iter= 14 NonCon=     1 RMS=1.27D-07 Max=3.61D-06 NDo=     1
 LinEq1:  Iter= 15 NonCon=     1 RMS=6.35D-08 Max=2.51D-06 NDo=     1
 LinEq1:  Iter= 16 NonCon=     1 RMS=2.68D-08 Max=8.80D-07 NDo=     1
 LinEq1:  Iter= 17 NonCon=     1 RMS=1.44D-08 Max=6.85D-07 NDo=     1
 LinEq1:  Iter= 18 NonCon=     1 RMS=6.05D-09 Max=1.61D-07 NDo=     1
 LinEq1:  Iter= 19 NonCon=     1 RMS=2.61D-09 Max=5.68D-08 NDo=     1
 LinEq1:  Iter= 20 NonCon=     1 RMS=1.01D-09 Max=2.63D-08 NDo=     1
 LinEq1:  Iter= 21 NonCon=     1 RMS=3.53D-10 Max=5.65D-09 NDo=     1
 LinEq1:  Iter= 22 NonCon=     1 RMS=1.24D-10 Max=2.30D-09 NDo=     1
 LinEq1:  Iter= 23 NonCon=     1 RMS=4.74D-11 Max=1.37D-09 NDo=     1
 LinEq1:  Iter= 24 NonCon=     0 RMS=1.72D-11 Max=1.90D-10 NDo=     1
 Linear equations converged to 1.000D-10 1.000D-09 after    24 iterations.
 End of Minotr F.D. properties file   721 does not exist.
 End of Minotr F.D. properties file   722 does not exist.
 End of Minotr F.D. properties file   788 does not exist.

 **********************************************************************

            Population analysis using the SCF density.

 **********************************************************************

 Orbital symmetries:
       Occupied  (A) (A) (A) (A) (A) (A) (A) (A) (A) (A) (A) (A)
                 (A) (A) (A) (A) (A) (A) (A) (A) (A) (A) (A) (A)
                 (A) (A) (A) (A) (A) (A) (A) (A) (A) (A) (A) (A)
                 (A) (A) (A) (A) (A) (A) (A) (A) (A) (A) (A) (A)
                 (A) (A) (A)
       Virtual   (A) (A) (A) (A) (A) (A) (A) (A) (A) (A) (A) (A)
                 (A) (A) (A) (A) (A) (A) (A) (A) (A) (A) (A) (A)
                 (A) (A) (A) (A) (A) (A) (A) (A) (A) (A) (A) (A)
                 (A) (A) (A) (A) (A) (A) (A) (A) (A) (A) (A) (A)
                 (A) (A) (A) (A) (A) (A) (A) (A) (A) (A) (A) (A)
                 (A) (A) (A) (A) (A) (A) (A) (A) (A) (A) (A) (A)
                 (A) (A) (A) (A) (A) (A) (A) (A) (A) (A) (A) (A)
                 (A) (A) (A) (A) (A) (A) (A) (A) (A) (A) (A) (A)
                 (A) (A) (A) (A) (A) (A) (A) (A) (A) (A) (A) (A)
                 (A) (A) (A) (A) (A) (A) (A) (A) (A) (A) (A) (A)
                 (A) (A) (A) (A) (A) (A) (A) (A) (A) (A) (A) (A)
                 (A) (A) (A) (A) (A) (A) (A) (A) (A) (A) (A) (A)
                 (A) (A) (A) (A) (A) (A) (A) (A) (A) (A) (A) (A)
                 (A) (A) (A) (A) (A) (A) (A) (A) (A) (A) (A) (A)
                 (A) (A) (A) (A) (A) (A) (A) (A) (A) (A) (A) (A)
                 (A) (A) (A) (A) (A) (A) (A) (A) (A) (A) (A) (A)
                 (A) (A) (A) (A) (A) (A) (A) (A) (A) (A) (A) (A)
                 (A) (A) (A) (A) (A) (A) (A) (A) (A) (A) (A) (A)
                 (A) (A) (A) (A) (A) (A) (A) (A) (A) (A) (A) (A)
                 (A) (A) (A) (A) (A) (A) (A) (A) (A) (A) (A) (A)
                 (A) (A) (A) (A) (A) (A) (A) (A) (A) (A) (A) (A)
                 (A) (A) (A) (A) (A) (A) (A) (A) (A) (A) (A) (A)
                 (A) (A) (A) (A) (A) (A) (A) (A) (A) (A) (A) (A)
                 (A) (A) (A) (A) (A) (A) (A) (A) (A) (A) (A) (A)
                 (A) (A) (A) (A) (A) (A) (A) (A) (A) (A) (A) (A)
                 (A) (A) (A) (A) (A) (A) (A) (A) (A) (A) (A) (A)
                 (A) (A) (A) (A) (A) (A) (A) (A) (A) (A) (A) (A)
                 (A) (A) (A) (A) (A) (A) (A) (A) (A) (A) (A) (A)
                 (A) (A) (A) (A) (A) (A) (A) (A) (A) (A)
 The electronic state is 1-A.
 Alpha  occ. eigenvalues --  -19.28014 -19.21515 -14.49418 -10.36727 -10.34941
 Alpha  occ. eigenvalues --  -10.34839 -10.34158 -10.33797 -10.29111 -10.28853
 Alpha  occ. eigenvalues --  -10.28473 -10.27729 -10.27595 -10.27449  -1.17655
 Alpha  occ. eigenvalues --   -1.12010  -1.09074  -0.95250  -0.89441  -0.85993
 Alpha  occ. eigenvalues --   -0.85472  -0.83698  -0.80211  -0.74128  -0.69484
 Alpha  occ. eigenvalues --   -0.68943  -0.65259  -0.63363  -0.61538  -0.58843
 Alpha  occ. eigenvalues --   -0.58645  -0.57467  -0.55707  -0.53572  -0.52091
 Alpha  occ. eigenvalues --   -0.51873  -0.51409  -0.50569  -0.49871  -0.49653
 Alpha  occ. eigenvalues --   -0.47947  -0.47283  -0.46569  -0.44492  -0.42566
 Alpha  occ. eigenvalues --   -0.42147  -0.41326  -0.33653  -0.32043  -0.29746
 Alpha  occ. eigenvalues --   -0.29355
 Alpha virt. eigenvalues --    0.01460   0.02689   0.04445   0.04936   0.05493
 Alpha virt. eigenvalues --    0.05620   0.06001   0.06310   0.07263   0.07425
 Alpha virt. eigenvalues --    0.07711   0.07842   0.08402   0.08988   0.09855
 Alpha virt. eigenvalues --    0.10336   0.11944   0.12527   0.12897   0.13677
 Alpha virt. eigenvalues --    0.13756   0.14479   0.14757   0.15005   0.15331
 Alpha virt. eigenvalues --    0.16034   0.16414   0.16594   0.16801   0.16989
 Alpha virt. eigenvalues --    0.17608   0.17668   0.18052   0.18315   0.18646
 Alpha virt. eigenvalues --    0.19044   0.19573   0.19813   0.20230   0.20685
 Alpha virt. eigenvalues --    0.20848   0.21727   0.22147   0.22446   0.22754
 Alpha virt. eigenvalues --    0.22967   0.23272   0.23921   0.24395   0.24806
 Alpha virt. eigenvalues --    0.25237   0.26221   0.26696   0.27404   0.28137
 Alpha virt. eigenvalues --    0.28457   0.28808   0.29014   0.29551   0.30115
 Alpha virt. eigenvalues --    0.30789   0.30972   0.31511   0.31737   0.32298
 Alpha virt. eigenvalues --    0.32752   0.33358   0.33831   0.34024   0.34406
 Alpha virt. eigenvalues --    0.34748   0.35490   0.36124   0.36405   0.36736
 Alpha virt. eigenvalues --    0.37248   0.37964   0.38372   0.38854   0.39560
 Alpha virt. eigenvalues --    0.40099   0.40581   0.41316   0.42542   0.43078
 Alpha virt. eigenvalues --    0.43807   0.44620   0.46029   0.46605   0.47182
 Alpha virt. eigenvalues --    0.48107   0.49640   0.50393   0.50970   0.51208
 Alpha virt. eigenvalues --    0.52939   0.53534   0.54755   0.56603   0.57897
 Alpha virt. eigenvalues --    0.59022   0.61588   0.62524   0.63746   0.64350
 Alpha virt. eigenvalues --    0.64627   0.65042   0.65761   0.66126   0.66677
 Alpha virt. eigenvalues --    0.67432   0.68580   0.69902   0.70351   0.70659
 Alpha virt. eigenvalues --    0.71207   0.71556   0.71880   0.72477   0.73026
 Alpha virt. eigenvalues --    0.74565   0.75767   0.76834   0.77187   0.77735
 Alpha virt. eigenvalues --    0.78752   0.79901   0.80881   0.81173   0.82402
 Alpha virt. eigenvalues --    0.82917   0.83333   0.83723   0.84881   0.86608
 Alpha virt. eigenvalues --    0.88067   0.89119   0.91758   0.93209   0.94032
 Alpha virt. eigenvalues --    0.94258   0.94872   0.95993   0.96751   0.98437
 Alpha virt. eigenvalues --    0.98622   0.99899   1.01072   1.03015   1.03448
 Alpha virt. eigenvalues --    1.03747   1.05821   1.06530   1.08743   1.09580
 Alpha virt. eigenvalues --    1.11031   1.12783   1.14362   1.15155   1.17001
 Alpha virt. eigenvalues --    1.17434   1.18731   1.19275   1.22211   1.22958
 Alpha virt. eigenvalues --    1.26791   1.27660   1.28972   1.30641   1.32902
 Alpha virt. eigenvalues --    1.35289   1.35706   1.36862   1.39575   1.41003
 Alpha virt. eigenvalues --    1.42010   1.43143   1.45250   1.49734   1.50689
 Alpha virt. eigenvalues --    1.51796   1.54340   1.56049   1.57005   1.58716
 Alpha virt. eigenvalues --    1.59990   1.60594   1.61945   1.62865   1.63065
 Alpha virt. eigenvalues --    1.65687   1.66361   1.66605   1.67678   1.68521
 Alpha virt. eigenvalues --    1.70201   1.71652   1.73327   1.74893   1.75478
 Alpha virt. eigenvalues --    1.75921   1.76899   1.77958   1.79804   1.80213
 Alpha virt. eigenvalues --    1.81074   1.82542   1.83583   1.84381   1.84965
 Alpha virt. eigenvalues --    1.87507   1.89635   1.90405   1.91992   1.93918
 Alpha virt. eigenvalues --    1.94891   1.98034   2.00315   2.01436   2.01697
 Alpha virt. eigenvalues --    2.04291   2.04609   2.05775   2.06302   2.08219
 Alpha virt. eigenvalues --    2.08934   2.10494   2.11578   2.12220   2.13731
 Alpha virt. eigenvalues --    2.15708   2.18336   2.19591   2.20527   2.22298
 Alpha virt. eigenvalues --    2.23727   2.24219   2.27770   2.30711   2.35534
 Alpha virt. eigenvalues --    2.37555   2.42047   2.43040   2.43789   2.46342
 Alpha virt. eigenvalues --    2.49952   2.50567   2.52127   2.54705   2.55417
 Alpha virt. eigenvalues --    2.57013   2.58665   2.59639   2.61587   2.62100
 Alpha virt. eigenvalues --    2.64855   2.67411   2.67511   2.70876   2.72258
 Alpha virt. eigenvalues --    2.73214   2.75987   2.77926   2.78800   2.80884
 Alpha virt. eigenvalues --    2.81669   2.82420   2.83370   2.83782   2.85869
 Alpha virt. eigenvalues --    2.86619   2.86959   2.89634   2.90658   2.92160
 Alpha virt. eigenvalues --    2.93879   2.94263   2.95402   2.97310   2.99862
 Alpha virt. eigenvalues --    3.00766   3.01758   3.05048   3.08967   3.09972
 Alpha virt. eigenvalues --    3.11916   3.13639   3.15763   3.19330   3.23228
 Alpha virt. eigenvalues --    3.26050   3.27773   3.28236   3.30367   3.34718
 Alpha virt. eigenvalues --    3.38988   3.44232   3.45397   3.52002   3.56354
 Alpha virt. eigenvalues --    3.58858   3.63485   3.64800   3.68306   3.69173
 Alpha virt. eigenvalues --    3.71607   3.72710   3.79965   3.81077   3.83331
 Alpha virt. eigenvalues --    3.84839   3.91921   3.93808   3.98574   4.00296
 Alpha virt. eigenvalues --    4.08922   4.13433   4.14807   4.16783   4.27571
 Alpha virt. eigenvalues --    4.28941   4.36229   4.50738   4.95186   4.98282
 Alpha virt. eigenvalues --    5.14263   5.17113   5.24561   5.37379   5.57395
 Alpha virt. eigenvalues --    5.86701   5.89653  23.73753  23.94765  24.02782
 Alpha virt. eigenvalues --   24.04526  24.06446  24.07044  24.11177  24.19883
 Alpha virt. eigenvalues --   24.26089  24.29825  24.34641  35.69234  50.09085
 Alpha virt. eigenvalues --   50.17199
          Condensed to atoms (all electrons):
               1          2          3          4          5          6
     1  C    5.225850   0.388845   0.417350  -0.077762   0.015826   0.247268
     2  H    0.388845   0.516200  -0.021980   0.012064  -0.007063  -0.048742
     3  H    0.417350  -0.021980   0.522258  -0.006334   0.001338  -0.054081
     4  C   -0.077762   0.012064  -0.006334   5.179167   0.410641   0.251604
     5  H    0.015826  -0.007063   0.001338   0.410641   0.556102  -0.046020
     6  N    0.247268  -0.048742  -0.054081   0.251604  -0.046020   6.838524
     7  H    0.411301  -0.023308  -0.049322   0.004517   0.001638  -0.040961
     8  H   -0.004628   0.003109  -0.000561   0.404655  -0.029149  -0.094625
     9  H   -0.013532  -0.003604   0.002620   0.411002  -0.059918  -0.048094
    10  C   -0.145041   0.041137   0.001215  -0.023321  -0.033462   0.263239
    11  H    0.009959   0.001715  -0.003370  -0.021043   0.003429  -0.056014
    12  C    0.158979  -0.022940   0.002715  -0.228335   0.004814  -0.287509
    13  C   -0.102539  -0.009203  -0.001014  -0.021022  -0.003803  -0.021210
    14  H    0.010695  -0.002810  -0.008457  -0.010729  -0.000047  -0.031398
    15  O   -0.001034   0.000338   0.000389   0.006853   0.000013   0.010323
    16  C   -0.116158  -0.006718   0.001409   0.037062  -0.000274  -0.025050
    17  C    0.013558   0.000824   0.000702   0.011418   0.001017   0.019580
    18  C   -0.004246   0.000025   0.000247  -0.002723  -0.001394  -0.008749
    19  O    0.003389   0.000329   0.000007  -0.000315   0.000006  -0.000495
    20  C    0.006675   0.000235  -0.000758   0.000658   0.000076   0.002823
    21  C    0.002366   0.000349   0.000234  -0.000102  -0.000235  -0.000382
    22  H    0.000517   0.000119  -0.000488   0.000047  -0.000010  -0.000108
    23  H    0.000401  -0.000075   0.000312   0.000609   0.000102   0.000717
    24  H    0.000231   0.000023  -0.000023   0.000013  -0.000001   0.000042
    25  C   -0.002612  -0.000203   0.000421   0.000300  -0.000004  -0.000158
    26  H    0.000006   0.000003   0.000010   0.000020  -0.000001   0.000009
    27  H   -0.000083  -0.000005   0.000010   0.000007   0.000000  -0.000011
               7          8          9         10         11         12
     1  C    0.411301  -0.004628  -0.013532  -0.145041   0.009959   0.158979
     2  H   -0.023308   0.003109  -0.003604   0.041137   0.001715  -0.022940
     3  H   -0.049322  -0.000561   0.002620   0.001215  -0.003370   0.002715
     4  C    0.004517   0.404655   0.411002  -0.023321  -0.021043  -0.228335
     5  H    0.001638  -0.029149  -0.059918  -0.033462   0.003429   0.004814
     6  N   -0.040961  -0.094625  -0.048094   0.263239  -0.056014  -0.287509
     7  H    0.527475  -0.002821  -0.000959  -0.032271   0.001627   0.010251
     8  H   -0.002821   0.538906  -0.022421   0.078786  -0.011279  -0.011330
     9  H   -0.000959  -0.022421   0.553683  -0.013466  -0.000186   0.017666
    10  C   -0.032271   0.078786  -0.013466   8.044979   0.388229  -2.040102
    11  H    0.001627  -0.011279  -0.000186   0.388229   0.477380  -0.038754
    12  C    0.010251  -0.011330   0.017666  -2.040102  -0.038754  10.417212
    13  C    0.000693   0.003626   0.001670  -1.976465   0.005122   1.197145
    14  H    0.000981  -0.000729   0.000895  -0.161549   0.003010   0.503161
    15  O    0.000390  -0.001017  -0.000161   0.124506   0.037445  -0.540027
    16  C    0.004372   0.004997   0.001127   1.237479  -0.000643  -3.252879
    17  C   -0.001054  -0.000915  -0.001409   0.190192  -0.002356   0.115674
    18  C    0.001275   0.001868   0.001144   0.088947  -0.013168   0.140581
    19  O   -0.001128  -0.000100  -0.000041  -0.012789   0.002407   0.020012
    20  C    0.000105  -0.000081  -0.000098  -0.035147  -0.003052   0.217898
    21  C    0.000708   0.000299   0.000109   0.093664  -0.001649   0.134170
    22  H    0.000140   0.000020  -0.000013  -0.012828   0.000910  -0.000952
    23  H   -0.000914  -0.000008  -0.000051   0.004213  -0.000339   0.014667
    24  H    0.000008   0.000000  -0.000002  -0.000008   0.000037   0.003871
    25  C   -0.000168   0.000046   0.000010   0.015971  -0.001312  -0.065683
    26  H    0.000022   0.000002   0.000000   0.001915  -0.000048   0.000399
    27  H    0.000000   0.000001   0.000000   0.001189  -0.000006  -0.005442
              13         14         15         16         17         18
     1  C   -0.102539   0.010695  -0.001034  -0.116158   0.013558  -0.004246
     2  H   -0.009203  -0.002810   0.000338  -0.006718   0.000824   0.000025
     3  H   -0.001014  -0.008457   0.000389   0.001409   0.000702   0.000247
     4  C   -0.021022  -0.010729   0.006853   0.037062   0.011418  -0.002723
     5  H   -0.003803  -0.000047   0.000013  -0.000274   0.001017  -0.001394
     6  N   -0.021210  -0.031398   0.010323  -0.025050   0.019580  -0.008749
     7  H    0.000693   0.000981   0.000390   0.004372  -0.001054   0.001275
     8  H    0.003626  -0.000729  -0.001017   0.004997  -0.000915   0.001868
     9  H    0.001670   0.000895  -0.000161   0.001127  -0.001409   0.001144
    10  C   -1.976465  -0.161549   0.124506   1.237479   0.190192   0.088947
    11  H    0.005122   0.003010   0.037445  -0.000643  -0.002356  -0.013168
    12  C    1.197145   0.503161  -0.540027  -3.252879   0.115674   0.140581
    13  C    9.919272   0.086363   0.590308  -0.790585  -1.333941  -0.458106
    14  H    0.086363   0.516965  -0.011123  -0.029017  -0.015843  -0.022565
    15  O    0.590308  -0.011123   7.967580   0.278171  -0.138185  -0.011683
    16  C   -0.790585  -0.029017   0.278171  13.303086  -1.313480  -0.948471
    17  C   -1.333941  -0.015843  -0.138185  -1.313480  13.014822  -3.910981
    18  C   -0.458106  -0.022565  -0.011683  -0.948471  -3.910981  10.001534
    19  O    0.040625  -0.003450   0.001051   0.096787   0.235121   0.051919
    20  C   -0.486897   0.015272  -0.022188  -2.933411   0.012978   1.001458
    21  C   -0.250904  -0.028761  -0.006432  -0.779662  -0.325830   0.922539
    22  H   -0.000560   0.000174  -0.003272  -0.017373   0.056210   0.362987
    23  H   -0.060759   0.003009  -0.006076  -0.150442   0.015328   0.035971
    24  H   -0.014220  -0.000196  -0.000029  -0.086292  -0.098583   0.028479
    25  C    0.033191   0.000260  -0.001482   0.235180  -0.016381  -0.956935
    26  H   -0.001436  -0.000417   0.000049   0.013042  -0.001427  -0.053882
    27  H    0.004759   0.000004   0.000021   0.078802   0.024284  -0.039508
              19         20         21         22         23         24
     1  C    0.003389   0.006675   0.002366   0.000517   0.000401   0.000231
     2  H    0.000329   0.000235   0.000349   0.000119  -0.000075   0.000023
     3  H    0.000007  -0.000758   0.000234  -0.000488   0.000312  -0.000023
     4  C   -0.000315   0.000658  -0.000102   0.000047   0.000609   0.000013
     5  H    0.000006   0.000076  -0.000235  -0.000010   0.000102  -0.000001
     6  N   -0.000495   0.002823  -0.000382  -0.000108   0.000717   0.000042
     7  H   -0.001128   0.000105   0.000708   0.000140  -0.000914   0.000008
     8  H   -0.000100  -0.000081   0.000299   0.000020  -0.000008   0.000000
     9  H   -0.000041  -0.000098   0.000109  -0.000013  -0.000051  -0.000002
    10  C   -0.012789  -0.035147   0.093664  -0.012828   0.004213  -0.000008
    11  H    0.002407  -0.003052  -0.001649   0.000910  -0.000339   0.000037
    12  C    0.020012   0.217898   0.134170  -0.000952   0.014667   0.003871
    13  C    0.040625  -0.486897  -0.250904  -0.000560  -0.060759  -0.014220
    14  H   -0.003450   0.015272  -0.028761   0.000174   0.003009  -0.000196
    15  O    0.001051  -0.022188  -0.006432  -0.003272  -0.006076  -0.000029
    16  C    0.096787  -2.933411  -0.779662  -0.017373  -0.150442  -0.086292
    17  C    0.235121   0.012978  -0.325830   0.056210   0.015328  -0.098583
    18  C    0.051919   1.001458   0.922539   0.362987   0.035971   0.028479
    19  O    7.925330  -0.420255   0.024055  -0.001931   0.274208  -0.025953
    20  C   -0.420255   8.568245  -0.352250   0.041147   0.129509   0.549719
    21  C    0.024055  -0.352250   6.313853  -0.115474  -0.002210  -0.004071
    22  H   -0.001931   0.041147  -0.115474   0.493115  -0.000380   0.001719
    23  H    0.274208   0.129509  -0.002210  -0.000380   0.407115   0.001840
    24  H   -0.025953   0.549719  -0.004071   0.001719   0.001840   0.476531
    25  C    0.003270   0.133484   0.434864  -0.007835  -0.005489  -0.051960
    26  H    0.000477   0.000360   0.406350  -0.011028   0.000303  -0.000251
    27  H    0.000176  -0.139415  -0.047619  -0.000900  -0.000408  -0.012347
              25         26         27
     1  C   -0.002612   0.000006  -0.000083
     2  H   -0.000203   0.000003  -0.000005
     3  H    0.000421   0.000010   0.000010
     4  C    0.000300   0.000020   0.000007
     5  H   -0.000004  -0.000001   0.000000
     6  N   -0.000158   0.000009  -0.000011
     7  H   -0.000168   0.000022   0.000000
     8  H    0.000046   0.000002   0.000001
     9  H    0.000010   0.000000   0.000000
    10  C    0.015971   0.001915   0.001189
    11  H   -0.001312  -0.000048  -0.000006
    12  C   -0.065683   0.000399  -0.005442
    13  C    0.033191  -0.001436   0.004759
    14  H    0.000260  -0.000417   0.000004
    15  O   -0.001482   0.000049   0.000021
    16  C    0.235180   0.013042   0.078802
    17  C   -0.016381  -0.001427   0.024284
    18  C   -0.956935  -0.053882  -0.039508
    19  O    0.003270   0.000477   0.000176
    20  C    0.133484   0.000360  -0.139415
    21  C    0.434864   0.406350  -0.047619
    22  H   -0.007835  -0.011028  -0.000900
    23  H   -0.005489   0.000303  -0.000408
    24  H   -0.051960  -0.000251  -0.012347
    25  C    6.144237  -0.029805   0.452513
    26  H   -0.029805   0.478129  -0.006905
    27  H    0.452513  -0.006905   0.492400
 Mulliken charges:
               1
     1  C   -0.445580
     2  H    0.181336
     3  H    0.195149
     4  C   -0.338950
     5  H    0.186384
     6  N    0.129475
     7  H    0.187404
     8  H    0.143351
     9  H    0.174029
    10  C   -0.089210
    11  H    0.221951
    12  C   -0.465262
    13  C   -0.350111
    14  H    0.186301
    15  O   -0.274728
    16  C    1.158943
    17  C   -0.551322
    18  C   -0.206563
    19  O   -0.212709
    20  C   -0.287089
    21  C   -0.417978
    22  H    0.216043
    23  H    0.338849
    24  H    0.231423
    25  C   -0.313719
    26  H    0.204106
    27  H    0.198481
 Sum of Mulliken charges =   0.00000
 Mulliken charges with hydrogens summed into heavy atoms:
               1
     1  C    0.118308
     4  C    0.164813
     6  N    0.129475
    10  C    0.132740
    12  C   -0.278961
    13  C   -0.350111
    15  O   -0.274728
    16  C    1.158943
    17  C   -0.551322
    18  C    0.009480
    19  O    0.126139
    20  C   -0.055667
    21  C   -0.213873
    25  C   -0.115237
 Electronic spatial extent (au):  <R**2>=           3837.5664
 Charge=              0.0000 electrons
 Dipole moment (field-independent basis, Debye):
    X=              5.7812    Y=             -1.7201    Z=             -2.9588  Tot=              6.7183
 Quadrupole moment (field-independent basis, Debye-Ang):
   XX=            -57.5050   YY=            -83.4637   ZZ=            -89.6116
   XY=              2.6190   XZ=             -0.1745   YZ=             -0.9539
 Traceless Quadrupole moment (field-independent basis, Debye-Ang):
   XX=             19.3551   YY=             -6.6036   ZZ=            -12.7515
   XY=              2.6190   XZ=             -0.1745   YZ=             -0.9539
 Octapole moment (field-independent basis, Debye-Ang**2):
  XXX=             98.7893  YYY=             -2.9800  ZZZ=            -17.1275  XYY=              5.7370
  XXY=             -8.0598  XXZ=            -14.9364  XZZ=             23.9789  YZZ=             -1.3254
  YYZ=              5.7261  XYZ=              6.2632
 Hexadecapole moment (field-independent basis, Debye-Ang**3):
 XXXX=          -3532.0262 YYYY=           -543.9310 ZZZZ=           -510.9553 XXXY=              2.1898
 XXXZ=             59.7379 YYYX=             22.5236 YYYZ=             -1.3493 ZZZX=            -13.9512
 ZZZY=             -6.6600 XXYY=           -770.4354 XXZZ=           -747.1153 YYZZ=           -175.1747
 XXYZ=              2.1653 YYXZ=             -8.6166 ZZXY=            -13.2627
 N-N= 8.366795869674D+02 E-N=-3.147105061271D+03  KE= 6.295862674354D+02
 Calling FoFJK, ICntrl=  10005127 FMM=F ISym2X=0 I1Cent= 0 IOpClX= 0 NMat=1 NMatS=1 NMatT=0.
 ***** Axes restored to original set *****
 -------------------------------------------------------------------
 Center     Atomic                   Forces (Hartrees/Bohr)
 Number     Number              X              Y              Z
 -------------------------------------------------------------------
      1        6           0.000628578   -0.002192823   -0.005772776
      2        1          -0.000000120    0.000173372    0.000427787
      3        1          -0.000910603    0.001132636    0.000904021
      4        6          -0.004441211    0.000039651    0.002733519
      5        1           0.000730025    0.001009734   -0.001200527
      6        7           0.020458450    0.010672378    0.010746679
      7        1          -0.000421784   -0.000351836    0.001213486
      8        1           0.000063241   -0.000179265   -0.000164997
      9        1           0.000828784    0.000025123   -0.000011210
     10        6          -0.001820624   -0.007242993   -0.017334232
     11        1           0.003435650    0.002104241    0.001198737
     12        6          -0.015702175   -0.013494544   -0.013662807
     13        6           0.008953782    0.044595689    0.086002754
     14        1          -0.007937288   -0.003128698    0.001718024
     15        8           0.004007092   -0.026637297   -0.061327390
     16        6          -0.016388716   -0.010488613    0.003949437
     17        6          -0.014879971    0.008676320   -0.005615148
     18        6           0.004167184    0.000754284   -0.006071281
     19        8           0.024841809    0.004974819   -0.011113333
     20        6           0.004830260   -0.000537801    0.001560885
     21        6          -0.001255194   -0.003587463    0.004474023
     22        1           0.003645099    0.000296313   -0.001969272
     23        1          -0.011395069   -0.009063363    0.010552132
     24        1          -0.000402186   -0.000062568    0.000224757
     25        6          -0.001590435    0.002443532   -0.001499617
     26        1           0.000418482    0.000423195    0.000274442
     27        1           0.000136941   -0.000354021   -0.000238094
 -------------------------------------------------------------------
 Cartesian Forces:  Max     0.086002754 RMS     0.014780152

 GradGradGradGradGradGradGradGradGradGradGradGradGradGradGradGradGradGrad
 Berny optimization.
 FormGI is forming the generalized inverse of G from B-inverse, IUseBI=4.
 Internal  Forces:  Max     0.066089329 RMS     0.007810276
 Search for a local minimum.
 Step number   1 out of a maximum of  134
 All quantities printed in internal units (Hartrees-Bohrs-Radians)
 Mixed Optimization -- RFO/linear search
 Second derivative matrix not updated -- first step.
 ITU=  0
     Eigenvalues ---    0.00947   0.01033   0.01057   0.01187   0.01420
     Eigenvalues ---    0.01445   0.01654   0.01965   0.02017   0.02086
     Eigenvalues ---    0.02167   0.02169   0.02211   0.02238   0.02255
     Eigenvalues ---    0.02295   0.02448   0.02529   0.02572   0.02608
     Eigenvalues ---    0.07401   0.07416   0.07589   0.07635   0.15999
     Eigenvalues ---    0.16000   0.16000   0.16000   0.16000   0.16000
     Eigenvalues ---    0.16000   0.16000   0.16000   0.16000   0.16000
     Eigenvalues ---    0.16000   0.16000   0.22000   0.22000   0.22000
     Eigenvalues ---    0.22480   0.24471   0.24709   0.24813   0.25000
     Eigenvalues ---    0.25000   0.25000   0.25000   0.33854   0.34060
     Eigenvalues ---    0.34124   0.34348   0.34392   0.34839   0.34840
     Eigenvalues ---    0.35249   0.35436   0.35580   0.35606   0.35695
     Eigenvalues ---    0.36128   0.38168   0.38269   0.38508   0.40887
     Eigenvalues ---    0.42128   0.44525   0.45626   0.47847   0.48789
     Eigenvalues ---    0.50064   0.52796   0.56581   0.58702   0.85398
 RFO step:  Lambda=-1.48555131D-02 EMin= 9.46683084D-03
 Linear search not attempted -- first point.
 Iteration  1 RMS(Cart)=  0.06508239 RMS(Int)=  0.00121241
 Iteration  2 RMS(Cart)=  0.00253355 RMS(Int)=  0.00013282
 Iteration  3 RMS(Cart)=  0.00000278 RMS(Int)=  0.00013281
 Iteration  4 RMS(Cart)=  0.00000000 RMS(Int)=  0.00013281
 Variable       Old X    -DE/DX   Delta X   Delta X   Delta X     New X
                                 (Linear)    (Quad)   (Total)
    R1        2.05937   0.00018   0.00000   0.00050   0.00050   2.05987
    R2        2.07229   0.00146   0.00000   0.00410   0.00410   2.07639
    R3        2.73633  -0.00338   0.00000  -0.00845  -0.00845   2.72788
    R4        2.06747   0.00117   0.00000   0.00327   0.00327   2.07073
    R5        2.07121   0.00125   0.00000   0.00352   0.00352   2.07473
    R6        2.73975  -0.00278   0.00000  -0.00699  -0.00699   2.73276
    R7        2.05935   0.00023   0.00000   0.00064   0.00064   2.05999
    R8        2.06674   0.00069   0.00000   0.00192   0.00192   2.06867
    R9        2.53753   0.02170   0.00000   0.03737   0.03737   2.57490
   R10        2.05273  -0.00135   0.00000  -0.00368  -0.00368   2.04905
   R11        2.57145   0.02047   0.00000   0.03772   0.03772   2.60916
   R12        2.74121  -0.01937   0.00000  -0.04884  -0.04884   2.69238
   R13        2.03881   0.00219   0.00000   0.00583   0.00583   2.04465
   R14        2.35129   0.06609   0.00000   0.07607   0.07607   2.42736
   R15        2.80877   0.00618   0.00000   0.01749   0.01749   2.82626
   R16        2.67522  -0.00828   0.00000  -0.01945  -0.01943   2.65579
   R17        2.65273  -0.00630   0.00000  -0.01400  -0.01400   2.63872
   R18        2.51982   0.01266   0.00000   0.02103   0.02103   2.54086
   R19        2.64716  -0.00279   0.00000  -0.00630  -0.00628   2.64088
   R20        2.60837   0.00324   0.00000   0.00676   0.00673   2.61511
   R21        2.04561   0.00158   0.00000   0.00425   0.00425   2.04986
   R22        1.86500  -0.01750   0.00000  -0.03394  -0.03394   1.83106
   R23        2.04743   0.00020   0.00000   0.00054   0.00054   2.04797
   R24        2.60570   0.00250   0.00000   0.00535   0.00535   2.61106
   R25        2.64025  -0.00030   0.00000   0.00019   0.00017   2.64042
   R26        2.04702  -0.00011   0.00000  -0.00030  -0.00030   2.04671
   R27        2.04973  -0.00014   0.00000  -0.00037  -0.00037   2.04936
    A1        1.89778  -0.00064   0.00000  -0.00344  -0.00345   1.89433
    A2        1.90734   0.00029   0.00000   0.00161   0.00160   1.90895
    A3        1.89247  -0.00050   0.00000  -0.00311  -0.00312   1.88936
    A4        1.94383   0.00107   0.00000   0.00628   0.00627   1.95009
    A5        1.89422  -0.00086   0.00000  -0.00490  -0.00491   1.88931
    A6        1.92725   0.00058   0.00000   0.00320   0.00319   1.93044
    A7        1.94330   0.00160   0.00000   0.00980   0.00978   1.95309
    A8        1.89324  -0.00069   0.00000  -0.00448  -0.00447   1.88877
    A9        1.89507  -0.00067   0.00000  -0.00203  -0.00207   1.89301
   A10        1.91301  -0.00047   0.00000  -0.00361  -0.00361   1.90940
   A11        1.92686   0.00045   0.00000   0.00287   0.00285   1.92970
   A12        1.89127  -0.00029   0.00000  -0.00297  -0.00297   1.88830
   A13        2.05809   0.00067   0.00000   0.00194   0.00189   2.05998
   A14        2.09865  -0.00101   0.00000  -0.00455  -0.00458   2.09407
   A15        2.11639   0.00027   0.00000   0.00032   0.00028   2.11666
   A16        2.01826  -0.00219   0.00000  -0.01532  -0.01532   2.00295
   A17        2.21640  -0.00379   0.00000  -0.01613  -0.01613   2.20026
   A18        2.04850   0.00598   0.00000   0.03144   0.03144   2.07994
   A19        2.06361   0.01583   0.00000   0.06742   0.06741   2.13102
   A20        2.11463   0.00067   0.00000   0.01541   0.01540   2.13003
   A21        2.10489  -0.01649   0.00000  -0.08274  -0.08276   2.02213
   A22        2.10544   0.00808   0.00000   0.03046   0.03038   2.13582
   A23        2.09966   0.00928   0.00000   0.03502   0.03495   2.13461
   A24        2.07807  -0.01736   0.00000  -0.06558  -0.06565   2.01242
   A25        2.08125  -0.00186   0.00000  -0.00603  -0.00603   2.07522
   A26        2.14390  -0.00400   0.00000  -0.01411  -0.01411   2.12979
   A27        2.05803   0.00585   0.00000   0.02015   0.02009   2.07812
   A28        2.14230  -0.00425   0.00000  -0.01516  -0.01529   2.12701
   A29        2.09225   0.00054   0.00000   0.00026   0.00011   2.09236
   A30        2.04863   0.00371   0.00000   0.01491   0.01475   2.06338
   A31        2.12919  -0.00406   0.00000  -0.01698  -0.01709   2.11210
   A32        2.08898  -0.00186   0.00000  -0.01373  -0.01374   2.07524
   A33        2.06501   0.00591   0.00000   0.03071   0.03069   2.09570
   A34        1.85525   0.00736   0.00000   0.04210   0.04210   1.89735
   A35        2.05702   0.00153   0.00000   0.00680   0.00681   2.06383
   A36        2.10303  -0.00220   0.00000  -0.00875  -0.00877   2.09426
   A37        2.12314   0.00068   0.00000   0.00195   0.00196   2.12510
   A38        2.08060  -0.00006   0.00000   0.00266   0.00257   2.08317
   A39        2.09982  -0.00032   0.00000  -0.00332  -0.00328   2.09653
   A40        2.10276   0.00038   0.00000   0.00067   0.00071   2.10347
   A41        2.10326  -0.00008   0.00000   0.00270   0.00263   2.10589
   A42        2.08676  -0.00022   0.00000  -0.00284  -0.00280   2.08395
   A43        2.09317   0.00030   0.00000   0.00013   0.00017   2.09334
    D1       -0.23535  -0.00032   0.00000  -0.01072  -0.01072  -0.24607
    D2        3.05628   0.00014   0.00000   0.00614   0.00613   3.06241
    D3        1.86173  -0.00026   0.00000  -0.00999  -0.00998   1.85174
    D4       -1.12983   0.00020   0.00000   0.00687   0.00686  -1.12297
    D5       -2.31559  -0.00024   0.00000  -0.00985  -0.00983  -2.32543
    D6        0.97604   0.00022   0.00000   0.00702   0.00701   0.98305
    D7       -1.11509  -0.00010   0.00000  -0.00043  -0.00043  -1.11552
    D8        1.87486  -0.00068   0.00000  -0.01791  -0.01794   1.85692
    D9        3.07328   0.00005   0.00000   0.00130   0.00132   3.07460
   D10       -0.21995  -0.00053   0.00000  -0.01618  -0.01619  -0.23615
   D11        0.99124   0.00042   0.00000   0.00545   0.00548   0.99672
   D12       -2.30200  -0.00016   0.00000  -0.01203  -0.01203  -2.31403
   D13        3.11800   0.00011   0.00000  -0.00003  -0.00002   3.11798
   D14       -0.03175   0.00008   0.00000  -0.00095  -0.00092  -0.03267
   D15        0.13154   0.00056   0.00000   0.01729   0.01726   0.14880
   D16       -3.01821   0.00053   0.00000   0.01637   0.01636  -3.00185
   D17       -3.12117   0.00046   0.00000   0.01217   0.01230  -3.10888
   D18        0.03168   0.00023   0.00000   0.00442   0.00431   0.03599
   D19        0.01214   0.00040   0.00000   0.01104   0.01115   0.02330
   D20       -3.11819   0.00017   0.00000   0.00329   0.00317  -3.11503
   D21        0.01311  -0.00031   0.00000  -0.00923  -0.00939   0.00371
   D22       -3.12377   0.00035   0.00000   0.01427   0.01468  -3.10909
   D23       -3.13968   0.00004   0.00000  -0.00087  -0.00128  -3.14096
   D24        0.00663   0.00070   0.00000   0.02263   0.02279   0.02943
   D25       -1.57544   0.00048   0.00000   0.02209   0.02239  -1.55304
   D26        1.56518   0.00086   0.00000   0.03406   0.03438   1.59956
   D27        1.57080   0.00106   0.00000   0.04497   0.04465   1.61545
   D28       -1.57177   0.00144   0.00000   0.05694   0.05664  -1.51514
   D29        0.00038   0.00044   0.00000   0.01273   0.01251   0.01288
   D30       -3.14086  -0.00072   0.00000  -0.01999  -0.01991   3.12241
   D31       -3.14029   0.00008   0.00000   0.00136   0.00090  -3.13939
   D32        0.00166  -0.00108   0.00000  -0.03136  -0.03152  -0.02986
   D33        3.14143   0.00086   0.00000   0.02328   0.02302  -3.11874
   D34       -0.00066   0.00020   0.00000   0.00496   0.00510   0.00444
   D35       -0.00113   0.00124   0.00000   0.03509   0.03501   0.03388
   D36        3.13997   0.00057   0.00000   0.01677   0.01709  -3.12613
   D37        0.00352   0.00050   0.00000   0.01030   0.01032   0.01384
   D38       -3.13842   0.00164   0.00000   0.04224   0.04222  -3.09620
   D39        3.14113   0.00051   0.00000   0.01453   0.01449  -3.12756
   D40       -0.00121   0.00056   0.00000   0.01607   0.01588   0.01466
   D41       -0.00013  -0.00059   0.00000  -0.01646  -0.01674  -0.01687
   D42        3.14072  -0.00055   0.00000  -0.01491  -0.01536   3.12535
   D43        0.00011  -0.00082   0.00000  -0.02250  -0.02230  -0.02219
   D44        3.14133  -0.00070   0.00000  -0.01912  -0.01897   3.12235
   D45       -3.14099  -0.00016   0.00000  -0.00441  -0.00416   3.13804
   D46        0.00022  -0.00004   0.00000  -0.00103  -0.00083  -0.00061
   D47        0.00017  -0.00011   0.00000  -0.00285  -0.00294  -0.00277
   D48        3.14158  -0.00014   0.00000  -0.00395  -0.00382   3.13776
   D49        3.14098  -0.00006   0.00000  -0.00124  -0.00150   3.13948
   D50       -0.00079  -0.00009   0.00000  -0.00234  -0.00239  -0.00318
   D51        0.00038   0.00023   0.00000   0.00574   0.00598   0.00636
   D52       -3.14103   0.00025   0.00000   0.00685   0.00687  -3.13416
   D53       -3.14083   0.00011   0.00000   0.00236   0.00264  -3.13819
   D54        0.00095   0.00013   0.00000   0.00346   0.00353   0.00447
         Item               Value     Threshold  Converged?
 Maximum Force            0.066089     0.000450     NO 
 RMS     Force            0.007810     0.000300     NO 
 Maximum Displacement     0.202545     0.001800     NO 
 RMS     Displacement     0.065730     0.001200     NO 
 Predicted change in Energy=-7.839141D-03
 GradGradGradGradGradGradGradGradGradGradGradGradGradGradGradGradGradGrad

                          Input orientation:                          
 ---------------------------------------------------------------------
 Center     Atomic      Atomic             Coordinates (Angstroms)
 Number     Number       Type             X           Y           Z
 ---------------------------------------------------------------------
      1          6           0       -0.027039    0.196471    8.604361
      2          1           0        0.906170    0.661014    8.922960
      3          1           0       -0.825022    0.950602    8.646998
      4          6           0        1.287488    0.081584    6.507763
      5          1           0        1.268754    1.158357    6.294227
      6          7           0        0.133747   -0.336864    7.272637
      7          1           0       -0.271972   -0.602740    9.312892
      8          1           0        1.306170   -0.453857    5.558412
      9          1           0        2.211218   -0.148620    7.048204
     10          6           0       -0.876017   -1.048471    6.697642
     11          1           0       -0.673891   -1.389320    5.688338
     12          6           0       -2.085016   -1.364017    7.285101
     13          6           0       -3.068996   -2.149066    6.617731
     14          1           0       -2.344898   -1.027640    8.280085
     15          8           0       -2.890988   -2.613666    5.433500
     16          6           0       -4.396174   -2.459500    7.233379
     17          6           0       -4.521705   -3.607850    8.033774
     18          6           0       -5.515701   -1.650977    7.026622
     19          8           0       -3.480391   -4.424387    8.272067
     20          6           0       -5.746358   -3.905093    8.637816
     21          6           0       -6.727167   -1.943126    7.628330
     22          1           0       -5.419355   -0.773246    6.396571
     23          1           0       -2.698313   -4.069848    7.823146
     24          1           0       -5.809912   -4.790005    9.260214
     25          6           0       -6.835604   -3.079915    8.433476
     26          1           0       -7.581613   -1.296135    7.472221
     27          1           0       -7.782324   -3.321608    8.903999
 ---------------------------------------------------------------------
                    Distance matrix (angstroms):
                    1          2          3          4          5
     1  C    0.000000
     2  H    1.090039   0.000000
     3  H    1.098776   1.776806   0.000000
     4  C    2.477277   2.512831   3.129572   0.000000
     5  H    2.817982   2.699825   3.156357   1.097902   0.000000
     6  N    1.443533   2.077490   2.113214   1.446115   2.116887
     7  H    1.095786   1.771197   1.778244   3.281610   3.819376
     8  H    3.387946   3.566949   4.006726   1.090098   1.772585
     9  H    2.747819   2.423504   3.603219   1.094691   1.779020
    10  C    2.430272   3.324240   2.792648   2.448230   3.103687
    11  H    3.381766   4.142854   3.775149   2.584961   3.260618
    12  C    2.900145   3.966173   2.966448   3.750707   4.311841
    13  C    4.324551   5.386332   4.331430   4.895594   5.464410
    14  H    2.641226   3.719447   2.521526   4.191149   4.666979
    15  O    5.114043   6.108868   5.224826   5.087050   5.680886
    16  C    5.293686   6.380215   5.136170   6.267985   6.786921
    17  C    5.916118   6.962448   5.900932   7.048926   7.698842
    18  C    6.002311   7.083913   5.603241   7.039486   7.379538
    19  O    5.778269   6.747361   6.006835   6.793321   7.591657
    20  C    7.038079   8.073832   6.913567   8.360963   8.963410
    21  C    7.100861   8.168564   6.651817   8.342051   8.679503
    22  H    5.906924   6.960747   5.398516   6.762014   6.962209
    23  H    5.093866   6.048383   5.421519   5.903493   6.738645
    24  H    7.663988   8.656391   7.627565   9.037780   9.710181
    25  C    7.557809   8.612155   7.240012   8.926818   9.392548
    26  H    7.783393   8.830489   7.216610   9.027140   9.259654
    27  H    8.521215   9.557801   8.168347   9.979236  10.430868
                    6          7          8          9         10
     6  N    0.000000
     7  H    2.097126   0.000000
     8  H    2.080104   4.075392   0.000000
     9  H    2.098021   3.391352   1.769678   0.000000
    10  C    1.362581   2.720860   2.532460   3.234756   0.000000
    11  H    2.066385   3.730636   2.193767   3.422342   1.084310
    12  C    2.445017   2.824644   3.912799   4.471123   1.380709
    13  C    3.737718   4.180713   4.810194   5.662839   2.454964
    14  H    2.763296   2.354625   4.589884   4.800875   2.159206
    15  O    4.208952   5.094385   4.721919   5.892048   2.847455
    16  C    5.002730   4.978050   6.272547   7.002291   3.830081
    17  C    5.740375   5.359764   7.073841   7.633471   4.650453
    18  C    5.805487   5.815714   7.080019   7.871647   4.690193
    19  O    5.546954   5.097280   6.785293   7.223187   4.545150
    20  C    7.012246   6.428854   8.433973   8.942089   5.970325
    21  C    7.055404   6.804699   8.428344   9.135180   5.991873
    22  H    5.638693   5.918577   6.785072   7.683777   4.561613
    23  H    4.717922   4.486347   5.851521   6.330881   3.703544
    24  H    7.688174   6.942965   9.118342   9.527538   6.701431
    25  C    7.579164   7.070435   9.025002   9.610227   6.531199
    26  H    7.777327   7.569658   9.130432   9.868948   6.754727
    27  H    8.615928   7.997802  10.100380  10.648132   7.598173
                   11         12         13         14         15
    11  H    0.000000
    12  C    2.131095   0.000000
    13  C    2.679088   1.424746   0.000000
    14  H    3.104872   1.081980   2.131979   0.000000
    15  O    2.545483   2.374793   1.284501   3.304049   0.000000
    16  C    4.169871   2.558165   1.495592   2.711743   2.351365
    17  C    5.022810   3.395990   2.498719   3.384766   3.226309
    18  C    5.030168   3.452355   2.530149   3.466079   3.217752
    19  O    4.874806   3.505287   2.843090   3.581522   3.418124
    20  C    6.384234   4.657502   3.785848   4.469635   4.482026
    21  C    6.380628   4.690707   3.800781   4.524066   4.470254
    22  H    4.837413   3.500901   2.732394   3.614501   3.272200
    23  H    3.980065   2.826153   2.297789   3.096566   2.804995
    24  H    7.120511   5.432616   4.633563   5.207914   5.282075
    25  C    6.954179   5.179880   4.283778   4.939818   4.977674
    26  H    7.134953   5.500200   4.671334   5.305461   5.281500
    27  H    8.037663   6.237973   5.368179   5.934404   6.039099
                   16         17         18         19         20
    16  C    0.000000
    17  C    1.405382   0.000000
    18  C    1.396352   2.414899   0.000000
    19  O    2.403812   1.344564   3.658610   0.000000
    20  C    2.425938   1.397495   2.780321   2.353305   0.000000
    21  C    2.419949   2.792804   1.383854   4.136739   2.414614
    22  H    2.142568   3.394287   1.084738   4.539592   3.865045
    23  H    2.413250   1.892766   3.797771   0.968955   3.159337
    24  H    3.396759   2.135679   3.863806   2.556713   1.083738
[...]
 Alpha  occ. eigenvalues --   -0.47975  -0.46727  -0.46013  -0.44553  -0.42927
 Alpha  occ. eigenvalues --   -0.41755  -0.40514  -0.33556  -0.31315  -0.30429
 Alpha  occ. eigenvalues --   -0.30019
 Alpha virt. eigenvalues --   -0.00761   0.02895   0.04576   0.04927   0.05588
 Alpha virt. eigenvalues --    0.05806   0.05932   0.06337   0.07098   0.07543
 Alpha virt. eigenvalues --    0.07894   0.07976   0.08410   0.09547   0.10230
 Alpha virt. eigenvalues --    0.10570   0.12207   0.12596   0.13015   0.13071
 Alpha virt. eigenvalues --    0.13851   0.14402   0.15093   0.15172   0.16089
 Alpha virt. eigenvalues --    0.16258   0.16415   0.16523   0.16655   0.17481
 Alpha virt. eigenvalues --    0.17680   0.17919   0.18352   0.18539   0.19019
 Alpha virt. eigenvalues --    0.19164   0.19858   0.20239   0.20552   0.21054
 Alpha virt. eigenvalues --    0.21448   0.21787   0.22305   0.22535   0.22656
 Alpha virt. eigenvalues --    0.23250   0.23407   0.23682   0.24185   0.25141
 Alpha virt. eigenvalues --    0.25702   0.25836   0.26235   0.27318   0.28109
 Alpha virt. eigenvalues --    0.28133   0.28547   0.29073   0.29721   0.29867
 Alpha virt. eigenvalues --    0.30558   0.30780   0.31024   0.31936   0.32227
 Alpha virt. eigenvalues --    0.32872   0.33292   0.33559   0.34156   0.34407
 Alpha virt. eigenvalues --    0.34642   0.35351   0.36289   0.36773   0.37182
 Alpha virt. eigenvalues --    0.37432   0.37941   0.38099   0.38121   0.39347
 Alpha virt. eigenvalues --    0.39877   0.40047   0.40259   0.40836   0.41821
 Alpha virt. eigenvalues --    0.42427   0.42698   0.45244   0.45844   0.46415
 Alpha virt. eigenvalues --    0.46831   0.47576   0.48623   0.49654   0.50786
 Alpha virt. eigenvalues --    0.51382   0.52877   0.56164   0.56491   0.58716
 Alpha virt. eigenvalues --    0.59900   0.61159   0.62586   0.63489   0.64375
 Alpha virt. eigenvalues --    0.64811   0.65265   0.65491   0.66285   0.67210
 Alpha virt. eigenvalues --    0.67920   0.68005   0.69226   0.69694   0.70224
 Alpha virt. eigenvalues --    0.70839   0.71648   0.72451   0.73088   0.73521
 Alpha virt. eigenvalues --    0.74721   0.75122   0.76162   0.76697   0.77950
 Alpha virt. eigenvalues --    0.78434   0.79580   0.80736   0.81237   0.81627
 Alpha virt. eigenvalues --    0.82278   0.83338   0.84037   0.84978   0.86009
 Alpha virt. eigenvalues --    0.87363   0.88920   0.90175   0.91595   0.92290
 Alpha virt. eigenvalues --    0.93073   0.94520   0.95660   0.96449   0.97841
 Alpha virt. eigenvalues --    0.97951   0.98260   0.99431   1.00357   1.00489
 Alpha virt. eigenvalues --    1.01690   1.04137   1.05657   1.09370   1.10689
 Alpha virt. eigenvalues --    1.10961   1.12256   1.14331   1.14890   1.15901
 Alpha virt. eigenvalues --    1.16667   1.18894   1.20025   1.20722   1.21843
 Alpha virt. eigenvalues --    1.23340   1.26770   1.28393   1.30780   1.32921
 Alpha virt. eigenvalues --    1.34654   1.35158   1.36599   1.38754   1.39492
 Alpha virt. eigenvalues --    1.40712   1.43107   1.48233   1.49818   1.52370
 Alpha virt. eigenvalues --    1.53327   1.55398   1.57016   1.58153   1.58654
 Alpha virt. eigenvalues --    1.60757   1.61840   1.61914   1.62295   1.63801
 Alpha virt. eigenvalues --    1.64298   1.64893   1.66060   1.66625   1.68095
 Alpha virt. eigenvalues --    1.68529   1.71842   1.72739   1.72996   1.74637
 Alpha virt. eigenvalues --    1.75179   1.75600   1.77549   1.78975   1.81193
 Alpha virt. eigenvalues --    1.81740   1.82577   1.83541   1.84166   1.86079
 Alpha virt. eigenvalues --    1.87699   1.88060   1.90035   1.91396   1.92185
 Alpha virt. eigenvalues --    1.94007   1.98942   1.99818   2.02034   2.02288
 Alpha virt. eigenvalues --    2.03263   2.04402   2.05773   2.06131   2.07029
 Alpha virt. eigenvalues --    2.08434   2.09483   2.11783   2.13011   2.14166
 Alpha virt. eigenvalues --    2.16119   2.17428   2.18774   2.20928   2.21574
 Alpha virt. eigenvalues --    2.23024   2.24849   2.28991   2.30239   2.35253
 Alpha virt. eigenvalues --    2.36911   2.38210   2.43086   2.43733   2.45756
 Alpha virt. eigenvalues --    2.49877   2.50719   2.51066   2.54076   2.56146
 Alpha virt. eigenvalues --    2.57635   2.58049   2.59717   2.61553   2.63447
 Alpha virt. eigenvalues --    2.66473   2.67919   2.70665   2.70907   2.73016
 Alpha virt. eigenvalues --    2.75234   2.76972   2.78303   2.79291   2.80434
 Alpha virt. eigenvalues --    2.81295   2.82196   2.83176   2.83912   2.86415
 Alpha virt. eigenvalues --    2.87913   2.88341   2.88589   2.91251   2.92328
 Alpha virt. eigenvalues --    2.93382   2.94344   2.95946   2.97054   2.98971
 Alpha virt. eigenvalues --    3.01049   3.02859   3.03845   3.05299   3.07637
 Alpha virt. eigenvalues --    3.10593   3.11986   3.14341   3.20356   3.21403
 Alpha virt. eigenvalues --    3.23171   3.26151   3.29430   3.30237   3.33176
 Alpha virt. eigenvalues --    3.36004   3.39309   3.45675   3.49820   3.52688
 Alpha virt. eigenvalues --    3.58616   3.60803   3.64451   3.65008   3.66706
 Alpha virt. eigenvalues --    3.67682   3.69889   3.78564   3.79009   3.83819
 Alpha virt. eigenvalues --    3.86363   3.90188   3.91604   3.92985   4.01202
 Alpha virt. eigenvalues --    4.09846   4.14231   4.15529   4.17073   4.27536
 Alpha virt. eigenvalues --    4.28600   4.37195   4.57206   4.94895   4.97811
 Alpha virt. eigenvalues --    5.12528   5.15190   5.22854   5.37163   5.56432
 Alpha virt. eigenvalues --    5.84124   5.89838  23.71724  23.90978  24.03275
 Alpha virt. eigenvalues --   24.06008  24.06356  24.06497  24.10632  24.18553
 Alpha virt. eigenvalues --   24.24465  24.25797  24.33616  35.66812  50.09171
 Alpha virt. eigenvalues --   50.14771
          Condensed to atoms (all electrons):
               1          2          3          4          5          6
     1  C    5.335733   0.386317   0.403184  -0.135622   0.006537   0.276188
     2  H    0.386317   0.519764  -0.032609   0.011590  -0.007753  -0.047308
     3  H    0.403184  -0.032609   0.530213  -0.017452   0.008684  -0.067093
     4  C   -0.135622   0.011590  -0.017452   5.279353   0.402249   0.274272
     5  H    0.006537  -0.007753   0.008684   0.402249   0.553638  -0.036125
     6  N    0.276188  -0.047308  -0.067093   0.274272  -0.036125   6.760193
     7  H    0.402262  -0.022475  -0.044732   0.009423   0.000893  -0.029006
     8  H    0.005010   0.003433   0.000021   0.399393  -0.034789  -0.069190
     9  H   -0.022387   0.005119   0.000681   0.411819  -0.058753  -0.052147
    10  C   -0.298343  -0.005312   0.062235  -0.172787  -0.051263   0.139915
    11  H    0.001819  -0.001788  -0.002130  -0.020732   0.004452  -0.062836
    12  C    0.479171   0.023695  -0.070021  -0.125408   0.021501  -0.192079
    13  C   -0.287282  -0.012328   0.039661  -0.009150   0.003196  -0.002247
    14  H    0.037757   0.003925  -0.020894  -0.012032   0.000176  -0.029793
    15  O    0.000937   0.000287  -0.000589   0.004911  -0.000148   0.009086
    16  C   -0.157452  -0.000642   0.018567   0.047944  -0.001903  -0.024578
    17  C   -0.044153  -0.005290   0.005064  -0.001156   0.000754   0.015480
    18  C    0.020461   0.001934  -0.002274   0.005967  -0.000213  -0.000688
    19  O   -0.007970  -0.000680   0.001891  -0.001414   0.000032  -0.004400
    20  C    0.006417  -0.000237  -0.003176   0.002708   0.000171   0.007325
    21  C    0.005658   0.000399  -0.000614  -0.000655  -0.000014  -0.000657
    22  H   -0.001315  -0.000057   0.000187   0.000440  -0.000061   0.000051
    23  H    0.002906   0.001002   0.000234   0.002082   0.000058   0.006294
    24  H   -0.000081   0.000006   0.000026   0.000064   0.000002   0.000030
    25  C   -0.004089  -0.000340   0.000408  -0.000259  -0.000033  -0.000755
    26  H    0.000138   0.000011  -0.000027   0.000017   0.000003   0.000033
    27  H   -0.000126  -0.000008   0.000032   0.000005  -0.000001  -0.000027
               7          8          9         10         11         12
     1  C    0.402262   0.005010  -0.022387  -0.298343   0.001819   0.479171
     2  H   -0.022475   0.003433   0.005119  -0.005312  -0.001788   0.023695
     3  H   -0.044732   0.000021   0.000681   0.062235  -0.002130  -0.070021
     4  C    0.009423   0.399393   0.411819  -0.172787  -0.020732  -0.125408
     5  H    0.000893  -0.034789  -0.058753  -0.051263   0.004452   0.021501
     6  N   -0.029006  -0.069190  -0.052147   0.139915  -0.062836  -0.192079
     7  H    0.533066  -0.004062  -0.000708  -0.018249   0.002087   0.049299
     8  H   -0.004062   0.522806  -0.016009   0.050727  -0.002649  -0.028702
     9  H   -0.000708  -0.016009   0.557606   0.014130  -0.001185  -0.002547
    10  C   -0.018249   0.050727   0.014130   8.107675   0.396819  -3.335543
    11  H    0.002087  -0.002649  -0.001185   0.396819   0.457601  -0.039525
    12  C    0.049299  -0.028702  -0.002547  -3.335543  -0.039525  19.758419
    13  C   -0.042652   0.009435   0.003975  -0.247930   0.040669  -2.468246
    14  H    0.008612  -0.000728  -0.000790  -0.180725   0.005099   0.764728
    15  O   -0.000117   0.000352   0.000051   0.062304   0.016860  -0.223209
    16  C   -0.029169   0.009737   0.001300   1.672921   0.002637  -8.655285
    17  C    0.020255  -0.001945   0.000275   0.224315   0.008207  -0.446313
    18  C   -0.009444   0.001103   0.000196  -0.216319  -0.026894   0.256964
    19  O    0.001800   0.000118  -0.000048  -0.003477   0.001890  -0.035406
    20  C    0.003663  -0.000571   0.000058  -0.134817  -0.002775   0.512256
    21  C   -0.000511   0.000287  -0.000017   0.014935  -0.004729   0.301436
    22  H    0.000025   0.000076   0.000024   0.006173   0.000087  -0.073770
    23  H   -0.005033   0.000028  -0.000049  -0.044638  -0.002031  -0.010572
    24  H   -0.000037   0.000002   0.000001   0.000925  -0.000075  -0.001478
    25  C    0.000793   0.000011   0.000022  -0.002904   0.001202  -0.111876
    26  H   -0.000010   0.000001  -0.000002   0.001048  -0.000119   0.003578
    27  H    0.000001   0.000001   0.000001   0.001394   0.000041  -0.009927
              13         14         15         16         17         18
     1  C   -0.287282   0.037757   0.000937  -0.157452  -0.044153   0.020461
     2  H   -0.012328   0.003925   0.000287  -0.000642  -0.005290   0.001934
     3  H    0.039661  -0.020894  -0.000589   0.018567   0.005064  -0.002274
     4  C   -0.009150  -0.012032   0.004911   0.047944  -0.001156   0.005967
     5  H    0.003196   0.000176  -0.000148  -0.001903   0.000754  -0.000213
     6  N   -0.002247  -0.029793   0.009086  -0.024578   0.015480  -0.000688
     7  H   -0.042652   0.008612  -0.000117  -0.029169   0.020255  -0.009444
     8  H    0.009435  -0.000728   0.000352   0.009737  -0.001945   0.001103
     9  H    0.003975  -0.000790   0.000051   0.001300   0.000275   0.000196
    10  C   -0.247930  -0.180725   0.062304   1.672921   0.224315  -0.216319
    11  H    0.040669   0.005099   0.016860   0.002637   0.008207  -0.026894
    12  C   -2.468246   0.764728  -0.223209  -8.655285  -0.446313   0.256964
    13  C   11.055061  -0.061422   0.762340  -0.798857  -0.232552  -1.131603
    14  H   -0.061422   0.555262  -0.003133  -0.188208  -0.148215   0.060598
    15  O    0.762340  -0.003133   8.121805  -0.522721  -0.047059   0.095101
    16  C   -0.798857  -0.188208  -0.522721  19.182851  -0.426643  -2.153291
    17  C   -0.232552  -0.148215  -0.047059  -0.426643  15.082978  -5.275285
    18  C   -1.131603   0.060598   0.095101  -2.153291  -5.275285  12.257040
    19  O    0.103945  -0.001370  -0.002706  -0.006000   0.431154  -0.045972
    20  C   -0.411850   0.033799   0.026224  -2.585140  -2.282905   2.384025
    21  C    0.275199   0.016583   0.045247  -1.444988  -0.078994   0.394499
    22  H   -0.041158  -0.003762  -0.008622   0.113579   0.061010   0.359085
    23  H   -0.053432  -0.009174  -0.001353  -0.075343  -0.012864   0.064851
    24  H   -0.018782  -0.000590   0.000032  -0.056947  -0.108787   0.048111
    25  C    0.103766  -0.005143   0.006169   0.496360   0.147430  -1.091096
    26  H    0.000856   0.000462  -0.000499  -0.019746  -0.010670  -0.023435
    27  H   -0.005096  -0.000791  -0.000130   0.087776   0.043332  -0.055860
              19         20         21         22         23         24
     1  C   -0.007970   0.006417   0.005658  -0.001315   0.002906  -0.000081
     2  H   -0.000680  -0.000237   0.000399  -0.000057   0.001002   0.000006
     3  H    0.001891  -0.003176  -0.000614   0.000187   0.000234   0.000026
     4  C   -0.001414   0.002708  -0.000655   0.000440   0.002082   0.000064
     5  H    0.000032   0.000171  -0.000014  -0.000061   0.000058   0.000002
     6  N   -0.004400   0.007325  -0.000657   0.000051   0.006294   0.000030
     7  H    0.001800   0.003663  -0.000511   0.000025  -0.005033  -0.000037
     8  H    0.000118  -0.000571   0.000287   0.000076   0.000028   0.000002
     9  H   -0.000048   0.000058  -0.000017   0.000024  -0.000049   0.000001
    10  C   -0.003477  -0.134817   0.014935   0.006173  -0.044638   0.000925
    11  H    0.001890  -0.002775  -0.004729   0.000087  -0.002031  -0.000075
    12  C   -0.035406   0.512256   0.301436  -0.073770  -0.010572  -0.001478
    13  C    0.103945  -0.411850   0.275199  -0.041158  -0.053432  -0.018782
    14  H   -0.001370   0.033799   0.016583  -0.003762  -0.009174  -0.000590
    15  O   -0.002706   0.026224   0.045247  -0.008622  -0.001353   0.000032
    16  C   -0.006000  -2.585140  -1.444988   0.113579  -0.075343  -0.056947
    17  C    0.431154  -2.282905  -0.078994   0.061010  -0.012864  -0.108787
    18  C   -0.045972   2.384025   0.394499   0.359085   0.064851   0.048111
    19  O    7.994340  -0.416153   0.006672  -0.000994   0.231666  -0.021385
    20  C   -0.416153   9.207110  -0.266456   0.013546   0.145972   0.532082
    21  C    0.006672  -0.266456   6.515372  -0.112711   0.002608  -0.003355
    22  H   -0.000994   0.013546  -0.112711   0.447675   0.000735   0.001212
    23  H    0.231666   0.145972   0.002608   0.000735   0.444560   0.003223
    24  H   -0.021385   0.532082  -0.003355   0.001212   0.003223   0.471827
    25  C    0.008805  -0.216732   0.476588  -0.002167  -0.014239  -0.063850
    26  H    0.000269   0.019712   0.414037  -0.008257   0.000547   0.000524
    27  H    0.000132  -0.156398  -0.053373   0.000175  -0.000507  -0.012495
              25         26         27
     1  C   -0.004089   0.000138  -0.000126
     2  H   -0.000340   0.000011  -0.000008
     3  H    0.000408  -0.000027   0.000032
     4  C   -0.000259   0.000017   0.000005
     5  H   -0.000033   0.000003  -0.000001
     6  N   -0.000755   0.000033  -0.000027
     7  H    0.000793  -0.000010   0.000001
     8  H    0.000011   0.000001   0.000001
     9  H    0.000022  -0.000002   0.000001
    10  C   -0.002904   0.001048   0.001394
    11  H    0.001202  -0.000119   0.000041
    12  C   -0.111876   0.003578  -0.009927
    13  C    0.103766   0.000856  -0.005096
    14  H   -0.005143   0.000462  -0.000791
    15  O    0.006169  -0.000499  -0.000130
    16  C    0.496360  -0.019746   0.087776
    17  C    0.147430  -0.010670   0.043332
    18  C   -1.091096  -0.023435  -0.055860
    19  O    0.008805   0.000269   0.000132
    20  C   -0.216732   0.019712  -0.156398
    21  C    0.476588   0.414037  -0.053373
    22  H   -0.002167  -0.008257   0.000175
    23  H   -0.014239   0.000547  -0.000507
    24  H   -0.063850   0.000524  -0.012495
    25  C    6.101983  -0.049948   0.474591
    26  H   -0.049948   0.474052  -0.008927
    27  H    0.474591  -0.008927   0.491502
 Mulliken charges:
               1
     1  C   -0.411675
     2  H    0.179345
     3  H    0.190520
     4  C   -0.355570
     5  H    0.188711
     6  N    0.130060
     7  H    0.174029
     8  H    0.156103
     9  H    0.159383
    10  C   -0.043208
    11  H    0.227999
    12  C   -0.341141
    13  C   -0.573518
    14  H    0.179768
    15  O   -0.341420
    16  C    1.513240
    17  C   -0.917422
    18  C    0.082440
    19  O   -0.234736
    20  C   -0.417857
    21  C   -0.502444
    22  H    0.248793
    23  H    0.322467
    24  H    0.229795
    25  C   -0.254698
    26  H    0.206353
    27  H    0.204682
 Sum of Mulliken charges =   0.00000
 Mulliken charges with hydrogens summed into heavy atoms:
               1
     1  C    0.132218
     4  C    0.148628
     6  N    0.130060
    10  C    0.184791
    12  C   -0.161373
    13  C   -0.573518
    15  O   -0.341420
    16  C    1.513240
    17  C   -0.917422
    18  C    0.331233
    19  O    0.087731
    20  C   -0.188062
    21  C   -0.296091
    25  C   -0.050015
 Electronic spatial extent (au):  <R**2>=           3789.0257
 Charge=              0.0000 electrons
 Dipole moment (field-independent basis, Debye):
    X=              4.8452    Y=              2.3287    Z=             -1.9285  Tot=              5.7112
 Quadrupole moment (field-independent basis, Debye-Ang):
   XX=            -55.0671   YY=            -89.0009   ZZ=            -86.5414
   XY=              1.6221   XZ=              0.4933   YZ=              2.4106
 Traceless Quadrupole moment (field-independent basis, Debye-Ang):
   XX=             21.8027   YY=            -12.1311   ZZ=             -9.6716
   XY=              1.6221   XZ=              0.4933   YZ=              2.4106
 Octapole moment (field-independent basis, Debye-Ang**2):
  XXX=             79.5072  YYY=             12.1131  ZZZ=              6.3164  XYY=             10.3023
  XXY=             -0.3161  XXZ=            -17.3404  XZZ=             14.4231  YZZ=              2.7575
  YYZ=            -11.3668  XYZ=             -8.1628
 Hexadecapole moment (field-independent basis, Debye-Ang**3):
 XXXX=          -3490.0052 YYYY=           -793.7776 ZZZZ=           -230.8057 XXXY=            -34.8724
 XXXZ=             26.2038 YYYX=             15.2133 YYYZ=             16.5996 ZZZX=            -17.2587
 ZZZY=              2.5534 XXYY=           -740.3422 XXZZ=           -758.7142 YYZZ=           -172.9338
 XXYZ=             -3.6777 YYXZ=             10.7091 ZZXY=              1.9569
 N-N= 8.394884679049D+02 E-N=-3.152558633489D+03  KE= 6.294393700213D+02
 1\1\GINC-NXN32\FOpt\RwB97XD TD-FC\6-311++G(d,p)\C11H13N1O2\BTX008\19-J
 ul-2017\0\\# wb97xd 6-311++g** opt td=(nstates=1,root=1)\\restarted op
 timization\\0,1\C,0.2661272036,-0.4256214183,8.6831857164\H,1.28592504
 83,-0.2171869299,9.0086988069\H,-0.3823165662,0.4028018074,9.007043972
 9\C,1.154837256,0.2372096144,6.4894740122\H,0.8601786752,1.296549408,6
 .5159107578\N,0.2518431796,-0.6038860426,7.2495367129\H,-0.0669185,-1.
 3395769536,9.181177144\H,1.1701170751,-0.0892029454,5.4482222401\H,2.1
 676165166,0.1467192946,6.888418864\C,-0.905981332,-1.0109613549,6.6417
 927126\H,-0.8549616899,-1.0444690083,5.5597624339\C,-2.0571639434,-1.4
 041882692,7.2852468922\C,-3.2075603955,-1.833708358,6.5912895253\H,-2.
 1520070266,-1.3331332806,8.3616943764\O,-3.2420707412,-1.7786174869,5.
 2843327872\C,-4.4540335695,-2.2987332805,7.2067305822\C,-4.4452296958,
 -3.1441107047,8.3386082577\C,-5.6920164035,-1.9416269489,6.6459629788\
 O,-3.3017897572,-3.6226069488,8.8869593087\C,-5.6440021352,-3.52664983
 78,8.9259593693\C,-6.8821997429,-2.3444219463,7.2271853643\H,-5.699072
 4094,-1.314567328,5.7628298068\H,-2.5670268637,-3.4385996069,8.2905413
 326\H,-5.6042315959,-4.1662283601,9.7997545976\C,-6.8550202145,-3.1268
 037747,8.3778755065\H,-7.8267135025,-2.0442452092,6.7896032559\H,-7.78
 12373027,-3.4420574411,8.8446689238\\Version=ES64L-G09RevD.01\State=1-
 A\HF=-632.1251819\RMSD=8.319e-09\RMSF=6.844e-06\Dipole=1.0922296,0.775
 08,0.3393176\PG=C01 [X(C11H13N1O2)]\\@


 LIFE IS A CONTINUAL STRUGGLE AGAINST THE TENDENCY TO PRODUCE ENTROPY.
 Job cpu time:       1 days  2 hours 15 minutes  8.2 seconds.
 File lengths (MBytes):  RWF=    157 Int=      0 D2E=      0 Chk=     22 Scr=      1
 Normal termination of Gaussian 09 at Wed Jul 19 22:43:51 2017.
