 Entering Gaussian System, Link 0=g09
 Input=2_optS1_chainrotated.com
 Output=2_optS1_chainrotated.out
 Initial command:
 /share/apps/gaussian/g09_D01/g09/l1.exe "/tmp/4032823.1.chemistry.q/Gau-21399.inp" -scrdir="/tmp/4032823.1.chemistry.q/"
 Entering Link 1 = /share/apps/gaussian/g09_D01/g09/l1.exe PID=     21400.
  
 Copyright (c) 1988,1990,1992,1993,1995,1998,2003,2009,2013,
            Gaussian, Inc.  All Rights Reserved.
  
 This is part of the Gaussian(R) 09 program.  It is based on
 the Gaussian(R) 03 system (copyright 2003, Gaussian, Inc.),
 the Gaussian(R) 98 system (copyright 1998, Gaussian, Inc.),
 the Gaussian(R) 94 system (copyright 1995, Gaussian, Inc.),
 the Gaussian 92(TM) system (copyright 1992, Gaussian, Inc.),
 the Gaussian 90(TM) system (copyright 1990, Gaussian, Inc.),
 the Gaussian 88(TM) system (copyright 1988, Gaussian, Inc.),
 the Gaussian 86(TM) system (copyright 1986, Carnegie Mellon
 University), and the Gaussian 82(TM) system (copyright 1983,
 Carnegie Mellon University). Gaussian is a federally registered
 trademark of Gaussian, Inc.
  
 This software contains proprietary and confidential information,
 including trade secrets, belonging to Gaussian, Inc.
  
 This software is provided under written license and may be
 used, copied, transmitted, or stored only in accord with that
 written license.
  
 The following legend is applicable only to US Government
 contracts under FAR:
  
                    RESTRICTED RIGHTS LEGEND
  
 Use, reproduction and disclosure by the US Government is
 subject to restrictions as set forth in subparagraphs (a)
 and (c) of the Commercial Computer Software - Restricted
 Rights clause in FAR 52.227-19.
  
 Gaussian, Inc.
 340 Quinnipiac St., Bldg. 40, Wallingford CT 06492
  
  
 ---------------------------------------------------------------
 Warning -- This program may not be used in any manner that
 competes with the business of Gaussian, Inc. or will provide
 assistance to any competitor of Gaussian, Inc.  The licensee
 of this program is prohibited from giving any competitor of
 Gaussian, Inc. access to this program.  By using this program,
 the user acknowledges that Gaussian, Inc. is engaged in the
 business of creating and licensing software in the field of
 computational chemistry and represents and warrants to the
 licensee that it is not a competitor of Gaussian, Inc. and that
 it will not use this program in any manner prohibited above.
 ---------------------------------------------------------------
  

 Cite this work as:
 Gaussian 09, Revision D.01,
 M. J. Frisch, G. W. Trucks, H. B. Schlegel, G. E. Scuseria, 
 M. A. Robb, J. R. Cheeseman, G. Scalmani, V. Barone, B. Mennucci, 
 G. A. Petersson, H. Nakatsuji, M. Caricato, X. Li, H. P. Hratchian, 
 A. F. Izmaylov, J. Bloino, G. Zheng, J. L. Sonnenberg, M. Hada, 
 M. Ehara, K. Toyota, R. Fukuda, J. Hasegawa, M. Ishida, T. Nakajima, 
 Y. Honda, O. Kitao, H. Nakai, T. Vreven, J. A. Montgomery, Jr., 
 J. E. Peralta, F. Ogliaro, M. Bearpark, J. J. Heyd, E. Brothers, 
 K. N. Kudin, V. N. Staroverov, T. Keith, R. Kobayashi, J. Normand, 
 K. Raghavachari, A. Rendell, J. C. Burant, S. S. Iyengar, J. Tomasi, 
 M. Cossi, N. Rega, J. M. Millam, M. Klene, J. E. Knox, J. B. Cross, 
 V. Bakken, C. Adamo, J. Jaramillo, R. Gomperts, R. E. Stratmann, 
 O. Yazyev, A. J. Austin, R. Cammi, C. Pomelli, J. W. Ochterski, 
 R. L. Martin, K. Morokuma, V. G. Zakrzewski, G. A. Voth, 
 P. Salvador, J. J. Dannenberg, S. Dapprich, A. D. Daniels, 
 O. Farkas, J. B. Foresman, J. V. Ortiz, J. Cioslowski, 
 and D. J. Fox, Gaussian, Inc., Wallingford CT, 2013.
 
 ******************************************
 Gaussian 09:  ES64L-G09RevD.01 24-Apr-2013
                25-Jul-2017 
 ******************************************
 %chk=2_optS1_chainrotated
 %mem=28GB
 %nproc=4
 Will use up to    4 processors via shared memory.
 ---------------------------------------------
 # wb97xd 6-311++g** opt td=(nstates=1,root=1)
 ---------------------------------------------
 1/14=-1,18=20,19=15,26=3,38=1/1,3;
 2/9=110,12=2,17=6,18=5,40=1/2;
 3/5=4,6=6,7=1111,11=9,16=1,25=1,30=1,71=1,74=-58/1,2,8,3;
 4//1;
 5/5=2,38=5/2;
 8/6=1,10=2,107=1,108=1/1;
 9/8=1,15=2,41=1,42=1,70=2/14;
 10/5=4/2;
 6/7=2,8=2,9=2,10=2/1;
 7/12=6,13=5,14=1/1,2,3,16;
 1/14=-1,18=20,19=15,26=3/3(2);
 2/9=110/2;
 99//99;
 2/9=110/2;
 3/5=4,6=6,7=1111,11=9,16=1,25=1,30=1,71=1,74=-58/1,2,8,3;
 4/5=5,16=3,69=1/1;
 5/5=2,38=5/2;
 8/6=1,10=2,107=1,108=1/1;
 9/8=1,15=2,41=1,42=1,49=4,70=2/14;
 10/5=4/2;
 7/12=6,13=5,14=1/1,2,3,16;
 1/14=-1,18=20,19=15,26=3/3(-8);
 2/9=110/2;
 6/7=2,8=2,9=2,10=2/1;
 99//99;
 -----------------------------------
 2-opt with chain c=c rotated like 1
 -----------------------------------
 Symbolic Z-matrix:
 Charge =  0 Multiplicity = 1
 C                     0.69101  -0.65176   8.45908 
 H                     1.57318  -0.0157    8.50437 
 H                     0.11653  -0.52728   9.38013 
 C                     0.33386   0.88646   6.53821 
 H                     0.35771   1.77238   7.17772 
 N                    -0.10553  -0.27056   7.30091 
 H                     1.00938  -1.69275   8.37256 
 H                    -0.35026   1.06525   5.71066 
 H                     1.33566   0.7103    6.13854 
 C                    -1.19951  -0.94601   6.96291 
 H                    -1.71244  -0.60107   6.07203 
 C                    -1.73527  -2.027     7.64489 
 C                    -2.85731  -2.76088   7.05929 
 H                    -1.19933  -2.46091   8.48778 
 O                    -2.26656  -3.59811   6.25592 
 C                    -4.23371  -2.64773   7.35766 
 C                    -5.18122  -3.48787   6.70374 
 C                    -4.72712  -1.70545   8.28835 
 O                    -4.78443  -4.42089   5.80588 
 C                    -6.53149  -3.36219   6.97531 
 C                    -6.08258  -1.59192   8.55134 
 H                    -4.02205  -1.0629    8.80637 
 H                    -3.81422  -4.39083   5.73603 
 H                    -7.22085  -4.01871   6.4568 
 C                    -6.99004  -2.41787   7.89477 
 H                    -6.4319   -0.8615    9.2727 
 F                    -8.05178  -2.33694   8.09589 
 

 GradGradGradGradGradGradGradGradGradGradGradGradGradGradGradGradGradGrad
 Berny optimization.
 Initialization pass.
                           ----------------------------
                           !    Initial Parameters    !
                           ! (Angstroms and Degrees)  !
 --------------------------                            --------------------------
 ! Name  Definition              Value          Derivative Info.                !
 --------------------------------------------------------------------------------
 ! R1    R(1,2)                  1.0885         estimate D2E/DX2                !
 ! R2    R(1,3)                  1.0926         estimate D2E/DX2                !
 ! R3    R(1,6)                  1.4564         estimate D2E/DX2                !
 ! R4    R(1,7)                  1.092          estimate D2E/DX2                !
 ! R5    R(4,5)                  1.0929         estimate D2E/DX2                !
 ! R6    R(4,6)                  1.4538         estimate D2E/DX2                !
 ! R7    R(4,8)                  1.0885         estimate D2E/DX2                !
 ! R8    R(4,9)                  1.0929         estimate D2E/DX2                !
 ! R9    R(6,10)                 1.3294         estimate D2E/DX2                !
 ! R10   R(10,11)                1.0843         estimate D2E/DX2                !
 ! R11   R(10,12)                1.3859         estimate D2E/DX2                !
 ! R12   R(12,13)                1.463          estimate D2E/DX2                !
 ! R13   R(12,14)                1.089          estimate D2E/DX2                !
 ! R14   R(13,15)                1.3021         estimate D2E/DX2                !
 ! R15   R(13,16)                1.4129         estimate D2E/DX2                !
 ! R16   R(16,17)                1.4252         estimate D2E/DX2                !
 ! R17   R(16,18)                1.4133         estimate D2E/DX2                !
 ! R18   R(17,19)                1.3543         estimate D2E/DX2                !
 ! R19   R(17,20)                1.383          estimate D2E/DX2                !
 ! R20   R(18,21)                1.3854         estimate D2E/DX2                !
 ! R21   R(18,22)                1.0855         estimate D2E/DX2                !
 ! R22   R(19,23)                0.9732         estimate D2E/DX2                !
 ! R23   R(20,24)                1.084          estimate D2E/DX2                !
 ! R24   R(20,25)                1.3955         estimate D2E/DX2                !
 ! R25   R(21,25)                1.3917         estimate D2E/DX2                !
 ! R26   R(21,26)                1.0844         estimate D2E/DX2                !
 ! R27   R(25,27)                1.0836         estimate D2E/DX2                !
 ! A1    A(2,1,3)              108.9335         estimate D2E/DX2                !
 ! A2    A(2,1,6)              108.8679         estimate D2E/DX2                !
 ! A3    A(2,1,7)              108.9084         estimate D2E/DX2                !
 ! A4    A(3,1,6)              110.6689         estimate D2E/DX2                !
 ! A5    A(3,1,7)              109.188          estimate D2E/DX2                !
 ! A6    A(6,1,7)              110.2396         estimate D2E/DX2                !
 ! A7    A(5,4,6)              110.1668         estimate D2E/DX2                !
 ! A8    A(5,4,8)              108.9926         estimate D2E/DX2                !
 ! A9    A(5,4,9)              108.945          estimate D2E/DX2                !
 ! A10   A(6,4,8)              109.854          estimate D2E/DX2                !
 ! A11   A(6,4,9)              109.9151         estimate D2E/DX2                !
 ! A12   A(8,4,9)              108.9394         estimate D2E/DX2                !
 ! A13   A(1,6,4)              117.4005         estimate D2E/DX2                !
 ! A14   A(1,6,10)             121.2835         estimate D2E/DX2                !
 ! A15   A(4,6,10)             121.3123         estimate D2E/DX2                !
 ! A16   A(6,10,11)            115.8833         estimate D2E/DX2                !
 ! A17   A(6,10,12)            126.1086         estimate D2E/DX2                !
 ! A18   A(11,10,12)           118.0063         estimate D2E/DX2                !
 ! A19   A(10,12,13)           119.391          estimate D2E/DX2                !
 ! A20   A(10,12,14)           120.0931         estimate D2E/DX2                !
 ! A21   A(13,12,14)           119.1674         estimate D2E/DX2                !
 ! A22   A(12,13,15)           102.7997         estimate D2E/DX2                !
 ! A23   A(12,13,16)           128.4923         estimate D2E/DX2                !
 ! A24   A(15,13,16)           128.5925         estimate D2E/DX2                !
 ! A25   A(13,16,17)           120.2347         estimate D2E/DX2                !
 ! A26   A(13,16,18)           122.1774         estimate D2E/DX2                !
 ! A27   A(17,16,18)           117.5843         estimate D2E/DX2                !
 ! A28   A(16,17,19)           121.0322         estimate D2E/DX2                !
 ! A29   A(16,17,20)           120.3585         estimate D2E/DX2                !
 ! A30   A(19,17,20)           118.6093         estimate D2E/DX2                !
 ! A31   A(16,18,21)           121.413          estimate D2E/DX2                !
 ! A32   A(16,18,22)           118.825          estimate D2E/DX2                !
 ! A33   A(21,18,22)           119.7616         estimate D2E/DX2                !
 ! A34   A(17,19,23)           108.5657         estimate D2E/DX2                !
 ! A35   A(17,20,24)           118.158          estimate D2E/DX2                !
 ! A36   A(17,20,25)           120.7762         estimate D2E/DX2                !
 ! A37   A(24,20,25)           121.0656         estimate D2E/DX2                !
 ! A38   A(18,21,25)           119.9855         estimate D2E/DX2                !
 ! A39   A(18,21,26)           119.7786         estimate D2E/DX2                !
 ! A40   A(25,21,26)           120.2353         estimate D2E/DX2                !
 ! A41   A(20,25,21)           119.8802         estimate D2E/DX2                !
 ! A42   A(20,25,27)           119.6551         estimate D2E/DX2                !
 ! A43   A(21,25,27)           120.4639         estimate D2E/DX2                !
 ! D1    D(2,1,6,4)             -4.9253         estimate D2E/DX2                !
 ! D2    D(2,1,6,10)           175.7649         estimate D2E/DX2                !
 ! D3    D(3,1,6,4)            114.7715         estimate D2E/DX2                !
 ! D4    D(3,1,6,10)           -64.5384         estimate D2E/DX2                !
 ! D5    D(7,1,6,4)           -124.3318         estimate D2E/DX2                !
 ! D6    D(7,1,6,10)            56.3583         estimate D2E/DX2                !
 ! D7    D(5,4,6,1)            -59.4376         estimate D2E/DX2                !
 ! D8    D(5,4,6,10)           119.8721         estimate D2E/DX2                !
 ! D9    D(8,4,6,1)           -179.5189         estimate D2E/DX2                !
 ! D10   D(8,4,6,10)            -0.2092         estimate D2E/DX2                !
 ! D11   D(9,4,6,1)             60.6235         estimate D2E/DX2                !
 ! D12   D(9,4,6,10)          -120.0669         estimate D2E/DX2                !
 ! D13   D(1,6,10,11)         -178.605          estimate D2E/DX2                !
 ! D14   D(1,6,10,12)            1.8828         estimate D2E/DX2                !
 ! D15   D(4,6,10,11)            2.1121         estimate D2E/DX2                !
 ! D16   D(4,6,10,12)         -177.4001         estimate D2E/DX2                !
 ! D17   D(6,10,12,13)        -172.9093         estimate D2E/DX2                !
 ! D18   D(6,10,12,14)          -6.2734         estimate D2E/DX2                !
 ! D19   D(11,10,12,13)          7.5878         estimate D2E/DX2                !
 ! D20   D(11,10,12,14)        174.2236         estimate D2E/DX2                !
 ! D21   D(10,12,13,15)         84.1771         estimate D2E/DX2                !
 ! D22   D(10,12,13,16)        -99.5033         estimate D2E/DX2                !
 ! D23   D(14,12,13,15)        -82.5833         estimate D2E/DX2                !
 ! D24   D(14,12,13,16)         93.7364         estimate D2E/DX2                !
 ! D25   D(12,13,16,17)       -177.9805         estimate D2E/DX2                !
 ! D26   D(12,13,16,18)          2.7265         estimate D2E/DX2                !
 ! D27   D(15,13,16,17)         -2.574          estimate D2E/DX2                !
 ! D28   D(15,13,16,18)        178.133          estimate D2E/DX2                !
 ! D29   D(13,16,17,19)          1.1102         estimate D2E/DX2                !
 ! D30   D(13,16,17,20)       -178.7832         estimate D2E/DX2                !
 ! D31   D(18,16,17,19)       -179.5649         estimate D2E/DX2                !
 ! D32   D(18,16,17,20)          0.5417         estimate D2E/DX2                !
 ! D33   D(13,16,18,21)        178.8342         estimate D2E/DX2                !
 ! D34   D(13,16,18,22)         -1.3691         estimate D2E/DX2                !
 ! D35   D(17,16,18,21)         -0.4766         estimate D2E/DX2                !
 ! D36   D(17,16,18,22)        179.32           estimate D2E/DX2                !
 ! D37   D(16,17,19,23)          0.8081         estimate D2E/DX2                !
 ! D38   D(20,17,19,23)       -179.2967         estimate D2E/DX2                !
 ! D39   D(16,17,20,24)        179.9311         estimate D2E/DX2                !
 ! D40   D(16,17,20,25)         -0.2481         estimate D2E/DX2                !
 ! D41   D(19,17,20,24)          0.0352         estimate D2E/DX2                !
 ! D42   D(19,17,20,25)        179.856          estimate D2E/DX2                !
 ! D43   D(16,18,21,25)          0.1119         estimate D2E/DX2                !
 ! D44   D(16,18,21,26)        179.8318         estimate D2E/DX2                !
 ! D45   D(22,18,21,25)       -179.6828         estimate D2E/DX2                !
 ! D46   D(22,18,21,26)          0.037          estimate D2E/DX2                !
 ! D47   D(17,20,25,21)         -0.1324         estimate D2E/DX2                !
 ! D48   D(17,20,25,27)       -179.8211         estimate D2E/DX2                !
 ! D49   D(24,20,25,21)        179.6831         estimate D2E/DX2                !
 ! D50   D(24,20,25,27)         -0.0055         estimate D2E/DX2                !
 ! D51   D(18,21,25,20)          0.2019         estimate D2E/DX2                !
 ! D52   D(18,21,25,27)        179.888          estimate D2E/DX2                !
 ! D53   D(26,21,25,20)       -179.5167         estimate D2E/DX2                !
 ! D54   D(26,21,25,27)          0.1694         estimate D2E/DX2                !
 --------------------------------------------------------------------------------
 Trust Radius=3.00D-01 FncErr=1.00D-07 GrdErr=1.00D-06
 Number of steps in this run=    134 maximum allowed number of steps=    162.
 GradGradGradGradGradGradGradGradGradGradGradGradGradGradGradGradGradGrad

                          Input orientation:                          
 ---------------------------------------------------------------------
 Center     Atomic      Atomic             Coordinates (Angstroms)
 Number     Number       Type             X           Y           Z
 ---------------------------------------------------------------------
      1          6           0        0.691011   -0.651758    8.459082
      2          1           0        1.573178   -0.015704    8.504371
      3          1           0        0.116527   -0.527284    9.380131
      4          6           0        0.333862    0.886462    6.538205
      5          1           0        0.357709    1.772384    7.177719
      6          7           0       -0.105527   -0.270562    7.300907
      7          1           0        1.009376   -1.692751    8.372561
      8          1           0       -0.350262    1.065247    5.710658
      9          1           0        1.335655    0.710302    6.138535
     10          6           0       -1.199513   -0.946008    6.962906
     11          1           0       -1.712441   -0.601065    6.072030
     12          6           0       -1.735273   -2.026996    7.644894
     13          6           0       -2.857314   -2.760876    7.059287
     14          1           0       -1.199326   -2.460912    8.487781
     15          8           0       -2.266558   -3.598107    6.255923
     16          6           0       -4.233707   -2.647729    7.357662
     17          6           0       -5.181222   -3.487874    6.703743
     18          6           0       -4.727118   -1.705448    8.288350
     19          8           0       -4.784434   -4.420888    5.805875
     20          6           0       -6.531486   -3.362185    6.975311
     21          6           0       -6.082579   -1.591924    8.551345
     22          1           0       -4.022050   -1.062896    8.806372
     23          1           0       -3.814219   -4.390826    5.736026
     24          1           0       -7.220849   -4.018714    6.456801
     25          6           0       -6.990043   -2.417868    7.894768
     26          1           0       -6.431898   -0.861501    9.272703
     27          9           0       -8.051784   -2.336936    8.095890
 ---------------------------------------------------------------------
                    Distance matrix (angstroms):
                    1          2          3          4          5
     1  C    0.000000
     2  H    1.088501   0.000000
     3  H    1.092638   1.774965   0.000000
     4  C    2.486653   2.493114   3.181581   0.000000
     5  H    2.762145   2.536657   3.193315   1.092888   0.000000
     6  N    1.456418   2.081184   2.106748   1.453782   2.098426
     7  H    1.092020   1.774185   1.780643   3.236282   3.722832
     8  H    3.403849   3.559903   4.027292   1.088496   1.775819
     9  H    2.766896   2.486098   3.677749   1.092867   1.778848
    10  C    2.428828   3.305964   2.783930   2.426841   3.140182
    11  H    3.387797   4.129676   3.780754   2.572433   3.337863
    12  C    2.905346   3.966087   2.947770   3.740898   4.362810
    13  C    4.358717   5.408650   4.383946   4.874239   5.558853
    14  H    2.616722   3.696768   2.503333   4.166104   4.696958
    15  O    4.720392   5.712504   4.986955   5.191650   6.048029
    16  C    5.426774   6.477840   5.245112   5.833070   6.375804
    17  C    6.753361   7.805136   6.632819   7.041191   7.653413
    18  C    5.522276   6.526533   5.103034   5.949330   6.259735
    19  O    7.157258   8.191871   7.207973   7.409536   8.165795
    20  C    7.855727   8.900704   7.616817   8.085485   8.594520
    21  C    6.839148   7.816476   6.344230   7.166997   7.394777
    22  H    4.743689   5.700385   4.212351   5.283800   5.465676
    23  H    6.456993   7.471912   6.607361   6.760165   7.580806
    24  H    8.828536   9.876818   8.635568   9.007832   9.565097
    25  C    7.901657   8.914637   7.502263   8.148524   8.488924
    26  H    7.172294   8.086220   6.557828   7.503890   7.577933
    27  F    8.911128   9.909332   8.464362   9.117880   9.404739
                    6          7          8          9         10
     6  N    0.000000
     7  H    2.100969   0.000000
     8  H    2.091213   4.067050   0.000000
     9  H    2.095282   3.297271   1.775213   0.000000
    10  C    1.329390   2.724691   2.516843   3.138475   0.000000
    11  H    2.049767   3.727266   2.182365   3.318885   1.084316
    12  C    2.420632   2.859076   3.901473   4.380926   1.385887
    13  C    3.719190   4.221004   4.768996   5.520675   2.459947
    14  H    2.720790   2.341306   4.568054   4.690595   2.149460
    15  O    4.102999   4.340770   5.071132   5.617126   2.944833
    16  C    4.764033   5.425120   5.619605   6.616679   3.501146
    17  C    6.039071   6.658147   6.712325   7.772633   4.730989
    18  C    4.938932   5.737126   5.786028   6.871300   3.844158
    19  O    6.430591   6.899191   7.054688   7.993451   5.124956
    20  C    7.138424   7.848816   7.707725   8.898160   5.853888
    21  C    6.247779   7.094925   6.927447   8.133394   5.175392
    22  H    4.270055   5.089220   5.253043   6.242322   3.373240
    23  H    5.760193   6.123561   6.462846   7.259802   4.495408
    24  H    8.086344   8.764522   8.579531   9.781546   6.778949
    25  C    7.236032   8.046414   7.809553   9.065707   6.046898
    26  H    6.652831   7.541471   7.306628   8.522233   5.720154
    27  F    8.248933   9.088242   8.750864  10.061854   7.083216
                   11         12         13         14         15
    11  H    0.000000
    12  C    2.123135   0.000000
    13  C    2.636322   1.463042   0.000000
    14  H    3.091629   1.089027   2.208959   0.000000
    15  O    3.053379   2.163306   1.302053   2.722754   0.000000
    16  C    3.492630   2.590364   1.412900   3.243384   2.446778
    17  C    4.556882   3.859339   2.460790   4.482515   2.950925
    18  C    3.901284   3.077103   2.474003   3.613283   3.710428
    19  O    4.909076   4.290698   2.835573   4.887446   2.686859
    20  C    5.626979   5.023418   3.723998   5.615317   4.331604
    21  C    5.121222   4.462063   3.740992   4.960377   4.884235
    22  H    3.608907   2.740049   2.700380   3.166026   4.001729
    23  H    4.346569   3.681506   2.307255   4.258449   1.814924
    24  H    6.493915   5.955674   4.581002   6.542963   4.976169
    25  C    5.871646   5.275209   4.230264   5.821161   5.137128
    26  H    5.708363   5.105529   4.613511   5.527570   5.825807
    27  F    6.877247   6.340171   5.313830   6.864775   6.200393
                   16         17         18         19         20
    16  C    0.000000
    17  C    1.425215   0.000000
    18  C    1.413339   2.427804   0.000000
    19  O    2.419801   1.354298   3.679617   0.000000
    20  C    2.436479   1.383026   2.779315   2.353853   0.000000
    21  C    2.440887   2.796552   1.385398   4.150400   2.412307
    22  H    2.157604   3.412513   1.085514   4.567310   3.864813
    23  H    2.417449   1.902760   3.815625   0.973191   3.158713
    24  H    3.407957   2.121992   3.863220   2.553736   1.084022
    25  C    2.817571   2.415634   2.404845   3.638719   1.395496
    26  H    3.419069   3.880925   2.141839   5.234718   3.397256
    27  F    3.901190   3.391586   3.389575   4.501400   2.148986
                   21         22         23         24         25
    21  C    0.000000
    22  H    2.142589   0.000000
    23  H    4.572235   4.532696   0.000000
    24  H    3.401776   4.948703   3.501873   0.000000
    25  C    1.391678   3.387618   4.317243   2.164192   0.000000
    26  H    1.084389   2.462802   5.640608   4.303457   2.152326
    27  F    2.154124   4.285641   5.267293   2.491073   1.083648
                   26         27
    26  H    0.000000
    27  F    2.487132   0.000000
 Stoichiometry    C11H12FNO2
 Framework group  C1[X(C11H12FNO2)]
 Deg. of freedom    75
 Full point group                 C1      NOp   1
 Largest Abelian subgroup         C1      NOp   1
 Largest concise Abelian subgroup C1      NOp   1
                         Standard orientation:                         
 ---------------------------------------------------------------------
 Center     Atomic      Atomic             Coordinates (Angstroms)
 Number     Number       Type             X           Y           Z
 ---------------------------------------------------------------------
      1          6           0        4.348011   -0.560118   -1.116537
      2          1           0        5.396090   -0.834874   -1.012253
      3          1           0        3.833147   -1.336355   -1.687700
      4          6           0        4.597319   -0.771089    1.348576
      5          1           0        4.916277   -1.814019    1.278092
      6          7           0        3.762478   -0.424259    0.210054
      7          1           0        4.282415    0.386409   -1.657178
      8          1           0        4.038452   -0.633225    2.272418
      9          1           0        5.482219   -0.130123    1.370306
     10          6           0        2.508917   -0.012575    0.372467
     11          1           0        2.170077    0.079457    1.398361
     12          6           0        1.612395    0.293910   -0.638966
     13          6           0        0.317654    0.882950   -0.296667
     14          1           0        1.942623    0.304521   -1.676664
     15          8           0        0.594795    2.151347   -0.198159
     16          6           0       -0.937724    0.243998   -0.186872
     17          6           0       -2.104872    1.002708    0.118680
     18          6           0       -1.089736   -1.150852   -0.356624
     19          8           0       -2.040791    2.344973    0.287031
     20          6           0       -3.330781    0.376398    0.251505
     21          6           0       -2.324588   -1.764312   -0.221952
     22          1           0       -0.215841   -1.746670   -0.600853
     23          1           0       -1.120493    2.630727    0.151033
     24          1           0       -4.194873    0.987723    0.485454
     25          6           0       -3.449200   -1.004007    0.084564
     26          1           0       -2.411385   -2.836289   -0.360626
     27          9           0       -4.419163   -1.475566    0.189912
 ---------------------------------------------------------------------
 Rotational constants (GHZ):      1.2501024      0.2681576      0.2356544
 Standard basis: 6-311++G(d,p) (5D, 7F)
 There are   429 symmetry adapted cartesian basis functions of A   symmetry.
 There are   414 symmetry adapted basis functions of A   symmetry.
   414 basis functions,   648 primitive gaussians,   429 cartesian basis functions
    55 alpha electrons       55 beta electrons
       nuclear repulsion energy       950.2793919049 Hartrees.
 NAtoms=   27 NActive=   27 NUniq=   27 SFac= 1.00D+00 NAtFMM=   60 NAOKFM=F Big=F
 Integral buffers will be    131072 words long.
 Raffenetti 1 integral format.
 Two-electron integral symmetry is turned on.
 Nuclear repulsion after empirical dispersion term =      950.2638902383 Hartrees.
 One-electron integrals computed using PRISM.
 NBasis=   414 RedAO= T EigKep=  2.05D-06  NBF=   414
 NBsUse=   412 1.00D-06 EigRej=  7.13D-07 NBFU=   412
 ExpMin= 3.60D-02 ExpMax= 1.14D+04 ExpMxC= 1.72D+03 IAcc=3 IRadAn=         5 AccDes= 0.00D+00
 Harris functional with IExCor= 4639 and IRadAn=       5 diagonalized for initial guess.
 HarFok:  IExCor= 4639 AccDes= 0.00D+00 IRadAn=         5 IDoV= 1 UseB2=F ITyADJ=14
 ICtDFT=  3500011 ScaDFX=  1.000000  1.000000  1.000000  1.000000
 FoFCou: FMM=F IPFlag=           0 FMFlag=      100000 FMFlg1=           0
         NFxFlg=           0 DoJE=T BraDBF=F KetDBF=T FulRan=T
         wScrn=  0.000000 ICntrl=     500 IOpCl=  0 I1Cent=   200000004 NGrid=           0
         NMat0=    1 NMatS0=      1 NMatT0=    0 NMatD0=    1 NMtDS0=    0 NMtDT0=    0
 Petite list used in FoFCou.
 Requested convergence on RMS density matrix=1.00D-08 within 128 cycles.
 Requested convergence on MAX density matrix=1.00D-06.
 Requested convergence on             energy=1.00D-06.
 No special actions if energy rises.
 SCF Done:  E(RwB97XD) =  -731.265699410     A.U. after   18 cycles
            NFock= 18  Conv=0.57D-08     -V/T= 2.0025
 DoSCS=F DFT=T ScalE2(SS,OS)=  1.000000  1.000000
 ExpMin= 3.60D-02 ExpMax= 1.14D+04 ExpMxC= 1.72D+03 IAcc=3 IRadAn=         5 AccDes= 0.00D+00
 HarFok:  IExCor=  205 AccDes= 0.00D+00 IRadAn=         5 IDoV=-2 UseB2=F ITyADJ=14
 ICtDFT= 12500011 ScaDFX=  1.000000  1.000000  1.000000  1.000000
 Range of M.O.s used for correlation:    16   412
 NBasis=   414 NAE=    55 NBE=    55 NFC=    15 NFV=     0
 NROrb=    397 NOA=    40 NOB=    40 NVA=   357 NVB=   357

 **** Warning!!: The largest alpha MO coefficient is  0.13314338D+03

 Would need an additional         18421000000 words for in-memory AO integral storage.
 Orbital symmetries:
       Occupied  (A) (A) (A) (A) (A) (A) (A) (A) (A) (A) (A) (A)
                 (A) (A) (A) (A) (A) (A) (A) (A) (A) (A) (A) (A)
                 (A) (A) (A) (A) (A) (A) (A) (A) (A) (A) (A) (A)
                 (A) (A) (A) (A) (A) (A) (A) (A) (A) (A) (A) (A)
                 (A) (A) (A) (A) (A) (A) (A)
       Virtual   (A) (A) (A) (A) (A) (A) (A) (A) (A) (A) (A) (A)
                 (A) (A) (A) (A) (A) (A) (A) (A) (A) (A) (A) (A)
                 (A) (A) (A) (A) (A) (A) (A) (A) (A) (A) (A) (A)
                 (A) (A) (A) (A) (A) (A) (A) (A) (A) (A) (A) (A)
                 (A) (A) (A) (A) (A) (A) (A) (A) (A) (A) (A) (A)
                 (A) (A) (A) (A) (A) (A) (A) (A) (A) (A) (A) (A)
                 (A) (A) (A) (A) (A) (A) (A) (A) (A) (A) (A) (A)
                 (A) (A) (A) (A) (A) (A) (A) (A) (A) (A) (A) (A)
                 (A) (A) (A) (A) (A) (A) (A) (A) (A) (A) (A) (A)
                 (A) (A) (A) (A) (A) (A) (A) (A) (A) (A) (A) (A)
                 (A) (A) (A) (A) (A) (A) (A) (A) (A) (A) (A) (A)
                 (A) (A) (A) (A) (A) (A) (A) (A) (A) (A) (A) (A)
                 (A) (A) (A) (A) (A) (A) (A) (A) (A) (A) (A) (A)
                 (A) (A) (A) (A) (A) (A) (A) (A) (A) (A) (A) (A)
                 (A) (A) (A) (A) (A) (A) (A) (A) (A) (A) (A) (A)
                 (A) (A) (A) (A) (A) (A) (A) (A) (A) (A) (A) (A)
                 (A) (A) (A) (A) (A) (A) (A) (A) (A) (A) (A) (A)
                 (A) (A) (A) (A) (A) (A) (A) (A) (A) (A) (A) (A)
                 (A) (A) (A) (A) (A) (A) (A) (A) (A) (A) (A) (A)
                 (A) (A) (A) (A) (A) (A) (A) (A) (A) (A) (A) (A)
                 (A) (A) (A) (A) (A) (A) (A) (A) (A) (A) (A) (A)
                 (A) (A) (A) (A) (A) (A) (A) (A) (A) (A) (A) (A)
                 (A) (A) (A) (A) (A) (A) (A) (A) (A) (A) (A) (A)
                 (A) (A) (A) (A) (A) (A) (A) (A) (A) (A) (A) (A)
                 (A) (A) (A) (A) (A) (A) (A) (A) (A) (A) (A) (A)
                 (A) (A) (A) (A) (A) (A) (A) (A) (A) (A) (A) (A)
                 (A) (A) (A) (A) (A) (A) (A) (A) (A) (A) (A) (A)
                 (A) (A) (A) (A) (A) (A) (A) (A) (A) (A) (A) (A)
                 (A) (A) (A) (A) (A) (A) (A) (A) (A) (A) (A) (A)
                 (A) (A) (A) (A) (A) (A) (A) (A) (A)
     8 initial guesses have been made.
 Convergence on wavefunction:    0.000001000000000
 Iteration     1 Dimension     8 NMult     0 NNew      8
 CISAX will form     8 AO SS matrices at one time.
 Iteration     2 Dimension    12 NMult     8 NNew      4
 Iteration     3 Dimension    16 NMult    12 NNew      4
 Iteration     4 Dimension    20 NMult    16 NNew      4
 Iteration     5 Dimension    24 NMult    20 NNew      4
 Iteration     6 Dimension    28 NMult    24 NNew      4
 Iteration     7 Dimension    32 NMult    28 NNew      4
 Iteration     8 Dimension    36 NMult    32 NNew      4
 Iteration     9 Dimension    40 NMult    36 NNew      4
 Iteration    10 Dimension    44 NMult    40 NNew      4
 Iteration    11 Dimension    48 NMult    44 NNew      4
 Iteration    12 Dimension    52 NMult    48 NNew      4
 ***********************************************************************
 Excited states from <AA,BB:AA,BB> singles matrix:
 ***********************************************************************
 
 Ground to excited state transition densities written to RWF  633
 Ground to excited state transition electric dipole moments (Au):
       state          X           Y           Z        Dip. S.      Osc.
         1        -0.0218     -0.0373      0.0143      0.0021      0.0001
 Ground to excited state transition velocity dipole moments (Au):
       state          X           Y           Z        Dip. S.      Osc.
         1         0.0024      0.0065      0.0022      0.0001      0.0004
 Ground to excited state transition magnetic dipole moments (Au):
       state          X           Y           Z
         1        -0.1707     -0.3644     -0.0225
 Ground to excited state transition velocity quadrupole moments (Au):
       state          XX          YY          ZZ          XY          XZ          YZ
         1        -0.0166      0.0108     -0.0111      0.0163      0.0023     -0.0051
 <0|del|b> * <b|rxdel|0> + <0|del|b> * <b|delr+rdel|0>
 Rotatory Strengths (R) in cgs (10**-40 erg-esu-cm/Gauss)
       state          XX          YY          ZZ    R(velocity)    E-M Angle
         1        -9.0170     -1.9144    -10.3601     -7.0972      165.10
 1/2[<0|r|b>*<b|rxdel|0> + (<0|rxdel|b>*<b|r|0>)*]
 Rotatory Strengths (R) in cgs (10**-40 erg-esu-cm/Gauss)
       state          XX          YY          ZZ     R(length)
         1        -2.6329     -9.6172      0.2276     -4.0075
  1/2[<0|del|b>*<b|r|0> + (<0|r|b>*<b|del|0>)*] (Au)
       state          X           Y           Z        Dip. S.   Osc.(frdel)
         1        -0.0001     -0.0002      0.0000      0.0003      0.0002

 Excitation energies and oscillator strengths:
 
 Excited State   1:      Singlet-A      2.5623 eV  483.89 nm  f=0.0001  <S**2>=0.000
      52 -> 56         0.17121
      55 -> 56         0.65969
 This state for optimization and/or second-order correction.
 Total Energy, E(TD-HF/TD-KS) =  -731.171538043    
 Copying the excited state density for this state as the 1-particle RhoCI density.
 SavETr:  write IOETrn=   770 NScale= 10 NData=  16 NLR=1 NState=    1 LETran=      28.
          IDoAtm=111111111111111111111111111
          Differentiating once with respect to electric field.
                with respect to dipole field.
          Differentiating once with respect to nuclear coordinates.
          There are     1 degrees of freedom in the 1st order CPHF.  IDoFFX=0 NUNeed=     1.
 LinEq1:  Iter=  0 NonCon=     1 RMS=5.55D-03 Max=1.27D-01 NDo=     1
 AX will form     1 AO Fock derivatives at one time.
 LinEq1:  Iter=  1 NonCon=     1 RMS=2.48D-03 Max=1.16D-01 NDo=     1
 LinEq1:  Iter=  2 NonCon=     1 RMS=1.75D-03 Max=4.91D-02 NDo=     1
 LinEq1:  Iter=  3 NonCon=     1 RMS=7.37D-04 Max=5.37D-02 NDo=     1
 LinEq1:  Iter=  4 NonCon=     1 RMS=4.83D-04 Max=1.57D-02 NDo=     1
 LinEq1:  Iter=  5 NonCon=     1 RMS=2.28D-04 Max=1.16D-02 NDo=     1
 LinEq1:  Iter=  6 NonCon=     1 RMS=1.16D-04 Max=5.17D-03 NDo=     1
 LinEq1:  Iter=  7 NonCon=     1 RMS=5.40D-05 Max=2.56D-03 NDo=     1
 LinEq1:  Iter=  8 NonCon=     1 RMS=2.87D-05 Max=1.46D-03 NDo=     1
 LinEq1:  Iter=  9 NonCon=     1 RMS=1.36D-05 Max=7.42D-04 NDo=     1
 LinEq1:  Iter= 10 NonCon=     1 RMS=6.31D-06 Max=2.35D-04 NDo=     1
 LinEq1:  Iter= 11 NonCon=     1 RMS=3.38D-06 Max=1.55D-04 NDo=     1
 LinEq1:  Iter= 12 NonCon=     1 RMS=1.56D-06 Max=7.34D-05 NDo=     1
 LinEq1:  Iter= 13 NonCon=     1 RMS=7.75D-07 Max=4.75D-05 NDo=     1
 LinEq1:  Iter= 14 NonCon=     1 RMS=3.62D-07 Max=1.69D-05 NDo=     1
 LinEq1:  Iter= 15 NonCon=     1 RMS=1.54D-07 Max=7.50D-06 NDo=     1
 LinEq1:  Iter= 16 NonCon=     1 RMS=6.21D-08 Max=1.88D-06 NDo=     1
 LinEq1:  Iter= 17 NonCon=     1 RMS=3.04D-08 Max=1.39D-06 NDo=     1
 LinEq1:  Iter= 18 NonCon=     1 RMS=1.08D-08 Max=3.70D-07 NDo=     1
 LinEq1:  Iter= 19 NonCon=     1 RMS=4.43D-09 Max=1.96D-07 NDo=     1
 LinEq1:  Iter= 20 NonCon=     1 RMS=1.92D-09 Max=6.03D-08 NDo=     1
 LinEq1:  Iter= 21 NonCon=     1 RMS=6.36D-10 Max=1.52D-08 NDo=     1
 LinEq1:  Iter= 22 NonCon=     1 RMS=2.61D-10 Max=6.55D-09 NDo=     1
 LinEq1:  Iter= 23 NonCon=     1 RMS=1.00D-10 Max=1.80D-09 NDo=     1
 LinEq1:  Iter= 24 NonCon=     0 RMS=3.40D-11 Max=6.97D-10 NDo=     1
 Linear equations converged to 1.000D-10 1.000D-09 after    24 iterations.
 End of Minotr F.D. properties file   721 does not exist.
 End of Minotr F.D. properties file   722 does not exist.
 End of Minotr F.D. properties file   788 does not exist.

 **********************************************************************

            Population analysis using the SCF density.

 **********************************************************************

 Orbital symmetries:
       Occupied  (A) (A) (A) (A) (A) (A) (A) (A) (A) (A) (A) (A)
                 (A) (A) (A) (A) (A) (A) (A) (A) (A) (A) (A) (A)
                 (A) (A) (A) (A) (A) (A) (A) (A) (A) (A) (A) (A)
                 (A) (A) (A) (A) (A) (A) (A) (A) (A) (A) (A) (A)
                 (A) (A) (A) (A) (A) (A) (A)
       Virtual   (A) (A) (A) (A) (A) (A) (A) (A) (A) (A) (A) (A)
                 (A) (A) (A) (A) (A) (A) (A) (A) (A) (A) (A) (A)
                 (A) (A) (A) (A) (A) (A) (A) (A) (A) (A) (A) (A)
                 (A) (A) (A) (A) (A) (A) (A) (A) (A) (A) (A) (A)
                 (A) (A) (A) (A) (A) (A) (A) (A) (A) (A) (A) (A)
                 (A) (A) (A) (A) (A) (A) (A) (A) (A) (A) (A) (A)
                 (A) (A) (A) (A) (A) (A) (A) (A) (A) (A) (A) (A)
                 (A) (A) (A) (A) (A) (A) (A) (A) (A) (A) (A) (A)
                 (A) (A) (A) (A) (A) (A) (A) (A) (A) (A) (A) (A)
                 (A) (A) (A) (A) (A) (A) (A) (A) (A) (A) (A) (A)
                 (A) (A) (A) (A) (A) (A) (A) (A) (A) (A) (A) (A)
                 (A) (A) (A) (A) (A) (A) (A) (A) (A) (A) (A) (A)
                 (A) (A) (A) (A) (A) (A) (A) (A) (A) (A) (A) (A)
                 (A) (A) (A) (A) (A) (A) (A) (A) (A) (A) (A) (A)
                 (A) (A) (A) (A) (A) (A) (A) (A) (A) (A) (A) (A)
                 (A) (A) (A) (A) (A) (A) (A) (A) (A) (A) (A) (A)
                 (A) (A) (A) (A) (A) (A) (A) (A) (A) (A) (A) (A)
                 (A) (A) (A) (A) (A) (A) (A) (A) (A) (A) (A) (A)
                 (A) (A) (A) (A) (A) (A) (A) (A) (A) (A) (A) (A)
                 (A) (A) (A) (A) (A) (A) (A) (A) (A) (A) (A) (A)
                 (A) (A) (A) (A) (A) (A) (A) (A) (A) (A) (A) (A)
                 (A) (A) (A) (A) (A) (A) (A) (A) (A) (A) (A) (A)
                 (A) (A) (A) (A) (A) (A) (A) (A) (A) (A) (A) (A)
                 (A) (A) (A) (A) (A) (A) (A) (A) (A) (A) (A) (A)
                 (A) (A) (A) (A) (A) (A) (A) (A) (A) (A) (A) (A)
                 (A) (A) (A) (A) (A) (A) (A) (A) (A) (A) (A) (A)
                 (A) (A) (A) (A) (A) (A) (A) (A) (A) (A) (A) (A)
                 (A) (A) (A) (A) (A) (A) (A) (A) (A) (A) (A) (A)
                 (A) (A) (A) (A) (A) (A) (A) (A) (A) (A) (A) (A)
                 (A) (A) (A) (A) (A) (A) (A) (A) (A)
 The electronic state is 1-A.
 Alpha  occ. eigenvalues --  -24.89491 -19.26982 -19.22322 -14.45613 -10.40180
 Alpha  occ. eigenvalues --  -10.37306 -10.37240 -10.32223 -10.31822 -10.31810
 Alpha  occ. eigenvalues --  -10.31612 -10.29973 -10.28906 -10.28406 -10.25999
 Alpha  occ. eigenvalues --   -1.53736  -1.16636  -1.10355  -1.06210  -0.97290
 Alpha  occ. eigenvalues --   -0.88730  -0.86907  -0.86000  -0.83257  -0.80343
 Alpha  occ. eigenvalues --   -0.77633  -0.76573  -0.71147  -0.70197  -0.68644
 Alpha  occ. eigenvalues --   -0.65288  -0.64864  -0.60937  -0.59858  -0.58075
 Alpha  occ. eigenvalues --   -0.56444  -0.54972  -0.54207  -0.52743  -0.51521
 Alpha  occ. eigenvalues --   -0.50771  -0.50117  -0.49721  -0.48325  -0.47923
 Alpha  occ. eigenvalues --   -0.46819  -0.46279  -0.43335  -0.43197  -0.41708
 Alpha  occ. eigenvalues --   -0.40215  -0.34185  -0.32984  -0.31204  -0.25148
 Alpha virt. eigenvalues --    0.00048   0.03390   0.04352   0.05063   0.05328
 Alpha virt. eigenvalues --    0.05671   0.06315   0.06575   0.07692   0.08310
 Alpha virt. eigenvalues --    0.08474   0.09227   0.09736   0.09994   0.10217
 Alpha virt. eigenvalues --    0.10513   0.11846   0.12060   0.12708   0.13572
 Alpha virt. eigenvalues --    0.14155   0.14586   0.14984   0.15595   0.15846
 Alpha virt. eigenvalues --    0.16100   0.16361   0.16862   0.17114   0.17294
 Alpha virt. eigenvalues --    0.17439   0.18206   0.18508   0.18530   0.19184
 Alpha virt. eigenvalues --    0.19290   0.19524   0.20105   0.20392   0.20702
 Alpha virt. eigenvalues --    0.21329   0.22096   0.22396   0.22668   0.22969
 Alpha virt. eigenvalues --    0.23646   0.24000   0.24425   0.24664   0.25452
 Alpha virt. eigenvalues --    0.26030   0.26424   0.27485   0.27531   0.28388
 Alpha virt. eigenvalues --    0.28830   0.29179   0.29311   0.30097   0.30441
 Alpha virt. eigenvalues --    0.30758   0.31536   0.32060   0.32162   0.32463
 Alpha virt. eigenvalues --    0.33214   0.34091   0.34518   0.34868   0.36043
 Alpha virt. eigenvalues --    0.36574   0.36631   0.36973   0.38107   0.38173
 Alpha virt. eigenvalues --    0.38380   0.38907   0.39128   0.39521   0.40215
 Alpha virt. eigenvalues --    0.40870   0.41241   0.42036   0.42695   0.43128
 Alpha virt. eigenvalues --    0.43464   0.43771   0.45004   0.45715   0.46282
 Alpha virt. eigenvalues --    0.47392   0.48062   0.49339   0.51136   0.51665
 Alpha virt. eigenvalues --    0.51927   0.52555   0.53863   0.54355   0.54710
 Alpha virt. eigenvalues --    0.56770   0.58054   0.59507   0.60337   0.61122
 Alpha virt. eigenvalues --    0.61916   0.64462   0.65053   0.65515   0.66800
 Alpha virt. eigenvalues --    0.67492   0.67779   0.67914   0.69152   0.69472
 Alpha virt. eigenvalues --    0.70449   0.70661   0.71526   0.72305   0.72480
 Alpha virt. eigenvalues --    0.73400   0.73950   0.74789   0.75848   0.76181
 Alpha virt. eigenvalues --    0.77247   0.78264   0.79334   0.80146   0.80190
 Alpha virt. eigenvalues --    0.81017   0.81948   0.82845   0.84624   0.85893
 Alpha virt. eigenvalues --    0.87217   0.87895   0.88888   0.89996   0.92781
 Alpha virt. eigenvalues --    0.93283   0.95878   0.96556   0.97041   0.97468
 Alpha virt. eigenvalues --    0.98345   0.98800   1.00765   1.01769   1.03536
 Alpha virt. eigenvalues --    1.05090   1.05904   1.06394   1.07714   1.08628
 Alpha virt. eigenvalues --    1.08805   1.10476   1.11358   1.14038   1.15244
 Alpha virt. eigenvalues --    1.15728   1.17539   1.18530   1.20024   1.22670
 Alpha virt. eigenvalues --    1.23839   1.24261   1.26463   1.27827   1.28936
 Alpha virt. eigenvalues --    1.30797   1.33084   1.34501   1.35660   1.36290
 Alpha virt. eigenvalues --    1.37465   1.39777   1.41781   1.42727   1.43751
 Alpha virt. eigenvalues --    1.46933   1.48122   1.50923   1.52983   1.53179
 Alpha virt. eigenvalues --    1.53924   1.54756   1.55874   1.58457   1.60623
 Alpha virt. eigenvalues --    1.61082   1.61485   1.62748   1.63875   1.64239
 Alpha virt. eigenvalues --    1.65065   1.65410   1.65911   1.67799   1.69320
 Alpha virt. eigenvalues --    1.70552   1.71384   1.73637   1.75003   1.75551
 Alpha virt. eigenvalues --    1.77191   1.78552   1.78753   1.81414   1.82091
 Alpha virt. eigenvalues --    1.83736   1.84875   1.86314   1.87627   1.90196
 Alpha virt. eigenvalues --    1.91168   1.92077   1.94383   1.95464   1.97966
 Alpha virt. eigenvalues --    1.98976   2.00293   2.02412   2.03458   2.03620
 Alpha virt. eigenvalues --    2.06597   2.07071   2.07645   2.08167   2.08942
 Alpha virt. eigenvalues --    2.11530   2.12182   2.14035   2.14161   2.17228
 Alpha virt. eigenvalues --    2.20464   2.23593   2.24007   2.26176   2.27044
 Alpha virt. eigenvalues --    2.28776   2.29466   2.31737   2.34224   2.36128
 Alpha virt. eigenvalues --    2.38784   2.41601   2.43226   2.45051   2.50890
 Alpha virt. eigenvalues --    2.51656   2.52774   2.55279   2.57431   2.57717
 Alpha virt. eigenvalues --    2.58752   2.60998   2.63151   2.65197   2.66311
 Alpha virt. eigenvalues --    2.67434   2.69503   2.70629   2.73370   2.74430
 Alpha virt. eigenvalues --    2.75744   2.78553   2.79937   2.80479   2.81463
 Alpha virt. eigenvalues --    2.82110   2.82588   2.84142   2.85041   2.86586
 Alpha virt. eigenvalues --    2.87043   2.89558   2.92683   2.93215   2.95834
 Alpha virt. eigenvalues --    2.97021   2.98976   3.02537   3.03761   3.06090
 Alpha virt. eigenvalues --    3.09406   3.11512   3.15028   3.16365   3.17374
 Alpha virt. eigenvalues --    3.17560   3.20468   3.21147   3.28443   3.28688
 Alpha virt. eigenvalues --    3.29886   3.32766   3.35882   3.39567   3.42860
 Alpha virt. eigenvalues --    3.43931   3.48168   3.56087   3.57456   3.59846
 Alpha virt. eigenvalues --    3.64969   3.68440   3.70942   3.75200   3.76538
 Alpha virt. eigenvalues --    3.82359   3.83715   3.84424   3.84608   3.87836
 Alpha virt. eigenvalues --    3.92108   3.95768   3.96496   4.03475   4.12559
 Alpha virt. eigenvalues --    4.13663   4.18282   4.19777   4.25588   4.31193
 Alpha virt. eigenvalues --    4.32114   4.37895   4.54209   4.55683   4.87761
 Alpha virt. eigenvalues --    4.95522   4.99923   5.13384   5.19026   5.21071
 Alpha virt. eigenvalues --    5.44557   5.57730   5.83751   5.91421   6.36832
 Alpha virt. eigenvalues --    6.56445   7.09276  23.75845  23.98055  24.03032
 Alpha virt. eigenvalues --   24.05155  24.06990  24.08411  24.15309  24.21285
 Alpha virt. eigenvalues --   24.23780  24.27936  24.33572  35.72402  50.10978
 Alpha virt. eigenvalues --   50.14280  66.97960
          Condensed to atoms (all electrons):
               1          2          3          4          5          6
     1  C    5.160172   0.387982   0.389773  -0.065602   0.003660   0.230194
     2  H    0.387982   0.508322  -0.029746   0.010915  -0.007202  -0.055356
     3  H    0.389773  -0.029746   0.556994  -0.005971   0.001775  -0.068819
     4  C   -0.065602   0.010915  -0.005971   5.157548   0.405570   0.253017
     5  H    0.003660  -0.007202   0.001775   0.405570   0.589309  -0.063790
     6  N    0.230194  -0.055356  -0.068819   0.253017  -0.063790   6.931850
     7  H    0.436407  -0.012469  -0.050813   0.005569   0.001323  -0.049223
     8  H   -0.005798   0.003916  -0.002383   0.393062  -0.032112  -0.094471
     9  H    0.000509  -0.003163   0.002001   0.431718  -0.071306  -0.062831
    10  C   -0.295684   0.036028   0.000459  -0.061893  -0.033562   0.265302
    11  H    0.009022  -0.000899   0.000986  -0.032716   0.007976  -0.078982
    12  C    0.295307   0.005143   0.013290  -0.190830   0.018392  -0.329906
    13  C   -0.036362  -0.011664   0.017621  -0.015304   0.010283  -0.014530
    14  H    0.022460  -0.001635  -0.002500  -0.011824   0.003150  -0.043685
    15  O   -0.005692  -0.000498   0.000105  -0.001853  -0.000062  -0.000594
    16  C   -0.126007  -0.008539   0.009531   0.032398   0.004224  -0.056506
    17  C   -0.008408  -0.000599  -0.000692   0.006620   0.000835  -0.018099
    18  C    0.026097   0.000196  -0.003246   0.017239  -0.001133   0.047403
    19  O    0.000036   0.000001   0.000043  -0.000199   0.000001  -0.000314
    20  C    0.002796   0.000083  -0.001166   0.001399   0.000128  -0.004576
    21  C    0.008311   0.000793   0.002883  -0.005162  -0.000799   0.028710
    22  H    0.003920   0.000431  -0.004383   0.001656  -0.000568   0.005752
    23  H   -0.000958  -0.000092   0.000030   0.000230  -0.000009   0.000820
    24  H   -0.000026  -0.000001  -0.000003  -0.000012   0.000000   0.000015
    25  C    0.000411   0.000014   0.000087   0.000956   0.000009  -0.000455
    26  H   -0.000633  -0.000049   0.000230  -0.000108   0.000009   0.000011
    27  F    0.000012   0.000001  -0.000003  -0.000001   0.000000  -0.000002
               7          8          9         10         11         12
     1  C    0.436407  -0.005798   0.000509  -0.295684   0.009022   0.295307
     2  H   -0.012469   0.003916  -0.003163   0.036028  -0.000899   0.005143
     3  H   -0.050813  -0.002383   0.002001   0.000459   0.000986   0.013290
     4  C    0.005569   0.393062   0.431718  -0.061893  -0.032716  -0.190830
     5  H    0.001323  -0.032112  -0.071306  -0.033562   0.007976   0.018392
     6  N   -0.049223  -0.094471  -0.062831   0.265302  -0.078982  -0.329906
     7  H    0.523749  -0.000794  -0.000872   0.005796  -0.004594   0.010700
     8  H   -0.000794   0.553166  -0.018649   0.100650  -0.008191  -0.019196
     9  H   -0.000872  -0.018649   0.574039  -0.004814  -0.002016  -0.007397
    10  C    0.005796   0.100650  -0.004814   8.469803   0.203162  -1.845845
    11  H   -0.004594  -0.008191  -0.002016   0.203162   0.550048   0.225654
    12  C    0.010700  -0.019196  -0.007397  -1.845845   0.225654  15.541153
    13  C   -0.044118  -0.003742  -0.007881  -1.004549   0.015346   2.406015
    14  H   -0.006925  -0.003098  -0.001782  -0.226590   0.025678   0.691143
    15  O   -0.000720   0.001748   0.000117  -0.006837  -0.006946  -0.684636
    16  C   -0.005084  -0.000342   0.000976   0.747701   0.005562  -5.549308
    17  C   -0.001701  -0.000342   0.000108   0.012319   0.028341  -1.508244
    18  C    0.005269   0.000093  -0.000733   0.297794  -0.067376  -2.615843
    19  O   -0.000124   0.000058  -0.000003  -0.009264  -0.001225  -0.017357
    20  C   -0.000402  -0.000494   0.000027  -0.093196   0.007798  -0.868183
    21  C    0.000089   0.001972  -0.000410   0.069769  -0.024147   0.981548
    22  H    0.000826   0.000261   0.000157  -0.009964  -0.004106  -0.091212
    23  H    0.000258   0.000049   0.000027   0.008172  -0.002081  -0.013984
    24  H    0.000001   0.000009  -0.000001  -0.000331  -0.000098  -0.003563
    25  C    0.000063  -0.000129   0.000007   0.038335   0.001561  -0.256508
    26  H    0.000025   0.000042  -0.000004   0.003941  -0.000144  -0.003367
    27  F   -0.000002  -0.000002   0.000000  -0.000785   0.000047   0.005283
              13         14         15         16         17         18
     1  C   -0.036362   0.022460  -0.005692  -0.126007  -0.008408   0.026097
     2  H   -0.011664  -0.001635  -0.000498  -0.008539  -0.000599   0.000196
     3  H    0.017621  -0.002500   0.000105   0.009531  -0.000692  -0.003246
     4  C   -0.015304  -0.011824  -0.001853   0.032398   0.006620   0.017239
     5  H    0.010283   0.003150  -0.000062   0.004224   0.000835  -0.001133
     6  N   -0.014530  -0.043685  -0.000594  -0.056506  -0.018099   0.047403
     7  H   -0.044118  -0.006925  -0.000720  -0.005084  -0.001701   0.005269
     8  H   -0.003742  -0.003098   0.001748  -0.000342  -0.000342   0.000093
     9  H   -0.007881  -0.001782   0.000117   0.000976   0.000108  -0.000733
    10  C   -1.004549  -0.226590  -0.006837   0.747701   0.012319   0.297794
    11  H    0.015346   0.025678  -0.006946   0.005562   0.028341  -0.067376
    12  C    2.406015   0.691143  -0.684636  -5.549308  -1.508244  -2.615843
    13  C   15.148807   0.012951   0.784664  -2.320227  -1.151289  -4.505357
    14  H    0.012951   0.544223   0.005683  -0.029933   0.025854  -0.177982
    15  O    0.784664   0.005683   8.096009   0.048781   0.192838  -0.151574
    16  C   -2.320227  -0.029933   0.048781  16.047537   0.676879  -1.304034
    17  C   -1.151289   0.025854   0.192838   0.676879  16.869669  -5.737283
    18  C   -4.505357  -0.177982  -0.151574  -1.304034  -5.737283  18.578942
    19  O   -0.100652   0.000073  -0.035527   0.133707   0.285523   0.058383
    20  C   -3.912599   0.003355  -0.059629  -1.675241  -2.395859   3.598232
    21  C    1.913310  -0.029429  -0.015905  -1.175013   0.663487  -3.406710
    22  H   -0.111025  -0.010139  -0.001794  -0.117232  -0.032991   0.724539
    23  H    0.027015  -0.001931   0.097939  -0.190716   0.123810  -0.012971
    24  H   -0.014662  -0.000197   0.000057  -0.052159  -0.013463   0.009682
    25  C   -1.199225  -0.004669   0.000161  -0.187889  -1.783061   1.267625
    26  H    0.023711  -0.000212   0.000315   0.078410   0.045590  -0.105322
    27  F    0.009702   0.000093  -0.000039   0.023615  -0.125777  -0.073063
              19         20         21         22         23         24
     1  C    0.000036   0.002796   0.008311   0.003920  -0.000958  -0.000026
     2  H    0.000001   0.000083   0.000793   0.000431  -0.000092  -0.000001
     3  H    0.000043  -0.001166   0.002883  -0.004383   0.000030  -0.000003
     4  C   -0.000199   0.001399  -0.005162   0.001656   0.000230  -0.000012
     5  H    0.000001   0.000128  -0.000799  -0.000568  -0.000009   0.000000
     6  N   -0.000314  -0.004576   0.028710   0.005752   0.000820   0.000015
     7  H   -0.000124  -0.000402   0.000089   0.000826   0.000258   0.000001
     8  H    0.000058  -0.000494   0.001972   0.000261   0.000049   0.000009
     9  H   -0.000003   0.000027  -0.000410   0.000157   0.000027  -0.000001
    10  C   -0.009264  -0.093196   0.069769  -0.009964   0.008172  -0.000331
    11  H   -0.001225   0.007798  -0.024147  -0.004106  -0.002081  -0.000098
    12  C   -0.017357  -0.868183   0.981548  -0.091212  -0.013984  -0.003563
    13  C   -0.100652  -3.912599   1.913310  -0.111025   0.027015  -0.014662
    14  H    0.000073   0.003355  -0.029429  -0.010139  -0.001931  -0.000197
    15  O   -0.035527  -0.059629  -0.015905  -0.001794   0.097939   0.000057
    16  C    0.133707  -1.675241  -1.175013  -0.117232  -0.190716  -0.052159
    17  C    0.285523  -2.395859   0.663487  -0.032991   0.123810  -0.013463
    18  C    0.058383   3.598232  -3.406710   0.724539  -0.012971   0.009682
    19  O    8.042141  -0.363365   0.011222  -0.000730   0.234394  -0.024143
    20  C   -0.363365  12.393746  -2.419409   0.142319   0.036179   0.548978
    21  C    0.011222  -2.419409  10.045975  -0.218296   0.011137  -0.039511
    22  H   -0.000730   0.142319  -0.218296   0.474067  -0.000914   0.001459
    23  H    0.234394   0.036179   0.011137  -0.000914   0.371912   0.001719
    24  H   -0.024143   0.548978  -0.039511   0.001459   0.001719   0.458229
    25  C    0.036844   1.516312  -0.337916   0.040996  -0.006049  -0.092993
    26  H    0.000287  -0.063807   0.472898  -0.019984   0.000499  -0.000408
    27  F   -0.001103  -0.201879  -0.171917   0.002864  -0.000024  -0.021413
              25         26         27
     1  C    0.000411  -0.000633   0.000012
     2  H    0.000014  -0.000049   0.000001
     3  H    0.000087   0.000230  -0.000003
     4  C    0.000956  -0.000108  -0.000001
     5  H    0.000009   0.000009   0.000000
     6  N   -0.000455   0.000011  -0.000002
     7  H    0.000063   0.000025  -0.000002
     8  H   -0.000129   0.000042  -0.000002
     9  H    0.000007  -0.000004   0.000000
    10  C    0.038335   0.003941  -0.000785
    11  H    0.001561  -0.000144   0.000047
    12  C   -0.256508  -0.003367   0.005283
    13  C   -1.199225   0.023711   0.009702
    14  H   -0.004669  -0.000212   0.000093
    15  O    0.000161   0.000315  -0.000039
    16  C   -0.187889   0.078410   0.023615
    17  C   -1.783061   0.045590  -0.125777
    18  C    1.267625  -0.105322  -0.073063
    19  O    0.036844   0.000287  -0.001103
    20  C    1.516312  -0.063807  -0.201879
    21  C   -0.337916   0.472898  -0.171917
    22  H    0.040996  -0.019984   0.002864
    23  H   -0.006049   0.000499  -0.000024
    24  H   -0.092993  -0.000408  -0.021413
    25  C    7.186810  -0.108437   0.299762
    26  H   -0.108437   0.475102  -0.026387
    27  F    0.299762  -0.026387   9.211904
 Mulliken charges:
               1
     1  C   -0.431898
     2  H    0.178087
     3  H    0.173918
     4  C   -0.326425
     5  H    0.163905
     6  N    0.179066
     7  H    0.187764
     8  H    0.134719
     9  H    0.172176
    10  C   -0.665918
    11  H    0.152338
    12  C   -0.188250
    13  C    0.083762
    14  H    0.217870
    15  O   -0.256111
    16  C    0.988912
    17  C   -0.154064
    18  C   -0.468869
    19  O   -0.248709
    20  C   -0.191545
    21  C   -0.367481
    22  H    0.224091
    23  H    0.315540
    24  H    0.242835
    25  C   -0.412620
    26  H    0.227793
    27  F    0.069114
 Sum of Mulliken charges =   0.00000
 Mulliken charges with hydrogens summed into heavy atoms:
               1
     1  C    0.107870
     4  C    0.144375
     6  N    0.179066
    10  C   -0.513580
    12  C    0.029620
    13  C    0.083762
    15  O   -0.256111
    16  C    0.988912
    17  C   -0.154064
    18  C   -0.244777
    19  O    0.066831
    20  C    0.051289
    21  C   -0.139688
    25  C   -0.412620
    27  F    0.069114
 Electronic spatial extent (au):  <R**2>=           4484.5852
 Charge=              0.0000 electrons
 Dipole moment (field-independent basis, Debye):
    X=              1.6941    Y=             -4.6572    Z=              0.3743  Tot=              4.9699
 Quadrupole moment (field-independent basis, Debye-Ang):
   XX=            -65.6729   YY=            -94.4243   ZZ=            -85.3575
   XY=             -0.0042   XZ=              1.0320   YZ=              0.2562
 Traceless Quadrupole moment (field-independent basis, Debye-Ang):
   XX=             16.1453   YY=            -12.6061   ZZ=             -3.5393
   XY=             -0.0042   XZ=              1.0320   YZ=              0.2562
 Octapole moment (field-independent basis, Debye-Ang**2):
  XXX=             28.2973  YYY=            -30.1275  ZZZ=              6.1629  XYY=            -12.8402
  XXY=            -30.1862  XXZ=              7.1579  XZZ=              7.9403  YZZ=              0.6223
  YYZ=             -0.7848  XYZ=             -0.1837
 Hexadecapole moment (field-independent basis, Debye-Ang**3):
 XXXX=          -3973.8332 YYYY=           -883.3160 ZZZZ=           -306.0454 XXXY=             -5.1413
 XXXZ=            -13.1328 YYYX=             60.8716 YYYZ=              5.2626 ZZZX=             -0.5758
 ZZZY=             -7.0758 XXYY=           -916.9018 XXZZ=           -776.5150 YYZZ=           -202.9002
 XXYZ=             -4.2456 YYXZ=              5.4167 ZZXY=              9.4856
 N-N= 9.502638902383D+02 E-N=-3.611498180944D+03  KE= 7.294514703478D+02
 Calling FoFJK, ICntrl=  10005127 FMM=F ISym2X=0 I1Cent= 0 IOpClX= 0 NMat=1 NMatS=1 NMatT=0.
 ***** Axes restored to original set *****
 -------------------------------------------------------------------
 Center     Atomic                   Forces (Hartrees/Bohr)
 Number     Number              X              Y              Z
 -------------------------------------------------------------------
      1        6          -0.000199126    0.000182955   -0.000457291
      2        1           0.000120930    0.000035254    0.000001141
      3        1           0.000012223   -0.000104850    0.000122003
      4        6          -0.000029054   -0.000317521    0.000282554
      5        1          -0.000049957    0.000145655   -0.000013192
      6        7           0.001076821    0.001001972    0.000222616
      7        1          -0.000088676   -0.000083381    0.000093995
      8        1          -0.000009743   -0.000003563   -0.000028539
      9        1           0.000159617    0.000135039   -0.000065543
     10        6          -0.000574415   -0.001308945    0.000216839
     11        1          -0.000040922   -0.000098527   -0.000043888
     12        6          -0.001280856   -0.000716976   -0.001356780
     13        6           0.000588106    0.004625067    0.002414178
     14        1           0.000636062   -0.000050372    0.000596598
     15        8           0.002513378   -0.003838439   -0.003283562
     16        6           0.000592741    0.001982144    0.002335688
     17        6           0.000578778    0.000592307    0.000500163
     18        6           0.001729959   -0.004761450   -0.004469175
     19        8          -0.002320561    0.001732083    0.001814345
     20        6           0.017092566   -0.007832964   -0.009306265
     21        6           0.016323259    0.004839979    0.002364489
     22        1          -0.000502634   -0.000215638   -0.000088301
     23        1           0.001094678    0.000552861    0.000313781
     24        1          -0.002278114    0.000801942    0.000997667
     25        6           0.442825654   -0.033141651   -0.082954821
     26        1          -0.002837786   -0.000580531   -0.000154015
     27        9          -0.475132927    0.036427551    0.089945315
 -------------------------------------------------------------------
 Cartesian Forces:  Max     0.475132927 RMS     0.073713882

 GradGradGradGradGradGradGradGradGradGradGradGradGradGradGradGradGradGrad
 Berny optimization.
 FormGI is forming the generalized inverse of G from B-inverse, IUseBI=4.
 GSVD:  received Info=                   1 from GESDD.
 Internal  Forces:  Max     0.484942321 RMS     0.043632674
 Search for a local minimum.
 Step number   1 out of a maximum of  134
 All quantities printed in internal units (Hartrees-Bohrs-Radians)
 Mixed Optimization -- RFO/linear search
 Second derivative matrix not updated -- first step.
 ITU=  0
     Eigenvalues ---    0.00945   0.00980   0.01255   0.01403   0.01671
     Eigenvalues ---    0.01846   0.01882   0.01918   0.01923   0.02060
     Eigenvalues ---    0.02101   0.02172   0.02180   0.02209   0.02239
     Eigenvalues ---    0.02246   0.02275   0.02296   0.02447   0.02626
     Eigenvalues ---    0.07444   0.07540   0.07575   0.07650   0.15747
     Eigenvalues ---    0.16000   0.16000   0.16000   0.16000   0.16000
     Eigenvalues ---    0.16000   0.16000   0.16000   0.16000   0.16000
     Eigenvalues ---    0.16000   0.22000   0.22060   0.22366   0.23486
     Eigenvalues ---    0.24600   0.24966   0.24998   0.24998   0.24999
     Eigenvalues ---    0.25000   0.25000   0.25000   0.34481   0.34483
     Eigenvalues ---    0.34510   0.34580   0.34925   0.34986   0.34987
     Eigenvalues ---    0.35336   0.35469   0.35478   0.35513   0.36586
     Eigenvalues ---    0.37416   0.37754   0.39973   0.41440   0.43548
     Eigenvalues ---    0.44953   0.45434   0.47202   0.48042   0.48362
     Eigenvalues ---    0.52730   0.54117   0.59650   0.66626   1.94286
 RFO step:  Lambda=-1.16207629D-01 EMin= 9.45482339D-03
 Linear search not attempted -- first point.
 Iteration  1 RMS(Cart)=  0.02703675 RMS(Int)=  0.00318983
 Iteration  2 RMS(Cart)=  0.00312477 RMS(Int)=  0.00002432
 Iteration  3 RMS(Cart)=  0.00000180 RMS(Int)=  0.00002428
 Iteration  4 RMS(Cart)=  0.00000000 RMS(Int)=  0.00002428
 Variable       Old X    -DE/DX   Delta X   Delta X   Delta X     New X
                                 (Linear)    (Quad)   (Total)
    R1        2.05697   0.00012   0.00000   0.00026   0.00026   2.05723
    R2        2.06479   0.00008   0.00000   0.00017   0.00017   2.06496
    R3        2.75223  -0.00030   0.00000  -0.00061  -0.00061   2.75162
    R4        2.06362   0.00004   0.00000   0.00010   0.00010   2.06372
    R5        2.06526   0.00010   0.00000   0.00022   0.00022   2.06548
    R6        2.74725  -0.00009   0.00000  -0.00019  -0.00019   2.74706
    R7        2.05696   0.00003   0.00000   0.00007   0.00007   2.05703
    R8        2.06522   0.00015   0.00000   0.00033   0.00033   2.06555
    R9        2.51218   0.00135   0.00000   0.00189   0.00189   2.51407
   R10        2.04906   0.00003   0.00000   0.00006   0.00006   2.04912
   R11        2.61895  -0.00031   0.00000  -0.00052  -0.00052   2.61843
   R12        2.76475  -0.00100   0.00000  -0.00207  -0.00207   2.76268
   R13        2.05796   0.00079   0.00000   0.00171   0.00171   2.05967
   R14        2.46052   0.00563   0.00000   0.00720   0.00720   2.46772
   R15        2.66999   0.00308   0.00000   0.00558   0.00558   2.67558
   R16        2.69327  -0.00162   0.00000  -0.00404  -0.00410   2.68917
   R17        2.67082  -0.00386   0.00000  -0.00794  -0.00799   2.66283
   R18        2.55925  -0.00335   0.00000  -0.00510  -0.00510   2.55416
   R19        2.61354   0.00030   0.00000   0.00048   0.00048   2.61402
   R20        2.61802   0.00383   0.00000   0.00643   0.00643   2.62446
   R21        2.05132  -0.00049   0.00000  -0.00105  -0.00105   2.05027
   R22        1.83906   0.00108   0.00000   0.00168   0.00168   1.84075
   R23        2.04851   0.00048   0.00000   0.00103   0.00103   2.04953
   R24        2.63711   0.01454   0.00000   0.02598   0.02604   2.66314
   R25        2.62989   0.01338   0.00000   0.02374   0.02379   2.65368
   R26        2.04920   0.00042   0.00000   0.00090   0.00090   2.05010
   R27        2.04780   0.48494   0.00000   0.23552   0.23552   2.28331
    A1        1.90125  -0.00002   0.00000   0.00002   0.00002   1.90127
    A2        1.90010   0.00002   0.00000   0.00014   0.00014   1.90025
    A3        1.90081   0.00001   0.00000   0.00006   0.00006   1.90087
    A4        1.93154   0.00013   0.00000   0.00047   0.00047   1.93200
    A5        1.90569  -0.00015   0.00000  -0.00063  -0.00063   1.90506
    A6        1.92404  -0.00001   0.00000  -0.00006  -0.00006   1.92398
    A7        1.92277   0.00008   0.00000   0.00029   0.00029   1.92306
    A8        1.90228  -0.00007   0.00000  -0.00032  -0.00032   1.90196
    A9        1.90145  -0.00011   0.00000  -0.00032  -0.00032   1.90113
   A10        1.91731  -0.00007   0.00000  -0.00029  -0.00029   1.91703
   A11        1.91838   0.00022   0.00000   0.00084   0.00084   1.91922
   A12        1.90135  -0.00006   0.00000  -0.00022  -0.00022   1.90113
   A13        2.04903  -0.00001   0.00000  -0.00002  -0.00002   2.04900
   A14        2.11680  -0.00009   0.00000  -0.00024  -0.00024   2.11656
   A15        2.11730   0.00010   0.00000   0.00026   0.00026   2.11756
   A16        2.02255  -0.00020   0.00000  -0.00053  -0.00053   2.02201
   A17        2.20101   0.00060   0.00000   0.00178   0.00178   2.20279
   A18        2.05960  -0.00040   0.00000  -0.00125  -0.00125   2.05835
   A19        2.08377  -0.00021   0.00000  -0.00065  -0.00065   2.08311
   A20        2.09602  -0.00031   0.00000  -0.00121  -0.00121   2.09481
   A21        2.07986   0.00050   0.00000   0.00174   0.00174   2.08160
   A22        1.79419  -0.00059   0.00000  -0.00164  -0.00164   1.79256
   A23        2.24261   0.00138   0.00000   0.00373   0.00373   2.24635
   A24        2.24436  -0.00080   0.00000  -0.00221  -0.00221   2.24215
   A25        2.09849  -0.00076   0.00000  -0.00033  -0.00027   2.09822
   A26        2.13240   0.00305   0.00000   0.01007   0.01013   2.14253
   A27        2.05223  -0.00229   0.00000  -0.00974  -0.00986   2.04237
   A28        2.11241  -0.00230   0.00000  -0.00530  -0.00527   2.10714
   A29        2.10065   0.00406   0.00000   0.00910   0.00904   2.10970
   A30        2.07012  -0.00176   0.00000  -0.00381  -0.00378   2.06634
   A31        2.11906   0.00363   0.00000   0.00876   0.00871   2.12777
   A32        2.07389  -0.00157   0.00000  -0.00348  -0.00345   2.07044
   A33        2.09023  -0.00207   0.00000  -0.00528  -0.00526   2.08498
   A34        1.89483  -0.00119   0.00000  -0.00433  -0.00433   1.89050
   A35        2.06225   0.00053   0.00000   0.00275   0.00273   2.06497
   A36        2.10794   0.00422   0.00000   0.01357   0.01362   2.12156
   A37        2.11299  -0.00474   0.00000  -0.01632  -0.01635   2.09665
   A38        2.09414   0.00394   0.00000   0.01286   0.01292   2.10706
   A39        2.09053   0.00097   0.00000   0.00421   0.00418   2.09471
   A40        2.09850  -0.00491   0.00000  -0.01706  -0.01709   2.08141
   A41        2.09230  -0.01356   0.00000  -0.03455  -0.03443   2.05788
   A42        2.08838   0.00690   0.00000   0.01762   0.01756   2.10593
   A43        2.10249   0.00665   0.00000   0.01693   0.01688   2.11937
    D1       -0.08596  -0.00005   0.00000  -0.00035  -0.00035  -0.08631
    D2        3.06768  -0.00005   0.00000  -0.00035  -0.00035   3.06733
    D3        2.00314   0.00003   0.00000   0.00005   0.00005   2.00319
    D4       -1.12641   0.00003   0.00000   0.00005   0.00005  -1.12636
    D5       -2.17000  -0.00007   0.00000  -0.00047  -0.00047  -2.17047
    D6        0.98364  -0.00007   0.00000  -0.00047  -0.00047   0.98316
    D7       -1.03738  -0.00010   0.00000  -0.00064  -0.00064  -1.03802
    D8        2.09216  -0.00010   0.00000  -0.00064  -0.00064   2.09152
    D9       -3.13320  -0.00002   0.00000  -0.00024  -0.00024  -3.13344
   D10       -0.00365  -0.00002   0.00000  -0.00024  -0.00024  -0.00390
   D11        1.05808  -0.00004   0.00000  -0.00032  -0.00032   1.05776
   D12       -2.09556  -0.00004   0.00000  -0.00032  -0.00032  -2.09588
   D13       -3.11725   0.00000   0.00000   0.00002   0.00002  -3.11723
   D14        0.03286   0.00006   0.00000   0.00041   0.00041   0.03327
   D15        0.03686   0.00000   0.00000   0.00002   0.00002   0.03688
   D16       -3.09622   0.00006   0.00000   0.00041   0.00041  -3.09581
   D17       -3.01784  -0.00010   0.00000  -0.00061  -0.00061  -3.01844
   D18       -0.10949  -0.00013   0.00000  -0.00100  -0.00100  -0.11049
   D19        0.13243  -0.00004   0.00000  -0.00022  -0.00022   0.13221
   D20        3.04078  -0.00007   0.00000  -0.00061  -0.00061   3.04016
   D21        1.46917  -0.00008   0.00000  -0.00061  -0.00060   1.46856
   D22       -1.73666  -0.00036   0.00000  -0.00260  -0.00260  -1.73926
   D23       -1.44135   0.00005   0.00000   0.00018   0.00018  -1.44117
   D24        1.63601  -0.00023   0.00000  -0.00182  -0.00182   1.63419
   D25       -3.10635   0.00003   0.00000   0.00029   0.00029  -3.10606
   D26        0.04759   0.00004   0.00000   0.00032   0.00032   0.04791
   D27       -0.04492  -0.00028   0.00000  -0.00209  -0.00209  -0.04702
   D28        3.10901  -0.00027   0.00000  -0.00206  -0.00206   3.10695
   D29        0.01938  -0.00006   0.00000  -0.00036  -0.00036   0.01902
   D30       -3.12036  -0.00001   0.00000  -0.00004  -0.00004  -3.12040
   D31       -3.13400  -0.00002   0.00000  -0.00025  -0.00025  -3.13425
   D32        0.00945   0.00002   0.00000   0.00006   0.00006   0.00951
   D33        3.12125  -0.00001   0.00000  -0.00006  -0.00006   3.12118
   D34       -0.02390  -0.00002   0.00000  -0.00009  -0.00009  -0.02398
   D35       -0.00832  -0.00002   0.00000  -0.00009  -0.00009  -0.00841
   D36        3.12972  -0.00002   0.00000  -0.00012  -0.00011   3.12961
   D37        0.01410  -0.00003   0.00000  -0.00019  -0.00019   0.01391
   D38       -3.12932  -0.00006   0.00000  -0.00048  -0.00048  -3.12980
   D39        3.14039  -0.00002   0.00000  -0.00019  -0.00019   3.14020
   D40       -0.00433  -0.00002   0.00000  -0.00014  -0.00015  -0.00448
   D41        0.00061   0.00002   0.00000   0.00011   0.00011   0.00073
   D42        3.13908   0.00002   0.00000   0.00016   0.00016   3.13924
   D43        0.00195   0.00002   0.00000   0.00019   0.00020   0.00215
   D44        3.13866   0.00000   0.00000   0.00002   0.00003   3.13868
   D45       -3.13606   0.00002   0.00000   0.00022   0.00022  -3.13584
   D46        0.00065   0.00000   0.00000   0.00005   0.00005   0.00069
   D47       -0.00231   0.00004   0.00000   0.00025   0.00025  -0.00206
   D48       -3.13847  -0.00008   0.00000  -0.00053  -0.00053  -3.13900
   D49        3.13606   0.00005   0.00000   0.00034   0.00034   3.13640
   D50       -0.00010  -0.00006   0.00000  -0.00045  -0.00045  -0.00054
   D51        0.00352  -0.00004   0.00000  -0.00029  -0.00028   0.00324
   D52        3.13964   0.00007   0.00000   0.00051   0.00051   3.14014
   D53       -3.13316  -0.00003   0.00000  -0.00018  -0.00017  -3.13333
   D54        0.00296   0.00008   0.00000   0.00062   0.00062   0.00357
         Item               Value     Threshold  Converged?
 Maximum Force            0.484942     0.000450     NO 
 RMS     Force            0.043633     0.000300     NO 
 Maximum Displacement     0.292355     0.001800     NO 
 RMS     Displacement     0.029828     0.001200     NO 
 Predicted change in Energy=-6.160049D-02
 GradGradGradGradGradGradGradGradGradGradGradGradGradGradGradGradGradGrad

                          Input orientation:                          
 ---------------------------------------------------------------------
 Center     Atomic      Atomic             Coordinates (Angstroms)
 Number     Number       Type             X           Y           Z
 ---------------------------------------------------------------------
      1          6           0        0.706382   -0.650873    8.454444
      2          1           0        1.589688   -0.015976    8.496965
      3          1           0        0.134652   -0.525229    9.377155
      4          6           0        0.346335    0.886023    6.533541
      5          1           0        0.372217    1.772826    7.171955
      6          7           0       -0.092426   -0.269828    7.298192
      7          1           0        1.022978   -1.692478    8.368149
      8          1           0       -0.339684    1.064523    5.707452
      9          1           0        1.347227    0.709369    6.131365
     10          6           0       -1.188761   -0.945054    6.963441
     11          1           0       -1.703298   -0.600045    6.073483
     12          6           0       -1.725724   -2.024537    7.646307
     13          6           0       -2.849664   -2.754693    7.062421
     14          1           0       -1.187705   -2.459370    8.488569
     15          8           0       -2.258646   -3.594339    6.255593
     16          6           0       -4.229035   -2.643530    7.361788
     17          6           0       -5.173965   -3.481991    6.706693
     18          6           0       -4.735187   -1.711530    8.289568
     19          8           0       -4.769948   -4.408188    5.809053
     20          6           0       -6.527079   -3.367907    6.970379
     21          6           0       -6.094445   -1.601330    8.552337
     22          1           0       -4.036619   -1.066805    8.812508
     23          1           0       -3.798724   -4.369507    5.745312
     24          1           0       -7.210634   -4.027141    6.446505
     25          6           0       -7.021370   -2.427084    7.895897
     26          1           0       -6.450358   -0.874623    9.274940
     27          9           0       -8.206492   -2.343101    8.115825
 ---------------------------------------------------------------------
                    Distance matrix (angstroms):
                    1          2          3          4          5
     1  C    0.000000
     2  H    1.088638   0.000000
     3  H    1.092729   1.775163   0.000000
     4  C    2.486273   2.492903   3.181601   0.000000
     5  H    2.762384   2.537263   3.193807   1.093006   0.000000
     6  N    1.456094   2.081108   2.106866   1.453683   2.098634
     7  H    1.092071   1.774377   1.780361   3.236094   3.723265
     8  H    3.403352   3.559683   4.027285   1.088534   1.775744
     9  H    2.767243   2.486157   3.678277   1.093040   1.778880
    10  C    2.429238   3.306760   2.784545   2.427792   3.141178
    11  H    3.387937   4.130153   3.781258   2.573139   3.338401
    12  C    2.907779   3.968614   2.950383   3.742063   4.364210
    13  C    4.359960   5.409838   4.385733   4.873289   5.557963
    14  H    2.619044   3.699211   2.505817   4.167381   4.698757
    15  O    4.721263   5.712977   4.989135   5.190070   6.047117
    16  C    5.433500   6.484614   5.252683   5.837615   6.380577
    17  C    6.756356   7.808031   6.637411   7.041537   7.654392
    18  C    5.546426   6.551485   5.128888   5.970994   6.282943
    19  O    7.148824   8.182992   7.201654   7.397966   8.155016
    20  C    7.868144   8.913351   7.632304   8.095095   8.606280
    21  C    6.867620   7.846166   6.374949   7.193476   7.423483
    22  H    4.774648   5.732289   4.244012   5.312015   5.494793
    23  H    6.439224   7.453845   6.590918   6.739689   7.560444
    24  H    8.837995   9.886329   8.649008   9.014130   9.574212
    25  C    7.948902   8.962424   7.551148   8.192421   8.533960
    26  H    7.207094   8.123107   6.595065   7.537252   7.614398
    27  F    9.078415  10.076007   8.629617   9.278022   9.561694
                    6          7          8          9         10
     6  N    0.000000
     7  H    2.100683   0.000000
     8  H    2.090952   4.066597   0.000000
     9  H    2.095927   3.298061   1.775248   0.000000
    10  C    1.330390   2.724635   2.517308   3.140175   0.000000
    11  H    2.050332   3.727128   2.182706   3.320183   1.084345
    12  C    2.422365   2.861238   3.901609   4.383185   1.385611
    13  C    3.719208   4.222628   4.766797   5.520914   2.458291
    14  H    2.722266   2.343020   4.568542   4.692888   2.149226
    15  O    4.102670   4.341546   5.068320   5.616018   2.943538
    16  C    4.769700   5.431473   5.622592   6.621976   3.505249
    17  C    6.040687   6.660697   6.711151   7.773316   4.731154
    18  C    4.961507   5.758732   5.804674   6.893065   3.863060
    19  O    6.420496   6.890721   7.041883   7.982048   5.113786
    20  C    7.149148   7.859019   7.715263   8.906897   5.862415
    21  C    6.274552   7.120389   6.951073   8.159590   5.198175
    22  H    4.299416   5.117464   5.277429   6.271293   3.397671
    23  H    5.740683   6.106927   6.441667   7.240499   4.474665
    24  H    8.093927   8.771302   8.583775   9.786257   6.784500
    25  C    7.281570   8.091612   7.850194   9.109573   6.089763
    26  H    6.685552   7.572443   7.336729   8.555315   5.747381
    27  F    8.414573   9.255813   8.904989  10.223951   7.247832
                   11         12         13         14         15
    11  H    0.000000
    12  C    2.122134   0.000000
    13  C    2.633375   1.461949   0.000000
    14  H    3.091208   1.089931   2.209802   0.000000
    15  O    3.050799   2.163878   1.305863   2.724197   0.000000
    16  C    3.494984   2.594354   1.415854   3.248575   2.451558
    17  C    4.555447   3.859717   2.461275   4.484540   2.952151
    18  C    3.916476   3.093319   2.479773   3.630908   3.716890
    19  O    4.896551   4.280723   2.827094   4.879565   2.677383
    20  C    5.633325   5.031355   3.729327   5.624878   4.333787
    21  C    5.140959   4.481709   3.752159   4.981605   4.894943
    22  H    3.628293   2.759983   2.705667   3.187551   4.010913
    23  H    4.325199   3.661966   2.289784   4.241638   1.798085
    24  H    6.497298   5.961056   4.584379   6.550084   4.974530
    25  C    5.911105   5.316785   4.266748   5.863782   5.170746
    26  H    5.732303   5.128051   4.625462   5.552055   5.838129
    27  F    7.035690   6.505557   5.474912   7.029638   6.356329
                   16         17         18         19         20
    16  C    0.000000
    17  C    1.423046   0.000000
    18  C    1.409109   2.415068   0.000000
[...]
 Alpha virt. eigenvalues --   -0.01713   0.03114   0.04383   0.04469   0.04889
 Alpha virt. eigenvalues --    0.05683   0.06236   0.06443   0.07386   0.07951
 Alpha virt. eigenvalues --    0.08297   0.08863   0.09182   0.09528   0.09673
 Alpha virt. eigenvalues --    0.10049   0.11519   0.11674   0.12816   0.13653
 Alpha virt. eigenvalues --    0.13991   0.14331   0.14622   0.15231   0.15610
 Alpha virt. eigenvalues --    0.16167   0.16426   0.16655   0.16922   0.17120
 Alpha virt. eigenvalues --    0.17377   0.17971   0.18210   0.18404   0.18903
 Alpha virt. eigenvalues --    0.18997   0.19434   0.19667   0.20248   0.20416
 Alpha virt. eigenvalues --    0.21082   0.21299   0.21876   0.22288   0.22557
 Alpha virt. eigenvalues --    0.23097   0.23480   0.23843   0.24176   0.25056
 Alpha virt. eigenvalues --    0.25361   0.25531   0.26296   0.27205   0.27807
 Alpha virt. eigenvalues --    0.28258   0.28725   0.28891   0.29423   0.29601
 Alpha virt. eigenvalues --    0.30198   0.31003   0.31424   0.31997   0.32171
 Alpha virt. eigenvalues --    0.32457   0.33220   0.34014   0.34290   0.34990
 Alpha virt. eigenvalues --    0.35478   0.36064   0.36222   0.37161   0.37607
 Alpha virt. eigenvalues --    0.37718   0.38036   0.38695   0.39268   0.39509
 Alpha virt. eigenvalues --    0.39846   0.40890   0.41658   0.42003   0.42466
 Alpha virt. eigenvalues --    0.43751   0.44734   0.45072   0.45547   0.46108
 Alpha virt. eigenvalues --    0.46789   0.47959   0.49207   0.50205   0.50728
 Alpha virt. eigenvalues --    0.51222   0.51979   0.52356   0.53282   0.54007
 Alpha virt. eigenvalues --    0.54701   0.56780   0.58942   0.59114   0.60085
 Alpha virt. eigenvalues --    0.60693   0.63289   0.63880   0.64796   0.65513
 Alpha virt. eigenvalues --    0.66498   0.67115   0.67128   0.68442   0.68929
 Alpha virt. eigenvalues --    0.69164   0.70146   0.70823   0.71142   0.71638
 Alpha virt. eigenvalues --    0.72572   0.73066   0.74113   0.74742   0.75194
 Alpha virt. eigenvalues --    0.76350   0.77520   0.78377   0.78871   0.79567
 Alpha virt. eigenvalues --    0.80174   0.81029   0.82089   0.82689   0.84433
 Alpha virt. eigenvalues --    0.85866   0.87243   0.88220   0.89148   0.91616
 Alpha virt. eigenvalues --    0.92637   0.93333   0.95698   0.96342   0.96843
 Alpha virt. eigenvalues --    0.97711   0.98280   0.99110   1.00545   1.02397
 Alpha virt. eigenvalues --    1.03218   1.04994   1.05768   1.06967   1.07784
 Alpha virt. eigenvalues --    1.08559   1.09430   1.11323   1.12926   1.14124
 Alpha virt. eigenvalues --    1.14704   1.16446   1.18071   1.19563   1.21483
 Alpha virt. eigenvalues --    1.22955   1.23699   1.23988   1.25860   1.28164
 Alpha virt. eigenvalues --    1.29846   1.30740   1.33600   1.35416   1.36234
 Alpha virt. eigenvalues --    1.37533   1.39857   1.41814   1.45962   1.46514
 Alpha virt. eigenvalues --    1.49067   1.50782   1.51048   1.52315   1.52748
 Alpha virt. eigenvalues --    1.53611   1.54856   1.57589   1.57944   1.58623
 Alpha virt. eigenvalues --    1.60428   1.61565   1.62261   1.62553   1.63665
 Alpha virt. eigenvalues --    1.64160   1.64749   1.64817   1.67214   1.68107
 Alpha virt. eigenvalues --    1.69330   1.70600   1.72597   1.74456   1.74558
 Alpha virt. eigenvalues --    1.76021   1.77593   1.78061   1.80053   1.81265
 Alpha virt. eigenvalues --    1.82833   1.83692   1.84950   1.87183   1.89175
 Alpha virt. eigenvalues --    1.90589   1.91100   1.92952   1.95744   1.97233
 Alpha virt. eigenvalues --    1.97822   2.00061   2.02158   2.02697   2.03381
 Alpha virt. eigenvalues --    2.05502   2.06774   2.06949   2.07613   2.08326
 Alpha virt. eigenvalues --    2.11107   2.11605   2.13313   2.14859   2.16358
 Alpha virt. eigenvalues --    2.17578   2.19607   2.22864   2.23510   2.25445
 Alpha virt. eigenvalues --    2.26435   2.28030   2.29836   2.33589   2.36272
 Alpha virt. eigenvalues --    2.38387   2.40670   2.41796   2.44263   2.50312
 Alpha virt. eigenvalues --    2.51034   2.52364   2.54686   2.56845   2.57133
 Alpha virt. eigenvalues --    2.58087   2.60603   2.62368   2.64269   2.66007
 Alpha virt. eigenvalues --    2.66679   2.69847   2.70478   2.72577   2.73261
 Alpha virt. eigenvalues --    2.74558   2.76490   2.78027   2.79483   2.80704
 Alpha virt. eigenvalues --    2.81274   2.81649   2.83313   2.83903   2.85781
 Alpha virt. eigenvalues --    2.86189   2.88467   2.91736   2.92199   2.94967
 Alpha virt. eigenvalues --    2.95828   2.98301   3.01413   3.03201   3.04880
 Alpha virt. eigenvalues --    3.08263   3.11011   3.13606   3.14569   3.16524
 Alpha virt. eigenvalues --    3.16845   3.19568   3.19989   3.21924   3.27884
 Alpha virt. eigenvalues --    3.28098   3.28622   3.32186   3.35294   3.38295
 Alpha virt. eigenvalues --    3.42463   3.47264   3.50286   3.57009   3.58702
 Alpha virt. eigenvalues --    3.64719   3.67699   3.71008   3.74370   3.75899
 Alpha virt. eigenvalues --    3.79967   3.83219   3.84053   3.86599   3.87426
 Alpha virt. eigenvalues --    3.91038   3.94024   3.95390   3.95760   4.02656
 Alpha virt. eigenvalues --    4.06105   4.12116   4.13453   4.17541   4.20443
 Alpha virt. eigenvalues --    4.25646   4.29110   4.36235   4.52441   4.91745
 Alpha virt. eigenvalues --    4.95438   4.99150   5.12473   5.18339   5.19824
 Alpha virt. eigenvalues --    5.43141   5.56980   5.82414   5.90419   6.42746
 Alpha virt. eigenvalues --    6.55323   6.84796  23.67019  23.94896  24.00824
 Alpha virt. eigenvalues --   24.02040  24.06378  24.07839  24.09082  24.14985
 Alpha virt. eigenvalues --   24.22147  24.26780  24.29921  35.71715  50.09861
 Alpha virt. eigenvalues --   50.13072  66.93356
          Condensed to atoms (all electrons):
               1          2          3          4          5          6
     1  C    5.166374   0.387777   0.393176  -0.067956   0.008278   0.230337
     2  H    0.387777   0.507293  -0.029844   0.011220  -0.007556  -0.055359
     3  H    0.393176  -0.029844   0.551525  -0.007306   0.002214  -0.067804
     4  C   -0.067956   0.011220  -0.007306   5.165127   0.401249   0.256727
     5  H    0.008278  -0.007556   0.002214   0.401249   0.587855  -0.063230
     6  N    0.230337  -0.055359  -0.067804   0.256727  -0.063230   6.912481
     7  H    0.432350  -0.011846  -0.049371   0.006530   0.001247  -0.047627
     8  H   -0.005745   0.003931  -0.002198   0.391857  -0.033655  -0.095476
     9  H   -0.004937  -0.002492   0.002406   0.434532  -0.069963  -0.060491
    10  C   -0.309604   0.036427  -0.002959  -0.061630  -0.038481   0.265034
    11  H    0.009802  -0.000989   0.000276  -0.031253   0.008416  -0.074890
    12  C    0.287330   0.004872   0.011472  -0.203600   0.021104  -0.336487
    13  C   -0.027503  -0.011180   0.018856  -0.016470   0.010171  -0.006916
    14  H    0.024408  -0.001723  -0.002388  -0.012461   0.003154  -0.041630
    15  O   -0.004682  -0.000490   0.000018  -0.001532  -0.000065  -0.000431
    16  C   -0.123662  -0.008432   0.011550   0.036488   0.003925  -0.051004
    17  C   -0.005234  -0.000467  -0.000515   0.006817   0.000842  -0.016485
    18  C    0.029969   0.000238  -0.003469   0.017162  -0.001265   0.050479
    19  O   -0.000006  -0.000001   0.000043  -0.000206   0.000001  -0.000304
    20  C    0.003711   0.000113  -0.001331   0.001281   0.000113  -0.003798
    21  C    0.006668   0.000669   0.002133  -0.004393  -0.000654   0.025119
    22  H    0.004379   0.000457  -0.004389   0.001711  -0.000615   0.005270
    23  H   -0.000949  -0.000097   0.000034   0.000261  -0.000009   0.000801
    24  H   -0.000017   0.000000  -0.000009  -0.000018  -0.000001   0.000012
    25  C    0.000920   0.000047  -0.000041   0.000633  -0.000016  -0.000088
    26  H   -0.000683  -0.000052   0.000259  -0.000057   0.000011   0.000007
    27  F    0.000004   0.000000  -0.000001  -0.000001   0.000000   0.000000
               7          8          9         10         11         12
     1  C    0.432350  -0.005745  -0.004937  -0.309604   0.009802   0.287330
     2  H   -0.011846   0.003931  -0.002492   0.036427  -0.000989   0.004872
     3  H   -0.049371  -0.002198   0.002406  -0.002959   0.000276   0.011472
     4  C    0.006530   0.391857   0.434532  -0.061630  -0.031253  -0.203600
     5  H    0.001247  -0.033655  -0.069963  -0.038481   0.008416   0.021104
     6  N   -0.047627  -0.095476  -0.060491   0.265034  -0.074890  -0.336487
     7  H    0.521845  -0.001019  -0.001235   0.013792  -0.003781   0.011663
     8  H   -0.001019   0.552474  -0.017073   0.101394  -0.008825  -0.018243
     9  H   -0.001235  -0.017073   0.568918  -0.000425  -0.002047  -0.011463
    10  C    0.013792   0.101394  -0.000425   8.585186   0.202962  -1.955132
    11  H   -0.003781  -0.008825  -0.002047   0.202962   0.547688   0.224950
    12  C    0.011663  -0.018243  -0.011463  -1.955132   0.224950  15.415334
    13  C   -0.050746  -0.003096  -0.006946  -1.033331   0.015122   2.519152
    14  H   -0.006342  -0.002983  -0.001792  -0.234242   0.024905   0.710871
    15  O   -0.000563   0.001762   0.000185  -0.005177  -0.007626  -0.675556
    16  C   -0.006808   0.000349   0.002031   0.834253   0.000603  -5.692165
    17  C   -0.001792   0.000003   0.000257   0.024934   0.026414  -1.456384
    18  C    0.005070  -0.000275  -0.001056   0.232928  -0.065505  -2.278034
    19  O   -0.000125   0.000066  -0.000005  -0.009129  -0.001346  -0.024593
    20  C   -0.000468  -0.000359   0.000014  -0.110461   0.005537  -0.779330
    21  C    0.000371   0.001476  -0.000449   0.105314  -0.021305   0.681603
    22  H    0.000805   0.000298   0.000107  -0.014947  -0.003953  -0.072032
    23  H    0.000267   0.000043   0.000030   0.008219  -0.002095  -0.012200
    24  H    0.000001   0.000009  -0.000001  -0.000960  -0.000122  -0.002144
    25  C   -0.000057  -0.000150   0.000012   0.017994   0.001841  -0.170637
    26  H    0.000034   0.000037  -0.000002   0.006327  -0.000135  -0.007649
    27  F   -0.000001   0.000000   0.000000  -0.000284   0.000012   0.000913
              13         14         15         16         17         18
     1  C   -0.027503   0.024408  -0.004682  -0.123662  -0.005234   0.029969
     2  H   -0.011180  -0.001723  -0.000490  -0.008432  -0.000467   0.000238
     3  H    0.018856  -0.002388   0.000018   0.011550  -0.000515  -0.003469
     4  C   -0.016470  -0.012461  -0.001532   0.036488   0.006817   0.017162
     5  H    0.010171   0.003154  -0.000065   0.003925   0.000842  -0.001265
     6  N   -0.006916  -0.041630  -0.000431  -0.051004  -0.016485   0.050479
     7  H   -0.050746  -0.006342  -0.000563  -0.006808  -0.001792   0.005070
     8  H   -0.003096  -0.002983   0.001762   0.000349   0.000003  -0.000275
     9  H   -0.006946  -0.001792   0.000185   0.002031   0.000257  -0.001056
    10  C   -1.033331  -0.234242  -0.005177   0.834253   0.024934   0.232928
    11  H    0.015122   0.024905  -0.007626   0.000603   0.026414  -0.065505
    12  C    2.519152   0.710871  -0.675556  -5.692165  -1.456384  -2.278034
    13  C   15.278406   0.012029   0.764026  -2.675340  -1.215078  -4.105544
    14  H    0.012029   0.540036   0.004521  -0.048790   0.019976  -0.165688
    15  O    0.764026   0.004521   8.075758   0.057066   0.202049  -0.164408
    16  C   -2.675340  -0.048790   0.057066  16.496239   0.803416  -1.470850
    17  C   -1.215078   0.019976   0.202049   0.803416  17.021117  -6.025367
    18  C   -4.105544  -0.165688  -0.164408  -1.470850  -6.025367  17.790714
    19  O   -0.102278  -0.000035  -0.032646   0.127777   0.293961   0.059886
    20  C   -3.894913   0.001326  -0.056712  -2.012942  -3.325606   4.305065
    21  C    1.514253  -0.027401  -0.014566  -0.827998   1.186142  -2.917654
    22  H   -0.108250  -0.009609  -0.001867  -0.163739  -0.054032   0.728647
    23  H    0.032568  -0.001848   0.097603  -0.189314   0.120325  -0.015907
    24  H   -0.017903  -0.000179  -0.000107  -0.068445  -0.094321   0.055975
    25  C   -0.972151  -0.001891   0.001387  -0.208178  -1.391017   0.641083
    26  H    0.020381  -0.000431   0.000365   0.100426   0.081077  -0.148914
    27  F   -0.001036   0.000029  -0.000015   0.013750  -0.071818  -0.052407
              19         20         21         22         23         24
     1  C   -0.000006   0.003711   0.006668   0.004379  -0.000949  -0.000017
     2  H   -0.000001   0.000113   0.000669   0.000457  -0.000097   0.000000
     3  H    0.000043  -0.001331   0.002133  -0.004389   0.000034  -0.000009
     4  C   -0.000206   0.001281  -0.004393   0.001711   0.000261  -0.000018
     5  H    0.000001   0.000113  -0.000654  -0.000615  -0.000009  -0.000001
     6  N   -0.000304  -0.003798   0.025119   0.005270   0.000801   0.000012
     7  H   -0.000125  -0.000468   0.000371   0.000805   0.000267   0.000001
     8  H    0.000066  -0.000359   0.001476   0.000298   0.000043   0.000009
     9  H   -0.000005   0.000014  -0.000449   0.000107   0.000030  -0.000001
    10  C   -0.009129  -0.110461   0.105314  -0.014947   0.008219  -0.000960
    11  H   -0.001346   0.005537  -0.021305  -0.003953  -0.002095  -0.000122
    12  C   -0.024593  -0.779330   0.681603  -0.072032  -0.012200  -0.002144
    13  C   -0.102278  -3.894913   1.514253  -0.108250   0.032568  -0.017903
    14  H   -0.000035   0.001326  -0.027401  -0.009609  -0.001848  -0.000179
    15  O   -0.032646  -0.056712  -0.014566  -0.001867   0.097603  -0.000107
    16  C    0.127777  -2.012942  -0.827998  -0.163739  -0.189314  -0.068445
    17  C    0.293961  -3.325606   1.186142  -0.054032   0.120325  -0.094321
    18  C    0.059886   4.305065  -2.917654   0.728647  -0.015907   0.055975
    19  O    8.031881  -0.351455   0.013072  -0.000300   0.236677  -0.022230
    20  C   -0.351455  15.531973  -4.286697   0.206394   0.030096   0.714330
    21  C    0.013072  -4.286697  11.104232  -0.237845   0.015555  -0.104925
    22  H   -0.000300   0.206394  -0.237845   0.474554  -0.000806   0.003492
    23  H    0.236677   0.030096   0.015555  -0.000806   0.367717   0.001862
    24  H   -0.022230   0.714330  -0.104925   0.003492   0.001862   0.451013
    25  C    0.021400   0.496142  -0.310976   0.038961  -0.008505  -0.159394
    26  H    0.000237  -0.160192   0.605559  -0.021978   0.000631  -0.002554
    27  F   -0.000485  -0.209722  -0.196670   0.001940  -0.000059  -0.020228
              25         26         27
     1  C    0.000920  -0.000683   0.000004
     2  H    0.000047  -0.000052   0.000000
     3  H   -0.000041   0.000259  -0.000001
     4  C    0.000633  -0.000057  -0.000001
     5  H   -0.000016   0.000011   0.000000
     6  N   -0.000088   0.000007   0.000000
     7  H   -0.000057   0.000034  -0.000001
     8  H   -0.000150   0.000037   0.000000
     9  H    0.000012  -0.000002   0.000000
    10  C    0.017994   0.006327  -0.000284
    11  H    0.001841  -0.000135   0.000012
    12  C   -0.170637  -0.007649   0.000913
    13  C   -0.972151   0.020381  -0.001036
    14  H   -0.001891  -0.000431   0.000029
    15  O    0.001387   0.000365  -0.000015
    16  C   -0.208178   0.100426   0.013750
    17  C   -1.391017   0.081077  -0.071818
    18  C    0.641083  -0.148914  -0.052407
    19  O    0.021400   0.000237  -0.000485
    20  C    0.496142  -0.160192  -0.209722
    21  C   -0.310976   0.605559  -0.196670
    22  H    0.038961  -0.021978   0.001940
    23  H   -0.008505   0.000631  -0.000059
    24  H   -0.159394  -0.002554  -0.020228
    25  C    8.050693  -0.167483   0.591196
    26  H   -0.167483   0.467301  -0.024766
    27  F    0.591196  -0.024766   9.121631
 Mulliken charges:
               1
     1  C   -0.434504
     2  H    0.177486
     3  H    0.177664
     4  C   -0.324710
     5  H    0.166930
     6  N    0.175752
     7  H    0.187807
     8  H    0.135400
     9  H    0.171887
    10  C   -0.658001
    11  H    0.155347
    12  C   -0.193614
    13  C    0.063719
    14  H    0.218180
    15  O   -0.238299
    16  C    1.059795
    17  C   -0.129215
    18  C   -0.500871
    19  O   -0.239855
    20  C   -0.102109
    21  C   -0.310632
    22  H    0.227350
    23  H    0.319101
    24  H    0.266863
    25  C   -0.471728
    26  H    0.252242
    27  F   -0.151982
 Sum of Mulliken charges =   0.00000
 Mulliken charges with hydrogens summed into heavy atoms:
               1
     1  C    0.108453
     4  C    0.149507
     6  N    0.175752
    10  C   -0.502654
    12  C    0.024565
    13  C    0.063719
    15  O   -0.238299
    16  C    1.059795
    17  C   -0.129215
    18  C   -0.273522
    19  O    0.079246
    20  C    0.164753
    21  C   -0.058390
    25  C   -0.471728
    27  F   -0.151982
 Electronic spatial extent (au):  <R**2>=           4563.8153
 Charge=              0.0000 electrons
 Dipole moment (field-independent basis, Debye):
    X=              3.9575    Y=             -3.6210    Z=              0.1888  Tot=              5.3674
 Quadrupole moment (field-independent basis, Debye-Ang):
   XX=            -76.9868   YY=            -94.6616   ZZ=            -85.1655
   XY=             -5.7653   XZ=              1.7601   YZ=              0.7232
 Traceless Quadrupole moment (field-independent basis, Debye-Ang):
   XX=              8.6178   YY=             -9.0569   ZZ=              0.4391
   XY=             -5.7653   XZ=              1.7601   YZ=              0.7232
 Octapole moment (field-independent basis, Debye-Ang**2):
  XXX=            103.1733  YYY=            -27.7001  ZZZ=              5.9944  XYY=             -5.8471
  XXY=             -3.2497  XXZ=              4.5738  XZZ=              9.8693  YZZ=              1.2339
  YYZ=             -1.7868  XYZ=             -2.4618
 Hexadecapole moment (field-independent basis, Debye-Ang**3):
 XXXX=          -4364.7016 YYYY=           -888.9946 ZZZZ=           -305.3545 XXXY=           -150.5251
 XXXZ=              0.9356 YYYX=             48.6850 YYYZ=              7.3790 ZZZX=              0.0367
 ZZZY=             -6.3197 XXYY=           -966.0203 XXZZ=           -790.8922 YYZZ=           -204.0614
 XXYZ=              3.2098 YYXZ=              8.9326 ZZXY=              6.4333
 N-N= 9.399836069785D+02 E-N=-3.590410364066D+03  KE= 7.284936043456D+02
 1\1\GINC-NXN32\FOpt\RwB97XD TD-FC\6-311++G(d,p)\C11H12F1N1O2\BTX008\25
 -Jul-2017\0\\# wb97xd 6-311++g** opt td=(nstates=1,root=1)\\2-opt with
  chain c=c rotated like 1\\0,1\C,0.7073216592,-0.6501545601,8.45203229
 3\H,1.6152613256,-0.0497936914,8.4628643857\H,0.1511166891,-0.47025568
 46,9.37543563\C,0.3334304485,0.893022247,6.5390816998\H,0.3057850917,1
 .7792760172,7.1783765399\N,-0.0886041178,-0.2786045272,7.2900298678\H,
 0.9822304776,-1.7050909799,8.3977971925\H,-0.3305631776,1.0472998741,5
 .6905068353\H,1.3527698761,0.7517634107,6.1721143679\C,-1.1832067235,-
 0.9537268962,6.956149474\H,-1.6961112485,-0.6118034162,6.0640551498\C,
 -1.7225532186,-2.0309206448,7.643226871\C,-2.845175528,-2.7632662069,7
 .058679169\H,-1.1899294363,-2.4597684402,8.4911948749\O,-2.2630505149,
 -3.6095695198,6.2567558773\C,-4.2223232511,-2.6490036206,7.3615232609\
 C,-5.1687370061,-3.4874328072,6.6996145123\C,-4.7192441123,-1.71456569
 29,8.2938956932\O,-4.7702937399,-4.4120751105,5.8009272501\C,-6.521397
 778,-3.3676945508,6.9626881872\C,-6.0767433419,-1.5941549646,8.5595617
 712\H,-4.0202795405,-1.0745817554,8.8214473178\H,-3.7976373562,-4.3803
 049368,5.7367823876\H,-7.2305616009,-4.0072718623,6.4532238885\C,-6.95
 01157792,-2.4236786946,7.8845213163\H,-6.4542804271,-0.8777267213,9.27
 77162229\F,-8.2773926691,-2.3223332645,8.1296339643\\Version=ES64L-G09
 RevD.01\State=1-A\HF=-731.3495288\RMSD=7.165e-09\RMSF=3.555e-06\Dipole
 =4.2686441,3.1630182,0.7548326\PG=C01 [X(C11H12F1N1O2)]\\@


 VIRTUE IS LEARNED AT YOUR MOTHER'S KNEE,
 VICES ARE PICKED UP AT SOME OTHER JOINT.
 Job cpu time:       1 days  4 hours 32 minutes 14.0 seconds.
 File lengths (MBytes):  RWF=    172 Int=      0 D2E=      0 Chk=     24 Scr=      1
 Normal termination of Gaussian 09 at Tue Jul 25 20:57:43 2017.
