 Entering Gaussian System, Link 0=g09
 Input=2_optS1_rotated.com
 Output=2_optS1_rotated.out
 Initial command:
 /share/apps/gaussian/g09_D01/g09/l1.exe "/tmp/3877180.1.smserial.q/Gau-34821.inp" -scrdir="/tmp/3877180.1.smserial.q/"
 Entering Link 1 = /share/apps/gaussian/g09_D01/g09/l1.exe PID=     34822.
  
 Copyright (c) 1988,1990,1992,1993,1995,1998,2003,2009,2013,
            Gaussian, Inc.  All Rights Reserved.
  
 This is part of the Gaussian(R) 09 program.  It is based on
 the Gaussian(R) 03 system (copyright 2003, Gaussian, Inc.),
 the Gaussian(R) 98 system (copyright 1998, Gaussian, Inc.),
 the Gaussian(R) 94 system (copyright 1995, Gaussian, Inc.),
 the Gaussian 92(TM) system (copyright 1992, Gaussian, Inc.),
 the Gaussian 90(TM) system (copyright 1990, Gaussian, Inc.),
 the Gaussian 88(TM) system (copyright 1988, Gaussian, Inc.),
 the Gaussian 86(TM) system (copyright 1986, Carnegie Mellon
 University), and the Gaussian 82(TM) system (copyright 1983,
 Carnegie Mellon University). Gaussian is a federally registered
 trademark of Gaussian, Inc.
  
 This software contains proprietary and confidential information,
 including trade secrets, belonging to Gaussian, Inc.
  
 This software is provided under written license and may be
 used, copied, transmitted, or stored only in accord with that
 written license.
  
 The following legend is applicable only to US Government
 contracts under FAR:
  
                    RESTRICTED RIGHTS LEGEND
  
 Use, reproduction and disclosure by the US Government is
 subject to restrictions as set forth in subparagraphs (a)
 and (c) of the Commercial Computer Software - Restricted
 Rights clause in FAR 52.227-19.
  
 Gaussian, Inc.
 340 Quinnipiac St., Bldg. 40, Wallingford CT 06492
  
  
 ---------------------------------------------------------------
 Warning -- This program may not be used in any manner that
 competes with the business of Gaussian, Inc. or will provide
 assistance to any competitor of Gaussian, Inc.  The licensee
 of this program is prohibited from giving any competitor of
 Gaussian, Inc. access to this program.  By using this program,
 the user acknowledges that Gaussian, Inc. is engaged in the
 business of creating and licensing software in the field of
 computational chemistry and represents and warrants to the
 licensee that it is not a competitor of Gaussian, Inc. and that
 it will not use this program in any manner prohibited above.
 ---------------------------------------------------------------
  

 Cite this work as:
 Gaussian 09, Revision D.01,
 M. J. Frisch, G. W. Trucks, H. B. Schlegel, G. E. Scuseria, 
 M. A. Robb, J. R. Cheeseman, G. Scalmani, V. Barone, B. Mennucci, 
 G. A. Petersson, H. Nakatsuji, M. Caricato, X. Li, H. P. Hratchian, 
 A. F. Izmaylov, J. Bloino, G. Zheng, J. L. Sonnenberg, M. Hada, 
 M. Ehara, K. Toyota, R. Fukuda, J. Hasegawa, M. Ishida, T. Nakajima, 
 Y. Honda, O. Kitao, H. Nakai, T. Vreven, J. A. Montgomery, Jr., 
 J. E. Peralta, F. Ogliaro, M. Bearpark, J. J. Heyd, E. Brothers, 
 K. N. Kudin, V. N. Staroverov, T. Keith, R. Kobayashi, J. Normand, 
 K. Raghavachari, A. Rendell, J. C. Burant, S. S. Iyengar, J. Tomasi, 
 M. Cossi, N. Rega, J. M. Millam, M. Klene, J. E. Knox, J. B. Cross, 
 V. Bakken, C. Adamo, J. Jaramillo, R. Gomperts, R. E. Stratmann, 
 O. Yazyev, A. J. Austin, R. Cammi, C. Pomelli, J. W. Ochterski, 
 R. L. Martin, K. Morokuma, V. G. Zakrzewski, G. A. Voth, 
 P. Salvador, J. J. Dannenberg, S. Dapprich, A. D. Daniels, 
 O. Farkas, J. B. Foresman, J. V. Ortiz, J. Cioslowski, 
 and D. J. Fox, Gaussian, Inc., Wallingford CT, 2013.
 
 ******************************************
 Gaussian 09:  ES64L-G09RevD.01 24-Apr-2013
                 5-Dec-2016 
 ******************************************
 %chk=2_optS1_rotated.chk
 %mem=12GB
 %nproc=4
 Will use up to    4 processors via shared memory.
 ---------------------------------------------
 # wb97xd 6-311++g** opt td=(nstates=1,root=1)
 ---------------------------------------------
 1/14=-1,18=20,19=15,26=3,38=1/1,3;
 2/9=110,12=2,17=6,18=5,40=1/2;
 3/5=4,6=6,7=1111,11=9,16=1,25=1,30=1,71=1,74=-58/1,2,8,3;
 4//1;
 5/5=2,38=5/2;
 8/6=1,10=2,107=1,108=1/1;
 9/8=1,15=2,41=1,42=1,70=2/14;
 10/5=4/2;
 6/7=2,8=2,9=2,10=2/1;
 7/12=6,13=5,14=1/1,2,3,16;
 1/14=-1,18=20,19=15,26=3/3(2);
 2/9=110/2;
 99//99;
 2/9=110/2;
 3/5=4,6=6,7=1111,11=9,16=1,25=1,30=1,71=1,74=-58/1,2,8,3;
 4/5=5,16=3,69=1/1;
 5/5=2,38=5/2;
 8/6=1,10=2,107=1,108=1/1;
 9/8=1,15=2,41=1,42=1,49=4,70=2/14;
 10/5=4/2;
 7/12=6,13=5,14=1/1,2,3,16;
 1/14=-1,18=20,19=15,26=3/3(-8);
 2/9=110/2;
 6/7=2,8=2,9=2,10=2/1;
 99//99;
 -----
 title
 -----
 Symbolic Z-matrix:
 Charge =  0 Multiplicity = 1
 C                     3.09737   0.37641   2.80451 
 H                     3.97684   0.35816   3.44758 
 H                     3.00378   1.38019   2.3647 
 C                     4.53366  -1.22188   1.58504 
 H                     5.25689  -0.47426   1.23059 
 N                     3.2312   -0.63202   1.78031 
 H                     2.20966   0.18528   3.41858 
 H                     4.46562  -2.01864   0.84509 
 H                     4.90219  -1.64297   2.52583 
 C                     2.22231  -0.89142   0.90797 
 H                     2.39267  -1.662     0.16302 
 C                     0.98662  -0.23808   0.89576 
 C                    -0.02886  -0.65002  -0.05589 
 H                     0.77155   0.54472   1.61219 
 O                     0.22745  -1.71078  -0.76363 
 C                    -1.29847   0.03293  -0.02411 
 C                    -2.30868  -0.37615   0.97738 
 C                    -1.70282   1.08625  -0.88754 
 O                    -1.98845  -1.30233   1.84074 
 C                    -3.59128   0.17555   1.03597 
 C                    -2.98708   1.64197  -0.80846 
 H                    -1.02779   1.45418  -1.64784 
 H                    -1.00858  -1.56935   1.6327 
 H                    -4.29401  -0.16818   1.78269 
 C                    -3.90931   1.18488   0.13984 
 H                    -3.29057   2.4273   -1.48993 
 F                    -5.13385   1.74877   0.18913 
 

 GradGradGradGradGradGradGradGradGradGradGradGradGradGradGradGradGradGrad
 Berny optimization.
 Initialization pass.
                           ----------------------------
                           !    Initial Parameters    !
                           ! (Angstroms and Degrees)  !
 --------------------------                            --------------------------
 ! Name  Definition              Value          Derivative Info.                !
 --------------------------------------------------------------------------------
 ! R1    R(1,2)                  1.0896         estimate D2E/DX2                !
 ! R2    R(1,3)                  1.0999         estimate D2E/DX2                !
 ! R3    R(1,6)                  1.4435         estimate D2E/DX2                !
 ! R4    R(1,7)                  1.0962         estimate D2E/DX2                !
 ! R5    R(4,5)                  1.0989         estimate D2E/DX2                !
 ! R6    R(4,6)                  1.4431         estimate D2E/DX2                !
 ! R7    R(4,8)                  1.0895         estimate D2E/DX2                !
 ! R8    R(4,9)                  1.0946         estimate D2E/DX2                !
 ! R9    R(6,10)                 1.3587         estimate D2E/DX2                !
 ! R10   R(10,11)                1.0852         estimate D2E/DX2                !
 ! R11   R(10,12)                1.3978         estimate D2E/DX2                !
 ! R12   R(12,13)                1.4514         estimate D2E/DX2                !
 ! R13   R(12,14)                1.0827         estimate D2E/DX2                !
 ! R14   R(13,15)                1.3007         estimate D2E/DX2                !
 ! R15   R(13,16)                1.442          estimate D2E/DX2                !
 ! R16   R(16,17)                1.4802         estimate D2E/DX2                !
 ! R17   R(16,18)                1.4207         estimate D2E/DX2                !
 ! R18   R(17,19)                1.306          estimate D2E/DX2                !
 ! R19   R(17,20)                1.3975         estimate D2E/DX2                !
 ! R20   R(18,21)                1.4016         estimate D2E/DX2                !
 ! R21   R(18,22)                1.0812         estimate D2E/DX2                !
 ! R22   R(19,23)                1.0367         estimate D2E/DX2                !
 ! R23   R(20,24)                1.0815         estimate D2E/DX2                !
 ! R24   R(20,25)                1.3867         estimate D2E/DX2                !
 ! R25   R(21,25)                1.3995         estimate D2E/DX2                !
 ! R26   R(21,26)                1.0832         estimate D2E/DX2                !
 ! R27   R(25,27)                1.349          estimate D2E/DX2                !
 ! A1    A(2,1,3)              108.6594         estimate D2E/DX2                !
 ! A2    A(2,1,6)              109.4028         estimate D2E/DX2                !
 ! A3    A(2,1,7)              108.668          estimate D2E/DX2                !
 ! A4    A(3,1,6)              111.2058         estimate D2E/DX2                !
 ! A5    A(3,1,7)              108.3131         estimate D2E/DX2                !
 ! A6    A(6,1,7)              110.5315         estimate D2E/DX2                !
 ! A7    A(5,4,6)              111.0735         estimate D2E/DX2                !
 ! A8    A(5,4,8)              108.6367         estimate D2E/DX2                !
 ! A9    A(5,4,9)              108.5027         estimate D2E/DX2                !
 ! A10   A(6,4,8)              109.5398         estimate D2E/DX2                !
 ! A11   A(6,4,9)              110.1705         estimate D2E/DX2                !
 ! A12   A(8,4,9)              108.8694         estimate D2E/DX2                !
 ! A13   A(1,6,4)              117.7243         estimate D2E/DX2                !
 ! A14   A(1,6,10)             121.3363         estimate D2E/DX2                !
 ! A15   A(4,6,10)             120.3488         estimate D2E/DX2                !
 ! A16   A(6,10,11)            117.3687         estimate D2E/DX2                !
 ! A17   A(6,10,12)            124.9438         estimate D2E/DX2                !
 ! A18   A(11,10,12)           117.687          estimate D2E/DX2                !
 ! A19   A(10,12,13)           119.4441         estimate D2E/DX2                !
 ! A20   A(10,12,14)           120.5131         estimate D2E/DX2                !
 ! A21   A(13,12,14)           120.0054         estimate D2E/DX2                !
 ! A22   A(12,13,15)           116.7677         estimate D2E/DX2                !
 ! A23   A(12,13,16)           117.8491         estimate D2E/DX2                !
 ! A24   A(15,13,16)           124.8715         estimate D2E/DX2                !
 ! A25   A(13,16,17)           119.0084         estimate D2E/DX2                !
 ! A26   A(13,16,18)           126.0379         estimate D2E/DX2                !
 ! A27   A(17,16,18)           114.9517         estimate D2E/DX2                !
 ! A28   A(16,17,19)           118.4191         estimate D2E/DX2                !
 ! A29   A(16,17,20)           123.0705         estimate D2E/DX2                !
 ! A30   A(19,17,20)           118.5088         estimate D2E/DX2                !
 ! A31   A(16,18,21)           121.3628         estimate D2E/DX2                !
 ! A32   A(16,18,22)           120.1285         estimate D2E/DX2                !
 ! A33   A(21,18,22)           118.4769         estimate D2E/DX2                !
 ! A34   A(17,19,23)           106.3652         estimate D2E/DX2                !
 ! A35   A(17,20,24)           119.9904         estimate D2E/DX2                !
 ! A36   A(17,20,25)           118.0831         estimate D2E/DX2                !
 ! A37   A(24,20,25)           121.9059         estimate D2E/DX2                !
 ! A38   A(18,21,25)           120.8328         estimate D2E/DX2                !
 ! A39   A(18,21,26)           120.5783         estimate D2E/DX2                !
 ! A40   A(25,21,26)           118.5845         estimate D2E/DX2                !
 ! A41   A(20,25,21)           121.6325         estimate D2E/DX2                !
 ! A42   A(20,25,27)           119.2619         estimate D2E/DX2                !
 ! A43   A(21,25,27)           119.1034         estimate D2E/DX2                !
 ! D1    D(2,1,6,4)            -14.0348         estimate D2E/DX2                !
 ! D2    D(2,1,6,10)           174.7493         estimate D2E/DX2                !
 ! D3    D(3,1,6,4)            105.9983         estimate D2E/DX2                !
 ! D4    D(3,1,6,10)           -65.2177         estimate D2E/DX2                !
 ! D5    D(7,1,6,4)           -133.6572         estimate D2E/DX2                !
 ! D6    D(7,1,6,10)            55.1268         estimate D2E/DX2                !
 ! D7    D(5,4,6,1)            -64.7247         estimate D2E/DX2                !
 ! D8    D(5,4,6,10)           106.5819         estimate D2E/DX2                !
 ! D9    D(8,4,6,1)            175.2651         estimate D2E/DX2                !
 ! D10   D(8,4,6,10)           -13.4283         estimate D2E/DX2                !
 ! D11   D(9,4,6,1)             55.5314         estimate D2E/DX2                !
 ! D12   D(9,4,6,10)          -133.1619         estimate D2E/DX2                !
 ! D13   D(1,6,10,11)          179.9227         estimate D2E/DX2                !
 ! D14   D(1,6,10,12)            0.1639         estimate D2E/DX2                !
 ! D15   D(4,6,10,11)            8.9349         estimate D2E/DX2                !
 ! D16   D(4,6,10,12)         -170.8239         estimate D2E/DX2                !
 ! D17   D(6,10,12,13)        -177.4188         estimate D2E/DX2                !
 ! D18   D(6,10,12,14)           0.3561         estimate D2E/DX2                !
 ! D19   D(11,10,12,13)          2.8231         estimate D2E/DX2                !
 ! D20   D(11,10,12,14)       -179.402          estimate D2E/DX2                !
 ! D21   D(10,12,13,15)          6.8241         estimate D2E/DX2                !
 ! D22   D(10,12,13,16)        179.0233         estimate D2E/DX2                !
 ! D23   D(14,12,13,15)       -170.9623         estimate D2E/DX2                !
 ! D24   D(14,12,13,16)          1.237          estimate D2E/DX2                !
 ! D25   D(12,13,16,17)        -81.506          estimate D2E/DX2                !
 ! D26   D(12,13,16,18)         99.041          estimate D2E/DX2                !
 ! D27   D(15,13,16,17)         90.0            estimate D2E/DX2                !
 ! D28   D(15,13,16,18)        -89.453          estimate D2E/DX2                !
 ! D29   D(13,16,17,19)          3.1908         estimate D2E/DX2                !
 ! D30   D(13,16,17,20)       -176.3461         estimate D2E/DX2                !
 ! D31   D(18,16,17,19)       -177.2971         estimate D2E/DX2                !
 ! D32   D(18,16,17,20)          3.166          estimate D2E/DX2                !
 ! D33   D(13,16,18,21)        177.1074         estimate D2E/DX2                !
 ! D34   D(13,16,18,22)         -0.81           estimate D2E/DX2                !
 ! D35   D(17,16,18,21)         -2.3649         estimate D2E/DX2                !
 ! D36   D(17,16,18,22)        179.7176         estimate D2E/DX2                !
 ! D37   D(16,17,19,23)          0.7584         estimate D2E/DX2                !
 ! D38   D(20,17,19,23)       -179.6833         estimate D2E/DX2                !
 ! D39   D(16,17,20,24)        179.3531         estimate D2E/DX2                !
 ! D40   D(16,17,20,25)         -2.2645         estimate D2E/DX2                !
 ! D41   D(19,17,20,24)         -0.1834         estimate D2E/DX2                !
 ! D42   D(19,17,20,25)        178.199          estimate D2E/DX2                !
 ! D43   D(16,18,21,25)          0.8114         estimate D2E/DX2                !
 ! D44   D(16,18,21,26)       -178.4211         estimate D2E/DX2                !
 ! D45   D(22,18,21,25)        178.7622         estimate D2E/DX2                !
 ! D46   D(22,18,21,26)         -0.4702         estimate D2E/DX2                !
 ! D47   D(17,20,25,21)          0.4752         estimate D2E/DX2                !
 ! D48   D(17,20,25,27)       -178.9759         estimate D2E/DX2                !
 ! D49   D(24,20,25,21)        178.8248         estimate D2E/DX2                !
 ! D50   D(24,20,25,27)         -0.6263         estimate D2E/DX2                !
 ! D51   D(18,21,25,20)          0.2528         estimate D2E/DX2                !
 ! D52   D(18,21,25,27)        179.7048         estimate D2E/DX2                !
 ! D53   D(26,21,25,20)        179.5003         estimate D2E/DX2                !
 ! D54   D(26,21,25,27)         -1.0477         estimate D2E/DX2                !
 --------------------------------------------------------------------------------
 Trust Radius=3.00D-01 FncErr=1.00D-07 GrdErr=1.00D-06
 Number of steps in this run=    134 maximum allowed number of steps=    162.
 GradGradGradGradGradGradGradGradGradGradGradGradGradGradGradGradGradGrad

                          Input orientation:                          
 ---------------------------------------------------------------------
 Center     Atomic      Atomic             Coordinates (Angstroms)
 Number     Number       Type             X           Y           Z
 ---------------------------------------------------------------------
      1          6           0        3.097374    0.376408    2.804509
      2          1           0        3.976835    0.358163    3.447583
      3          1           0        3.003785    1.380194    2.364704
      4          6           0        4.533661   -1.221878    1.585044
      5          1           0        5.256894   -0.474263    1.230594
      6          7           0        3.231196   -0.632019    1.780308
      7          1           0        2.209658    0.185278    3.418580
      8          1           0        4.465623   -2.018644    0.845092
      9          1           0        4.902191   -1.642969    2.525825
     10          6           0        2.222312   -0.891424    0.907971
     11          1           0        2.392670   -1.661999    0.163015
     12          6           0        0.986620   -0.238084    0.895758
     13          6           0       -0.028855   -0.650022   -0.055892
     14          1           0        0.771547    0.544718    1.612195
     15          8           0        0.227447   -1.710781   -0.763628
     16          6           0       -1.298469    0.032927   -0.024108
     17          6           0       -2.308683   -0.376147    0.977379
     18          6           0       -1.702820    1.086253   -0.887540
     19          8           0       -1.988450   -1.302328    1.840738
     20          6           0       -3.591284    0.175554    1.035966
     21          6           0       -2.987076    1.641968   -0.808463
     22          1           0       -1.027791    1.454182   -1.647844
     23          1           0       -1.008585   -1.569355    1.632703
     24          1           0       -4.294009   -0.168176    1.782685
     25          6           0       -3.909307    1.184885    0.139836
     26          1           0       -3.290572    2.427296   -1.489933
     27          9           0       -5.133850    1.748767    0.189126
 ---------------------------------------------------------------------
                    Distance matrix (angstroms):
                    1          2          3          4          5
     1  C    0.000000
     2  H    1.089646   0.000000
     3  H    1.099896   1.778764   0.000000
     4  C    2.470736   2.505122   3.117558   0.000000
     5  H    2.804349   2.691937   3.130769   1.098921   0.000000
     6  N    1.443544   2.077557   2.107660   1.443080   2.104881
     7  H    1.096200   1.775850   1.780201   3.277641   3.808927
     8  H    3.383445   3.558242   3.999787   1.089493   1.777592
     9  H    2.722667   2.389655   3.573432   1.094624   1.780256
    10  C    2.443356   3.330082   2.809451   2.431042   3.080064
    11  H    3.410162   4.168815   3.804712   2.607627   3.279362
    12  C    2.911394   3.976017   2.974152   3.744926   4.289888
    13  C    4.359904   5.416302   4.379265   4.882238   5.442892
    14  H    2.619048   3.698287   2.499435   4.156333   4.615439
    15  O    5.032340   6.006059   5.200831   4.929379   5.549886
    16  C    5.238558   6.323547   5.102052   6.178807   6.693601
    17  C    5.755884   6.793295   5.764696   6.921141   7.570449
    18  C    6.097292   7.182053   5.728492   7.094706   7.440384
    19  O    5.441748   6.397172   5.691474   6.527618   7.317990
    20  C    6.921433   7.945166   6.834591   8.262508   8.874141
    21  C    7.188585   8.261849   6.784389   8.395951   8.752098
    22  H    6.164579   7.225712   5.688552   6.967253   7.176459
    23  H    4.692337   5.644779   5.033366   5.553333   6.373158
    24  H    7.481527   8.453153   7.482914   8.892532   9.571742
    25  C    7.539741   8.591618   7.264917   8.897463   9.378793
    26  H    7.965816   9.026382   7.454768   9.164637   9.427591
    27  F    8.745093   9.775270   8.431494  10.209510  10.676801
                    6          7          8          9         10
     6  N    0.000000
     7  H    2.096532   0.000000
     8  H    2.078743   4.070564   0.000000
     9  H    2.090465   3.374793   1.776679   0.000000
    10  C    1.358716   2.731777   2.511380   3.219321   0.000000
    11  H    2.092754   3.747617   2.211235   3.446872   1.085250
    12  C    2.444532   2.835435   3.908507   4.467944   1.397833
    13  C    3.741642   4.216708   4.783852   5.653885   2.460703
    14  H    2.731820   2.336748   4.561301   4.762658   2.159433
    15  O    4.081403   5.001507   4.543666   5.716497   2.728567
    16  C    4.920969   4.917547   6.179742   6.910787   3.757538
    17  C    5.603608   5.166243   6.971838   7.483263   4.560728
    18  C    5.866377   5.887437   7.119839   7.919968   4.747813
    19  O    5.262858   4.725111   6.569588   6.932987   4.332368
    20  C    6.910314   6.271194   8.352526   8.812821   5.912082
    21  C    7.109125   6.855355   8.466231   9.173267   6.041684
    22  H    5.851788   6.144904   6.960808   7.885210   4.753653
    23  H    4.344666   4.077399   5.548797   5.978324   3.379870
    24  H    7.539487   6.715562   9.001916   9.343306   6.614428
    25  C    7.548447   7.013637   8.994412   9.556788   6.519036
    26  H    7.911216   7.705367   9.239983   9.990732   6.867003
    27  F    8.841606   8.173187  10.333130  10.848325   7.848596
                   11         12         13         14         15
    11  H    0.000000
    12  C    2.131062   0.000000
    13  C    2.633591   1.451385   0.000000
    14  H    3.098025   1.082736   2.202398   0.000000
    15  O    2.355683   2.344940   1.300688   3.320821   0.000000
    16  C    4.065993   2.478151   1.441995   2.687821   2.432247
    17  C    4.941591   3.299203   2.517990   3.277011   3.353253
    18  C    5.042777   3.488138   2.551166   3.558711   3.400689
    19  O    4.705139   3.297976   2.804055   3.328873   3.443800
    20  C    6.320313   4.598691   3.816363   4.416177   4.623797
    21  C    6.387616   4.714788   3.817153   4.603346   4.645007
    22  H    4.968838   3.659443   2.821322   3.833092   3.517733
    23  H    3.706359   2.509225   2.157868   2.763800   2.700033
    24  H    7.040350   5.355051   4.669484   5.118315   5.413586
    25  C    6.915215   5.154256   4.296871   4.948540   5.129703
    26  H    7.194012   5.575853   4.707988   5.446844   5.479749
    27  F    8.263324   6.473566   5.645813   6.192623   6.451335
                   16         17         18         19         20
    16  C    0.000000
    17  C    1.480152   0.000000
    18  C    1.420743   2.446141   0.000000
    19  O    2.395127   1.306043   3.637362   0.000000
    20  C    2.530039   1.397452   2.845266   2.323977   0.000000
    21  C    2.460817   2.778892   1.401565   4.084654   2.432562
    22  H    2.174799   3.447113   1.081249   4.548782   3.925458
    23  H    2.323007   1.882405   3.726370   1.036686   3.173505
    24  H    3.504027   2.152508   3.926570   2.570073   1.081463
    25  C    2.858384   2.387529   2.435942   3.573372   1.386699
    26  H    3.442400   3.861480   2.163846   5.167106   3.397195
    27  F    4.207104   3.621902   3.656515   4.683006   2.360434
                   21         22         23         24         25
    21  C    0.000000
    22  H    2.139772   0.000000
    23  H    4.492918   4.461404   0.000000
    24  H    3.420343   5.006872   3.574886   0.000000
    25  C    1.399538   3.401685   4.269505   2.162804   0.000000
    26  H    1.083167   2.468211   5.561612   4.295741   2.140693
    27  F    2.369648   4.507878   5.487409   2.630482   1.349037
                   26         27
    26  H    0.000000
    27  F    2.584050   0.000000
 Stoichiometry    C11H12FNO2
 Framework group  C1[X(C11H12FNO2)]
 Deg. of freedom    75
 Full point group                 C1      NOp   1
 Largest Abelian subgroup         C1      NOp   1
 Largest concise Abelian subgroup C1      NOp   1
                         Standard orientation:                         
 ---------------------------------------------------------------------
 Center     Atomic      Atomic             Coordinates (Angstroms)
 Number     Number       Type             X           Y           Z
 ---------------------------------------------------------------------
      1          6           0       -3.705851   -1.484457   -1.130236
      2          1           0       -4.677897   -1.955069   -1.275086
      3          1           0       -3.294748   -1.215873   -2.114426
      4          6           0       -5.192948    0.182570   -0.074729
      5          1           0       -5.635507    0.547015   -1.012252
      6          7           0       -3.857413   -0.319062   -0.291963
      7          1           0       -3.031059   -2.210107   -0.661470
      8          1           0       -5.161551    1.005577    0.638481
      9          1           0       -5.833003   -0.609515    0.326683
     10          6           0       -2.779709    0.392065    0.131078
     11          1           0       -2.967991    1.257753    0.757896
     12          6           0       -1.450641    0.095125   -0.184107
     13          6           0       -0.385775    0.904191    0.379800
     14          1           0       -1.211176   -0.752321   -0.814033
     15          8           0       -0.730557    1.790107    1.267533
     16          6           0        0.973430    0.554240    0.048973
     17          6           0        1.635213   -0.539025    0.795743
     18          6           0        1.778077    1.174289   -0.944300
     19          8           0        0.940017   -1.191853    1.688082
     20          6           0        2.970925   -0.898580    0.597086
     21          6           0        3.112110    0.793910   -1.144437
     22          1           0        1.376359    1.980044   -1.543032
     23          1           0       -0.011347   -0.780186    1.675591
     24          1           0        3.407361   -1.699389    1.178285
     25          6           0        3.689952   -0.225334   -0.378965
     26          1           0        3.721656    1.292597   -1.888087
     27          9           0        4.975157   -0.567454   -0.605019
 ---------------------------------------------------------------------
 Rotational constants (GHZ):      1.4801184      0.2403375      0.2371552
 Standard basis: 6-311++G(d,p) (5D, 7F)
 There are   429 symmetry adapted cartesian basis functions of A   symmetry.
 There are   414 symmetry adapted basis functions of A   symmetry.
   414 basis functions,   648 primitive gaussians,   429 cartesian basis functions
    55 alpha electrons       55 beta electrons
       nuclear repulsion energy       936.0946287380 Hartrees.
 NAtoms=   27 NActive=   27 NUniq=   27 SFac= 1.00D+00 NAtFMM=   60 NAOKFM=F Big=F
 Integral buffers will be    131072 words long.
 Raffenetti 1 integral format.
 Two-electron integral symmetry is turned on.
 Nuclear repulsion after empirical dispersion term =      936.0788877734 Hartrees.
 One-electron integrals computed using PRISM.
 NBasis=   414 RedAO= T EigKep=  4.27D-06  NBF=   414
 NBsUse=   412 1.00D-06 EigRej=  9.29D-07 NBFU=   412
 ExpMin= 3.60D-02 ExpMax= 1.14D+04 ExpMxC= 1.72D+03 IAcc=3 IRadAn=         5 AccDes= 0.00D+00
 Harris functional with IExCor= 4639 and IRadAn=       5 diagonalized for initial guess.
 HarFok:  IExCor= 4639 AccDes= 0.00D+00 IRadAn=         5 IDoV= 1 UseB2=F ITyADJ=14
 ICtDFT=  3500011 ScaDFX=  1.000000  1.000000  1.000000  1.000000
 FoFCou: FMM=F IPFlag=           0 FMFlag=      100000 FMFlg1=           0
         NFxFlg=           0 DoJE=T BraDBF=F KetDBF=T FulRan=T
         wScrn=  0.000000 ICntrl=     500 IOpCl=  0 I1Cent=   200000004 NGrid=           0
         NMat0=    1 NMatS0=      1 NMatT0=    0 NMatD0=    1 NMtDS0=    0 NMtDT0=    0
 Petite list used in FoFCou.
 Requested convergence on RMS density matrix=1.00D-08 within 128 cycles.
 Requested convergence on MAX density matrix=1.00D-06.
 Requested convergence on             energy=1.00D-06.
 No special actions if energy rises.
 SCF Done:  E(RwB97XD) =  -731.348907544     A.U. after   18 cycles
            NFock= 18  Conv=0.40D-08     -V/T= 2.0044
 DoSCS=F DFT=T ScalE2(SS,OS)=  1.000000  1.000000
 ExpMin= 3.60D-02 ExpMax= 1.14D+04 ExpMxC= 1.72D+03 IAcc=3 IRadAn=         5 AccDes= 0.00D+00
 HarFok:  IExCor=  205 AccDes= 0.00D+00 IRadAn=         5 IDoV=-2 UseB2=F ITyADJ=14
 ICtDFT= 12500011 ScaDFX=  1.000000  1.000000  1.000000  1.000000
 Range of M.O.s used for correlation:    16   412
 NBasis=   414 NAE=    55 NBE=    55 NFC=    15 NFV=     0
 NROrb=    397 NOA=    40 NOB=    40 NVA=   357 NVB=   357

 **** Warning!!: The largest alpha MO coefficient is  0.97819894D+02

 Would need an additional         20568500000 words for in-memory AO integral storage.
 Orbital symmetries:
       Occupied  (A) (A) (A) (A) (A) (A) (A) (A) (A) (A) (A) (A)
                 (A) (A) (A) (A) (A) (A) (A) (A) (A) (A) (A) (A)
                 (A) (A) (A) (A) (A) (A) (A) (A) (A) (A) (A) (A)
                 (A) (A) (A) (A) (A) (A) (A) (A) (A) (A) (A) (A)
                 (A) (A) (A) (A) (A) (A) (A)
       Virtual   (A) (A) (A) (A) (A) (A) (A) (A) (A) (A) (A) (A)
                 (A) (A) (A) (A) (A) (A) (A) (A) (A) (A) (A) (A)
                 (A) (A) (A) (A) (A) (A) (A) (A) (A) (A) (A) (A)
                 (A) (A) (A) (A) (A) (A) (A) (A) (A) (A) (A) (A)
                 (A) (A) (A) (A) (A) (A) (A) (A) (A) (A) (A) (A)
                 (A) (A) (A) (A) (A) (A) (A) (A) (A) (A) (A) (A)
                 (A) (A) (A) (A) (A) (A) (A) (A) (A) (A) (A) (A)
                 (A) (A) (A) (A) (A) (A) (A) (A) (A) (A) (A) (A)
                 (A) (A) (A) (A) (A) (A) (A) (A) (A) (A) (A) (A)
                 (A) (A) (A) (A) (A) (A) (A) (A) (A) (A) (A) (A)
                 (A) (A) (A) (A) (A) (A) (A) (A) (A) (A) (A) (A)
                 (A) (A) (A) (A) (A) (A) (A) (A) (A) (A) (A) (A)
                 (A) (A) (A) (A) (A) (A) (A) (A) (A) (A) (A) (A)
                 (A) (A) (A) (A) (A) (A) (A) (A) (A) (A) (A) (A)
                 (A) (A) (A) (A) (A) (A) (A) (A) (A) (A) (A) (A)
                 (A) (A) (A) (A) (A) (A) (A) (A) (A) (A) (A) (A)
                 (A) (A) (A) (A) (A) (A) (A) (A) (A) (A) (A) (A)
                 (A) (A) (A) (A) (A) (A) (A) (A) (A) (A) (A) (A)
                 (A) (A) (A) (A) (A) (A) (A) (A) (A) (A) (A) (A)
                 (A) (A) (A) (A) (A) (A) (A) (A) (A) (A) (A) (A)
                 (A) (A) (A) (A) (A) (A) (A) (A) (A) (A) (A) (A)
                 (A) (A) (A) (A) (A) (A) (A) (A) (A) (A) (A) (A)
                 (A) (A) (A) (A) (A) (A) (A) (A) (A) (A) (A) (A)
                 (A) (A) (A) (A) (A) (A) (A) (A) (A) (A) (A) (A)
                 (A) (A) (A) (A) (A) (A) (A) (A) (A) (A) (A) (A)
                 (A) (A) (A) (A) (A) (A) (A) (A) (A) (A) (A) (A)
                 (A) (A) (A) (A) (A) (A) (A) (A) (A) (A) (A) (A)
                 (A) (A) (A) (A) (A) (A) (A) (A) (A) (A) (A) (A)
                 (A) (A) (A) (A) (A) (A) (A) (A) (A) (A) (A) (A)
                 (A) (A) (A) (A) (A) (A) (A) (A) (A)
     8 initial guesses have been made.
 Convergence on wavefunction:    0.000001000000000
 Iteration     1 Dimension     8 NMult     0 NNew      8
 CISAX will form     8 AO SS matrices at one time.
 New state      1 was old state      6
 Iteration     2 Dimension    12 NMult     8 NNew      4
 Iteration     3 Dimension    16 NMult    12 NNew      4
 Iteration     4 Dimension    20 NMult    16 NNew      4
 Iteration     5 Dimension    24 NMult    20 NNew      4
 Iteration     6 Dimension    28 NMult    24 NNew      4
 Iteration     7 Dimension    32 NMult    28 NNew      4
 Iteration     8 Dimension    36 NMult    32 NNew      4
 Iteration     9 Dimension    40 NMult    36 NNew      4
 Iteration    10 Dimension    44 NMult    40 NNew      4
 Iteration    11 Dimension    48 NMult    44 NNew      4
 ***********************************************************************
 Excited states from <AA,BB:AA,BB> singles matrix:
 ***********************************************************************
 
 Ground to excited state transition densities written to RWF  633
 Ground to excited state transition electric dipole moments (Au):
       state          X           Y           Z        Dip. S.      Osc.
         1        -0.2909     -0.0697     -0.0728      0.0948      0.0080
 Ground to excited state transition velocity dipole moments (Au):
       state          X           Y           Z        Dip. S.      Osc.
         1         0.0363      0.0133      0.0054      0.0015      0.0080
 Ground to excited state transition magnetic dipole moments (Au):
       state          X           Y           Z
         1        -0.2272      0.5135      0.5358
 Ground to excited state transition velocity quadrupole moments (Au):
       state          XX          YY          ZZ          XY          XZ          YZ
         1        -0.2224      0.0414      0.0000     -0.0196     -0.0531      0.0027
 <0|del|b> * <b|rxdel|0> + <0|del|b> * <b|delr+rdel|0>
 Rotatory Strengths (R) in cgs (10**-40 erg-esu-cm/Gauss)
       state          XX          YY          ZZ    R(velocity)    E-M Angle
         1        28.7297    -14.4305     -6.1992      2.7000       87.25
 1/2[<0|r|b>*<b|rxdel|0> + (<0|rxdel|b>*<b|r|0>)*]
 Rotatory Strengths (R) in cgs (10**-40 erg-esu-cm/Gauss)
       state          XX          YY          ZZ     R(length)
         1       -46.7465     25.2948     27.5749      2.0411
  1/2[<0|del|b>*<b|r|0> + (<0|r|b>*<b|del|0>)*] (Au)
       state          X           Y           Z        Dip. S.   Osc.(frdel)
         1        -0.0105     -0.0009     -0.0004      0.0119      0.0079

 Excitation energies and oscillator strengths:
 
 Excited State   1:      Singlet-A      3.4465 eV  359.74 nm  f=0.0080  <S**2>=0.000
      52 -> 56         0.46458
      53 -> 56        -0.43139
      54 -> 56         0.11035
      55 -> 56         0.23639
 This state for optimization and/or second-order correction.
 Total Energy, E(TD-HF/TD-KS) =  -731.222250749    
 Copying the excited state density for this state as the 1-particle RhoCI density.
 SavETr:  write IOETrn=   770 NScale= 10 NData=  16 NLR=1 NState=    1 LETran=      28.
          IDoAtm=111111111111111111111111111
          Differentiating once with respect to electric field.
                with respect to dipole field.
          Differentiating once with respect to nuclear coordinates.
          There are     1 degrees of freedom in the 1st order CPHF.  IDoFFX=0 NUNeed=     1.
 LinEq1:  Iter=  0 NonCon=     1 RMS=9.46D-03 Max=6.16D-01 NDo=     1
 AX will form     1 AO Fock derivatives at one time.
 LinEq1:  Iter=  1 NonCon=     1 RMS=2.51D-03 Max=1.16D-01 NDo=     1
 LinEq1:  Iter=  2 NonCon=     1 RMS=1.62D-03 Max=6.11D-02 NDo=     1
 LinEq1:  Iter=  3 NonCon=     1 RMS=8.02D-04 Max=3.98D-02 NDo=     1
 LinEq1:  Iter=  4 NonCon=     1 RMS=4.06D-04 Max=1.47D-02 NDo=     1
 LinEq1:  Iter=  5 NonCon=     1 RMS=2.06D-04 Max=8.32D-03 NDo=     1
 LinEq1:  Iter=  6 NonCon=     1 RMS=1.02D-04 Max=3.67D-03 NDo=     1
 LinEq1:  Iter=  7 NonCon=     1 RMS=4.99D-05 Max=1.39D-03 NDo=     1
 LinEq1:  Iter=  8 NonCon=     1 RMS=2.37D-05 Max=1.20D-03 NDo=     1
 LinEq1:  Iter=  9 NonCon=     1 RMS=1.12D-05 Max=3.03D-04 NDo=     1
 LinEq1:  Iter= 10 NonCon=     1 RMS=4.56D-06 Max=1.83D-04 NDo=     1
 LinEq1:  Iter= 11 NonCon=     1 RMS=1.98D-06 Max=4.00D-05 NDo=     1
 LinEq1:  Iter= 12 NonCon=     1 RMS=8.99D-07 Max=2.16D-05 NDo=     1
 LinEq1:  Iter= 13 NonCon=     1 RMS=4.36D-07 Max=8.73D-06 NDo=     1
 LinEq1:  Iter= 14 NonCon=     1 RMS=1.88D-07 Max=6.99D-06 NDo=     1
 LinEq1:  Iter= 15 NonCon=     1 RMS=8.92D-08 Max=2.73D-06 NDo=     1
 LinEq1:  Iter= 16 NonCon=     1 RMS=3.59D-08 Max=1.25D-06 NDo=     1
 LinEq1:  Iter= 17 NonCon=     1 RMS=1.98D-08 Max=7.86D-07 NDo=     1
 LinEq1:  Iter= 18 NonCon=     1 RMS=8.37D-09 Max=2.18D-07 NDo=     1
 LinEq1:  Iter= 19 NonCon=     1 RMS=4.13D-09 Max=1.11D-07 NDo=     1
 LinEq1:  Iter= 20 NonCon=     1 RMS=1.64D-09 Max=3.37D-08 NDo=     1
 LinEq1:  Iter= 21 NonCon=     1 RMS=6.98D-10 Max=2.38D-08 NDo=     1
 LinEq1:  Iter= 22 NonCon=     1 RMS=3.10D-10 Max=8.48D-09 NDo=     1
 LinEq1:  Iter= 23 NonCon=     1 RMS=1.41D-10 Max=5.03D-09 NDo=     1
 LinEq1:  Iter= 24 NonCon=     1 RMS=6.48D-11 Max=2.03D-09 NDo=     1
 LinEq1:  Iter= 25 NonCon=     0 RMS=2.44D-11 Max=5.74D-10 NDo=     1
 Linear equations converged to 1.000D-10 1.000D-09 after    25 iterations.
 End of Minotr F.D. properties file   721 does not exist.
 End of Minotr F.D. properties file   722 does not exist.
 End of Minotr F.D. properties file   788 does not exist.

 **********************************************************************

            Population analysis using the SCF density.

 **********************************************************************

 Orbital symmetries:
       Occupied  (A) (A) (A) (A) (A) (A) (A) (A) (A) (A) (A) (A)
                 (A) (A) (A) (A) (A) (A) (A) (A) (A) (A) (A) (A)
                 (A) (A) (A) (A) (A) (A) (A) (A) (A) (A) (A) (A)
                 (A) (A) (A) (A) (A) (A) (A) (A) (A) (A) (A) (A)
                 (A) (A) (A) (A) (A) (A) (A)
       Virtual   (A) (A) (A) (A) (A) (A) (A) (A) (A) (A) (A) (A)
                 (A) (A) (A) (A) (A) (A) (A) (A) (A) (A) (A) (A)
                 (A) (A) (A) (A) (A) (A) (A) (A) (A) (A) (A) (A)
                 (A) (A) (A) (A) (A) (A) (A) (A) (A) (A) (A) (A)
                 (A) (A) (A) (A) (A) (A) (A) (A) (A) (A) (A) (A)
                 (A) (A) (A) (A) (A) (A) (A) (A) (A) (A) (A) (A)
                 (A) (A) (A) (A) (A) (A) (A) (A) (A) (A) (A) (A)
                 (A) (A) (A) (A) (A) (A) (A) (A) (A) (A) (A) (A)
                 (A) (A) (A) (A) (A) (A) (A) (A) (A) (A) (A) (A)
                 (A) (A) (A) (A) (A) (A) (A) (A) (A) (A) (A) (A)
                 (A) (A) (A) (A) (A) (A) (A) (A) (A) (A) (A) (A)
                 (A) (A) (A) (A) (A) (A) (A) (A) (A) (A) (A) (A)
                 (A) (A) (A) (A) (A) (A) (A) (A) (A) (A) (A) (A)
                 (A) (A) (A) (A) (A) (A) (A) (A) (A) (A) (A) (A)
                 (A) (A) (A) (A) (A) (A) (A) (A) (A) (A) (A) (A)
                 (A) (A) (A) (A) (A) (A) (A) (A) (A) (A) (A) (A)
                 (A) (A) (A) (A) (A) (A) (A) (A) (A) (A) (A) (A)
                 (A) (A) (A) (A) (A) (A) (A) (A) (A) (A) (A) (A)
                 (A) (A) (A) (A) (A) (A) (A) (A) (A) (A) (A) (A)
                 (A) (A) (A) (A) (A) (A) (A) (A) (A) (A) (A) (A)
                 (A) (A) (A) (A) (A) (A) (A) (A) (A) (A) (A) (A)
                 (A) (A) (A) (A) (A) (A) (A) (A) (A) (A) (A) (A)
                 (A) (A) (A) (A) (A) (A) (A) (A) (A) (A) (A) (A)
                 (A) (A) (A) (A) (A) (A) (A) (A) (A) (A) (A) (A)
                 (A) (A) (A) (A) (A) (A) (A) (A) (A) (A) (A) (A)
                 (A) (A) (A) (A) (A) (A) (A) (A) (A) (A) (A) (A)
                 (A) (A) (A) (A) (A) (A) (A) (A) (A) (A) (A) (A)
                 (A) (A) (A) (A) (A) (A) (A) (A) (A) (A) (A) (A)
                 (A) (A) (A) (A) (A) (A) (A) (A) (A) (A) (A) (A)
                 (A) (A) (A) (A) (A) (A) (A) (A) (A)
 The electronic state is 1-A.
 Alpha  occ. eigenvalues --  -24.81761 -19.29243 -19.21845 -14.50444 -10.37951
 Alpha  occ. eigenvalues --  -10.37643 -10.37090 -10.36349 -10.34645 -10.34461
 Alpha  occ. eigenvalues --  -10.30879 -10.30454 -10.29093 -10.28820 -10.28649
 Alpha  occ. eigenvalues --   -1.33132  -1.19066  -1.09976  -1.09258  -0.95709
 Alpha  occ. eigenvalues --   -0.89755  -0.87200  -0.86111  -0.84613  -0.80551
 Alpha  occ. eigenvalues --   -0.75352  -0.71476  -0.69563  -0.66467  -0.64924
 Alpha  occ. eigenvalues --   -0.63301  -0.60467  -0.59331  -0.59211  -0.58118
 Alpha  occ. eigenvalues --   -0.56264  -0.56021  -0.53482  -0.52972  -0.52324
 Alpha  occ. eigenvalues --   -0.52203  -0.51665  -0.50567  -0.50196  -0.49432
 Alpha  occ. eigenvalues --   -0.46813  -0.46231  -0.45880  -0.43200  -0.42204
 Alpha  occ. eigenvalues --   -0.41107  -0.33673  -0.32884  -0.30103  -0.29542
 Alpha virt. eigenvalues --   -0.00411   0.02391   0.04230   0.04633   0.05049
 Alpha virt. eigenvalues --    0.05336   0.05933   0.06428   0.06460   0.07205
 Alpha virt. eigenvalues --    0.07534   0.07759   0.08430   0.09555   0.09851
 Alpha virt. eigenvalues --    0.11168   0.11446   0.12283   0.12683   0.13120
 Alpha virt. eigenvalues --    0.13395   0.13991   0.14649   0.14786   0.15304
 Alpha virt. eigenvalues --    0.15701   0.16067   0.16409   0.16673   0.16805
 Alpha virt. eigenvalues --    0.17241   0.17854   0.18084   0.18550   0.18658
 Alpha virt. eigenvalues --    0.18986   0.19288   0.19684   0.20329   0.20737
 Alpha virt. eigenvalues --    0.20780   0.21022   0.21987   0.22003   0.22501
 Alpha virt. eigenvalues --    0.22942   0.23115   0.23822   0.24160   0.24310
 Alpha virt. eigenvalues --    0.24714   0.25539   0.25835   0.27173   0.27674
 Alpha virt. eigenvalues --    0.27861   0.28459   0.28848   0.29268   0.30280
 Alpha virt. eigenvalues --    0.30436   0.30760   0.31309   0.31674   0.31833
 Alpha virt. eigenvalues --    0.31987   0.32832   0.33280   0.33866   0.33964
 Alpha virt. eigenvalues --    0.34275   0.35304   0.35566   0.36205   0.36699
 Alpha virt. eigenvalues --    0.37153   0.37187   0.37498   0.38479   0.39844
 Alpha virt. eigenvalues --    0.40550   0.40786   0.41629   0.42384   0.42915
 Alpha virt. eigenvalues --    0.43854   0.44458   0.45301   0.45489   0.46190
 Alpha virt. eigenvalues --    0.46608   0.47983   0.48957   0.49460   0.49896
 Alpha virt. eigenvalues --    0.50184   0.50638   0.51996   0.52422   0.54172
 Alpha virt. eigenvalues --    0.54507   0.55810   0.56374   0.58049   0.60613
 Alpha virt. eigenvalues --    0.62778   0.63886   0.64052   0.64769   0.65426
 Alpha virt. eigenvalues --    0.65491   0.66053   0.67144   0.68264   0.68837
 Alpha virt. eigenvalues --    0.69289   0.69491   0.70191   0.70877   0.71429
 Alpha virt. eigenvalues --    0.72338   0.73007   0.73502   0.74386   0.76029
 Alpha virt. eigenvalues --    0.76921   0.77298   0.77912   0.79131   0.80165
 Alpha virt. eigenvalues --    0.80759   0.81069   0.81813   0.82079   0.83445
 Alpha virt. eigenvalues --    0.84115   0.86041   0.86750   0.88119   0.90373
 Alpha virt. eigenvalues --    0.91404   0.93566   0.94440   0.95030   0.95801
 Alpha virt. eigenvalues --    0.96353   0.97268   0.98843   0.99763   1.00856
 Alpha virt. eigenvalues --    1.02023   1.02892   1.03273   1.04641   1.06384
 Alpha virt. eigenvalues --    1.07472   1.09721   1.10553   1.12138   1.13939
 Alpha virt. eigenvalues --    1.14910   1.15470   1.17006   1.17136   1.19949
 Alpha virt. eigenvalues --    1.21293   1.22392   1.24474   1.26329   1.28401
 Alpha virt. eigenvalues --    1.31332   1.31975   1.34942   1.35802   1.36800
 Alpha virt. eigenvalues --    1.37984   1.39728   1.41217   1.42793   1.44897
 Alpha virt. eigenvalues --    1.49230   1.50138   1.51241   1.52721   1.53027
 Alpha virt. eigenvalues --    1.54126   1.54789   1.56249   1.58167   1.58508
 Alpha virt. eigenvalues --    1.59272   1.61432   1.62061   1.62808   1.63175
 Alpha virt. eigenvalues --    1.64322   1.65169   1.66296   1.66935   1.69471
 Alpha virt. eigenvalues --    1.69570   1.70987   1.71762   1.73373   1.74469
 Alpha virt. eigenvalues --    1.75328   1.76985   1.78263   1.79429   1.80551
 Alpha virt. eigenvalues --    1.81353   1.82289   1.83659   1.84878   1.87978
 Alpha virt. eigenvalues --    1.88959   1.89680   1.89976   1.93551   1.94323
 Alpha virt. eigenvalues --    1.97417   1.97565   2.00752   2.02072   2.03460
 Alpha virt. eigenvalues --    2.04111   2.04908   2.06594   2.07354   2.08815
 Alpha virt. eigenvalues --    2.09203   2.12097   2.13235   2.15679   2.16155
 Alpha virt. eigenvalues --    2.17043   2.18585   2.19112   2.20575   2.21632
 Alpha virt. eigenvalues --    2.22740   2.25102   2.27738   2.30651   2.34628
 Alpha virt. eigenvalues --    2.37816   2.38748   2.41227   2.44596   2.46993
 Alpha virt. eigenvalues --    2.49602   2.50816   2.52408   2.54288   2.54839
 Alpha virt. eigenvalues --    2.56677   2.58110   2.60431   2.61622   2.64428
 Alpha virt. eigenvalues --    2.65896   2.68234   2.70124   2.71857   2.72845
 Alpha virt. eigenvalues --    2.74843   2.76673   2.78063   2.79682   2.80913
 Alpha virt. eigenvalues --    2.81621   2.82236   2.82798   2.84252   2.85330
 Alpha virt. eigenvalues --    2.86374   2.88081   2.90838   2.92733   2.93876
 Alpha virt. eigenvalues --    2.96066   2.97925   2.99671   3.00040   3.04392
 Alpha virt. eigenvalues --    3.06729   3.08284   3.09694   3.11049   3.12815
 Alpha virt. eigenvalues --    3.15735   3.19289   3.21204   3.23139   3.23584
 Alpha virt. eigenvalues --    3.28023   3.31379   3.32399   3.34826   3.39424
 Alpha virt. eigenvalues --    3.42190   3.51108   3.51724   3.56880   3.58547
 Alpha virt. eigenvalues --    3.63085   3.63920   3.67187   3.70315   3.73895
 Alpha virt. eigenvalues --    3.78622   3.79923   3.82607   3.83751   3.88200
 Alpha virt. eigenvalues --    3.91152   3.94030   3.94359   3.95192   4.01527
 Alpha virt. eigenvalues --    4.08207   4.08317   4.13144   4.14297   4.21354
 Alpha virt. eigenvalues --    4.26721   4.27498   4.35579   4.49005   4.88747
 Alpha virt. eigenvalues --    4.97130   4.98044   5.13420   5.14750   5.24890
 Alpha virt. eigenvalues --    5.35175   5.51063   5.84128   5.85610   6.44862
 Alpha virt. eigenvalues --    6.56440   6.86591  23.71238  23.91691  23.99622
 Alpha virt. eigenvalues --   24.01942  24.03683  24.05660  24.06307  24.12294
 Alpha virt. eigenvalues --   24.17574  24.20493  24.27619  35.66723  50.07288
 Alpha virt. eigenvalues --   50.14057  66.95056
          Condensed to atoms (all electrons):
               1          2          3          4          5          6
     1  C    5.225500   0.387878   0.411645  -0.076520   0.016289   0.242758
     2  H    0.387878   0.510818  -0.022528   0.013978  -0.007007  -0.050403
     3  H    0.411645  -0.022528   0.522915  -0.006684   0.000826  -0.051062
     4  C   -0.076520   0.013978  -0.006684   5.235811   0.409507   0.258056
     5  H    0.016289  -0.007007   0.000826   0.409507   0.553840  -0.046426
     6  N    0.242758  -0.050403  -0.051062   0.258056  -0.046426   6.827626
     7  H    0.413377  -0.020995  -0.049121   0.003706   0.001869  -0.041665
     8  H   -0.006339   0.003338   0.000186   0.403045  -0.029189  -0.096271
     9  H   -0.014605  -0.001964   0.002531   0.413097  -0.060128  -0.047361
    10  C   -0.235443   0.032378   0.030034  -0.022381  -0.043018   0.257848
    11  H    0.009663   0.000937  -0.003746  -0.016452   0.002188  -0.049180
    12  C    0.235326  -0.016123  -0.018979  -0.273242   0.014061  -0.293579
    13  C   -0.100994  -0.009902  -0.001398  -0.045775  -0.001376  -0.043104
    14  H    0.025687  -0.000136  -0.017106  -0.010905   0.000458  -0.027489
    15  O   -0.000314   0.000377   0.000393   0.011394  -0.000064   0.012613
    16  C   -0.110580  -0.004620   0.001393   0.020381  -0.001104  -0.023188
    17  C    0.027149   0.002826  -0.000266   0.042687   0.000044   0.048616
    18  C   -0.011611  -0.000819   0.001885  -0.018994  -0.000324  -0.023799
    19  O    0.000912   0.000012   0.000798  -0.000873   0.000039  -0.002232
    20  C    0.010952   0.000618  -0.001043   0.003581   0.000051   0.005997
    21  C   -0.001852   0.000094   0.000768  -0.002177  -0.000113  -0.003204
    22  H    0.000700   0.000094  -0.000362   0.000128   0.000000   0.000136
    23  H   -0.001879  -0.000363   0.001194   0.001136   0.000163   0.002740
    24  H    0.000221   0.000026  -0.000023  -0.000003   0.000000   0.000016
    25  C   -0.000925  -0.000081   0.000288   0.000778  -0.000025   0.000850
    26  H    0.000009   0.000004   0.000017   0.000019   0.000000  -0.000012
    27  F    0.000003   0.000000   0.000002   0.000000   0.000000   0.000000
               7          8          9         10         11         12
     1  C    0.413377  -0.006339  -0.014605  -0.235443   0.009663   0.235326
     2  H   -0.020995   0.003338  -0.001964   0.032378   0.000937  -0.016123
     3  H   -0.049121   0.000186   0.002531   0.030034  -0.003746  -0.018979
     4  C    0.003706   0.403045   0.413097  -0.022381  -0.016452  -0.273242
     5  H    0.001869  -0.029189  -0.060128  -0.043018   0.002188   0.014061
     6  N   -0.041665  -0.096271  -0.047361   0.257848  -0.049180  -0.293579
     7  H    0.522354  -0.003222  -0.001341  -0.029066   0.002485   0.015989
     8  H   -0.003222   0.536393  -0.021794   0.105367  -0.012637  -0.038921
     9  H   -0.001341  -0.021794   0.551831  -0.010782   0.001038   0.012955
    10  C   -0.029066   0.105367  -0.010782   9.379167   0.338436  -3.233245
    11  H    0.002485  -0.012637   0.001038   0.338436   0.458526   0.049991
    12  C    0.015989  -0.038921   0.012955  -3.233245   0.049991  12.486910
    13  C   -0.004995   0.004084   0.000244  -2.328888  -0.008981   1.303983
    14  H    0.002228  -0.002188   0.000585  -0.268643   0.005523   0.502124
    15  O    0.000406  -0.000853  -0.000023   0.199298   0.033826  -0.594700
    16  C   -0.002736   0.008233   0.000735   1.142845  -0.036529  -3.763964
    17  C    0.002722   0.000202  -0.000787   1.043571  -0.000699  -0.412749
    18  C   -0.001166   0.000850   0.000526  -0.353054  -0.008608   0.279867
    19  O   -0.001633  -0.000135  -0.000032  -0.037952   0.002322   0.068553
    20  C    0.000157   0.000039  -0.000103   0.104650  -0.003178   0.111003
    21  C    0.000668   0.000073   0.000077   0.001815   0.001797   0.055544
    22  H    0.000057   0.000022  -0.000017  -0.006707   0.000413  -0.027393
    23  H   -0.002343   0.000267  -0.000043   0.030414  -0.002071  -0.002197
    24  H    0.000000   0.000002  -0.000003   0.000052  -0.000006  -0.000402
    25  C   -0.000033   0.000076   0.000009   0.038097  -0.001406  -0.031874
    26  H    0.000012  -0.000002   0.000000   0.003021   0.000061  -0.000735
    27  F    0.000002   0.000000   0.000000   0.000172   0.000005   0.000883
              13         14         15         16         17         18
     1  C   -0.100994   0.025687  -0.000314  -0.110580   0.027149  -0.011611
     2  H   -0.009902  -0.000136   0.000377  -0.004620   0.002826  -0.000819
     3  H   -0.001398  -0.017106   0.000393   0.001393  -0.000266   0.001885
     4  C   -0.045775  -0.010905   0.011394   0.020381   0.042687  -0.018994
     5  H   -0.001376   0.000458  -0.000064  -0.001104   0.000044  -0.000324
     6  N   -0.043104  -0.027489   0.012613  -0.023188   0.048616  -0.023799
     7  H   -0.004995   0.002228   0.000406  -0.002736   0.002722  -0.001166
     8  H    0.004084  -0.002188  -0.000853   0.008233   0.000202   0.000850
     9  H    0.000244   0.000585  -0.000023   0.000735  -0.000787   0.000526
    10  C   -2.328888  -0.268643   0.199298   1.142845   1.043571  -0.353054
    11  H   -0.008981   0.005523   0.033826  -0.036529  -0.000699  -0.008608
    12  C    1.303983   0.502124  -0.594700  -3.763964  -0.412749   0.279867
    13  C   10.722728   0.155251   0.528129  -0.307606  -2.604785   0.218728
    14  H    0.155251   0.558968  -0.012915   0.006299  -0.091472   0.019803
    15  O    0.528129  -0.012915   7.984862   0.323878  -0.120157  -0.034718
    16  C   -0.307606   0.006299   0.323878  13.825343  -1.339203  -0.981951
    17  C   -2.604785  -0.091472  -0.120157  -1.339203  14.187343  -4.129045
    18  C    0.218728   0.019803  -0.034718  -0.981951  -4.129045   9.901233
    19  O    0.070685  -0.011816   0.003122   0.068970   0.133296   0.057551
    20  C   -1.017755   0.003017  -0.025677  -3.078941   0.059254   1.435770
    21  C    0.190862  -0.015048  -0.014924  -0.191610  -0.758654   0.541443
    22  H   -0.038100   0.000859  -0.003084  -0.029526   0.078268   0.355760
    23  H   -0.133696  -0.001824  -0.008250  -0.149040   0.058858   0.025022
    24  H   -0.017028  -0.000368  -0.000029  -0.067747  -0.068716   0.049850
    25  C   -0.213152  -0.008691   0.000672  -0.343284   0.207781  -0.936942
    26  H    0.011213  -0.000107  -0.000157   0.049031  -0.000143  -0.057089
    27  F    0.000157  -0.000301  -0.000008   0.019136  -0.029889  -0.030844
              19         20         21         22         23         24
     1  C    0.000912   0.010952  -0.001852   0.000700  -0.001879   0.000221
     2  H    0.000012   0.000618   0.000094   0.000094  -0.000363   0.000026
     3  H    0.000798  -0.001043   0.000768  -0.000362   0.001194  -0.000023
     4  C   -0.000873   0.003581  -0.002177   0.000128   0.001136  -0.000003
     5  H    0.000039   0.000051  -0.000113   0.000000   0.000163   0.000000
     6  N   -0.002232   0.005997  -0.003204   0.000136   0.002740   0.000016
     7  H   -0.001633   0.000157   0.000668   0.000057  -0.002343   0.000000
     8  H   -0.000135   0.000039   0.000073   0.000022   0.000267   0.000002
     9  H   -0.000032  -0.000103   0.000077  -0.000017  -0.000043  -0.000003
    10  C   -0.037952   0.104650   0.001815  -0.006707   0.030414   0.000052
    11  H    0.002322  -0.003178   0.001797   0.000413  -0.002071  -0.000006
    12  C    0.068553   0.111003   0.055544  -0.027393  -0.002197  -0.000402
    13  C    0.070685  -1.017755   0.190862  -0.038100  -0.133696  -0.017028
    14  H   -0.011816   0.003017  -0.015048   0.000859  -0.001824  -0.000368
    15  O    0.003122  -0.025677  -0.014924  -0.003084  -0.008250  -0.000029
    16  C    0.068970  -3.078941  -0.191610  -0.029526  -0.149040  -0.067747
    17  C    0.133296   0.059254  -0.758654   0.078268   0.058858  -0.068716
    18  C    0.057551   1.435770   0.541443   0.355760   0.025022   0.049850
    19  O    7.906708  -0.363333   0.039030  -0.002553   0.269526  -0.019453
    20  C   -0.363333  11.287596  -2.706537   0.089137   0.130269   0.660643
    21  C    0.039030  -2.706537   9.158326  -0.156202  -0.008133  -0.093374
    22  H   -0.002553   0.089137  -0.156202   0.488364  -0.000460   0.002931
    23  H    0.269526   0.130269  -0.008133  -0.000460   0.403529   0.001161
    24  H   -0.019453   0.660643  -0.093374   0.002931   0.001161   0.463422
    25  C    0.006756  -0.186577  -0.208016   0.025954   0.011209  -0.150861
    26  H    0.000441  -0.106883   0.561643  -0.016045   0.000286  -0.002730
    27  F   -0.000859  -0.232867  -0.195535   0.000680  -0.000268  -0.018548
              25         26         27
     1  C   -0.000925   0.000009   0.000003
     2  H   -0.000081   0.000004   0.000000
     3  H    0.000288   0.000017   0.000002
     4  C    0.000778   0.000019   0.000000
     5  H   -0.000025   0.000000   0.000000
     6  N    0.000850  -0.000012   0.000000
     7  H   -0.000033   0.000012   0.000002
     8  H    0.000076  -0.000002   0.000000
     9  H    0.000009   0.000000   0.000000
    10  C    0.038097   0.003021   0.000172
    11  H   -0.001406   0.000061   0.000005
    12  C   -0.031874  -0.000735   0.000883
    13  C   -0.213152   0.011213   0.000157
    14  H   -0.008691  -0.000107  -0.000301
    15  O    0.000672  -0.000157  -0.000008
    16  C   -0.343284   0.049031   0.019136
    17  C    0.207781  -0.000143  -0.029889
    18  C   -0.936942  -0.057089  -0.030844
    19  O    0.006756   0.000441  -0.000859
    20  C   -0.186577  -0.106883  -0.232867
    21  C   -0.208016   0.561643  -0.195535
    22  H    0.025954  -0.016045   0.000680
    23  H    0.011209   0.000286  -0.000268
    24  H   -0.150861  -0.002730  -0.018548
    25  C    7.775271  -0.125835   0.535255
    26  H   -0.125835   0.473720  -0.020867
    27  F    0.535255  -0.020867   9.130457
 Mulliken charges:
               1
     1  C   -0.447007
     2  H    0.181563
     3  H    0.197446
     4  C   -0.343296
     5  H    0.189440
     6  N    0.141719
     7  H    0.192285
     8  H    0.149375
     9  H    0.175353
    10  C   -0.137989
    11  H    0.236281
    12  C   -0.429086
    13  C   -0.328529
    14  H    0.188206
    15  O   -0.283095
    16  C    0.965385
    17  C   -0.336054
    18  C   -0.299322
    19  O   -0.187848
    20  C   -0.179841
    21  C   -0.196762
    22  H    0.236946
    23  H    0.374793
    24  H    0.260968
    25  C   -0.395295
    26  H    0.231128
    27  F   -0.156764
 Sum of Mulliken charges =   0.00000
 Mulliken charges with hydrogens summed into heavy atoms:
               1
     1  C    0.124287
     4  C    0.170872
     6  N    0.141719
    10  C    0.098292
    12  C   -0.240880
    13  C   -0.328529
    15  O   -0.283095
    16  C    0.965385
    17  C   -0.336054
    18  C   -0.062377
    19  O    0.186945
    20  C    0.081127
    21  C    0.034366
    25  C   -0.395295
    27  F   -0.156764
 Electronic spatial extent (au):  <R**2>=           4612.6575
 Charge=              0.0000 electrons
 Dipole moment (field-independent basis, Debye):
    X=             -7.3878    Y=             -2.2371    Z=             -2.8544  Tot=              8.2299
 Quadrupole moment (field-independent basis, Debye-Ang):
   XX=            -68.8341   YY=            -91.3910   ZZ=            -90.4607
   XY=              5.7490   XZ=              2.6977   YZ=             -4.5859
 Traceless Quadrupole moment (field-independent basis, Debye-Ang):
   XX=             14.7278   YY=             -7.8291   ZZ=             -6.8987
   XY=              5.7490   XZ=              2.6977   YZ=             -4.5859
 Octapole moment (field-independent basis, Debye-Ang**2):
  XXX=           -187.1542  YYY=            -19.3207  ZZZ=             -5.9341  XYY=             -0.4448
  XXY=             -2.5000  XXZ=             -1.2083  XZZ=              1.6520  YZZ=             -4.1543
  YYZ=            -15.9482  XYZ=            -14.2190
 Hexadecapole moment (field-independent basis, Debye-Ang**3):
 XXXX=          -4505.8680 YYYY=           -589.1772 ZZZZ=           -500.1610 XXXY=             39.9394
 XXXZ=             64.3926 YYYX=             -8.0372 YYYZ=            -19.0424 ZZZX=            -18.6361
 ZZZY=             -7.2702 XXYY=           -848.7784 XXZZ=           -861.4580 YYZZ=           -183.7326
 XXYZ=             -9.2327 YYXZ=              1.0925 ZZXY=             13.6646
 N-N= 9.360788877734D+02 E-N=-3.582398918434D+03  KE= 7.281201274846D+02
 Calling FoFJK, ICntrl=  10005127 FMM=F ISym2X=0 I1Cent= 0 IOpClX= 0 NMat=1 NMatS=1 NMatT=0.
 ***** Axes restored to original set *****
 -------------------------------------------------------------------
 Center     Atomic                   Forces (Hartrees/Bohr)
 Number     Number              X              Y              Z
 -------------------------------------------------------------------
      1        6          -0.003299931    0.000847162   -0.003830990
      2        1          -0.000116725   -0.000183949    0.000112423
      3        1           0.000214421   -0.000205685    0.001422019
      4        6           0.001669443    0.003001817   -0.000039493
      5        1           0.000765574   -0.001668610   -0.000378365
      6        7           0.001225571   -0.005998984    0.000625950
      7        1           0.000415273    0.000391873    0.000153311
      8        1           0.000827229   -0.000547103    0.000249777
      9        1           0.000835955   -0.000807392   -0.000792785
     10        6          -0.017589377    0.011930859    0.001007831
     11        1           0.005057056    0.000795531    0.003065825
     12        6           0.009559976   -0.023923136   -0.016123717
     13        6           0.044302169    0.020033623    0.041908125
     14        1          -0.005977770    0.001627448   -0.003812983
     15        8          -0.010694862   -0.004556848   -0.012350038
     16        6          -0.073384165    0.019043024    0.001381516
     17        6           0.019235382    0.023003093   -0.042707100
     18        6          -0.007340104   -0.018878801    0.012441170
     19        8           0.053312499   -0.036126087    0.010978898
     20        6           0.005369882    0.006551868   -0.003920437
     21        6          -0.002081442   -0.000172518    0.003173278
     22        1           0.002560374   -0.000697933   -0.000637616
     23        1          -0.046655038    0.011642681    0.013178654
     24        1          -0.000530876   -0.000102091    0.000108715
     25        6           0.014096293   -0.001542297   -0.005037151
     26        1           0.000960334    0.000657583    0.000521276
     27        9           0.007262861   -0.004115128   -0.000698092
 -------------------------------------------------------------------
 Cartesian Forces:  Max     0.073384165 RMS     0.016539218

 GradGradGradGradGradGradGradGradGradGradGradGradGradGradGradGradGradGrad
 Berny optimization.
 FormGI is forming the generalized inverse of G from B-inverse, IUseBI=4.
 Internal  Forces:  Max     0.049732887 RMS     0.008983745
 Search for a local minimum.
 Step number   1 out of a maximum of  134
 All quantities printed in internal units (Hartrees-Bohrs-Radians)
 Mixed Optimization -- RFO/linear search
 Second derivative matrix not updated -- first step.
 ITU=  0
     Eigenvalues ---    0.01116   0.01122   0.01387   0.01409   0.01447
     Eigenvalues ---    0.01533   0.01538   0.01558   0.01768   0.01839
     Eigenvalues ---    0.01936   0.02020   0.02081   0.02117   0.02164
     Eigenvalues ---    0.02166   0.02178   0.02207   0.02238   0.02935
     Eigenvalues ---    0.07471   0.07512   0.07640   0.07653   0.15990
     Eigenvalues ---    0.15993   0.15993   0.15999   0.16000   0.16000
     Eigenvalues ---    0.16000   0.16000   0.16000   0.16000   0.16000
     Eigenvalues ---    0.16000   0.22000   0.22002   0.22353   0.23497
     Eigenvalues ---    0.24580   0.24702   0.24808   0.24827   0.24999
     Eigenvalues ---    0.24999   0.24999   0.25000   0.33694   0.33780
     Eigenvalues ---    0.33802   0.34106   0.34284   0.34854   0.34871
     Eigenvalues ---    0.35367   0.35614   0.35666   0.35818   0.35844
     Eigenvalues ---    0.38064   0.39103   0.39166   0.39313   0.40519
     Eigenvalues ---    0.41779   0.42863   0.44882   0.45742   0.45982
     Eigenvalues ---    0.47146   0.53208   0.55227   0.65542   0.67002
 RFO step:  Lambda=-2.69152287D-02 EMin= 1.11577248D-02
 Linear search not attempted -- first point.
 Iteration  1 RMS(Cart)=  0.05816409 RMS(Int)=  0.00139443
 Iteration  2 RMS(Cart)=  0.00243872 RMS(Int)=  0.00033923
 Iteration  3 RMS(Cart)=  0.00000282 RMS(Int)=  0.00033922
 Iteration  4 RMS(Cart)=  0.00000000 RMS(Int)=  0.00033922
 Variable       Old X    -DE/DX   Delta X   Delta X   Delta X     New X
                                 (Linear)    (Quad)   (Total)
    R1        2.05913  -0.00002   0.00000  -0.00006  -0.00006   2.05907
    R2        2.07850  -0.00079   0.00000  -0.00216  -0.00216   2.07634
    R3        2.72790  -0.00069   0.00000  -0.00164  -0.00164   2.72626
    R4        2.07152  -0.00031   0.00000  -0.00085  -0.00085   2.07067
    R5        2.07666  -0.00050   0.00000  -0.00137  -0.00137   2.07529
    R6        2.72703   0.00385   0.00000   0.00919   0.00919   2.73621
    R7        2.05884   0.00018   0.00000   0.00049   0.00049   2.05933
    R8        2.06854  -0.00010   0.00000  -0.00027  -0.00027   2.06827
    R9        2.56760  -0.00071   0.00000  -0.00127  -0.00127   2.56633
   R10        2.05083  -0.00187   0.00000  -0.00492  -0.00492   2.04590
   R11        2.64152  -0.01234   0.00000  -0.02535  -0.02535   2.61618
   R12        2.74272  -0.02072   0.00000  -0.05085  -0.05085   2.69188
   R13        2.04607  -0.00016   0.00000  -0.00041  -0.00041   2.04566
   R14        2.45794   0.00833   0.00000   0.01195   0.01195   2.46989
   R15        2.72498   0.02336   0.00000   0.05561   0.05561   2.78059
   R16        2.79708  -0.03725   0.00000  -0.10095  -0.10085   2.69623
   R17        2.68481  -0.02259   0.00000  -0.05126  -0.05105   2.63377
   R18        2.46806   0.03497   0.00000   0.05124   0.05124   2.51931
   R19        2.64080  -0.00748   0.00000  -0.01505  -0.01515   2.62565
   R20        2.64857  -0.01531   0.00000  -0.03214  -0.03203   2.61654
   R21        2.04326   0.00180   0.00000   0.00468   0.00468   2.04795
   R22        1.95905  -0.04973   0.00000  -0.11183  -0.11183   1.84722
   R23        2.04367   0.00046   0.00000   0.00119   0.00119   2.04486
   R24        2.62048  -0.00592   0.00000  -0.01069  -0.01090   2.60958
   R25        2.64474  -0.01665   0.00000  -0.03367  -0.03378   2.61097
   R26        2.04689  -0.00012   0.00000  -0.00032  -0.00032   2.04657
   R27        2.54931  -0.00834   0.00000  -0.01439  -0.01439   2.53492
    A1        1.89646  -0.00059   0.00000  -0.00302  -0.00302   1.89345
    A2        1.90944  -0.00058   0.00000  -0.00390  -0.00389   1.90555
    A3        1.89661  -0.00038   0.00000  -0.00367  -0.00367   1.89294
    A4        1.94091   0.00184   0.00000   0.01068   0.01067   1.95158
    A5        1.89042  -0.00075   0.00000  -0.00252  -0.00255   1.88787
    A6        1.92914   0.00039   0.00000   0.00207   0.00205   1.93119
    A7        1.93860   0.00222   0.00000   0.01289   0.01284   1.95144
    A8        1.89607  -0.00143   0.00000  -0.00793  -0.00794   1.88813
    A9        1.89373  -0.00120   0.00000  -0.00416  -0.00424   1.88949
   A10        1.91183   0.00042   0.00000   0.00107   0.00107   1.91290
   A11        1.92284   0.00134   0.00000   0.00735   0.00731   1.93015
   A12        1.90013  -0.00148   0.00000  -0.00993  -0.00993   1.89020
   A13        2.05468   0.00238   0.00000   0.00820   0.00817   2.06285
   A14        2.11772  -0.00485   0.00000  -0.01818  -0.01818   2.09953
   A15        2.10048   0.00241   0.00000   0.00831   0.00828   2.10876
   A16        2.04847  -0.00660   0.00000  -0.03424  -0.03424   2.01423
   A17        2.18068   0.00163   0.00000   0.00659   0.00659   2.18727
   A18        2.05403   0.00497   0.00000   0.02763   0.02762   2.08165
   A19        2.08469   0.01163   0.00000   0.04720   0.04715   2.13184
   A20        2.10335   0.00150   0.00000   0.01578   0.01573   2.11908
   A21        2.09449  -0.01309   0.00000  -0.06234  -0.06240   2.03209
   A22        2.03798   0.00827   0.00000   0.03154   0.03142   2.06940
   A23        2.05685   0.01897   0.00000   0.06981   0.06959   2.12644
   A24        2.17942  -0.02697   0.00000  -0.09656  -0.09689   2.08253
   A25        2.07709  -0.00396   0.00000  -0.01304  -0.01318   2.06391
   A26        2.19978  -0.01074   0.00000  -0.03751  -0.03763   2.16215
   A27        2.00629   0.01470   0.00000   0.05051   0.05076   2.05705
   A28        2.06680   0.01126   0.00000   0.04071   0.04065   2.10745
   A29        2.14799  -0.01098   0.00000  -0.03957  -0.03977   2.10822
   A30        2.06837  -0.00028   0.00000  -0.00096  -0.00101   2.06736
   A31        2.11818   0.00227   0.00000   0.00759   0.00769   2.12587
   A32        2.09664  -0.00319   0.00000  -0.01446  -0.01473   2.08191
   A33        2.06781   0.00096   0.00000   0.00786   0.00759   2.07540
   A34        1.85642   0.00618   0.00000   0.03306   0.03306   1.88949
   A35        2.09423   0.00021   0.00000  -0.00061  -0.00041   2.09382
   A36        2.06094   0.00009   0.00000   0.00409   0.00367   2.06461
   A37        2.12766  -0.00029   0.00000  -0.00327  -0.00308   2.12458
   A38        2.10893  -0.01131   0.00000  -0.04403  -0.04410   2.06483
   A39        2.10449   0.00504   0.00000   0.01872   0.01874   2.12323
   A40        2.06969   0.00627   0.00000   0.02534   0.02538   2.09507
   A41        2.12289   0.00531   0.00000   0.02316   0.02275   2.14564
   A42        2.08151  -0.00288   0.00000  -0.01235  -0.01216   2.06935
   A43        2.07875  -0.00243   0.00000  -0.01073  -0.01055   2.06820
    D1       -0.24495  -0.00046   0.00000  -0.01090  -0.01086  -0.25582
    D2        3.04995  -0.00020   0.00000   0.00061   0.00057   3.05052
    D3        1.85002  -0.00041   0.00000  -0.01046  -0.01044   1.83958
    D4       -1.13826  -0.00015   0.00000   0.00105   0.00100  -1.13726
    D5       -2.33276   0.00013   0.00000  -0.00519  -0.00514  -2.33790
    D6        0.96214   0.00039   0.00000   0.00632   0.00629   0.96844
    D7       -1.12966   0.00004   0.00000   0.00075   0.00078  -1.12888
    D8        1.86020  -0.00089   0.00000  -0.01307  -0.01315   1.84705
    D9        3.05895   0.00013   0.00000   0.00176   0.00181   3.06076
   D10       -0.23437  -0.00079   0.00000  -0.01206  -0.01212  -0.24649
   D11        0.96921   0.00086   0.00000   0.00877   0.00886   0.97806
   D12       -2.32411  -0.00007   0.00000  -0.00505  -0.00507  -2.32919
   D13        3.14024   0.00011   0.00000  -0.00088  -0.00082   3.13943
   D14        0.00286   0.00032   0.00000   0.00370   0.00369   0.00655
   D15        0.15594   0.00040   0.00000   0.01101   0.01102   0.16696
   D16       -2.98144   0.00061   0.00000   0.01559   0.01552  -2.96592
   D17       -3.09654   0.00013   0.00000   0.00114   0.00089  -3.09565
   D18        0.00622   0.00081   0.00000   0.01869   0.01887   0.02508
   D19        0.04927   0.00037   0.00000   0.00587   0.00569   0.05496
   D20       -3.13116   0.00105   0.00000   0.02342   0.02367  -3.10748
   D21        0.11910   0.00066   0.00000  -0.00361  -0.00476   0.11435
   D22        3.12455   0.00041   0.00000   0.02464   0.02533  -3.13331
   D23       -2.98385  -0.00034   0.00000  -0.02282  -0.02351  -3.00737
   D24        0.02159  -0.00059   0.00000   0.00543   0.00657   0.02816
   D25       -1.42255   0.00016   0.00000   0.01784   0.01868  -1.40387
   D26        1.72859   0.00021   0.00000   0.02247   0.02344   1.75203
   D27        1.57080   0.00332   0.00000   0.06106   0.06009   1.63089
   D28       -1.56125   0.00337   0.00000   0.06569   0.06486  -1.49639
   D29        0.05569  -0.00023   0.00000  -0.00757  -0.00718   0.04851
   D30       -3.07782  -0.00159   0.00000  -0.03548  -0.03486  -3.11268
   D31       -3.09442  -0.00040   0.00000  -0.01213  -0.01210  -3.10652
   D32        0.05526  -0.00176   0.00000  -0.04003  -0.03978   0.01548
   D33        3.09111   0.00140   0.00000   0.03469   0.03517   3.12628
   D34       -0.01414  -0.00008   0.00000   0.00236   0.00297  -0.01117
   D35       -0.04128   0.00154   0.00000   0.03943   0.04022  -0.00106
   D36        3.13666   0.00006   0.00000   0.00711   0.00802  -3.13850
   D37        0.01324   0.00061   0.00000   0.00858   0.00836   0.02160
   D38       -3.13606   0.00184   0.00000   0.03499   0.03521  -3.10085
   D39        3.13030   0.00072   0.00000   0.01352   0.01294  -3.13994
   D40       -0.03952   0.00107   0.00000   0.02170   0.02120  -0.01832
   D41       -0.00320  -0.00069   0.00000  -0.01459  -0.01430  -0.01750
   D42        3.11016  -0.00034   0.00000  -0.00641  -0.00605   3.10411
   D43        0.01416  -0.00135   0.00000  -0.02475  -0.02404  -0.00988
   D44       -3.11403  -0.00132   0.00000  -0.02705  -0.02680  -3.14084
   D45        3.11999   0.00002   0.00000   0.00660   0.00759   3.12758
   D46       -0.00821   0.00006   0.00000   0.00430   0.00483  -0.00338
   D47        0.00829   0.00008   0.00000  -0.00088  -0.00127   0.00703
   D48       -3.12372  -0.00045   0.00000  -0.00989  -0.00993  -3.13365
   D49        3.12108   0.00044   0.00000   0.00751   0.00719   3.12827
   D50       -0.01093  -0.00008   0.00000  -0.00150  -0.00147  -0.01241
   D51        0.00441   0.00012   0.00000   0.00247   0.00257   0.00699
   D52        3.13644   0.00064   0.00000   0.01146   0.01123  -3.13552
   D53        3.13287   0.00008   0.00000   0.00468   0.00525   3.13812
   D54       -0.01829   0.00060   0.00000   0.01368   0.01390  -0.00439
         Item               Value     Threshold  Converged?
 Maximum Force            0.049733     0.000450     NO 
 RMS     Force            0.008984     0.000300     NO 
 Maximum Displacement     0.232085     0.001800     NO 
 RMS     Displacement     0.058817     0.001200     NO 
 Predicted change in Energy=-1.475040D-02
 GradGradGradGradGradGradGradGradGradGradGradGradGradGradGradGradGradGrad

                          Input orientation:                          
 ---------------------------------------------------------------------
 Center     Atomic      Atomic             Coordinates (Angstroms)
 Number     Number       Type             X           Y           Z
 ---------------------------------------------------------------------
      1          6           0        3.075107    0.337925    2.819564
      2          1           0        3.955601    0.328897    3.461364
      3          1           0        2.948785    1.351901    2.415640
      4          6           0        4.566104   -1.180987    1.546206
      5          1           0        5.269052   -0.410210    1.202990
      6          7           0        3.242260   -0.639622    1.771817
      7          1           0        2.197299    0.102150    3.431553
      8          1           0        4.517774   -1.960021    0.785729
      9          1           0        4.963262   -1.622392    2.465618
     10          6           0        2.229752   -0.892305    0.902763
     11          1           0        2.441356   -1.638358    0.147283
     12          6           0        0.991964   -0.272322    0.913815
     13          6           0       -0.042657   -0.629234    0.002051
     14          1           0        0.754388    0.500456    1.633686
     15          8           0        0.143070   -1.657970   -0.782476
     16          6           0       -1.352355    0.041331    0.013103
     17          6           0       -2.313175   -0.369258    0.984674
     18          6           0       -1.718728    1.045426   -0.881349
     19          8           0       -2.010224   -1.296540    1.893346
     20          6           0       -3.578210    0.204265    1.020546
     21          6           0       -2.970806    1.635351   -0.843260
     22          1           0       -1.007767    1.373032   -1.630797
     23          1           0       -1.081486   -1.568513    1.755517
     24          1           0       -4.296053   -0.116168    1.764150
     25          6           0       -3.873244    1.196398    0.106434
     26          1           0       -3.253165    2.414943   -1.539961
     27          9           0       -5.089842    1.760328    0.142200
 ---------------------------------------------------------------------
                    Distance matrix (angstroms):
                    1          2          3          4          5
     1  C    0.000000
     2  H    1.089614   0.000000
     3  H    1.098753   1.775881   0.000000
     4  C    2.480243   2.514019   3.128443   0.000000
     5  H    2.826024   2.715085   3.155818   1.098194   0.000000
     6  N    1.442676   2.073994   2.113481   1.447942   2.117564
     7  H    1.095749   1.773113   1.777270   3.288193   3.829448
     8  H    3.390919   3.565698   4.010881   1.089750   1.772129
     9  H    2.744676   2.411310   3.592635   1.094482   1.776829
    10  C    2.429449   3.319086   2.800405   2.440471   3.091908
    11  H    3.383551   4.140792   3.787423   2.584709   3.258638
    12  C    2.888558   3.954063   2.953427   3.741666   4.289069
    13  C    4.312103   5.373168   4.324238   4.891781   5.450181
    14  H    2.611218   3.690204   2.480280   4.167023   4.625689
    15  O    5.055209   6.040961   5.211460   5.021305   5.636902
    16  C    5.250392   6.336213   5.097998   6.234791   6.742606
    17  C    5.735897   6.776353   5.718241   6.949726   7.585479
    18  C    6.097391   7.181266   5.722740   7.095706   7.435886
    19  O    5.421249   6.379012   5.646132   6.586497   7.365461
    20  C    6.893544   7.920317   6.772372   8.277988   8.870451
    21  C    7.186978   8.259039   6.763308   8.393230   8.733081
    22  H    6.127563   7.187165   5.659365   6.905389   7.113983
    23  H    4.695101   5.646444   5.020724   5.664738   6.478911
    24  H    7.460168   8.436138   7.420738   8.928559   9.586062
    25  C    7.508504   8.561479   7.203936   8.885240   9.346934
    26  H    7.960307   9.018379   7.432431   9.143090   9.387942
    27  F    8.709644   9.740939   8.363903  10.191165  10.636879
                    6          7          8          9         10
     6  N    0.000000
     7  H    2.096877   0.000000
     8  H    2.083928   4.078914   0.000000
     9  H    2.099771   3.399651   1.770446   0.000000
    10  C    1.358042   2.717494   2.527600   3.232278   0.000000
    11  H    2.068340   3.724964   2.196040   3.425629   1.082645
    12  C    2.436167   2.816392   3.911019   4.472358   1.384420
    13  C    3.731335   4.160987   4.814839   5.666987   2.458522
    14  H    2.740140   2.339437   4.575593   4.786774   2.156555
    15  O    4.143239   5.007586   4.657095   5.812541   2.789357
    16  C    4.966615   4.928442   6.249862   6.976375   3.807185
    17  C    5.617433   5.153039   7.016550   7.530609   4.573671
    18  C    5.872826   5.901369   7.120802   7.935265   4.746404
    19  O    5.294799   4.693150   6.654455   7.004511   4.372877
    20  C    6.913419   6.259383   8.383569   8.853340   5.911747
    21  C    7.114515   6.879973   8.465172   9.192985   6.040152
    22  H    5.804420   6.124947   6.890606   7.836221   4.693848
    23  H    4.422430   4.043593   5.696093   6.086553   3.485504
    24  H    7.556470   6.707572   9.057630   9.407214   6.628009
    25  C    7.534910   7.007516   8.990751   9.570535   6.499490
    26  H    7.904986   7.731269   9.216108   9.992717   6.853260
    27  F    8.822661   8.165281  10.322859  10.858451   7.822491
                   11         12         13         14         15
    11  H    0.000000
    12  C    2.134095   0.000000
    13  C    2.685097   1.424479   0.000000
    14  H    3.103188   1.082517   2.138625   0.000000
    15  O    2.479306   2.349052   1.307010   3.297022   0.000000
    16  C    4.151096   2.530907   1.471424   2.697305   2.399346
    17  C    4.991734   3.307319   2.487647   3.253854   3.288881
    18  C    5.056390   3.508123   2.528655   3.569131   3.283963
    19  O    4.793969   3.319884   2.809557   3.307522   3.453596
    20  C    6.355550   4.596195   3.772557   4.385781   4.535056
    21  C    6.402331   4.736040   3.796966   4.615226   4.532756
    22  H    4.911872   3.630588   2.758024   3.810962   3.351275
    23  H    3.873205   2.586071   2.244115   2.768738   2.819388
    24  H    7.093942   5.358225   4.632452   5.089618   5.344930
    25  C    6.921826   5.145799   4.244670   4.922582   5.006830
    26  H    7.190523   5.591380   4.685315   5.458734   5.356941
    27  F    8.262569   6.458748   5.586030   6.161723   6.318477
                   16         17         18         19         20
    16  C    0.000000
    17  C    1.426783   0.000000
    18  C    1.393729   2.415934   0.000000
    19  O    2.399584   1.333160   3.642623   0.000000
[...]
 Alpha  occ. eigenvalues --   -0.40850  -0.33927  -0.32051  -0.30868  -0.30506
 Alpha virt. eigenvalues --   -0.01062   0.02664   0.04370   0.05054   0.05245
 Alpha virt. eigenvalues --    0.05592   0.05925   0.06420   0.06644   0.07560
 Alpha virt. eigenvalues --    0.07776   0.08064   0.08549   0.09837   0.10024
 Alpha virt. eigenvalues --    0.11617   0.12016   0.12305   0.12783   0.13029
 Alpha virt. eigenvalues --    0.13726   0.14054   0.14786   0.15221   0.15850
 Alpha virt. eigenvalues --    0.16111   0.16310   0.16649   0.17082   0.17293
 Alpha virt. eigenvalues --    0.17547   0.17947   0.18447   0.18737   0.18922
 Alpha virt. eigenvalues --    0.19238   0.19682   0.19943   0.20548   0.20968
 Alpha virt. eigenvalues --    0.21226   0.21486   0.21930   0.22167   0.22855
 Alpha virt. eigenvalues --    0.23133   0.23507   0.23680   0.24072   0.24865
 Alpha virt. eigenvalues --    0.25278   0.25725   0.25886   0.26829   0.27693
 Alpha virt. eigenvalues --    0.27949   0.28270   0.29149   0.29450   0.29511
 Alpha virt. eigenvalues --    0.30364   0.30462   0.30958   0.31630   0.31994
 Alpha virt. eigenvalues --    0.32620   0.33114   0.33615   0.33860   0.34345
 Alpha virt. eigenvalues --    0.34686   0.35531   0.36168   0.36783   0.36965
 Alpha virt. eigenvalues --    0.37263   0.37478   0.37703   0.38861   0.39171
 Alpha virt. eigenvalues --    0.39526   0.39937   0.40956   0.41021   0.41810
 Alpha virt. eigenvalues --    0.42329   0.44366   0.44822   0.45160   0.45918
 Alpha virt. eigenvalues --    0.46666   0.47345   0.47759   0.48640   0.48816
 Alpha virt. eigenvalues --    0.49787   0.49906   0.51317   0.52212   0.54334
 Alpha virt. eigenvalues --    0.55686   0.56334   0.58296   0.60232   0.60831
 Alpha virt. eigenvalues --    0.63406   0.63842   0.64725   0.65358   0.65660
 Alpha virt. eigenvalues --    0.66523   0.67400   0.67569   0.68083   0.68840
 Alpha virt. eigenvalues --    0.69897   0.70208   0.70972   0.71106   0.72217
 Alpha virt. eigenvalues --    0.72743   0.73114   0.74137   0.75147   0.75696
 Alpha virt. eigenvalues --    0.75865   0.77064   0.78185   0.78744   0.79976
 Alpha virt. eigenvalues --    0.81143   0.81218   0.81651   0.83026   0.83688
 Alpha virt. eigenvalues --    0.85331   0.85565   0.87867   0.88348   0.89792
 Alpha virt. eigenvalues --    0.90675   0.92047   0.93444   0.93883   0.95641
 Alpha virt. eigenvalues --    0.96938   0.97140   0.97948   0.98547   0.99709
 Alpha virt. eigenvalues --    1.00538   1.01065   1.02562   1.04837   1.06211
 Alpha virt. eigenvalues --    1.09323   1.10237   1.10864   1.12462   1.14157
 Alpha virt. eigenvalues --    1.14807   1.15719   1.16834   1.18446   1.19081
 Alpha virt. eigenvalues --    1.19923   1.22809   1.25872   1.26669   1.27978
 Alpha virt. eigenvalues --    1.30270   1.32235   1.34199   1.34835   1.35896
 Alpha virt. eigenvalues --    1.38454   1.39096   1.39979   1.42688   1.47327
 Alpha virt. eigenvalues --    1.49234   1.52051   1.52515   1.52778   1.53720
 Alpha virt. eigenvalues --    1.54841   1.56613   1.57702   1.58293   1.59985
 Alpha virt. eigenvalues --    1.61486   1.61817   1.62403   1.63404   1.63570
 Alpha virt. eigenvalues --    1.64209   1.64816   1.66177   1.67222   1.67929
 Alpha virt. eigenvalues --    1.69679   1.71264   1.72342   1.73874   1.74296
 Alpha virt. eigenvalues --    1.75686   1.76038   1.77535   1.79753   1.80946
 Alpha virt. eigenvalues --    1.82091   1.83425   1.84138   1.86994   1.87521
 Alpha virt. eigenvalues --    1.88301   1.89564   1.90667   1.92943   1.97052
 Alpha virt. eigenvalues --    1.98689   2.00546   2.01506   2.02812   2.03278
 Alpha virt. eigenvalues --    2.04179   2.06572   2.07901   2.08216   2.09042
 Alpha virt. eigenvalues --    2.09819   2.11974   2.14344   2.15312   2.16296
 Alpha virt. eigenvalues --    2.17880   2.18803   2.20235   2.20869   2.21238
 Alpha virt. eigenvalues --    2.24324   2.28077   2.28412   2.31853   2.35809
 Alpha virt. eigenvalues --    2.37456   2.39551   2.42201   2.45197   2.47852
 Alpha virt. eigenvalues --    2.49559   2.50751   2.53787   2.53920   2.57425
 Alpha virt. eigenvalues --    2.57669   2.59337   2.61069   2.63868   2.66532
 Alpha virt. eigenvalues --    2.68054   2.70223   2.72190   2.72640   2.75168
 Alpha virt. eigenvalues --    2.76572   2.77664   2.79352   2.81258   2.81388
 Alpha virt. eigenvalues --    2.82376   2.83894   2.84654   2.85186   2.87117
 Alpha virt. eigenvalues --    2.88463   2.89622   2.92190   2.93554   2.94411
 Alpha virt. eigenvalues --    2.96309   2.96706   2.99787   3.01974   3.03303
 Alpha virt. eigenvalues --    3.04900   3.06725   3.10170   3.11139   3.13709
 Alpha virt. eigenvalues --    3.19487   3.19729   3.21333   3.25183   3.26041
 Alpha virt. eigenvalues --    3.29194   3.29741   3.32931   3.35821   3.39316
 Alpha virt. eigenvalues --    3.44834   3.49546   3.54110   3.58502   3.60236
 Alpha virt. eigenvalues --    3.63857   3.65681   3.66786   3.68672   3.75221
 Alpha virt. eigenvalues --    3.78480   3.81598   3.83484   3.85931   3.88120
 Alpha virt. eigenvalues --    3.89897   3.91312   3.92592   3.96853   4.00961
 Alpha virt. eigenvalues --    4.08536   4.09232   4.14541   4.16097   4.23031
 Alpha virt. eigenvalues --    4.26768   4.29389   4.36508   4.56330   4.93644
 Alpha virt. eigenvalues --    4.97434   4.97686   5.12164   5.14169   5.22597
 Alpha virt. eigenvalues --    5.36709   5.55914   5.83534   5.89343   6.44627
 Alpha virt. eigenvalues --    6.56548   6.87482  23.68829  23.89612  24.02921
 Alpha virt. eigenvalues --   24.04335  24.05629  24.06047  24.07105  24.16960
 Alpha virt. eigenvalues --   24.23886  24.25183  24.32131  35.66403  50.08462
 Alpha virt. eigenvalues --   50.14493  66.94988
          Condensed to atoms (all electrons):
               1          2          3          4          5          6
     1  C    5.338843   0.386900   0.402081  -0.130140   0.007161   0.275663
     2  H    0.386900   0.516318  -0.031709   0.012102  -0.007944  -0.047745
     3  H    0.402081  -0.031709   0.529481  -0.018250   0.007970  -0.065675
     4  C   -0.130140   0.012102  -0.018250   5.280286   0.403536   0.274914
     5  H    0.007161  -0.007944   0.007970   0.403536   0.551640  -0.035125
     6  N    0.275663  -0.047745  -0.065675   0.274914  -0.035125   6.757083
     7  H    0.401836  -0.022093  -0.045746   0.009204   0.000955  -0.028814
     8  H    0.004867   0.003564   0.000105   0.397626  -0.035183  -0.070149
     9  H   -0.022744   0.004920   0.000788   0.411404  -0.058183  -0.051207
    10  C   -0.299949   0.003301   0.058620  -0.192452  -0.057271   0.142196
    11  H    0.002143  -0.001568  -0.002230  -0.020739   0.004260  -0.062136
    12  C    0.501783   0.017633  -0.070077  -0.106410   0.027662  -0.191421
    13  C   -0.306066  -0.014882   0.041992  -0.013506   0.001520  -0.005789
    14  H    0.037850   0.003261  -0.019743  -0.008867   0.000507  -0.030302
    15  O    0.001090   0.000285  -0.000554   0.004774  -0.000156   0.008922
    16  C   -0.166193  -0.001693   0.020594   0.044493  -0.002050  -0.024118
    17  C   -0.041452  -0.004524   0.003338  -0.002206   0.000743   0.018040
    18  C    0.016681   0.001528  -0.001018   0.005846  -0.000431  -0.002032
    19  O   -0.007523  -0.000665   0.002024  -0.001429   0.000038  -0.004615
    20  C    0.008130  -0.000089  -0.003688   0.002812   0.000166   0.007274
    21  C    0.004741   0.000342  -0.000244  -0.000313  -0.000048  -0.000786
    22  H   -0.001252  -0.000051   0.000182   0.000284  -0.000065   0.000105
    23  H    0.002362   0.000961   0.000598   0.002122   0.000027   0.006372
    24  H   -0.000280  -0.000012   0.000057   0.000062   0.000000  -0.000010
    25  C   -0.002678  -0.000235   0.000019  -0.000433  -0.000016  -0.000414
    26  H    0.000084   0.000008  -0.000011   0.000038   0.000002   0.000014
    27  F    0.000004   0.000000   0.000002   0.000000   0.000000   0.000000
               7          8          9         10         11         12
     1  C    0.401836   0.004867  -0.022744  -0.299949   0.002143   0.501783
     2  H   -0.022093   0.003564   0.004920   0.003301  -0.001568   0.017633
     3  H   -0.045746   0.000105   0.000788   0.058620  -0.002230  -0.070077
     4  C    0.009204   0.397626   0.411404  -0.192452  -0.020739  -0.106410
     5  H    0.000955  -0.035183  -0.058183  -0.057271   0.004260   0.027662
     6  N   -0.028814  -0.070149  -0.051207   0.142196  -0.062136  -0.191421
     7  H    0.533305  -0.004104  -0.000590  -0.019030   0.001914   0.051729
     8  H   -0.004104   0.522382  -0.015705   0.055114  -0.002620  -0.032406
     9  H   -0.000590  -0.015705   0.555412   0.012006  -0.001281  -0.000849
    10  C   -0.019030   0.055114   0.012006   8.487846   0.399704  -3.711954
    11  H    0.001914  -0.002620  -0.001281   0.399704   0.455199  -0.040636
    12  C    0.051729  -0.032406  -0.000849  -3.711954  -0.040636  20.878449
    13  C   -0.043128   0.010514   0.004062  -0.296311   0.037698  -2.744912
    14  H    0.006961  -0.000968  -0.000565  -0.212086   0.004256   0.814540
    15  O   -0.000028   0.000362   0.000064   0.067272   0.017035  -0.213862
    16  C   -0.031327   0.009550   0.001316   1.661987   0.003450  -9.009801
    17  C    0.021288  -0.001933   0.000145   0.220661   0.006648  -0.461364
    18  C   -0.008635   0.001517   0.000273  -0.149132  -0.024424   0.093124
    19  O    0.001073   0.000098  -0.000051  -0.004303   0.002148  -0.014097
    20  C    0.005153  -0.000515   0.000055  -0.142993  -0.003954   0.527959
    21  C   -0.000879   0.000330  -0.000007   0.061020  -0.003231   0.217586
    22  H    0.000044   0.000095   0.000019   0.003723  -0.000050  -0.073854
    23  H   -0.005370   0.000105  -0.000058  -0.023809  -0.001824  -0.043400
    24  H   -0.000005   0.000005   0.000002   0.001222  -0.000069  -0.012234
    25  C    0.000872  -0.000017   0.000009  -0.022050   0.000699  -0.019505
    26  H   -0.000021   0.000000  -0.000001   0.003350  -0.000009  -0.004123
    27  F   -0.000001   0.000000   0.000000   0.000152   0.000005   0.001435
              13         14         15         16         17         18
     1  C   -0.306066   0.037850   0.001090  -0.166193  -0.041452   0.016681
     2  H   -0.014882   0.003261   0.000285  -0.001693  -0.004524   0.001528
     3  H    0.041992  -0.019743  -0.000554   0.020594   0.003338  -0.001018
     4  C   -0.013506  -0.008867   0.004774   0.044493  -0.002206   0.005846
     5  H    0.001520   0.000507  -0.000156  -0.002050   0.000743  -0.000431
     6  N   -0.005789  -0.030302   0.008922  -0.024118   0.018040  -0.002032
     7  H   -0.043128   0.006961  -0.000028  -0.031327   0.021288  -0.008635
     8  H    0.010514  -0.000968   0.000362   0.009550  -0.001933   0.001517
     9  H    0.004062  -0.000565   0.000064   0.001316   0.000145   0.000273
    10  C   -0.296311  -0.212086   0.067272   1.661987   0.220661  -0.149132
    11  H    0.037698   0.004256   0.017035   0.003450   0.006648  -0.024424
    12  C   -2.744912   0.814540  -0.213862  -9.009801  -0.461364   0.093124
    13  C   11.713756  -0.058009   0.752847  -0.741895  -0.378845  -1.170048
    14  H   -0.058009   0.550210  -0.003625  -0.196341  -0.155570   0.048603
    15  O    0.752847  -0.003625   8.116515  -0.497989  -0.048513   0.079108
    16  C   -0.741895  -0.196341  -0.497989  18.925653  -0.241894  -1.763496
    17  C   -0.378845  -0.155570  -0.048513  -0.241894  15.581622  -5.389431
    18  C   -1.170048   0.048603   0.079108  -1.763496  -5.389431  11.930518
    19  O    0.095806  -0.005178  -0.002014   0.029274   0.376257  -0.035450
    20  C   -0.599251   0.033560   0.025892  -2.846588  -2.916214   2.787783
    21  C    0.339195   0.015279   0.036160  -0.829388  -0.034124   0.221575
    22  H   -0.064402  -0.004350  -0.008309   0.084940   0.062561   0.359812
    23  H   -0.063832  -0.011077  -0.001648  -0.047194  -0.006418   0.061969
    24  H   -0.025802  -0.001453   0.000021  -0.047219  -0.076970   0.058815
    25  C    0.072263   0.001826   0.007005   0.146389   0.364664  -1.131647
    26  H    0.008632   0.000341  -0.000905   0.034965  -0.006118   0.000432
    27  F   -0.000480  -0.000167  -0.000004   0.025207  -0.028782  -0.053826
              19         20         21         22         23         24
     1  C   -0.007523   0.008130   0.004741  -0.001252   0.002362  -0.000280
     2  H   -0.000665  -0.000089   0.000342  -0.000051   0.000961  -0.000012
     3  H    0.002024  -0.003688  -0.000244   0.000182   0.000598   0.000057
     4  C   -0.001429   0.002812  -0.000313   0.000284   0.002122   0.000062
     5  H    0.000038   0.000166  -0.000048  -0.000065   0.000027   0.000000
     6  N   -0.004615   0.007274  -0.000786   0.000105   0.006372  -0.000010
     7  H    0.001073   0.005153  -0.000879   0.000044  -0.005370  -0.000005
     8  H    0.000098  -0.000515   0.000330   0.000095   0.000105   0.000005
     9  H   -0.000051   0.000055  -0.000007   0.000019  -0.000058   0.000002
    10  C   -0.004303  -0.142993   0.061020   0.003723  -0.023809   0.001222
    11  H    0.002148  -0.003954  -0.003231  -0.000050  -0.001824  -0.000069
    12  C   -0.014097   0.527959   0.217586  -0.073854  -0.043400  -0.012234
    13  C    0.095806  -0.599251   0.339195  -0.064402  -0.063832  -0.025802
    14  H   -0.005178   0.033560   0.015279  -0.004350  -0.011077  -0.001453
    15  O   -0.002014   0.025892   0.036160  -0.008309  -0.001648   0.000021
    16  C    0.029274  -2.846588  -0.829388   0.084940  -0.047194  -0.047219
    17  C    0.376257  -2.916214  -0.034124   0.062561  -0.006418  -0.076970
    18  C   -0.035450   2.787783   0.221575   0.359812   0.061969   0.058815
    19  O    8.000731  -0.445929   0.021753  -0.000878   0.228783  -0.020258
    20  C   -0.445929  12.938768  -2.834796   0.067292   0.135179   0.688068
    21  C    0.021753  -2.834796   8.896173  -0.150545   0.005399  -0.105626
    22  H   -0.000878   0.067292  -0.150545   0.450934   0.000861   0.002795
    23  H    0.228783   0.135179   0.005399   0.000861   0.441750   0.003150
    24  H   -0.020258   0.688068  -0.105626   0.002795   0.003150   0.462041
    25  C    0.010521  -0.786137   0.001812   0.023082  -0.012443  -0.162682
    26  H    0.000403  -0.109302   0.558402  -0.013043   0.000533  -0.002627
    27  F   -0.000788  -0.256673  -0.194355   0.000833  -0.000241  -0.020350
              25         26         27
     1  C   -0.002678   0.000084   0.000004
     2  H   -0.000235   0.000008   0.000000
     3  H    0.000019  -0.000011   0.000002
     4  C   -0.000433   0.000038   0.000000
     5  H   -0.000016   0.000002   0.000000
     6  N   -0.000414   0.000014   0.000000
     7  H    0.000872  -0.000021  -0.000001
     8  H   -0.000017   0.000000   0.000000
     9  H    0.000009  -0.000001   0.000000
    10  C   -0.022050   0.003350   0.000152
    11  H    0.000699  -0.000009   0.000005
    12  C   -0.019505  -0.004123   0.001435
    13  C    0.072263   0.008632  -0.000480
    14  H    0.001826   0.000341  -0.000167
    15  O    0.007005  -0.000905  -0.000004
    16  C    0.146389   0.034965   0.025207
    17  C    0.364664  -0.006118  -0.028782
    18  C   -1.131647   0.000432  -0.053826
    19  O    0.010521   0.000403  -0.000788
    20  C   -0.786137  -0.109302  -0.256673
    21  C    0.001812   0.558402  -0.194355
    22  H    0.023082  -0.013043   0.000833
    23  H   -0.012443   0.000533  -0.000241
    24  H   -0.162682  -0.002627  -0.020350
    25  C    7.467668  -0.155688   0.572225
    26  H   -0.155688   0.468061  -0.022579
    27  F    0.572225  -0.022579   9.134902
 Mulliken charges:
               1
     1  C   -0.413944
     2  H    0.182086
     3  H    0.191095
     4  C   -0.354760
     5  H    0.190287
     6  N    0.129754
     7  H    0.175437
     8  H    0.157365
     9  H    0.160764
    10  C   -0.046833
    11  H    0.229610
    12  C   -0.380995
    13  C   -0.551127
    14  H    0.191107
    15  O   -0.339745
    16  C    1.459367
    17  C   -0.861606
    18  C    0.061986
    19  O   -0.225732
    20  C   -0.281962
    21  C   -0.225429
    22  H    0.259238
    23  H    0.327144
    24  H    0.259360
    25  C   -0.375109
    26  H    0.239160
    27  F   -0.156520
 Sum of Mulliken charges =   0.00000
 Mulliken charges with hydrogens summed into heavy atoms:
               1
     1  C    0.134675
     4  C    0.153656
     6  N    0.129754
    10  C    0.182777
    12  C   -0.189888
    13  C   -0.551127
    15  O   -0.339745
    16  C    1.459367
    17  C   -0.861606
    18  C    0.321224
    19  O    0.101412
    20  C   -0.022602
    21  C    0.013731
    25  C   -0.375109
    27  F   -0.156520
 Electronic spatial extent (au):  <R**2>=           4586.3602
 Charge=              0.0000 electrons
 Dipole moment (field-independent basis, Debye):
    X=             -6.6333    Y=             -2.1263    Z=             -1.8821  Tot=              7.2156
 Quadrupole moment (field-independent basis, Debye-Ang):
   XX=            -68.3349   YY=            -92.0045   ZZ=            -90.1506
   XY=              6.2466   XZ=              2.7035   YZ=             -3.1261
 Traceless Quadrupole moment (field-independent basis, Debye-Ang):
   XX=             15.1618   YY=             -8.5079   ZZ=             -6.6539
   XY=              6.2466   XZ=              2.7035   YZ=             -3.1261
 Octapole moment (field-independent basis, Debye-Ang**2):
  XXX=           -170.9217  YYY=            -18.7709  ZZZ=              0.6800  XYY=              6.5814
  XXY=             10.8771  XXZ=             -7.8080  XZZ=             -0.2329  YZZ=             -4.5645
  YYZ=            -14.2750  XYZ=            -10.1642
 Hexadecapole moment (field-independent basis, Debye-Ang**3):
 XXXX=          -4529.9825 YYYY=           -790.4769 ZZZZ=           -248.1253 XXXY=             42.7406
 XXXZ=             58.0089 YYYX=              9.0881 YYYZ=            -20.1375 ZZZX=             -8.0853
 ZZZY=             -0.1015 XXYY=           -845.3312 XXZZ=           -860.6140 YYZZ=           -176.9734
 XXYZ=             -4.3605 YYXZ=             -9.8032 ZZXY=             -2.8840
 N-N= 9.415487579215D+02 E-N=-3.593683786950D+03  KE= 7.284872775600D+02
 1\1\GINC-SM8\FOpt\RwB97XD TD-FC\6-311++G(d,p)\C11H12F1N1O2\CA12053\06-
 Dec-2016\0\\# wb97xd 6-311++g** opt td=(nstates=1,root=1)\\title\\0,1\
 C,2.9683644103,-0.0998623299,3.0562463156\H,3.7793279485,-0.2807494755
 ,3.7624918475\H,2.9149386886,0.980552464,2.8525709613\C,4.5824613005,-
 1.029934313,1.4504004137\H,5.0264633613,-0.084417906,1.1063359156\N,3.
 2004239694,-0.8725823099,1.8577812962\H,2.0327306408,-0.4087105913,3.5
 293827737\H,4.6436041407,-1.7544180877,0.6365035325\H,5.1727915207,-1.
 4087407379,2.2875860825\C,2.2398104952,-0.8898604292,0.8822213532\H,2.
 5177801071,-1.4340760726,-0.012858508\C,0.9871044504,-0.3247361907,0.9
 761779283\C,0.0383111491,-0.4024651644,-0.0609644179\H,0.7012664744,0.
 2689812871,1.836044824\O,0.3438409189,-0.9553934139,-1.207440254\C,-1.
 3281321699,0.1306565444,-0.0122056141\C,-2.1395588094,-0.04253544,1.13
 27419107\C,-1.8768816607,0.7805170525,-1.128721024\O,-1.7352737929,-0.
 7417091864,2.2148623054\C,-3.4134977772,0.5081285186,1.1751500696\C,-3
 .1542426016,1.313132064,-1.102323493\H,-1.2676161387,0.888643725,-2.01
 72505718\H,-0.9045405611,-1.1870708741,2.0076502743\H,-4.0307906109,0.
 3836598715,2.0552163544\C,-3.8894741258,1.173936763,0.0625542362\H,-3.
 5744123132,1.8318308655,-1.9537233355\F,-5.1267369305,1.6957271078,0.1
 157719915\\Version=ES64L-G09RevD.01\State=1-A\HF=-731.3676263\RMSD=6.9
 18e-09\RMSF=3.523e-06\Dipole=1.802793,-0.008914,0.640451\PG=C01 [X(C11
 H12F1N1O2)]\\@


 WHEN ALL ELSE FAILS, TRY THE BOSS'S SUGGESTION.
 Job cpu time:       4 days  2 hours 35 minutes 20.7 seconds.
 File lengths (MBytes):  RWF=    172 Int=      0 D2E=      0 Chk=     24 Scr=      1
 Normal termination of Gaussian 09 at Tue Dec  6 15:48:05 2016.
