 Entering Gaussian System, Link 0=g09
 Input=2_optS1_rotated_45.com
 Output=2_optS1_rotated_45.out
 Initial command:
 /share/apps/gaussian/g09_D01/g09/l1.exe "/tmp/3885117.1.serial.q/Gau-2946.inp" -scrdir="/tmp/3885117.1.serial.q/"
 Entering Link 1 = /share/apps/gaussian/g09_D01/g09/l1.exe PID=      2947.
  
 Copyright (c) 1988,1990,1992,1993,1995,1998,2003,2009,2013,
            Gaussian, Inc.  All Rights Reserved.
  
 This is part of the Gaussian(R) 09 program.  It is based on
 the Gaussian(R) 03 system (copyright 2003, Gaussian, Inc.),
 the Gaussian(R) 98 system (copyright 1998, Gaussian, Inc.),
 the Gaussian(R) 94 system (copyright 1995, Gaussian, Inc.),
 the Gaussian 92(TM) system (copyright 1992, Gaussian, Inc.),
 the Gaussian 90(TM) system (copyright 1990, Gaussian, Inc.),
 the Gaussian 88(TM) system (copyright 1988, Gaussian, Inc.),
 the Gaussian 86(TM) system (copyright 1986, Carnegie Mellon
 University), and the Gaussian 82(TM) system (copyright 1983,
 Carnegie Mellon University). Gaussian is a federally registered
 trademark of Gaussian, Inc.
  
 This software contains proprietary and confidential information,
 including trade secrets, belonging to Gaussian, Inc.
  
 This software is provided under written license and may be
 used, copied, transmitted, or stored only in accord with that
 written license.
  
 The following legend is applicable only to US Government
 contracts under FAR:
  
                    RESTRICTED RIGHTS LEGEND
  
 Use, reproduction and disclosure by the US Government is
 subject to restrictions as set forth in subparagraphs (a)
 and (c) of the Commercial Computer Software - Restricted
 Rights clause in FAR 52.227-19.
  
 Gaussian, Inc.
 340 Quinnipiac St., Bldg. 40, Wallingford CT 06492
  
  
 ---------------------------------------------------------------
 Warning -- This program may not be used in any manner that
 competes with the business of Gaussian, Inc. or will provide
 assistance to any competitor of Gaussian, Inc.  The licensee
 of this program is prohibited from giving any competitor of
 Gaussian, Inc. access to this program.  By using this program,
 the user acknowledges that Gaussian, Inc. is engaged in the
 business of creating and licensing software in the field of
 computational chemistry and represents and warrants to the
 licensee that it is not a competitor of Gaussian, Inc. and that
 it will not use this program in any manner prohibited above.
 ---------------------------------------------------------------
  

 Cite this work as:
 Gaussian 09, Revision D.01,
 M. J. Frisch, G. W. Trucks, H. B. Schlegel, G. E. Scuseria, 
 M. A. Robb, J. R. Cheeseman, G. Scalmani, V. Barone, B. Mennucci, 
 G. A. Petersson, H. Nakatsuji, M. Caricato, X. Li, H. P. Hratchian, 
 A. F. Izmaylov, J. Bloino, G. Zheng, J. L. Sonnenberg, M. Hada, 
 M. Ehara, K. Toyota, R. Fukuda, J. Hasegawa, M. Ishida, T. Nakajima, 
 Y. Honda, O. Kitao, H. Nakai, T. Vreven, J. A. Montgomery, Jr., 
 J. E. Peralta, F. Ogliaro, M. Bearpark, J. J. Heyd, E. Brothers, 
 K. N. Kudin, V. N. Staroverov, T. Keith, R. Kobayashi, J. Normand, 
 K. Raghavachari, A. Rendell, J. C. Burant, S. S. Iyengar, J. Tomasi, 
 M. Cossi, N. Rega, J. M. Millam, M. Klene, J. E. Knox, J. B. Cross, 
 V. Bakken, C. Adamo, J. Jaramillo, R. Gomperts, R. E. Stratmann, 
 O. Yazyev, A. J. Austin, R. Cammi, C. Pomelli, J. W. Ochterski, 
 R. L. Martin, K. Morokuma, V. G. Zakrzewski, G. A. Voth, 
 P. Salvador, J. J. Dannenberg, S. Dapprich, A. D. Daniels, 
 O. Farkas, J. B. Foresman, J. V. Ortiz, J. Cioslowski, 
 and D. J. Fox, Gaussian, Inc., Wallingford CT, 2013.
 
 ******************************************
 Gaussian 09:  ES64L-G09RevD.01 24-Apr-2013
                21-Dec-2016 
 ******************************************
 %chk=2_optS1_rotated_45.chk
 %mem=12GB
 %nproc=4
 Will use up to    4 processors via shared memory.
 ---------------------------------------------
 # wb97xd 6-311++g** opt td=(nstates=1,root=1)
 ---------------------------------------------
 1/14=-1,18=20,19=15,26=3,38=1/1,3;
 2/9=110,12=2,17=6,18=5,40=1/2;
 3/5=4,6=6,7=1111,11=9,16=1,25=1,30=1,71=1,74=-58/1,2,8,3;
 4//1;
 5/5=2,38=5/2;
 8/6=1,10=2,107=1,108=1/1;
 9/8=1,15=2,41=1,42=1,70=2/14;
 10/5=4/2;
 6/7=2,8=2,9=2,10=2/1;
 7/12=6,13=5,14=1/1,2,3,16;
 1/14=-1,18=20,19=15,26=3/3(2);
 2/9=110/2;
 99//99;
 2/9=110/2;
 3/5=4,6=6,7=1111,11=9,16=1,25=1,30=1,71=1,74=-58/1,2,8,3;
 4/5=5,16=3,69=1/1;
 5/5=2,38=5/2;
 8/6=1,10=2,107=1,108=1/1;
 9/8=1,15=2,41=1,42=1,49=4,70=2/14;
 10/5=4/2;
 7/12=6,13=5,14=1/1,2,3,16;
 1/14=-1,18=20,19=15,26=3/3(-8);
 2/9=110/2;
 6/7=2,8=2,9=2,10=2/1;
 99//99;
 -----
 title
 -----
 Symbolic Z-matrix:
 Charge =  0 Multiplicity = 1
 C                     3.58494   1.54863  -0.12362 
 H                     4.65106   1.7749   -0.11546 
 H                     3.04616   2.42566  -0.50995 
 C                     4.37285   0.01216  -1.89911 
 H                     4.46687   0.76365  -2.69528 
 N                     3.35563   0.37852  -0.93403 
 H                     3.25706   1.37295   0.90584 
 H                     4.11739  -0.94154  -2.36015 
 H                     5.3459   -0.08968  -1.40988 
 C                     2.13162  -0.18778  -0.98888 
 H                     2.03309  -1.06397  -1.61754 
 C                     1.01801   0.25016  -0.31505 
 C                    -0.19825  -0.48998  -0.38821 
 H                     1.07597   1.12489   0.31874 
 O                    -0.23115  -1.62731  -1.04279 
 C                    -1.38729  -0.01588   0.24789 
 C                    -2.55191  -0.9449    0.26369 
 C                    -1.6885    1.33487   0.41804 
 O                    -2.29348  -2.16794   0.57938 
 C                    -3.8576   -0.48665   0.36933 
 C                    -3.01772   1.77414   0.53766 
 H                    -0.90649   2.08294   0.40612 
 H                    -1.1997   -2.21954   0.62003 
 H                    -4.67222  -1.19838   0.37621 
 C                    -4.09395   0.88475   0.51951 
 H                    -3.19328   2.83918   0.63203 
 F                    -4.82966   1.18675   1.12575 
 

 GradGradGradGradGradGradGradGradGradGradGradGradGradGradGradGradGradGrad
 Berny optimization.
 Initialization pass.
                           ----------------------------
                           !    Initial Parameters    !
                           ! (Angstroms and Degrees)  !
 --------------------------                            --------------------------
 ! Name  Definition              Value          Derivative Info.                !
 --------------------------------------------------------------------------------
 ! R1    R(1,2)                  1.0899         estimate D2E/DX2                !
 ! R2    R(1,3)                  1.0994         estimate D2E/DX2                !
 ! R3    R(1,6)                  1.4417         estimate D2E/DX2                !
 ! R4    R(1,7)                  1.0946         estimate D2E/DX2                !
 ! R5    R(4,5)                  1.0988         estimate D2E/DX2                !
 ! R6    R(4,6)                  1.4493         estimate D2E/DX2                !
 ! R7    R(4,8)                  1.0897         estimate D2E/DX2                !
 ! R8    R(4,9)                  1.0939         estimate D2E/DX2                !
 ! R9    R(6,10)                 1.3498         estimate D2E/DX2                !
 ! R10   R(10,11)                1.0829         estimate D2E/DX2                !
 ! R11   R(10,12)                1.3733         estimate D2E/DX2                !
 ! R12   R(12,13)                1.4256         estimate D2E/DX2                !
 ! R13   R(12,14)                1.0818         estimate D2E/DX2                !
 ! R14   R(13,15)                1.3127         estimate D2E/DX2                !
 ! R15   R(13,16)                1.4294         estimate D2E/DX2                !
 ! R16   R(16,17)                1.4899         estimate D2E/DX2                !
 ! R17   R(16,18)                1.3943         estimate D2E/DX2                !
 ! R18   R(17,19)                1.2893         estimate D2E/DX2                !
 ! R19   R(17,20)                1.3878         estimate D2E/DX2                !
 ! R20   R(18,21)                1.405          estimate D2E/DX2                !
 ! R21   R(18,22)                1.0823         estimate D2E/DX2                !
 ! R22   R(19,23)                1.0958         estimate D2E/DX2                !
 ! R23   R(20,24)                1.0818         estimate D2E/DX2                !
 ! R24   R(20,25)                1.3997         estimate D2E/DX2                !
 ! R25   R(21,25)                1.3963         estimate D2E/DX2                !
 ! R26   R(21,26)                1.0835         estimate D2E/DX2                !
 ! R27   R(25,27)                1.0            estimate D2E/DX2                !
 ! A1    A(2,1,3)              108.4444         estimate D2E/DX2                !
 ! A2    A(2,1,6)              109.1654         estimate D2E/DX2                !
 ! A3    A(2,1,7)              108.6199         estimate D2E/DX2                !
 ! A4    A(3,1,6)              111.8373         estimate D2E/DX2                !
 ! A5    A(3,1,7)              108.1626         estimate D2E/DX2                !
 ! A6    A(6,1,7)              110.5341         estimate D2E/DX2                !
 ! A7    A(5,4,6)              111.6948         estimate D2E/DX2                !
 ! A8    A(5,4,8)              108.1837         estimate D2E/DX2                !
 ! A9    A(5,4,9)              108.1566         estimate D2E/DX2                !
 ! A10   A(6,4,8)              109.7821         estimate D2E/DX2                !
 ! A11   A(6,4,9)              110.4914         estimate D2E/DX2                !
 ! A12   A(8,4,9)              108.4393         estimate D2E/DX2                !
 ! A13   A(1,6,4)              117.8951         estimate D2E/DX2                !
 ! A14   A(1,6,10)             120.5038         estimate D2E/DX2                !
 ! A15   A(4,6,10)             120.2231         estimate D2E/DX2                !
 ! A16   A(6,10,11)            116.4597         estimate D2E/DX2                !
 ! A17   A(6,10,12)            125.5636         estimate D2E/DX2                !
 ! A18   A(11,10,12)           117.9761         estimate D2E/DX2                !
 ! A19   A(10,12,13)           120.0706         estimate D2E/DX2                !
 ! A20   A(10,12,14)           120.125          estimate D2E/DX2                !
 ! A21   A(13,12,14)           119.7083         estimate D2E/DX2                !
 ! A22   A(12,13,15)           119.7877         estimate D2E/DX2                !
 ! A23   A(12,13,16)           120.9735         estimate D2E/DX2                !
 ! A24   A(15,13,16)           119.238          estimate D2E/DX2                !
 ! A25   A(13,16,17)           116.625          estimate D2E/DX2                !
 ! A26   A(13,16,18)           123.7316         estimate D2E/DX2                !
 ! A27   A(17,16,18)           115.7159         estimate D2E/DX2                !
 ! A28   A(16,17,19)           115.9405         estimate D2E/DX2                !
 ! A29   A(16,17,20)           122.0296         estimate D2E/DX2                !
 ! A30   A(19,17,20)           118.893          estimate D2E/DX2                !
 ! A31   A(16,18,21)           121.173          estimate D2E/DX2                !
 ! A32   A(16,18,22)           120.8082         estimate D2E/DX2                !
 ! A33   A(21,18,22)           117.9316         estimate D2E/DX2                !
 ! A34   A(17,19,23)           104.7042         estimate D2E/DX2                !
 ! A35   A(17,20,24)           119.4541         estimate D2E/DX2                !
 ! A36   A(17,20,25)           119.3774         estimate D2E/DX2                !
 ! A37   A(24,20,25)           121.1174         estimate D2E/DX2                !
 ! A38   A(18,21,25)           121.9341         estimate D2E/DX2                !
 ! A39   A(18,21,26)           117.9048         estimate D2E/DX2                !
 ! A40   A(25,21,26)           120.1554         estimate D2E/DX2                !
 ! A41   A(20,25,21)           119.6916         estimate D2E/DX2                !
 ! A42   A(20,25,27)           119.0237         estimate D2E/DX2                !
 ! A43   A(21,25,27)           111.5201         estimate D2E/DX2                !
 ! D1    D(2,1,6,4)            -20.3524         estimate D2E/DX2                !
 ! D2    D(2,1,6,10)           173.0162         estimate D2E/DX2                !
 ! D3    D(3,1,6,4)             99.6553         estimate D2E/DX2                !
 ! D4    D(3,1,6,10)           -66.9761         estimate D2E/DX2                !
 ! D5    D(7,1,6,4)           -139.768          estimate D2E/DX2                !
 ! D6    D(7,1,6,10)            53.6006         estimate D2E/DX2                !
 ! D7    D(5,4,6,1)            -65.9756         estimate D2E/DX2                !
 ! D8    D(5,4,6,10)           100.6948         estimate D2E/DX2                !
 ! D9    D(8,4,6,1)            174.0238         estimate D2E/DX2                !
 ! D10   D(8,4,6,10)           -19.3058         estimate D2E/DX2                !
 ! D11   D(9,4,6,1)             54.469          estimate D2E/DX2                !
 ! D12   D(9,4,6,10)          -138.8606         estimate D2E/DX2                !
 ! D13   D(1,6,10,11)         -179.983          estimate D2E/DX2                !
 ! D14   D(1,6,10,12)           -0.2775         estimate D2E/DX2                !
 ! D15   D(4,6,10,11)           13.6968         estimate D2E/DX2                !
 ! D16   D(4,6,10,12)         -166.5977         estimate D2E/DX2                !
 ! D17   D(6,10,12,13)        -175.8259         estimate D2E/DX2                !
 ! D18   D(6,10,12,14)           0.5982         estimate D2E/DX2                !
 ! D19   D(11,10,12,13)          3.8756         estimate D2E/DX2                !
 ! D20   D(11,10,12,14)       -179.7004         estimate D2E/DX2                !
 ! D21   D(10,12,13,15)          3.6008         estimate D2E/DX2                !
 ! D22   D(10,12,13,16)       -176.7156         estimate D2E/DX2                !
 ! D23   D(14,12,13,15)       -172.8382         estimate D2E/DX2                !
 ! D24   D(14,12,13,16)          6.8454         estimate D2E/DX2                !
 ! D25   D(12,13,16,17)       -172.2286         estimate D2E/DX2                !
 ! D26   D(12,13,16,18)         31.083          estimate D2E/DX2                !
 ! D27   D(15,13,16,17)          7.4567         estimate D2E/DX2                !
 ! D28   D(15,13,16,18)       -149.2317         estimate D2E/DX2                !
 ! D29   D(13,16,17,19)         45.0            estimate D2E/DX2                !
 ! D30   D(13,16,17,20)       -155.2642         estimate D2E/DX2                !
 ! D31   D(18,16,17,19)       -156.4253         estimate D2E/DX2                !
 ! D32   D(18,16,17,20)          3.3104         estimate D2E/DX2                !
 ! D33   D(13,16,18,21)        154.2868         estimate D2E/DX2                !
 ! D34   D(13,16,18,22)        -22.2486         estimate D2E/DX2                !
 ! D35   D(17,16,18,21)         -2.5932         estimate D2E/DX2                !
 ! D36   D(17,16,18,22)       -179.1286         estimate D2E/DX2                !
 ! D37   D(16,17,19,23)         -7.8853         estimate D2E/DX2                !
 ! D38   D(20,17,19,23)       -168.2901         estimate D2E/DX2                !
 ! D39   D(16,17,20,24)        179.9673         estimate D2E/DX2                !
 ! D40   D(16,17,20,25)         -2.6004         estimate D2E/DX2                !
 ! D41   D(19,17,20,24)        -20.8712         estimate D2E/DX2                !
 ! D42   D(19,17,20,25)        156.561          estimate D2E/DX2                !
 ! D43   D(16,18,21,25)          1.3119         estimate D2E/DX2                !
 ! D44   D(16,18,21,26)       -177.8288         estimate D2E/DX2                !
 ! D45   D(22,18,21,25)        177.944          estimate D2E/DX2                !
 ! D46   D(22,18,21,26)         -1.1968         estimate D2E/DX2                !
 ! D47   D(17,20,25,21)          1.1115         estimate D2E/DX2                !
 ! D48   D(17,20,25,27)       -141.9509         estimate D2E/DX2                !
 ! D49   D(24,20,25,21)        178.4998         estimate D2E/DX2                !
 ! D50   D(24,20,25,27)         35.4374         estimate D2E/DX2                !
 ! D51   D(18,21,25,20)         -0.4432         estimate D2E/DX2                !
 ! D52   D(18,21,25,27)        145.1646         estimate D2E/DX2                !
 ! D53   D(26,21,25,20)        178.6786         estimate D2E/DX2                !
 ! D54   D(26,21,25,27)        -35.7136         estimate D2E/DX2                !
 --------------------------------------------------------------------------------
 Trust Radius=3.00D-01 FncErr=1.00D-07 GrdErr=1.00D-06
 Number of steps in this run=    134 maximum allowed number of steps=    162.
 GradGradGradGradGradGradGradGradGradGradGradGradGradGradGradGradGradGrad

                          Input orientation:                          
 ---------------------------------------------------------------------
 Center     Atomic      Atomic             Coordinates (Angstroms)
 Number     Number       Type             X           Y           Z
 ---------------------------------------------------------------------
      1          6           0        3.584943    1.548626   -0.123619
      2          1           0        4.651061    1.774899   -0.115456
      3          1           0        3.046164    2.425658   -0.509950
      4          6           0        4.372855    0.012162   -1.899114
      5          1           0        4.466875    0.763652   -2.695279
      6          7           0        3.355631    0.378523   -0.934025
      7          1           0        3.257056    1.372952    0.905843
      8          1           0        4.117387   -0.941543   -2.360151
      9          1           0        5.345896   -0.089677   -1.409882
     10          6           0        2.131616   -0.187779   -0.988881
     11          1           0        2.033094   -1.063970   -1.617539
     12          6           0        1.018007    0.250162   -0.315050
     13          6           0       -0.198254   -0.489976   -0.388209
     14          1           0        1.075973    1.124894    0.318745
     15          8           0       -0.231150   -1.627311   -1.042792
     16          6           0       -1.387287   -0.015882    0.247891
     17          6           0       -2.551906   -0.944903    0.263692
     18          6           0       -1.688496    1.334869    0.418044
     19          8           0       -2.293484   -2.167940    0.579379
     20          6           0       -3.857600   -0.486651    0.369327
     21          6           0       -3.017720    1.774143    0.537662
     22          1           0       -0.906485    2.082945    0.406125
     23          1           0       -1.199695   -2.219536    0.620034
     24          1           0       -4.672216   -1.198382    0.376211
     25          6           0       -4.093952    0.884752    0.519513
     26          1           0       -3.193276    2.839184    0.632028
     27          9           0       -4.829663    1.186749    1.125754
 ---------------------------------------------------------------------
                    Distance matrix (angstroms):
                    1          2          3          4          5
     1  C    0.000000
     2  H    1.089896   0.000000
     3  H    1.099418   1.776178   0.000000
     4  C    2.476673   2.523108   3.084615   0.000000
     5  H    2.829739   2.777054   3.091334   1.098843   0.000000
     6  N    1.441694   2.073176   2.113379   1.449263   2.117830
     7  H    1.094606   1.774222   1.776833   3.311275   3.847465
     8  H    3.389176   3.564060   3.988584   1.089666   1.772609
     9  H    2.727538   2.373811   3.524990   1.093859   1.775695
    10  C    2.424034   3.310979   2.809951   2.427273   3.044741
    11  H    3.386103   4.143571   3.798759   2.590719   3.228779
    12  C    2.883022   3.945091   2.980636   3.717648   4.221830
    13  C    4.305634   5.359096   4.363713   4.840456   5.353278
    14  H    2.582666   3.659548   2.502074   4.126318   4.551160
    15  O    5.049160   6.022538   5.239396   4.961655   5.524387
    16  C    5.225780   6.308769   5.117707   6.147329   6.598571
    17  C    6.635406   7.708684   6.580091   7.317514   7.806277
    18  C    5.305492   6.377165   4.946514   6.622594   6.921536
    19  O    6.990206   8.015952   7.127385   7.438807   8.063502
    20  C    7.731545   8.817422   7.544311   8.551902   8.958345
    21  C    6.639526   7.696542   6.188106   7.978913   8.215361
    22  H    4.554015   5.590461   4.071864   6.121577   6.342889
    23  H    6.135538   7.122345   6.393904   6.509984   7.211153
    24  H    8.716453   9.798246   8.572767   9.405096   9.839035
    25  C    7.734325   8.813104   7.376682   8.848615   9.145344
    26  H    6.941239   7.951419   6.356550   8.464341   8.605621
    27  F    8.514544   9.579699   8.138738   9.757859  10.060065
                    6          7          8          9         10
     6  N    0.000000
     7  H    2.093734   0.000000
     8  H    2.087267   4.094359   0.000000
     9  H    2.099239   3.444578   1.771418   0.000000
    10  C    1.349785   2.700458   2.528206   3.243218   0.000000
    11  H    2.072940   3.715391   2.216019   3.459339   1.082880
    12  C    2.421589   2.786499   3.899840   4.477139   1.373305
    13  C    3.698960   4.133308   4.766259   5.651695   2.424959
    14  H    2.706168   2.272298   4.549379   4.763987   2.132458
    15  O    4.110985   4.996633   4.595159   5.796768   2.767277
    16  C    4.903851   4.892002   6.161182   6.934653   3.733876
    17  C    6.171303   6.287197   7.166870   8.118346   4.906888
    18  C    5.309040   4.969696   6.827056   7.406302   4.346395
    19  O    6.378665   6.591888   7.158502   8.163116   5.095291
    20  C    7.380918   7.373215   8.441410   9.382298   6.148558
    21  C    6.688290   6.298359   8.165906   8.787310   5.717966
    22  H    4.781913   4.253103   6.483757   6.863704   4.041322
    23  H    5.469553   5.731517   6.227851   7.176463   4.220696
    24  H    8.285510   8.352582   9.209276  10.236304   7.012626
    25  C    7.606926   7.377324   8.891226   9.684152   6.494865
    26  H    7.169069   6.620543   8.757444   9.255543   6.335955
    27  F    8.479089   8.091850   9.835184  10.564123   7.404080
                   11         12         13         14         15
    11  H    0.000000
    12  C    2.110408   0.000000
    13  C    2.611443   1.425639   0.000000
    14  H    3.075126   1.081763   2.175142   0.000000
    15  O    2.403016   2.369579   1.312666   3.337212   0.000000
    16  C    4.034517   2.484577   1.429401   2.715518   2.366267
    17  C    4.957361   3.808858   2.484273   4.177152   2.749271
    18  C    4.873219   3.006522   2.490166   2.774210   3.610043
    19  O    4.976392   4.196807   2.853380   4.718467   2.678981
    20  C    6.243493   4.978234   3.736935   5.190354   4.055407
    21  C    6.181464   4.397355   3.732675   4.150635   4.672547
    22  H    4.758089   2.753699   2.784328   2.203551   4.039980
    23  H    4.097925   3.448477   2.238485   4.056433   2.013405
    24  H    6.996734   5.912255   4.593747   6.200209   4.681946
    25  C    6.775338   5.218364   4.229693   5.179392   4.865439
    26  H    6.900008   5.033378   4.592858   4.611228   5.615050
    27  F    7.725854   6.094944   5.153002   5.960840   5.811010
                   16         17         18         19         20
    16  C    0.000000
    17  C    1.489855   0.000000
    18  C    1.394348   2.442675   0.000000
    19  O    2.358481   1.289287   3.558330   0.000000
    20  C    2.517701   1.387801   2.832900   2.305930   0.000000
    21  C    2.438538   2.772229   1.405029   4.008276   2.417628
    22  H    2.159001   3.448994   1.082267   4.474797   3.913216
    23  H    2.242715   1.892127   3.593539   1.095760   3.182798
    24  H    3.493641   2.138370   3.914294   2.576759   1.081761
    25  C    2.865476   2.406447   2.449310   3.544601   1.399702
    26  H    3.400082   3.855689   2.138484   5.087601   3.401693
    27  F    3.750588   3.236552   3.223308   4.240833   2.077825
                   21         22         23         24         25
    21  C    0.000000
    22  H    2.137750   0.000000
    23  H    4.388789   4.317762   0.000000
    24  H    3.405779   4.994871   3.627755   0.000000
    25  C    1.396288   3.407120   4.245401   2.166650   0.000000
    26  H    1.083530   2.419162   5.437385   4.307510   2.154920
    27  F    1.993494   4.088074   5.003518   2.505086   1.000000
                   26         27
    26  H    0.000000
    27  F    2.377407   0.000000
 Stoichiometry    C11H12FNO2
 Framework group  C1[X(C11H12FNO2)]
 Deg. of freedom    75
 Full point group                 C1      NOp   1
 Largest Abelian subgroup         C1      NOp   1
 Largest concise Abelian subgroup C1      NOp   1
                         Standard orientation:                         
 ---------------------------------------------------------------------
 Center     Atomic      Atomic             Coordinates (Angstroms)
 Number     Number       Type             X           Y           Z
 ---------------------------------------------------------------------
      1          6           0       -3.994081   -1.575771    0.648566
      2          1           0       -5.030537   -1.842041    0.855285
      3          1           0       -3.567190   -2.334734   -0.022597
      4          6           0       -5.162899    0.252952   -0.544560
      5          1           0       -5.446022   -0.326398   -1.434307
      6          7           0       -3.951308   -0.258381    0.064495
      7          1           0       -3.433535   -1.597422    1.588503
      8          1           0       -5.014789    1.289392   -0.846598
      9          1           0       -5.993993    0.214924    0.165628
     10          6           0       -2.769602    0.356472   -0.153325
     11          1           0       -2.813832    1.344374   -0.594599
     12          6           0       -1.532854   -0.162491    0.141796
     13          6           0       -0.361619    0.625871   -0.056044
     14          1           0       -1.447980   -1.148355    0.578924
     15          8           0       -0.473695    1.871924   -0.453388
     16          6           0        0.939377    0.082159    0.178422
     17          6           0        2.082630    1.035426    0.115789
     18          6           0        1.261552   -1.261906   -0.005695
     19          8           0        1.914514    2.158592    0.726111
     20          6           0        3.373319    0.618538   -0.178010
     21          6           0        2.578532   -1.662076   -0.287717
     22          1           0        0.492623   -2.023361    0.009662
     23          1           0        0.860885    2.156641    1.027028
     24          1           0        4.172494    1.346751   -0.213104
     25          6           0        3.627610   -0.744354   -0.370430
     26          1           0        2.763041   -2.716357   -0.456498
     27          9           0        4.482184   -1.131977   -0.024814
 ---------------------------------------------------------------------
 Rotational constants (GHZ):      1.5029573      0.2580447      0.2266738
 Standard basis: 6-311++G(d,p) (5D, 7F)
 There are   429 symmetry adapted cartesian basis functions of A   symmetry.
 There are   414 symmetry adapted basis functions of A   symmetry.
   414 basis functions,   648 primitive gaussians,   429 cartesian basis functions
    55 alpha electrons       55 beta electrons
       nuclear repulsion energy       955.6788559125 Hartrees.
 NAtoms=   27 NActive=   27 NUniq=   27 SFac= 1.00D+00 NAtFMM=   60 NAOKFM=F Big=F
 Integral buffers will be    131072 words long.
 Raffenetti 1 integral format.
 Two-electron integral symmetry is turned on.
 Nuclear repulsion after empirical dispersion term =      955.6633826438 Hartrees.
 One-electron integrals computed using PRISM.
 NBasis=   414 RedAO= T EigKep=  1.28D-06  NBF=   414
 NBsUse=   413 1.00D-06 EigRej=  6.35D-07 NBFU=   413
 ExpMin= 3.60D-02 ExpMax= 1.14D+04 ExpMxC= 1.72D+03 IAcc=3 IRadAn=         5 AccDes= 0.00D+00
 Harris functional with IExCor= 4639 and IRadAn=       5 diagonalized for initial guess.
 HarFok:  IExCor= 4639 AccDes= 0.00D+00 IRadAn=         5 IDoV= 1 UseB2=F ITyADJ=14
 ICtDFT=  3500011 ScaDFX=  1.000000  1.000000  1.000000  1.000000
 FoFCou: FMM=F IPFlag=           0 FMFlag=      100000 FMFlg1=           0
         NFxFlg=           0 DoJE=T BraDBF=F KetDBF=T FulRan=T
         wScrn=  0.000000 ICntrl=     500 IOpCl=  0 I1Cent=   200000004 NGrid=           0
         NMat0=    1 NMatS0=      1 NMatT0=    0 NMatD0=    1 NMtDS0=    0 NMtDT0=    0
 Petite list used in FoFCou.
 Requested convergence on RMS density matrix=1.00D-08 within 128 cycles.
 Requested convergence on MAX density matrix=1.00D-06.
 Requested convergence on             energy=1.00D-06.
 No special actions if energy rises.
 SCF Done:  E(RwB97XD) =  -731.114018967     A.U. after   18 cycles
            NFock= 18  Conv=0.52D-08     -V/T= 2.0015
 DoSCS=F DFT=T ScalE2(SS,OS)=  1.000000  1.000000
 ExpMin= 3.60D-02 ExpMax= 1.14D+04 ExpMxC= 1.72D+03 IAcc=3 IRadAn=         5 AccDes= 0.00D+00
 HarFok:  IExCor=  205 AccDes= 0.00D+00 IRadAn=         5 IDoV=-2 UseB2=F ITyADJ=14
 ICtDFT= 12500011 ScaDFX=  1.000000  1.000000  1.000000  1.000000
 Range of M.O.s used for correlation:    16   413
 NBasis=   414 NAE=    55 NBE=    55 NFC=    15 NFV=     0
 NROrb=    398 NOA=    40 NOB=    40 NVA=   358 NVB=   358

 **** Warning!!: The largest alpha MO coefficient is  0.14623038D+03

 Would need an additional         20568500000 words for in-memory AO integral storage.
 Orbital symmetries:
       Occupied  (A) (A) (A) (A) (A) (A) (A) (A) (A) (A) (A) (A)
                 (A) (A) (A) (A) (A) (A) (A) (A) (A) (A) (A) (A)
                 (A) (A) (A) (A) (A) (A) (A) (A) (A) (A) (A) (A)
                 (A) (A) (A) (A) (A) (A) (A) (A) (A) (A) (A) (A)
                 (A) (A) (A) (A) (A) (A) (A)
       Virtual   (A) (A) (A) (A) (A) (A) (A) (A) (A) (A) (A) (A)
                 (A) (A) (A) (A) (A) (A) (A) (A) (A) (A) (A) (A)
                 (A) (A) (A) (A) (A) (A) (A) (A) (A) (A) (A) (A)
                 (A) (A) (A) (A) (A) (A) (A) (A) (A) (A) (A) (A)
                 (A) (A) (A) (A) (A) (A) (A) (A) (A) (A) (A) (A)
                 (A) (A) (A) (A) (A) (A) (A) (A) (A) (A) (A) (A)
                 (A) (A) (A) (A) (A) (A) (A) (A) (A) (A) (A) (A)
                 (A) (A) (A) (A) (A) (A) (A) (A) (A) (A) (A) (A)
                 (A) (A) (A) (A) (A) (A) (A) (A) (A) (A) (A) (A)
                 (A) (A) (A) (A) (A) (A) (A) (A) (A) (A) (A) (A)
                 (A) (A) (A) (A) (A) (A) (A) (A) (A) (A) (A) (A)
                 (A) (A) (A) (A) (A) (A) (A) (A) (A) (A) (A) (A)
                 (A) (A) (A) (A) (A) (A) (A) (A) (A) (A) (A) (A)
                 (A) (A) (A) (A) (A) (A) (A) (A) (A) (A) (A) (A)
                 (A) (A) (A) (A) (A) (A) (A) (A) (A) (A) (A) (A)
                 (A) (A) (A) (A) (A) (A) (A) (A) (A) (A) (A) (A)
                 (A) (A) (A) (A) (A) (A) (A) (A) (A) (A) (A) (A)
                 (A) (A) (A) (A) (A) (A) (A) (A) (A) (A) (A) (A)
                 (A) (A) (A) (A) (A) (A) (A) (A) (A) (A) (A) (A)
                 (A) (A) (A) (A) (A) (A) (A) (A) (A) (A) (A) (A)
                 (A) (A) (A) (A) (A) (A) (A) (A) (A) (A) (A) (A)
                 (A) (A) (A) (A) (A) (A) (A) (A) (A) (A) (A) (A)
                 (A) (A) (A) (A) (A) (A) (A) (A) (A) (A) (A) (A)
                 (A) (A) (A) (A) (A) (A) (A) (A) (A) (A) (A) (A)
                 (A) (A) (A) (A) (A) (A) (A) (A) (A) (A) (A) (A)
                 (A) (A) (A) (A) (A) (A) (A) (A) (A) (A) (A) (A)
                 (A) (A) (A) (A) (A) (A) (A) (A) (A) (A) (A) (A)
                 (A) (A) (A) (A) (A) (A) (A) (A) (A) (A) (A) (A)
                 (A) (A) (A) (A) (A) (A) (A) (A) (A) (A) (A) (A)
                 (A) (A) (A) (A) (A) (A) (A) (A) (A) (A)
     8 initial guesses have been made.
 Convergence on wavefunction:    0.000001000000000
 Iteration     1 Dimension     8 NMult     0 NNew      8
 CISAX will form     8 AO SS matrices at one time.
 Iteration     2 Dimension    12 NMult     8 NNew      4
 Iteration     3 Dimension    16 NMult    12 NNew      4
 Iteration     4 Dimension    20 NMult    16 NNew      4
 Iteration     5 Dimension    24 NMult    20 NNew      4
 Iteration     6 Dimension    28 NMult    24 NNew      4
 Iteration     7 Dimension    32 NMult    28 NNew      4
 Iteration     8 Dimension    36 NMult    32 NNew      4
 Iteration     9 Dimension    40 NMult    36 NNew      4
 Iteration    10 Dimension    44 NMult    40 NNew      4
 Iteration    11 Dimension    48 NMult    44 NNew      4
 Iteration    12 Dimension    52 NMult    48 NNew      4
 Iteration    13 Dimension    56 NMult    52 NNew      4
 ***********************************************************************
 Excited states from <AA,BB:AA,BB> singles matrix:
 ***********************************************************************
 
 Ground to excited state transition densities written to RWF  633
 Ground to excited state transition electric dipole moments (Au):
       state          X           Y           Z        Dip. S.      Osc.
         1        -1.9793     -0.0342      0.0290      3.9198      0.3506
 Ground to excited state transition velocity dipole moments (Au):
       state          X           Y           Z        Dip. S.      Osc.
         1         0.2636      0.0061     -0.0059      0.0696      0.3456
 Ground to excited state transition magnetic dipole moments (Au):
       state          X           Y           Z
         1         0.0744      0.1087      0.5004
 Ground to excited state transition velocity quadrupole moments (Au):
       state          XX          YY          ZZ          XY          XZ          YZ
         1         0.0173      0.0603     -0.0187     -0.0555     -0.1277      0.1142
 <0|del|b> * <b|rxdel|0> + <0|del|b> * <b|delr+rdel|0>
 Rotatory Strengths (R) in cgs (10**-40 erg-esu-cm/Gauss)
       state          XX          YY          ZZ    R(velocity)    E-M Angle
         1        -3.1753    122.3274    -27.9336     30.4062       82.71
 1/2[<0|r|b>*<b|rxdel|0> + (<0|rxdel|b>*<b|r|0>)*]
 Rotatory Strengths (R) in cgs (10**-40 erg-esu-cm/Gauss)
       state          XX          YY          ZZ     R(length)
         1       104.1500      2.6318    -10.2766     32.1684
  1/2[<0|del|b>*<b|r|0> + (<0|r|b>*<b|del|0>)*] (Au)
       state          X           Y           Z        Dip. S.   Osc.(frdel)
         1        -0.5217     -0.0002     -0.0002      0.5221      0.3481

 Excitation energies and oscillator strengths:
 
 Excited State   1:      Singlet-A      3.6508 eV  339.61 nm  f=0.3506  <S**2>=0.000
      53 -> 56         0.20729
      55 -> 56         0.64117
 This state for optimization and/or second-order correction.
 Total Energy, E(TD-HF/TD-KS) =  -730.979853742    
 Copying the excited state density for this state as the 1-particle RhoCI density.
 SavETr:  write IOETrn=   770 NScale= 10 NData=  16 NLR=1 NState=    1 LETran=      28.
          IDoAtm=111111111111111111111111111
          Differentiating once with respect to electric field.
                with respect to dipole field.
          Differentiating once with respect to nuclear coordinates.
          There are     1 degrees of freedom in the 1st order CPHF.  IDoFFX=0 NUNeed=     1.
 LinEq1:  Iter=  0 NonCon=     1 RMS=3.65D-03 Max=1.15D-01 NDo=     1
 AX will form     1 AO Fock derivatives at one time.
 LinEq1:  Iter=  1 NonCon=     1 RMS=1.42D-03 Max=6.03D-02 NDo=     1
 LinEq1:  Iter=  2 NonCon=     1 RMS=8.14D-04 Max=3.48D-02 NDo=     1
 LinEq1:  Iter=  3 NonCon=     1 RMS=3.55D-04 Max=1.35D-02 NDo=     1
 LinEq1:  Iter=  4 NonCon=     1 RMS=2.55D-04 Max=8.40D-03 NDo=     1
 LinEq1:  Iter=  5 NonCon=     1 RMS=1.32D-04 Max=4.19D-03 NDo=     1
 LinEq1:  Iter=  6 NonCon=     1 RMS=7.93D-05 Max=3.00D-03 NDo=     1
 LinEq1:  Iter=  7 NonCon=     1 RMS=3.25D-05 Max=1.07D-03 NDo=     1
 LinEq1:  Iter=  8 NonCon=     1 RMS=1.39D-05 Max=3.44D-04 NDo=     1
 LinEq1:  Iter=  9 NonCon=     1 RMS=7.90D-06 Max=2.77D-04 NDo=     1
 LinEq1:  Iter= 10 NonCon=     1 RMS=3.31D-06 Max=1.17D-04 NDo=     1
 LinEq1:  Iter= 11 NonCon=     1 RMS=1.72D-06 Max=4.79D-05 NDo=     1
 LinEq1:  Iter= 12 NonCon=     1 RMS=8.67D-07 Max=4.86D-05 NDo=     1
 LinEq1:  Iter= 13 NonCon=     1 RMS=4.14D-07 Max=1.26D-05 NDo=     1
 LinEq1:  Iter= 14 NonCon=     1 RMS=1.93D-07 Max=6.60D-06 NDo=     1
 LinEq1:  Iter= 15 NonCon=     1 RMS=8.92D-08 Max=1.48D-06 NDo=     1
 LinEq1:  Iter= 16 NonCon=     1 RMS=3.68D-08 Max=1.20D-06 NDo=     1
 LinEq1:  Iter= 17 NonCon=     1 RMS=1.44D-08 Max=4.31D-07 NDo=     1
 LinEq1:  Iter= 18 NonCon=     1 RMS=6.07D-09 Max=1.70D-07 NDo=     1
 LinEq1:  Iter= 19 NonCon=     1 RMS=1.69D-09 Max=2.95D-08 NDo=     1
 LinEq1:  Iter= 20 NonCon=     1 RMS=7.18D-10 Max=1.88D-08 NDo=     1
 LinEq1:  Iter= 21 NonCon=     1 RMS=2.48D-10 Max=4.82D-09 NDo=     1
 LinEq1:  Iter= 22 NonCon=     1 RMS=9.66D-11 Max=3.93D-09 NDo=     1
 LinEq1:  Iter= 23 NonCon=     1 RMS=4.79D-11 Max=2.36D-09 NDo=     1
 LinEq1:  Iter= 24 NonCon=     1 RMS=2.14D-11 Max=1.10D-09 NDo=     1
 LinEq1:  Iter= 25 NonCon=     0 RMS=1.36D-11 Max=3.98D-10 NDo=     1
 Linear equations converged to 1.000D-10 1.000D-09 after    25 iterations.
 End of Minotr F.D. properties file   721 does not exist.
 End of Minotr F.D. properties file   722 does not exist.
 End of Minotr F.D. properties file   788 does not exist.

 **********************************************************************

            Population analysis using the SCF density.

 **********************************************************************

 Orbital symmetries:
       Occupied  (A) (A) (A) (A) (A) (A) (A) (A) (A) (A) (A) (A)
                 (A) (A) (A) (A) (A) (A) (A) (A) (A) (A) (A) (A)
                 (A) (A) (A) (A) (A) (A) (A) (A) (A) (A) (A) (A)
                 (A) (A) (A) (A) (A) (A) (A) (A) (A) (A) (A) (A)
                 (A) (A) (A) (A) (A) (A) (A)
       Virtual   (A) (A) (A) (A) (A) (A) (A) (A) (A) (A) (A) (A)
                 (A) (A) (A) (A) (A) (A) (A) (A) (A) (A) (A) (A)
                 (A) (A) (A) (A) (A) (A) (A) (A) (A) (A) (A) (A)
                 (A) (A) (A) (A) (A) (A) (A) (A) (A) (A) (A) (A)
                 (A) (A) (A) (A) (A) (A) (A) (A) (A) (A) (A) (A)
                 (A) (A) (A) (A) (A) (A) (A) (A) (A) (A) (A) (A)
                 (A) (A) (A) (A) (A) (A) (A) (A) (A) (A) (A) (A)
                 (A) (A) (A) (A) (A) (A) (A) (A) (A) (A) (A) (A)
                 (A) (A) (A) (A) (A) (A) (A) (A) (A) (A) (A) (A)
                 (A) (A) (A) (A) (A) (A) (A) (A) (A) (A) (A) (A)
                 (A) (A) (A) (A) (A) (A) (A) (A) (A) (A) (A) (A)
                 (A) (A) (A) (A) (A) (A) (A) (A) (A) (A) (A) (A)
                 (A) (A) (A) (A) (A) (A) (A) (A) (A) (A) (A) (A)
                 (A) (A) (A) (A) (A) (A) (A) (A) (A) (A) (A) (A)
                 (A) (A) (A) (A) (A) (A) (A) (A) (A) (A) (A) (A)
                 (A) (A) (A) (A) (A) (A) (A) (A) (A) (A) (A) (A)
                 (A) (A) (A) (A) (A) (A) (A) (A) (A) (A) (A) (A)
                 (A) (A) (A) (A) (A) (A) (A) (A) (A) (A) (A) (A)
                 (A) (A) (A) (A) (A) (A) (A) (A) (A) (A) (A) (A)
                 (A) (A) (A) (A) (A) (A) (A) (A) (A) (A) (A) (A)
                 (A) (A) (A) (A) (A) (A) (A) (A) (A) (A) (A) (A)
                 (A) (A) (A) (A) (A) (A) (A) (A) (A) (A) (A) (A)
                 (A) (A) (A) (A) (A) (A) (A) (A) (A) (A) (A) (A)
                 (A) (A) (A) (A) (A) (A) (A) (A) (A) (A) (A) (A)
                 (A) (A) (A) (A) (A) (A) (A) (A) (A) (A) (A) (A)
                 (A) (A) (A) (A) (A) (A) (A) (A) (A) (A) (A) (A)
                 (A) (A) (A) (A) (A) (A) (A) (A) (A) (A) (A) (A)
                 (A) (A) (A) (A) (A) (A) (A) (A) (A) (A) (A) (A)
                 (A) (A) (A) (A) (A) (A) (A) (A) (A) (A) (A) (A)
                 (A) (A) (A) (A) (A) (A) (A) (A) (A) (A)
 The electronic state is 1-A.
 Alpha  occ. eigenvalues --  -24.90311 -19.27458 -19.18839 -14.48179 -10.39925
 Alpha  occ. eigenvalues --  -10.36044 -10.35315 -10.33724 -10.33266 -10.33025
 Alpha  occ. eigenvalues --  -10.29899 -10.27524 -10.26917 -10.26429 -10.26239
 Alpha  occ. eigenvalues --   -1.60679  -1.17269  -1.08107  -1.06956  -0.94697
 Alpha  occ. eigenvalues --   -0.88512  -0.87069  -0.85833  -0.84609  -0.81456
 Alpha  occ. eigenvalues --   -0.78440  -0.77077  -0.74740  -0.70552  -0.68566
 Alpha  occ. eigenvalues --   -0.64256  -0.63809  -0.62012  -0.58741  -0.57749
 Alpha  occ. eigenvalues --   -0.57197  -0.55549  -0.53305  -0.52163  -0.51053
 Alpha  occ. eigenvalues --   -0.50829  -0.50524  -0.49105  -0.48856  -0.47778
 Alpha  occ. eigenvalues --   -0.45787  -0.44332  -0.43667  -0.41111  -0.40417
 Alpha  occ. eigenvalues --   -0.38694  -0.31854  -0.30864  -0.28636  -0.26723
 Alpha virt. eigenvalues --    0.00744   0.03065   0.04359   0.05012   0.05872
 Alpha virt. eigenvalues --    0.06060   0.06224   0.06461   0.07554   0.07755
 Alpha virt. eigenvalues --    0.08072   0.08595   0.09241   0.09844   0.10912
 Alpha virt. eigenvalues --    0.11294   0.11975   0.12677   0.13082   0.13684
 Alpha virt. eigenvalues --    0.13833   0.14420   0.14858   0.15151   0.15693
 Alpha virt. eigenvalues --    0.15839   0.16575   0.16872   0.17028   0.17226
 Alpha virt. eigenvalues --    0.17864   0.17940   0.18518   0.18631   0.19493
 Alpha virt. eigenvalues --    0.19602   0.19847   0.20241   0.20468   0.21158
 Alpha virt. eigenvalues --    0.21401   0.21733   0.22309   0.22671   0.23491
 Alpha virt. eigenvalues --    0.23814   0.24369   0.24661   0.24978   0.25320
 Alpha virt. eigenvalues --    0.26063   0.26237   0.27065   0.27377   0.27722
 Alpha virt. eigenvalues --    0.28430   0.28830   0.29339   0.29830   0.30142
 Alpha virt. eigenvalues --    0.30810   0.30854   0.31145   0.32436   0.32919
 Alpha virt. eigenvalues --    0.33434   0.33892   0.34255   0.35024   0.35137
 Alpha virt. eigenvalues --    0.35691   0.36387   0.37137   0.37599   0.37661
 Alpha virt. eigenvalues --    0.38017   0.38667   0.38905   0.40054   0.40115
 Alpha virt. eigenvalues --    0.40246   0.40442   0.41917   0.42088   0.42855
 Alpha virt. eigenvalues --    0.43139   0.43517   0.43839   0.44423   0.45803
 Alpha virt. eigenvalues --    0.46594   0.47197   0.47340   0.48615   0.50160
 Alpha virt. eigenvalues --    0.51252   0.51946   0.52526   0.53755   0.54957
 Alpha virt. eigenvalues --    0.55218   0.56826   0.57971   0.60648   0.61240
 Alpha virt. eigenvalues --    0.62471   0.63183   0.64192   0.65064   0.65960
 Alpha virt. eigenvalues --    0.66820   0.67279   0.67722   0.68861   0.69627
 Alpha virt. eigenvalues --    0.69901   0.70341   0.71188   0.71354   0.71975
 Alpha virt. eigenvalues --    0.72944   0.73797   0.74128   0.74921   0.75825
 Alpha virt. eigenvalues --    0.76850   0.77200   0.78727   0.79175   0.79815
 Alpha virt. eigenvalues --    0.80259   0.81715   0.81980   0.82522   0.84052
 Alpha virt. eigenvalues --    0.85005   0.85575   0.86006   0.87147   0.87782
 Alpha virt. eigenvalues --    0.89324   0.90324   0.91642   0.92983   0.94546
 Alpha virt. eigenvalues --    0.95531   0.97251   0.98043   0.98274   0.99398
 Alpha virt. eigenvalues --    1.01167   1.01778   1.02709   1.03892   1.05656
 Alpha virt. eigenvalues --    1.07345   1.09003   1.09617   1.12334   1.13736
 Alpha virt. eigenvalues --    1.14436   1.17220   1.17811   1.19069   1.19803
 Alpha virt. eigenvalues --    1.20707   1.23183   1.24654   1.26107   1.29834
 Alpha virt. eigenvalues --    1.30937   1.32581   1.32865   1.34856   1.35892
 Alpha virt. eigenvalues --    1.37469   1.40015   1.41095   1.42724   1.43462
 Alpha virt. eigenvalues --    1.46066   1.47658   1.48853   1.51009   1.51456
 Alpha virt. eigenvalues --    1.52463   1.53475   1.56722   1.57450   1.58372
 Alpha virt. eigenvalues --    1.59103   1.60431   1.62746   1.63113   1.64064
 Alpha virt. eigenvalues --    1.64366   1.65268   1.66280   1.67919   1.69164
 Alpha virt. eigenvalues --    1.69860   1.71847   1.73182   1.74332   1.76292
 Alpha virt. eigenvalues --    1.76587   1.77730   1.78516   1.79363   1.81616
 Alpha virt. eigenvalues --    1.82423   1.83571   1.84349   1.86325   1.87305
 Alpha virt. eigenvalues --    1.88115   1.90055   1.90617   1.92529   1.93184
 Alpha virt. eigenvalues --    1.94135   1.95140   1.98356   1.99759   2.00343
 Alpha virt. eigenvalues --    2.03288   2.04829   2.05497   2.06246   2.07741
 Alpha virt. eigenvalues --    2.08519   2.10872   2.11837   2.13505   2.13981
 Alpha virt. eigenvalues --    2.15037   2.18106   2.19561   2.20181   2.23540
 Alpha virt. eigenvalues --    2.24428   2.27325   2.29304   2.31052   2.35179
 Alpha virt. eigenvalues --    2.38054   2.40323   2.41469   2.46110   2.47691
 Alpha virt. eigenvalues --    2.49786   2.51500   2.51794   2.52475   2.55468
 Alpha virt. eigenvalues --    2.57940   2.58497   2.60090   2.62889   2.64001
 Alpha virt. eigenvalues --    2.65182   2.67461   2.71363   2.72155   2.72958
 Alpha virt. eigenvalues --    2.75410   2.75729   2.79900   2.80295   2.80608
 Alpha virt. eigenvalues --    2.82058   2.82724   2.83203   2.84740   2.87518
 Alpha virt. eigenvalues --    2.87951   2.89624   2.90906   2.92859   2.94759
 Alpha virt. eigenvalues --    2.95290   2.96914   2.99654   3.02713   3.03602
 Alpha virt. eigenvalues --    3.06264   3.08877   3.10152   3.11583   3.12667
 Alpha virt. eigenvalues --    3.13903   3.17431   3.18621   3.23084   3.26864
 Alpha virt. eigenvalues --    3.29202   3.30818   3.35678   3.38587   3.41021
 Alpha virt. eigenvalues --    3.44032   3.45847   3.51425   3.55299   3.56837
 Alpha virt. eigenvalues --    3.60189   3.63086   3.67501   3.70120   3.73031
 Alpha virt. eigenvalues --    3.73899   3.80491   3.80709   3.82079   3.84545
 Alpha virt. eigenvalues --    3.85629   3.92049   3.92198   3.94245   3.95790
 Alpha virt. eigenvalues --    4.10141   4.11149   4.14789   4.18254   4.27243
 Alpha virt. eigenvalues --    4.31865   4.40313   4.48101   4.60016   4.63446
 Alpha virt. eigenvalues --    4.85197   4.92138   4.99885   5.16183   5.17966
 Alpha virt. eigenvalues --    5.25075   5.41583   5.47400   5.81410   5.88129
 Alpha virt. eigenvalues --    6.44442   6.55681   7.19680  23.80717  23.94372
 Alpha virt. eigenvalues --   24.00812  24.04795  24.07159  24.07983  24.17742
 Alpha virt. eigenvalues --   24.23664  24.26038  24.27590  24.33527  35.69879
 Alpha virt. eigenvalues --   50.07201  50.16603  66.98019
          Condensed to atoms (all electrons):
               1          2          3          4          5          6
     1  C    5.256578   0.388477   0.404759  -0.084003   0.020123   0.243825
     2  H    0.388477   0.509044  -0.031733   0.011120  -0.009101  -0.053142
     3  H    0.404759  -0.031733   0.544475  -0.011748   0.002706  -0.054690
     4  C   -0.084003   0.011120  -0.011748   5.196231   0.395592   0.265164
     5  H    0.020123  -0.009101   0.002706   0.395592   0.572292  -0.046985
     6  N    0.243825  -0.053142  -0.054690   0.265164  -0.046985   6.847072
     7  H    0.417104  -0.015942  -0.054326   0.015066   0.000691  -0.046317
     8  H   -0.000498   0.003147  -0.001056   0.408620  -0.032778  -0.088838
     9  H   -0.020583   0.001670   0.003469   0.413918  -0.064181  -0.049722
    10  C   -0.034856   0.027040  -0.026978   0.029079  -0.057183   0.174937
    11  H   -0.002859  -0.000676  -0.003417  -0.021606   0.002095  -0.062005
    12  C    0.231148   0.011641   0.026291  -0.197708   0.039488  -0.289239
    13  C   -0.216022  -0.017587   0.009477  -0.085048  -0.003054   0.043240
    14  H    0.021551   0.002586   0.005694  -0.022494   0.001563  -0.040037
    15  O   -0.005951  -0.000342  -0.000061   0.004541  -0.000311   0.007197
    16  C   -0.138647  -0.003565  -0.005517   0.013853  -0.000962   0.015890
    17  C   -0.006471  -0.000237  -0.004029  -0.013348  -0.000299  -0.000211
    18  C   -0.023203  -0.003037   0.005680   0.010864  -0.001106   0.001173
    19  O    0.000188   0.000008   0.000015   0.000279   0.000006  -0.000086
    20  C   -0.002473  -0.000069   0.000233  -0.001921  -0.000055  -0.000989
    21  C   -0.004468  -0.000853   0.003643   0.000270   0.000013  -0.001716
    22  H    0.002609   0.000303  -0.004209   0.000316   0.000171  -0.002590
    23  H   -0.000148  -0.000035   0.000041  -0.000022   0.000030   0.000047
    24  H   -0.000033  -0.000002  -0.000001   0.000003   0.000000  -0.000019
    25  C   -0.000882  -0.000017  -0.000124   0.000009  -0.000034   0.000601
    26  H   -0.000460  -0.000030   0.000177   0.000039  -0.000002   0.000078
    27  F    0.000001   0.000000   0.000004   0.000000   0.000000  -0.000002
               7          8          9         10         11         12
     1  C    0.417104  -0.000498  -0.020583  -0.034856  -0.002859   0.231148
     2  H   -0.015942   0.003147   0.001670   0.027040  -0.000676   0.011641
     3  H   -0.054326  -0.001056   0.003469  -0.026978  -0.003417   0.026291
     4  C    0.015066   0.408620   0.413918   0.029079  -0.021606  -0.197708
     5  H    0.000691  -0.032778  -0.064181  -0.057183   0.002095   0.039488
     6  N   -0.046317  -0.088838  -0.049722   0.174937  -0.062005  -0.289239
     7  H    0.543534  -0.002570  -0.001546   0.137222   0.004515  -0.103513
     8  H   -0.002570   0.534251  -0.019815   0.102229  -0.008565  -0.025826
     9  H   -0.001546  -0.019815   0.562180  -0.021544   0.001136   0.021861
    10  C    0.137222   0.102229  -0.021544  16.856394   0.391278  -4.176527
    11  H    0.004515  -0.008565   0.001136   0.391278   0.463365  -0.162867
    12  C   -0.103513  -0.025826   0.021861  -4.176527  -0.162867  16.066596
    13  C   -0.038577  -0.015152   0.007044  -5.606438   0.061230   1.126421
    14  H   -0.033341  -0.001651   0.000000  -0.672815  -0.001741   0.711206
    15  O    0.000334  -0.000864   0.000382   0.019040   0.029408  -0.410716
    16  C   -0.021081   0.000776   0.000605  -0.340361   0.078351  -4.777322
    17  C   -0.012501  -0.001621   0.000245  -2.357590  -0.016333  -1.177565
    18  C    0.022549   0.002247   0.000990   1.982490   0.008309  -0.214703
    19  O    0.000320   0.000027  -0.000005   0.072211   0.001226   0.054461
    20  C   -0.000425  -0.000460  -0.000005  -0.255455   0.006551   0.021320
    21  C    0.001584  -0.000800   0.000312  -0.500772  -0.006022  -0.202286
    22  H    0.002714   0.000391  -0.000159   0.060215   0.001294  -0.054883
    23  H   -0.000218  -0.000081   0.000001  -0.072195  -0.000755  -0.033277
    24  H   -0.000002  -0.000003   0.000001  -0.004838  -0.000113  -0.006152
    25  C   -0.000164   0.000171  -0.000004   0.025233   0.000514  -0.220894
    26  H   -0.000148  -0.000011   0.000005  -0.006754  -0.000078  -0.004223
    27  F    0.000013   0.000000   0.000000   0.001582   0.000003   0.007295
              13         14         15         16         17         18
     1  C   -0.216022   0.021551  -0.005951  -0.138647  -0.006471  -0.023203
     2  H   -0.017587   0.002586  -0.000342  -0.003565  -0.000237  -0.003037
     3  H    0.009477   0.005694  -0.000061  -0.005517  -0.004029   0.005680
     4  C   -0.085048  -0.022494   0.004541   0.013853  -0.013348   0.010864
     5  H   -0.003054   0.001563  -0.000311  -0.000962  -0.000299  -0.001106
     6  N    0.043240  -0.040037   0.007197   0.015890  -0.000211   0.001173
     7  H   -0.038577  -0.033341   0.000334  -0.021081  -0.012501   0.022549
     8  H   -0.015152  -0.001651  -0.000864   0.000776  -0.001621   0.002247
     9  H    0.007044   0.000000   0.000382   0.000605   0.000245   0.000990
    10  C   -5.606438  -0.672815   0.019040  -0.340361  -2.357590   1.982490
    11  H    0.061230  -0.001741   0.029408   0.078351  -0.016333   0.008309
    12  C    1.126421   0.711206  -0.410716  -4.777322  -1.177565  -0.214703
    13  C   15.881092   0.343346   0.737090  -2.578271   0.278203  -5.549537
    14  H    0.343346   0.750829  -0.003050   0.123193   0.203963  -0.571454
    15  O    0.737090  -0.003050   8.226512  -0.337957   0.268711  -0.141038
    16  C   -2.578271   0.123193  -0.337957  20.669303  -5.346471  -3.706495
    17  C    0.278203   0.203963   0.268711  -5.346471  21.937257  -0.278487
    18  C   -5.549537  -0.571454  -0.141038  -3.706495  -0.278487  23.388207
    19  O   -0.065540  -0.007348  -0.015938   0.157211   0.036578   0.001101
    20  C    0.899969   0.061372   0.035726   1.713135  -7.131063  -4.777324
    21  C    3.234036   0.075950  -0.045550   1.700155  -2.753174  -9.165841
    22  H   -0.206701  -0.046004   0.002659  -0.230423   0.099990   1.025433
    23  H    0.015732   0.002845   0.014278  -0.162883   0.077300  -0.018419
    24  H    0.001159   0.000288   0.000530   0.010856  -0.069787  -0.062866
    25  C   -1.672233  -0.036461   0.010280  -2.618211   3.568687   5.005248
    26  H    0.035732   0.006413  -0.000211   0.117837  -0.066232  -0.150850
    27  F    0.014714  -0.000824  -0.000171   0.084601  -0.138305  -0.108650
              19         20         21         22         23         24
     1  C    0.000188  -0.002473  -0.004468   0.002609  -0.000148  -0.000033
     2  H    0.000008  -0.000069  -0.000853   0.000303  -0.000035  -0.000002
     3  H    0.000015   0.000233   0.003643  -0.004209   0.000041  -0.000001
     4  C    0.000279  -0.001921   0.000270   0.000316  -0.000022   0.000003
     5  H    0.000006  -0.000055   0.000013   0.000171   0.000030   0.000000
     6  N   -0.000086  -0.000989  -0.001716  -0.002590   0.000047  -0.000019
     7  H    0.000320  -0.000425   0.001584   0.002714  -0.000218  -0.000002
     8  H    0.000027  -0.000460  -0.000800   0.000391  -0.000081  -0.000003
     9  H   -0.000005  -0.000005   0.000312  -0.000159   0.000001   0.000001
    10  C    0.072211  -0.255455  -0.500772   0.060215  -0.072195  -0.004838
    11  H    0.001226   0.006551  -0.006022   0.001294  -0.000755  -0.000113
    12  C    0.054461   0.021320  -0.202286  -0.054883  -0.033277  -0.006152
    13  C   -0.065540   0.899969   3.234036  -0.206701   0.015732   0.001159
    14  H   -0.007348   0.061372   0.075950  -0.046004   0.002845   0.000288
    15  O   -0.015938   0.035726  -0.045550   0.002659   0.014278   0.000530
    16  C    0.157211   1.713135   1.700155  -0.230423  -0.162883   0.010856
    17  C    0.036578  -7.131063  -2.753174   0.099990   0.077300  -0.069787
    18  C    0.001101  -4.777324  -9.165841   1.025433  -0.018419  -0.062866
    19  O    7.799264  -0.159630   0.106170  -0.004400   0.216013  -0.011226
    20  C   -0.159630  14.591950   3.696194  -0.133520   0.219110   0.508260
    21  C    0.106170   3.696194  14.623178  -0.400141   0.011307   0.053674
    22  H   -0.004400  -0.133520  -0.400141   0.591282  -0.000112  -0.001325
    23  H    0.216013   0.219110   0.011307  -0.000112   0.428737   0.002752
    24  H   -0.011226   0.508260   0.053674  -0.001325   0.002752   0.457368
    25  C   -0.114843  -3.558927  -4.243197   0.183831   0.001427  -0.114167
    26  H    0.001769   0.083393   0.523574  -0.028902  -0.000171   0.002307
    27  F    0.002485  -0.159510  -0.272710  -0.000197  -0.000273  -0.006634
              25         26         27
     1  C   -0.000882  -0.000460   0.000001
     2  H   -0.000017  -0.000030   0.000000
     3  H   -0.000124   0.000177   0.000004
     4  C    0.000009   0.000039   0.000000
     5  H   -0.000034  -0.000002   0.000000
     6  N    0.000601   0.000078  -0.000002
     7  H   -0.000164  -0.000148   0.000013
     8  H    0.000171  -0.000011   0.000000
     9  H   -0.000004   0.000005   0.000000
    10  C    0.025233  -0.006754   0.001582
    11  H    0.000514  -0.000078   0.000003
    12  C   -0.220894  -0.004223   0.007295
    13  C   -1.672233   0.035732   0.014714
    14  H   -0.036461   0.006413  -0.000824
    15  O    0.010280  -0.000211  -0.000171
    16  C   -2.618211   0.117837   0.084601
    17  C    3.568687  -0.066232  -0.138305
    18  C    5.005248  -0.150850  -0.108650
    19  O   -0.114843   0.001769   0.002485
    20  C   -3.558927   0.083393  -0.159510
    21  C   -4.243197   0.523574  -0.272710
    22  H    0.183831  -0.028902  -0.000197
    23  H    0.001427  -0.000171  -0.000273
    24  H   -0.114167   0.002307  -0.006634
    25  C   10.282436  -0.203658   0.265611
    26  H   -0.203658   0.487051  -0.016709
    27  F    0.265611  -0.016709   9.061950
 Mulliken charges:
               1
     1  C   -0.444807
     2  H    0.181330
     3  H    0.191227
     4  C   -0.327068
     5  H    0.181281
     6  N    0.137361
     7  H    0.185024
     8  H    0.148728
     9  H    0.163745
    10  C    0.255356
    11  H    0.237761
    12  C   -0.260029
    13  C   -0.634325
    14  H    0.126419
    15  O   -0.394531
    16  C    1.582400
    17  C   -1.097210
    18  C   -0.681283
    19  O   -0.070316
    20  C    0.344615
    21  C   -0.432528
    22  H    0.142358
    23  H    0.298968
    24  H    0.239968
    25  C   -0.560235
    26  H    0.220064
    27  F    0.265726
 Sum of Mulliken charges =   0.00000
 Mulliken charges with hydrogens summed into heavy atoms:
               1
     1  C    0.112774
     4  C    0.166685
     6  N    0.137361
    10  C    0.493118
    12  C   -0.133610
    13  C   -0.634325
    15  O   -0.394531
    16  C    1.582400
    17  C   -1.097210
    18  C   -0.538925
    19  O    0.228652
    20  C    0.584583
    21  C   -0.212464
    25  C   -0.560235
    27  F    0.265726
 Electronic spatial extent (au):  <R**2>=           4569.7561
 Charge=              0.0000 electrons
 Dipole moment (field-independent basis, Debye):
    X=             -3.1785    Y=             -4.4201    Z=              0.7952  Tot=              5.5021
 Quadrupole moment (field-independent basis, Debye-Ang):
   XX=            -52.5985   YY=            -90.9120   ZZ=            -90.0280
   XY=             -1.1506   XZ=             -1.6030   YZ=              1.2535
 Traceless Quadrupole moment (field-independent basis, Debye-Ang):
   XX=             25.2477   YY=            -13.0659   ZZ=            -12.1818
   XY=             -1.1506   XZ=             -1.6030   YZ=              1.2535
 Octapole moment (field-independent basis, Debye-Ang**2):
  XXX=            -42.8941  YYY=            -25.9763  ZZZ=              4.8332  XYY=             -2.4243
  XXY=            -19.0856  XXZ=            -17.2907  XZZ=              1.5288  YZZ=              1.8625
  YYZ=              5.3265  XYZ=              5.5704
 Hexadecapole moment (field-independent basis, Debye-Ang**3):
 XXXX=          -3899.9973 YYYY=           -870.3574 ZZZZ=           -191.2348 XXXY=            -37.6399
 XXXZ=            -12.4260 YYYX=            -48.4277 YYYZ=             15.4988 ZZZX=             11.7609
 ZZZY=              4.2088 XXYY=           -900.7002 XXZZ=           -835.7098 YYZZ=           -174.4908
 XXYZ=            -28.5203 YYXZ=            -14.0030 ZZXY=             -7.0830
 N-N= 9.556633826438D+02 E-N=-3.622758216205D+03  KE= 7.300153771040D+02
 Calling FoFJK, ICntrl=  10005127 FMM=F ISym2X=0 I1Cent= 0 IOpClX= 0 NMat=1 NMatS=1 NMatT=0.
 ***** Axes restored to original set *****
 -------------------------------------------------------------------
 Center     Atomic                   Forces (Hartrees/Bohr)
 Number     Number              X              Y              Z
 -------------------------------------------------------------------
      1        6           0.000455681    0.001019596   -0.000448251
      2        1           0.000387916    0.000131673    0.000376690
      3        1          -0.000096795    0.000089385   -0.000302145
      4        6           0.000026481    0.002172661   -0.000043581
      5        1          -0.000352451   -0.000110607   -0.000008534
      6        7           0.006339546   -0.001852963   -0.001180448
      7        1           0.000167942   -0.000309561   -0.000224219
      8        1          -0.000496012   -0.000288060    0.000450063
      9        1          -0.000230623   -0.000175098    0.000550589
     10        6          -0.009363098    0.004013306    0.003729113
     11        1          -0.000229016   -0.001151169   -0.000526263
     12        6           0.012593367    0.004159946    0.000953727
     13        6           0.009808530   -0.043648588   -0.026103509
     14        1          -0.000755257    0.001150272    0.000661287
     15        8          -0.001000659    0.023535434    0.030083404
     16        6          -0.024451864    0.007242244   -0.022759262
     17        6          -0.002605157    0.036947567    0.023853780
     18        6          -0.009463710    0.011792701    0.009239569
     19        8           0.080826277   -0.033298174    0.003620232
     20        6           0.017343900   -0.024854879   -0.036349211
     21        6           0.074380505    0.012938775   -0.033139656
     22        1           0.002021984   -0.000690165   -0.002344551
     23        1          -0.072304567   -0.006465669   -0.018361089
     24        1          -0.001138882   -0.001595360    0.009214017
     25        6           0.622927016   -0.249584803   -0.442315025
     26        1          -0.004803765    0.000353749    0.004045056
     27        9          -0.699987291    0.258477788    0.497328215
 -------------------------------------------------------------------
 Cartesian Forces:  Max     0.699987291 RMS     0.135193359

 GradGradGradGradGradGradGradGradGradGradGradGradGradGradGradGradGradGrad
 Berny optimization.
 FormGI is forming the generalized inverse of G from B-inverse, IUseBI=4.
 Internal  Forces:  Max     0.894549161 RMS     0.081389611
 Search for a local minimum.
 Step number   1 out of a maximum of  134
 All quantities printed in internal units (Hartrees-Bohrs-Radians)
 Mixed Optimization -- RFO/linear search
 Second derivative matrix not updated -- first step.
 ITU=  0
     Eigenvalues ---    0.01040   0.01140   0.01410   0.01502   0.01700
     Eigenvalues ---    0.01725   0.01750   0.02026   0.02075   0.02096
     Eigenvalues ---    0.02105   0.02115   0.02149   0.02179   0.02259
     Eigenvalues ---    0.02356   0.02400   0.02442   0.03156   0.03363
     Eigenvalues ---    0.07366   0.07416   0.07553   0.07669   0.15973
     Eigenvalues ---    0.15982   0.15983   0.15998   0.16000   0.16000
     Eigenvalues ---    0.16000   0.16000   0.16000   0.16000   0.16000
     Eigenvalues ---    0.16000   0.21260   0.22000   0.22004   0.22188
     Eigenvalues ---    0.22770   0.23380   0.23833   0.23929   0.24326
     Eigenvalues ---    0.24555   0.25000   0.25000   0.32764   0.33747
     Eigenvalues ---    0.33810   0.34155   0.34286   0.34370   0.34825
     Eigenvalues ---    0.34851   0.35571   0.35649   0.35722   0.35782
     Eigenvalues ---    0.35782   0.38342   0.39354   0.41075   0.41622
     Eigenvalues ---    0.41897   0.43565   0.45639   0.46191   0.47161
     Eigenvalues ---    0.50347   0.55067   0.63795   0.70259   3.32740
 RFO step:  Lambda=-2.64530872D-01 EMin= 1.04013172D-02
 Linear search not attempted -- first point.
 Maximum step size (   0.300) exceeded in Quadratic search.
    -- Step size scaled by   0.923
 Iteration  1 RMS(Cart)=  0.05325627 RMS(Int)=  0.00268468
 Iteration  2 RMS(Cart)=  0.00285425 RMS(Int)=  0.00027387
 Iteration  3 RMS(Cart)=  0.00001552 RMS(Int)=  0.00027348
 Iteration  4 RMS(Cart)=  0.00000001 RMS(Int)=  0.00027348
 Variable       Old X    -DE/DX   Delta X   Delta X   Delta X     New X
                                 (Linear)    (Quad)   (Total)
    R1        2.05961   0.00041   0.00000   0.00062   0.00062   2.06022
    R2        2.07760   0.00022   0.00000   0.00034   0.00034   2.07794
    R3        2.72441   0.00057   0.00000   0.00080   0.00080   2.72521
    R4        2.06851  -0.00021   0.00000  -0.00032  -0.00032   2.06819
    R5        2.07651  -0.00009   0.00000  -0.00014  -0.00014   2.07637
    R6        2.73871  -0.00178   0.00000  -0.00253  -0.00253   2.73618
    R7        2.05917   0.00017   0.00000   0.00026   0.00026   2.05943
    R8        2.06709   0.00005   0.00000   0.00008   0.00008   2.06718
    R9        2.55072   0.00588   0.00000   0.00666   0.00666   2.55738
   R10        2.04635   0.00126   0.00000   0.00187   0.00187   2.04821
   R11        2.59517  -0.00505   0.00000  -0.00607  -0.00607   2.58910
   R12        2.69407   0.01202   0.00000   0.01629   0.01629   2.71036
   R13        2.04424   0.00128   0.00000   0.00189   0.00189   2.04613
   R14        2.48058  -0.03537   0.00000  -0.03615  -0.03615   2.44443
   R15        2.70118   0.01453   0.00000   0.01985   0.01985   2.72103
   R16        2.81542  -0.00316   0.00000  -0.00616  -0.00630   2.80912
   R17        2.63494   0.00761   0.00000   0.00919   0.00898   2.64392
   R18        2.43640   0.03582   0.00000   0.03417   0.03417   2.47057
   R19        2.62256  -0.00071   0.00000  -0.00140  -0.00133   2.62123
   R20        2.65512  -0.00894   0.00000  -0.01101  -0.01107   2.64405
   R21        2.04519   0.00101   0.00000   0.00150   0.00150   2.04668
   R22        2.07069  -0.07255   0.00000  -0.11043  -0.11043   1.96026
   R23        2.04423   0.00197   0.00000   0.00292   0.00292   2.04715
   R24        2.64505   0.03106   0.00000   0.04023   0.04043   2.68548
   R25        2.63860   0.05802   0.00000   0.07466   0.07480   2.71340
   R26        2.04757   0.00148   0.00000   0.00219   0.00219   2.04977
   R27        1.88973   0.89455   0.00000   0.22975   0.22975   2.11948
    A1        1.89271   0.00003   0.00000   0.00014   0.00014   1.89285
    A2        1.90530   0.00048   0.00000   0.00105   0.00105   1.90634
    A3        1.89577  -0.00015   0.00000  -0.00040  -0.00040   1.89538
    A4        1.95193  -0.00022   0.00000  -0.00045  -0.00045   1.95148
    A5        1.88779   0.00036   0.00000   0.00078   0.00078   1.88857
    A6        1.92918  -0.00049   0.00000  -0.00111  -0.00111   1.92807
    A7        1.94944   0.00012   0.00000   0.00034   0.00034   1.94979
    A8        1.88816   0.00042   0.00000   0.00091   0.00091   1.88907
    A9        1.88769   0.00060   0.00000   0.00145   0.00145   1.88914
   A10        1.91606  -0.00094   0.00000  -0.00213  -0.00213   1.91393
   A11        1.92844  -0.00057   0.00000  -0.00124  -0.00124   1.92720
   A12        1.89262   0.00043   0.00000   0.00078   0.00077   1.89340
   A13        2.05766  -0.00125   0.00000  -0.00230  -0.00230   2.05536
   A14        2.10319   0.00086   0.00000   0.00152   0.00152   2.10471
   A15        2.09829   0.00032   0.00000   0.00055   0.00055   2.09884
   A16        2.03261  -0.00188   0.00000  -0.00353  -0.00353   2.02908
   A17        2.19150   0.00410   0.00000   0.00781   0.00781   2.19931
   A18        2.05907  -0.00222   0.00000  -0.00428  -0.00428   2.05479
   A19        2.09563  -0.00048   0.00000  -0.00089  -0.00090   2.09473
   A20        2.09658   0.00103   0.00000   0.00219   0.00219   2.09877
   A21        2.08930  -0.00051   0.00000  -0.00116  -0.00116   2.08814
   A22        2.09069   0.00859   0.00000   0.01539   0.01531   2.10600
   A23        2.11139  -0.00377   0.00000  -0.00677  -0.00685   2.10453
   A24        2.08110  -0.00486   0.00000  -0.00873  -0.00881   2.07229
   A25        2.03549  -0.00881   0.00000  -0.01309  -0.01315   2.02234
   A26        2.15952   0.00696   0.00000   0.01652   0.01651   2.17604
   A27        2.01962   0.00443   0.00000   0.00479   0.00452   2.02415
   A28        2.02354   0.00524   0.00000   0.01333   0.01306   2.03660
   A29        2.12982   0.00214   0.00000   0.00143   0.00116   2.13098
   A30        2.07507  -0.00265   0.00000  -0.00007  -0.00053   2.07455
   A31        2.11487   0.00330   0.00000   0.00395   0.00377   2.11864
   A32        2.10850  -0.00406   0.00000  -0.00730  -0.00725   2.10126
   A33        2.05830   0.00075   0.00000   0.00327   0.00338   2.06167
   A34        1.82743   0.01191   0.00000   0.02588   0.02588   1.85331
   A35        2.08487  -0.00597   0.00000  -0.01002  -0.01022   2.07465
   A36        2.08353   0.01349   0.00000   0.02324   0.02362   2.10715
   A37        2.11390  -0.00745   0.00000  -0.01304  -0.01324   2.10066
   A38        2.12815   0.00713   0.00000   0.01356   0.01376   2.14191
   A39        2.05783   0.00136   0.00000   0.00391   0.00380   2.06162
   A40        2.09711  -0.00847   0.00000  -0.01740  -0.01750   2.07960
   A41        2.08901  -0.03060   0.00000  -0.04732  -0.04756   2.04145
   A42        2.07736  -0.00081   0.00000   0.00382   0.00219   2.07954
   A43        1.94639   0.04512   0.00000   0.09188   0.09127   2.03766
    D1       -0.35522  -0.00034   0.00000  -0.00106  -0.00106  -0.35628
    D2        3.01970  -0.00005   0.00000  -0.00006  -0.00006   3.01965
    D3        1.73931  -0.00012   0.00000  -0.00048  -0.00048   1.73884
    D4       -1.16895   0.00017   0.00000   0.00053   0.00053  -1.16843
    D5       -2.43941  -0.00015   0.00000  -0.00055  -0.00055  -2.43996
    D6        0.93551   0.00014   0.00000   0.00045   0.00045   0.93596
    D7       -1.15149  -0.00011   0.00000  -0.00021  -0.00021  -1.15170
    D8        1.75746  -0.00033   0.00000  -0.00107  -0.00107   1.75639
    D9        3.03729  -0.00009   0.00000  -0.00015  -0.00015   3.03714
   D10       -0.33695  -0.00031   0.00000  -0.00101  -0.00101  -0.33796
   D11        0.95066   0.00034   0.00000   0.00101   0.00101   0.95167
   D12       -2.42357   0.00012   0.00000   0.00015   0.00015  -2.42343
   D13       -3.14130  -0.00037   0.00000  -0.00108  -0.00108   3.14081
   D14       -0.00484  -0.00045   0.00000  -0.00132  -0.00132  -0.00616
   D15        0.23905   0.00014   0.00000   0.00033   0.00033   0.23938
   D16       -2.90768   0.00006   0.00000   0.00008   0.00008  -2.90759
   D17       -3.06874  -0.00060   0.00000  -0.00195  -0.00195  -3.07069
   D18        0.01044   0.00017   0.00000   0.00056   0.00056   0.01100
   D19        0.06764  -0.00068   0.00000  -0.00220  -0.00220   0.06544
   D20       -3.13636   0.00009   0.00000   0.00032   0.00032  -3.13604
   D21        0.06285   0.00427   0.00000   0.01394   0.01402   0.07687
   D22       -3.08427  -0.00299   0.00000  -0.00982  -0.00990  -3.09417
   D23       -3.01660   0.00345   0.00000   0.01132   0.01140  -3.00520
   D24        0.11948  -0.00381   0.00000  -0.01244  -0.01252   0.10695
   D25       -3.00596   0.00058   0.00000   0.00066   0.00042  -3.00553
   D26        0.54250  -0.00747   0.00000  -0.02320  -0.02313   0.51937
   D27        0.13014  -0.00660   0.00000  -0.02289  -0.02297   0.10718
   D28       -2.60458  -0.01465   0.00000  -0.04676  -0.04652  -2.65110
   D29        0.78540  -0.02200   0.00000  -0.07044  -0.07053   0.71487
   D30       -2.70987  -0.00779   0.00000  -0.02459  -0.02453  -2.73440
   D31       -2.73014  -0.01368   0.00000  -0.04528  -0.04576  -2.77590
   D32        0.05778   0.00053   0.00000   0.00057   0.00024   0.05802
   D33        2.69281   0.00607   0.00000   0.02174   0.02173   2.71454
   D34       -0.38831   0.00631   0.00000   0.02330   0.02361  -0.36470
   D35       -0.04526   0.00089   0.00000   0.00188   0.00188  -0.04338
   D36       -3.12638   0.00113   0.00000   0.00344   0.00376  -3.12262
   D37       -0.13762  -0.01029   0.00000  -0.03270  -0.03263  -0.17025
   D38       -2.93722  -0.02499   0.00000  -0.07725  -0.07732  -3.01454
   D39        3.14102  -0.00788   0.00000  -0.02139  -0.02134   3.11969
   D40       -0.04539  -0.00631   0.00000  -0.01719  -0.01747  -0.06286
   D41       -0.36427   0.00830   0.00000   0.02837   0.02827  -0.33600
   D42        2.73251   0.00987   0.00000   0.03256   0.03213   2.76464
   D43        0.02290   0.00331   0.00000   0.01212   0.01276   0.03566
   D44       -3.10370   0.00146   0.00000   0.00724   0.00787  -3.09583
   D45        3.10571   0.00291   0.00000   0.01024   0.01056   3.11627
   D46       -0.02089   0.00106   0.00000   0.00536   0.00567  -0.01522
   D47        0.01940   0.01021   0.00000   0.03046   0.03026   0.04966
   D48       -2.47751  -0.02890   0.00000  -0.08365  -0.08279  -2.56030
   D49        3.11541   0.01185   0.00000   0.03483   0.03428  -3.13350
   D50        0.61850  -0.02727   0.00000  -0.07929  -0.07877   0.53973
   D51       -0.00773  -0.00897   0.00000  -0.02858  -0.02854  -0.03627
   D52        2.53360   0.01416   0.00000   0.05197   0.05297   2.58657
   D53        3.11853  -0.00700   0.00000  -0.02340  -0.02341   3.09512
   D54       -0.62332   0.01613   0.00000   0.05715   0.05809  -0.56523
         Item               Value     Threshold  Converged?
 Maximum Force            0.894549     0.000450     NO 
 RMS     Force            0.081390     0.000300     NO 
 Maximum Displacement     0.357431     0.001800     NO 
 RMS     Displacement     0.054684     0.001200     NO 
 Predicted change in Energy=-1.492935D-01
 GradGradGradGradGradGradGradGradGradGradGradGradGradGradGradGradGradGrad

                          Input orientation:                          
 ---------------------------------------------------------------------
 Center     Atomic      Atomic             Coordinates (Angstroms)
 Number     Number       Type             X           Y           Z
 ---------------------------------------------------------------------
      1          6           0        3.606874    1.569451   -0.150122
      2          1           0        4.674061    1.792287   -0.143716
      3          1           0        3.072388    2.438197   -0.560885
      4          6           0        4.393867   -0.012486   -1.882074
      5          1           0        4.492484    0.718530   -2.696433
      6          7           0        3.374939    0.379372   -0.930908
      7          1           0        3.275186    1.420641    0.882173
      8          1           0        4.136097   -0.977026   -2.318985
      9          1           0        5.364203   -0.104875   -1.385548
     10          6           0        2.146181   -0.185901   -0.976359
     11          1           0        2.050784   -1.077571   -1.585122
     12          6           0        1.028533    0.262534   -0.322968
     13          6           0       -0.192312   -0.487030   -0.392206
     14          1           0        1.076437    1.152372    0.292072
     15          8           0       -0.231281   -1.630094   -0.996454
     16          6           0       -1.389293    0.002322    0.241122
     17          6           0       -2.542763   -0.935170    0.260188
     18          6           0       -1.695723    1.354767    0.426809
     19          8           0       -2.275605   -2.189822    0.512554
     20          6           0       -3.851226   -0.491415    0.382834
     21          6           0       -3.018168    1.789840    0.566532
     22          1           0       -0.911742    2.101792    0.408304
     23          1           0       -1.242311   -2.276759    0.484531
     24          1           0       -4.653650   -1.219086    0.370157
     25          6           0       -4.135458    0.887980    0.572568
     26          1           0       -3.198331    2.854961    0.664587
     27          9           0       -5.018807    1.182800    1.197640
 ---------------------------------------------------------------------
                    Distance matrix (angstroms):
                    1          2          3          4          5
     1  C    0.000000
     2  H    1.090222   0.000000
     3  H    1.099600   1.776679   0.000000
     4  C    2.474175   2.521429   3.081834   0.000000
     5  H    2.827025   2.775300   3.087798   1.098767   0.000000
     6  N    1.442119   2.074541   2.113578   1.447925   2.116840
     7  H    1.094438   1.774097   1.777347   3.308529   3.844631
     8  H    3.386530   3.562345   3.985742   1.089804   1.773242
     9  H    2.723572   2.370162   3.521321   1.093903   1.776600
    10  C    2.428487   3.316127   2.813603   2.429503   3.046602
    11  H    3.389302   4.146724   3.801757   2.590873   3.228449
    12  C    2.895816   3.957543   2.994570   3.719129   4.223768
    13  C    4.326839   5.379463   4.386760   4.845404   5.358185
    14  H    2.602423   3.679987   2.522835   4.133903   4.559469
    15  O    5.068018   6.041708   5.258796   4.979254   5.542555
    16  C    5.250777   6.333746   5.146192   6.160611   6.613432
    17  C    6.652783   7.725589   6.601794   7.318297   7.808395
    18  C    5.338209   6.410232   4.988410   6.654580   6.960843
    19  O    7.012477   8.036525   7.153450   7.413291   8.035118
    20  C    7.755932   8.841554   7.576916   8.563922   8.975709
    21  C    6.667335   7.724950   6.227865   8.011387   8.258604
    22  H    4.584007   5.621540   4.114095   6.153494   6.384235
    23  H    6.221794   7.208002   6.476135   6.518762   7.209588
    24  H    8.734008   9.815224   8.598500   9.401383   9.839211
    25  C    7.805793   8.884732   7.459285   8.921071   9.228026
    26  H    6.973314   7.984810   6.402920   8.505834   8.660798
    27  F    8.738898   9.804204   8.374715   9.975560  10.288051
                    6          7          8          9         10
     6  N    0.000000
     7  H    2.093192   0.000000
     8  H    2.084691   4.091135   0.000000
     9  H    2.097228   3.440021   1.772060   0.000000
    10  C    1.353308   2.703658   2.527506   3.244944   0.000000
    11  H    2.074624   3.718570   2.212960   3.459004   1.083868
    12  C    2.426697   2.800182   3.895836   4.479073   1.370091
    13  C    3.710273   4.157738   4.763160   5.657528   2.429087
    14  H    2.715938   2.292310   4.551206   4.772842   2.131724
    15  O    4.128810   5.013136   4.609726   5.812669   2.781803
    16  C    4.920744   4.917310   6.167917   6.947464   3.743964
    17  C    6.177858   6.307554   7.159682   8.118987   4.906797
    18  C    5.339138   4.992156   6.854689   7.433555   4.370671
    19  O    6.372831   6.631993   7.113255   8.143492   5.077869
    20  C    7.396056   7.395339   8.445885   9.391524   6.157081
    21  C    6.715919   6.312071   8.195441   8.812758   5.740607
    22  H    4.809974   4.268358   6.511367   6.890193   4.062231
    23  H    5.511578   5.851210   6.202925   7.201410   4.241199
    24  H    8.288913   8.372380   9.195092  10.231390   7.008444
    25  C    7.676274   7.436210   8.958680   9.750053   6.558307
    26  H    7.202918   6.634082   8.796571   9.288739   6.364225
    27  F    8.696619   8.303397  10.042099  10.776728   7.611614
                   11         12         13         14         15
    11  H    0.000000
    12  C    2.105685   0.000000
    13  C    2.608307   1.434260   0.000000
    14  H    3.073411   1.082765   2.183025   0.000000
    15  O    2.420668   2.371235   1.293535   3.333548   0.000000
    16  C    4.041716   2.496356   1.439908   2.721219   2.353162
    17  C    4.952386   3.811657   2.480135   4.178213   2.721217
    18  C    4.899025   3.029308   2.514606   2.782802   3.616582
    19  O    4.935077   4.198747   2.838697   4.738677   2.601857
    20  C    6.249013   4.987850   3.740102   5.195396   4.037701
    21  C    6.208538   4.415843   3.753502   4.153009   4.680344
    22  H    4.781072   2.771695   2.803639   2.206300   4.045163
    23  H    4.070134   3.500971   2.252620   4.143981   1.906220
    24  H    6.985168   5.912937   4.584827   6.201919   4.646924
    25  C    6.840220   5.278255   4.286006   5.226130   4.903583
    26  H    6.933917   5.055920   4.617561   4.616407   5.628336
    27  F    7.926674   6.303131   5.348925   6.162222   5.970497
                   16         17         18         19         20
    16  C    0.000000
[...]
 Alpha virt. eigenvalues --   -0.01713   0.03114   0.04383   0.04469   0.04889
 Alpha virt. eigenvalues --    0.05683   0.06236   0.06443   0.07386   0.07951
 Alpha virt. eigenvalues --    0.08297   0.08864   0.09182   0.09528   0.09673
 Alpha virt. eigenvalues --    0.10049   0.11518   0.11675   0.12816   0.13654
 Alpha virt. eigenvalues --    0.13990   0.14331   0.14622   0.15230   0.15610
 Alpha virt. eigenvalues --    0.16168   0.16426   0.16654   0.16922   0.17120
 Alpha virt. eigenvalues --    0.17377   0.17972   0.18210   0.18404   0.18903
 Alpha virt. eigenvalues --    0.18996   0.19435   0.19667   0.20248   0.20416
 Alpha virt. eigenvalues --    0.21082   0.21298   0.21876   0.22289   0.22557
 Alpha virt. eigenvalues --    0.23097   0.23480   0.23843   0.24176   0.25056
 Alpha virt. eigenvalues --    0.25362   0.25531   0.26296   0.27205   0.27807
 Alpha virt. eigenvalues --    0.28257   0.28726   0.28891   0.29423   0.29601
 Alpha virt. eigenvalues --    0.30198   0.31004   0.31424   0.31997   0.32170
 Alpha virt. eigenvalues --    0.32457   0.33221   0.34014   0.34290   0.34990
 Alpha virt. eigenvalues --    0.35477   0.36064   0.36221   0.37161   0.37607
 Alpha virt. eigenvalues --    0.37718   0.38036   0.38695   0.39268   0.39509
 Alpha virt. eigenvalues --    0.39846   0.40891   0.41657   0.42003   0.42467
 Alpha virt. eigenvalues --    0.43751   0.44735   0.45072   0.45547   0.46107
 Alpha virt. eigenvalues --    0.46787   0.47959   0.49208   0.50204   0.50728
 Alpha virt. eigenvalues --    0.51221   0.51978   0.52356   0.53283   0.54008
 Alpha virt. eigenvalues --    0.54702   0.56780   0.58943   0.59114   0.60083
 Alpha virt. eigenvalues --    0.60693   0.63288   0.63880   0.64795   0.65513
 Alpha virt. eigenvalues --    0.66497   0.67116   0.67128   0.68442   0.68929
 Alpha virt. eigenvalues --    0.69164   0.70147   0.70823   0.71142   0.71637
 Alpha virt. eigenvalues --    0.72572   0.73067   0.74113   0.74742   0.75195
 Alpha virt. eigenvalues --    0.76351   0.77520   0.78377   0.78871   0.79568
 Alpha virt. eigenvalues --    0.80175   0.81029   0.82090   0.82689   0.84432
 Alpha virt. eigenvalues --    0.85867   0.87243   0.88220   0.89146   0.91616
 Alpha virt. eigenvalues --    0.92637   0.93332   0.95698   0.96343   0.96842
 Alpha virt. eigenvalues --    0.97707   0.98283   0.99110   1.00545   1.02397
 Alpha virt. eigenvalues --    1.03219   1.04994   1.05766   1.06963   1.07784
 Alpha virt. eigenvalues --    1.08561   1.09430   1.11322   1.12924   1.14124
 Alpha virt. eigenvalues --    1.14705   1.16445   1.18071   1.19564   1.21483
 Alpha virt. eigenvalues --    1.22955   1.23700   1.23988   1.25858   1.28164
 Alpha virt. eigenvalues --    1.29846   1.30739   1.33599   1.35415   1.36234
 Alpha virt. eigenvalues --    1.37533   1.39857   1.41815   1.45964   1.46513
 Alpha virt. eigenvalues --    1.49066   1.50781   1.51046   1.52314   1.52751
 Alpha virt. eigenvalues --    1.53611   1.54860   1.57589   1.57945   1.58623
 Alpha virt. eigenvalues --    1.60428   1.61565   1.62261   1.62555   1.63666
 Alpha virt. eigenvalues --    1.64159   1.64749   1.64817   1.67215   1.68107
 Alpha virt. eigenvalues --    1.69330   1.70600   1.72597   1.74455   1.74559
 Alpha virt. eigenvalues --    1.76021   1.77592   1.78058   1.80053   1.81265
 Alpha virt. eigenvalues --    1.82831   1.83691   1.84950   1.87185   1.89174
 Alpha virt. eigenvalues --    1.90589   1.91100   1.92952   1.95741   1.97233
 Alpha virt. eigenvalues --    1.97822   2.00061   2.02158   2.02697   2.03379
 Alpha virt. eigenvalues --    2.05502   2.06774   2.06950   2.07614   2.08328
 Alpha virt. eigenvalues --    2.11106   2.11603   2.13313   2.14860   2.16358
 Alpha virt. eigenvalues --    2.17578   2.19604   2.22864   2.23510   2.25446
 Alpha virt. eigenvalues --    2.26434   2.28030   2.29836   2.33590   2.36273
 Alpha virt. eigenvalues --    2.38388   2.40669   2.41795   2.44262   2.50314
 Alpha virt. eigenvalues --    2.51034   2.52367   2.54685   2.56846   2.57135
 Alpha virt. eigenvalues --    2.58087   2.60602   2.62367   2.64269   2.66009
 Alpha virt. eigenvalues --    2.66680   2.69847   2.70485   2.72576   2.73259
 Alpha virt. eigenvalues --    2.74558   2.76492   2.78022   2.79481   2.80704
 Alpha virt. eigenvalues --    2.81275   2.81649   2.83313   2.83906   2.85780
 Alpha virt. eigenvalues --    2.86189   2.88467   2.91736   2.92199   2.94968
 Alpha virt. eigenvalues --    2.95829   2.98303   3.01410   3.03205   3.04879
 Alpha virt. eigenvalues --    3.08260   3.11013   3.13599   3.14563   3.16525
 Alpha virt. eigenvalues --    3.16845   3.19568   3.19989   3.21924   3.27885
 Alpha virt. eigenvalues --    3.28098   3.28620   3.32185   3.35292   3.38294
 Alpha virt. eigenvalues --    3.42461   3.47264   3.50285   3.57009   3.58702
 Alpha virt. eigenvalues --    3.64719   3.67698   3.71008   3.74368   3.75898
 Alpha virt. eigenvalues --    3.79967   3.83216   3.84058   3.86599   3.87427
 Alpha virt. eigenvalues --    3.91037   3.94024   3.95389   3.95760   4.02656
 Alpha virt. eigenvalues --    4.06105   4.12117   4.13452   4.17541   4.20443
 Alpha virt. eigenvalues --    4.25646   4.29110   4.36234   4.52441   4.91745
 Alpha virt. eigenvalues --    4.95438   4.99150   5.12472   5.18337   5.19824
 Alpha virt. eigenvalues --    5.43143   5.56980   5.82412   5.90420   6.42745
 Alpha virt. eigenvalues --    6.55323   6.84796  23.67019  23.94895  24.00825
 Alpha virt. eigenvalues --   24.02041  24.06378  24.07839  24.09082  24.14985
 Alpha virt. eigenvalues --   24.22146  24.26778  24.29921  35.71715  50.09861
 Alpha virt. eigenvalues --   50.13072  66.93356
          Condensed to atoms (all electrons):
               1          2          3          4          5          6
     1  C    5.166439   0.387768   0.393186  -0.067997   0.008308   0.230357
     2  H    0.387768   0.507318  -0.029852   0.011226  -0.007565  -0.055357
     3  H    0.393186  -0.029852   0.551527  -0.007323   0.002223  -0.067818
     4  C   -0.067997   0.011226  -0.007323   5.165118   0.401193   0.256754
     5  H    0.008308  -0.007565   0.002223   0.401193   0.587898  -0.063232
     6  N    0.230357  -0.055357  -0.067818   0.256754  -0.063232   6.912399
     7  H    0.432337  -0.011842  -0.049365   0.006541   0.001245  -0.047621
     8  H   -0.005746   0.003930  -0.002194   0.391874  -0.033664  -0.095475
     9  H   -0.004977  -0.002479   0.002408   0.434560  -0.069962  -0.060485
    10  C   -0.309760   0.036418  -0.002938  -0.061631  -0.038522   0.264992
    11  H    0.009817  -0.000988   0.000266  -0.031257   0.008418  -0.074873
    12  C    0.287549   0.004900   0.011441  -0.203632   0.021136  -0.336520
    13  C   -0.027534  -0.011194   0.018867  -0.016425   0.010172  -0.006859
    14  H    0.024444  -0.001721  -0.002396  -0.012465   0.003155  -0.041628
    15  O   -0.004687  -0.000491   0.000019  -0.001532  -0.000065  -0.000426
    16  C   -0.123722  -0.008440   0.011566   0.036470   0.003923  -0.050920
    17  C   -0.005249  -0.000469  -0.000512   0.006808   0.000843  -0.016465
    18  C    0.029957   0.000238  -0.003469   0.017181  -0.001270   0.050454
    19  O   -0.000007  -0.000001   0.000043  -0.000206   0.000001  -0.000304
    20  C    0.003708   0.000113  -0.001329   0.001280   0.000112  -0.003793
    21  C    0.006671   0.000670   0.002128  -0.004393  -0.000653   0.025091
    22  H    0.004371   0.000456  -0.004384   0.001715  -0.000616   0.005262
    23  H   -0.000949  -0.000097   0.000034   0.000262  -0.000009   0.000801
    24  H   -0.000017   0.000000  -0.000009  -0.000018  -0.000001   0.000012
    25  C    0.000919   0.000047  -0.000041   0.000634  -0.000016  -0.000087
    26  H   -0.000682  -0.000052   0.000259  -0.000057   0.000011   0.000007
    27  F    0.000004   0.000000  -0.000001  -0.000001   0.000000   0.000000
               7          8          9         10         11         12
     1  C    0.432337  -0.005746  -0.004977  -0.309760   0.009817   0.287549
     2  H   -0.011842   0.003930  -0.002479   0.036418  -0.000988   0.004900
     3  H   -0.049365  -0.002194   0.002408  -0.002938   0.000266   0.011441
     4  C    0.006541   0.391874   0.434560  -0.061631  -0.031257  -0.203632
     5  H    0.001245  -0.033664  -0.069962  -0.038522   0.008418   0.021136
     6  N   -0.047621  -0.095475  -0.060485   0.264992  -0.074873  -0.336520
     7  H    0.521835  -0.001022  -0.001237   0.013827  -0.003773   0.011677
     8  H   -0.001022   0.552465  -0.017067   0.101378  -0.008825  -0.018275
     9  H   -0.001237  -0.017067   0.568911  -0.000388  -0.002045  -0.011484
    10  C    0.013827   0.101378  -0.000388   8.585536   0.202980  -1.955225
    11  H   -0.003773  -0.008825  -0.002045   0.202980   0.547678   0.225047
    12  C    0.011677  -0.018275  -0.011484  -1.955225   0.225047  15.419066
    13  C   -0.050801  -0.003087  -0.006941  -1.033419   0.015124   2.518920
    14  H   -0.006339  -0.002983  -0.001792  -0.234325   0.024904   0.711043
    15  O   -0.000564   0.001764   0.000186  -0.005140  -0.007634  -0.675707
    16  C   -0.006815   0.000376   0.002037   0.834323   0.000490  -5.693617
    17  C   -0.001792   0.000013   0.000258   0.025059   0.026350  -1.457405
    18  C    0.005066  -0.000280  -0.001056   0.232737  -0.065473  -2.279375
    19  O   -0.000125   0.000066  -0.000005  -0.009124  -0.001345  -0.024594
    20  C   -0.000470  -0.000357   0.000014  -0.110473   0.005517  -0.779277
    21  C    0.000372   0.001468  -0.000449   0.105260  -0.021263   0.682198
    22  H    0.000803   0.000298   0.000107  -0.014925  -0.003951  -0.072105
    23  H    0.000267   0.000043   0.000030   0.008222  -0.002095  -0.012205
    24  H    0.000001   0.000009  -0.000001  -0.000960  -0.000122  -0.002144
    25  C   -0.000057  -0.000149   0.000012   0.018023   0.001836  -0.170941
    26  H    0.000034   0.000036  -0.000002   0.006325  -0.000135  -0.007639
    27  F   -0.000001   0.000000   0.000000  -0.000284   0.000012   0.000913
              13         14         15         16         17         18
     1  C   -0.027534   0.024444  -0.004687  -0.123722  -0.005249   0.029957
     2  H   -0.011194  -0.001721  -0.000491  -0.008440  -0.000469   0.000238
     3  H    0.018867  -0.002396   0.000019   0.011566  -0.000512  -0.003469
     4  C   -0.016425  -0.012465  -0.001532   0.036470   0.006808   0.017181
     5  H    0.010172   0.003155  -0.000065   0.003923   0.000843  -0.001270
     6  N   -0.006859  -0.041628  -0.000426  -0.050920  -0.016465   0.050454
     7  H   -0.050801  -0.006339  -0.000564  -0.006815  -0.001792   0.005066
     8  H   -0.003087  -0.002983   0.001764   0.000376   0.000013  -0.000280
     9  H   -0.006941  -0.001792   0.000186   0.002037   0.000258  -0.001056
    10  C   -1.033419  -0.234325  -0.005140   0.834323   0.025059   0.232737
    11  H    0.015124   0.024904  -0.007634   0.000490   0.026350  -0.065473
    12  C    2.518920   0.711043  -0.675707  -5.693617  -1.457405  -2.279375
    13  C   15.278870   0.012003   0.764071  -2.674967  -1.215869  -4.106564
    14  H    0.012003   0.540074   0.004510  -0.048892   0.019937  -0.165662
    15  O    0.764071   0.004510   8.075826   0.057073   0.202073  -0.164429
    16  C   -2.674967  -0.048892   0.057073  16.497411   0.803661  -1.471568
    17  C   -1.215869   0.019937   0.202073   0.803661  17.020343  -6.024788
    18  C   -4.106564  -0.165662  -0.164429  -1.471568  -6.024788  17.793914
    19  O   -0.102283  -0.000037  -0.032649   0.127780   0.293920   0.059903
    20  C   -3.893267   0.001323  -0.056735  -2.013393  -3.323848   4.304513
    21  C    1.514402  -0.027373  -0.014550  -0.827053   1.185860  -2.918771
    22  H   -0.108243  -0.009610  -0.001866  -0.163763  -0.054016   0.728748
    23  H    0.032599  -0.001847   0.097609  -0.189328   0.120332  -0.015918
    24  H   -0.017892  -0.000179  -0.000107  -0.068454  -0.094308   0.055969
    25  C   -0.972836  -0.001897   0.001387  -0.208271  -1.390875   0.642265
    26  H    0.020384  -0.000430   0.000366   0.100451   0.081069  -0.148939
    27  F   -0.001035   0.000029  -0.000015   0.013748  -0.071828  -0.052395
              19         20         21         22         23         24
     1  C   -0.000007   0.003708   0.006671   0.004371  -0.000949  -0.000017
     2  H   -0.000001   0.000113   0.000670   0.000456  -0.000097   0.000000
     3  H    0.000043  -0.001329   0.002128  -0.004384   0.000034  -0.000009
     4  C   -0.000206   0.001280  -0.004393   0.001715   0.000262  -0.000018
     5  H    0.000001   0.000112  -0.000653  -0.000616  -0.000009  -0.000001
     6  N   -0.000304  -0.003793   0.025091   0.005262   0.000801   0.000012
     7  H   -0.000125  -0.000470   0.000372   0.000803   0.000267   0.000001
     8  H    0.000066  -0.000357   0.001468   0.000298   0.000043   0.000009
     9  H   -0.000005   0.000014  -0.000449   0.000107   0.000030  -0.000001
    10  C   -0.009124  -0.110473   0.105260  -0.014925   0.008222  -0.000960
    11  H   -0.001345   0.005517  -0.021263  -0.003951  -0.002095  -0.000122
    12  C   -0.024594  -0.779277   0.682198  -0.072105  -0.012205  -0.002144
    13  C   -0.102283  -3.893267   1.514402  -0.108243   0.032599  -0.017892
    14  H   -0.000037   0.001323  -0.027373  -0.009610  -0.001847  -0.000179
    15  O   -0.032649  -0.056735  -0.014550  -0.001866   0.097609  -0.000107
    16  C    0.127780  -2.013393  -0.827053  -0.163763  -0.189328  -0.068454
    17  C    0.293920  -3.323848   1.185860  -0.054016   0.120332  -0.094308
    18  C    0.059903   4.304513  -2.918771   0.728748  -0.015918   0.055969
    19  O    8.031890  -0.351451   0.013070  -0.000300   0.236674  -0.022229
    20  C   -0.351451  15.529292  -4.286156   0.206373   0.030090   0.714310
    21  C    0.013070  -4.286156  11.103917  -0.237899   0.015550  -0.104923
    22  H   -0.000300   0.206373  -0.237899   0.474546  -0.000806   0.003491
    23  H    0.236674   0.030090   0.015550  -0.000806   0.367709   0.001862
    24  H   -0.022229   0.714310  -0.104923   0.003491   0.001862   0.451010
    25  C    0.021402   0.495920  -0.311476   0.038998  -0.008503  -0.159384
    26  H    0.000237  -0.160181   0.605564  -0.021979   0.000630  -0.002554
    27  F   -0.000485  -0.209731  -0.196668   0.001940  -0.000059  -0.020228
              25         26         27
     1  C    0.000919  -0.000682   0.000004
     2  H    0.000047  -0.000052   0.000000
     3  H   -0.000041   0.000259  -0.000001
     4  C    0.000634  -0.000057  -0.000001
     5  H   -0.000016   0.000011   0.000000
     6  N   -0.000087   0.000007   0.000000
     7  H   -0.000057   0.000034  -0.000001
     8  H   -0.000149   0.000036   0.000000
     9  H    0.000012  -0.000002   0.000000
    10  C    0.018023   0.006325  -0.000284
    11  H    0.001836  -0.000135   0.000012
    12  C   -0.170941  -0.007639   0.000913
    13  C   -0.972836   0.020384  -0.001035
    14  H   -0.001897  -0.000430   0.000029
    15  O    0.001387   0.000366  -0.000015
    16  C   -0.208271   0.100451   0.013748
    17  C   -1.390875   0.081069  -0.071828
    18  C    0.642265  -0.148939  -0.052395
    19  O    0.021402   0.000237  -0.000485
    20  C    0.495920  -0.160181  -0.209731
    21  C   -0.311476   0.605564  -0.196668
    22  H    0.038998  -0.021979   0.001940
    23  H   -0.008503   0.000630  -0.000059
    24  H   -0.159384  -0.002554  -0.020228
    25  C    8.051226  -0.167500   0.591202
    26  H   -0.167500   0.467301  -0.024766
    27  F    0.591202  -0.024766   9.121629
 Mulliken charges:
               1
     1  C   -0.434507
     2  H    0.177465
     3  H    0.177661
     4  C   -0.324681
     5  H    0.166937
     6  N    0.175736
     7  H    0.187815
     8  H    0.135405
     9  H    0.171850
    10  C   -0.657964
    11  H    0.155341
    12  C   -0.193743
    13  C    0.063804
    14  H    0.218156
    15  O   -0.238287
    16  C    1.059896
    17  C   -0.129103
    18  C   -0.500990
    19  O   -0.239841
    20  C   -0.102104
    21  C   -0.310597
    22  H    0.227356
    23  H    0.319103
    24  H    0.266865
    25  C   -0.471836
    26  H    0.252242
    27  F   -0.151979
 Sum of Mulliken charges =   0.00000
 Mulliken charges with hydrogens summed into heavy atoms:
               1
     1  C    0.108435
     4  C    0.149512
     6  N    0.175736
    10  C   -0.502623
    12  C    0.024412
    13  C    0.063804
    15  O   -0.238287
    16  C    1.059896
    17  C   -0.129103
    18  C   -0.273634
    19  O    0.079262
    20  C    0.164761
    21  C   -0.058355
    25  C   -0.471836
    27  F   -0.151979
 Electronic spatial extent (au):  <R**2>=           4563.9277
 Charge=              0.0000 electrons
 Dipole moment (field-independent basis, Debye):
    X=             -3.9569    Y=             -3.6207    Z=             -0.1885  Tot=              5.3668
 Quadrupole moment (field-independent basis, Debye-Ang):
   XX=            -76.9873   YY=            -94.6604   ZZ=            -85.1655
   XY=              5.7645   XZ=              1.7598   YZ=             -0.7222
 Traceless Quadrupole moment (field-independent basis, Debye-Ang):
   XX=              8.6171   YY=             -9.0560   ZZ=              0.4389
   XY=              5.7645   XZ=              1.7598   YZ=             -0.7222
 Octapole moment (field-independent basis, Debye-Ang**2):
  XXX=           -103.1780  YYY=            -27.6944  ZZZ=             -5.9946  XYY=              5.8547
  XXY=             -3.2452  XXZ=             -4.5731  XZZ=             -9.8694  YZZ=              1.2354
  YYZ=              1.7883  XYZ=             -2.4649
 Hexadecapole moment (field-independent basis, Debye-Ang**3):
 XXXX=          -4364.9173 YYYY=           -888.9158 ZZZZ=           -305.3440 XXXY=            150.4999
 XXXZ=              0.9391 YYYX=            -48.6950 YYYZ=             -7.3757 ZZZX=              0.0388
 ZZZY=              6.3180 XXYY=           -966.0489 XXZZ=           -790.9256 YYZZ=           -204.0497
 XXYZ=             -3.2046 YYXZ=              8.9307 ZZXY=             -6.4359
 N-N= 9.399814016791D+02 E-N=-3.590405935723D+03  KE= 7.284936116296D+02
 1\1\GINC-DN129\FOpt\RwB97XD TD-FC\6-311++G(d,p)\C11H12F1N1O2\CA12053\2
 3-Dec-2016\0\\# wb97xd 6-311++g** opt td=(nstates=1,root=1)\\title\\0,
 1\C,3.9242831653,1.1672937729,0.0664268137\H,4.9360043659,1.371845977,
 -0.2792296613\H,3.4568905109,2.1062177548,0.3736360405\C,3.7947312581,
 0.5237890641,-2.3314405632\H,3.9765719077,1.5437968581,-2.6799114461\N
 ,3.1731551473,0.5477437526,-1.0169730512\H,3.9734930821,0.4930762063,0
 .9234056949\H,3.1414327929,0.018274507,-3.0402603352\H,4.7469752015,-0
 .0095895432,-2.2824285982\C,1.9498618405,0.0662625016,-0.8242056015\H,
 1.48076014,-0.3927360353,-1.6873842503\C,1.2302195676,0.1089164824,0.3
 605401783\C,-0.0428006305,-0.6048974795,0.4509060515\H,1.6988187953,0.
 4805549205,1.2710025392\O,0.31836311,-1.8199456329,0.7533170397\C,-1.3
 529313773,-0.0838830629,0.3351795968\C,-2.4786886481,-0.9469808823,0.4
 917740932\C,-1.6071521981,1.2737244707,0.0493377575\O,-2.3173353279,-2
 .2565835818,0.7750061055\C,-3.7654517264,-0.4591093575,0.3521935083\C,
 -2.8983850243,1.7648129101,-0.0899685557\H,-0.7698285873,1.9543280992,
 -0.060696538\H,-1.3625432382,-2.439678038,0.8526302961\H,-4.6118819927
 ,-1.1231883303,0.4708660173\C,-3.9514677784,0.884813214,0.0623768671\H
 ,-3.0897865092,2.8078564665,-0.3067109927\F,-5.2179450509,1.3438966274
 ,-0.0690988269\\Version=ES64L-G09RevD.01\State=1-A\HF=-731.3495178\RMS
 D=5.940e-09\RMSF=4.264e-06\Dipole=4.8556453,1.7273001,-1.4939322\PG=C0
 1 [X(C11H12F1N1O2)]\\@


 THERE ARE PEOPLE SO ADDICTED TO EXAGERATING THEY
 CAN'T TELL THE TRUTH WITHOUT LYING. -- FORTUNE COOKIE
 Job cpu time:       4 days  0 hours 28 minutes  5.2 seconds.
 File lengths (MBytes):  RWF=    172 Int=      0 D2E=      0 Chk=     29 Scr=      1
 Normal termination of Gaussian 09 at Fri Dec 23 00:07:05 2016.
