 Entering Gaussian System, Link 0=g09
 Input=3_opt.com
 Output=3_opt.out
 Initial command:
 /share/apps/gaussian/g09_D01/g09/l1.exe "/tmp/3820131.1.serial.q/Gau-25007.inp" -scrdir="/tmp/3820131.1.serial.q/"
 Entering Link 1 = /share/apps/gaussian/g09_D01/g09/l1.exe PID=     25009.
  
 Copyright (c) 1988,1990,1992,1993,1995,1998,2003,2009,2013,
            Gaussian, Inc.  All Rights Reserved.
  
 This is part of the Gaussian(R) 09 program.  It is based on
 the Gaussian(R) 03 system (copyright 2003, Gaussian, Inc.),
 the Gaussian(R) 98 system (copyright 1998, Gaussian, Inc.),
 the Gaussian(R) 94 system (copyright 1995, Gaussian, Inc.),
 the Gaussian 92(TM) system (copyright 1992, Gaussian, Inc.),
 the Gaussian 90(TM) system (copyright 1990, Gaussian, Inc.),
 the Gaussian 88(TM) system (copyright 1988, Gaussian, Inc.),
 the Gaussian 86(TM) system (copyright 1986, Carnegie Mellon
 University), and the Gaussian 82(TM) system (copyright 1983,
 Carnegie Mellon University). Gaussian is a federally registered
 trademark of Gaussian, Inc.
  
 This software contains proprietary and confidential information,
 including trade secrets, belonging to Gaussian, Inc.
  
 This software is provided under written license and may be
 used, copied, transmitted, or stored only in accord with that
 written license.
  
 The following legend is applicable only to US Government
 contracts under FAR:
  
                    RESTRICTED RIGHTS LEGEND
  
 Use, reproduction and disclosure by the US Government is
 subject to restrictions as set forth in subparagraphs (a)
 and (c) of the Commercial Computer Software - Restricted
 Rights clause in FAR 52.227-19.
  
 Gaussian, Inc.
 340 Quinnipiac St., Bldg. 40, Wallingford CT 06492
  
  
 ---------------------------------------------------------------
 Warning -- This program may not be used in any manner that
 competes with the business of Gaussian, Inc. or will provide
 assistance to any competitor of Gaussian, Inc.  The licensee
 of this program is prohibited from giving any competitor of
 Gaussian, Inc. access to this program.  By using this program,
 the user acknowledges that Gaussian, Inc. is engaged in the
 business of creating and licensing software in the field of
 computational chemistry and represents and warrants to the
 licensee that it is not a competitor of Gaussian, Inc. and that
 it will not use this program in any manner prohibited above.
 ---------------------------------------------------------------
  

 Cite this work as:
 Gaussian 09, Revision D.01,
 M. J. Frisch, G. W. Trucks, H. B. Schlegel, G. E. Scuseria, 
 M. A. Robb, J. R. Cheeseman, G. Scalmani, V. Barone, B. Mennucci, 
 G. A. Petersson, H. Nakatsuji, M. Caricato, X. Li, H. P. Hratchian, 
 A. F. Izmaylov, J. Bloino, G. Zheng, J. L. Sonnenberg, M. Hada, 
 M. Ehara, K. Toyota, R. Fukuda, J. Hasegawa, M. Ishida, T. Nakajima, 
 Y. Honda, O. Kitao, H. Nakai, T. Vreven, J. A. Montgomery, Jr., 
 J. E. Peralta, F. Ogliaro, M. Bearpark, J. J. Heyd, E. Brothers, 
 K. N. Kudin, V. N. Staroverov, T. Keith, R. Kobayashi, J. Normand, 
 K. Raghavachari, A. Rendell, J. C. Burant, S. S. Iyengar, J. Tomasi, 
 M. Cossi, N. Rega, J. M. Millam, M. Klene, J. E. Knox, J. B. Cross, 
 V. Bakken, C. Adamo, J. Jaramillo, R. Gomperts, R. E. Stratmann, 
 O. Yazyev, A. J. Austin, R. Cammi, C. Pomelli, J. W. Ochterski, 
 R. L. Martin, K. Morokuma, V. G. Zakrzewski, G. A. Voth, 
 P. Salvador, J. J. Dannenberg, S. Dapprich, A. D. Daniels, 
 O. Farkas, J. B. Foresman, J. V. Ortiz, J. Cioslowski, 
 and D. J. Fox, Gaussian, Inc., Wallingford CT, 2013.
 
 ******************************************
 Gaussian 09:  ES64L-G09RevD.01 24-Apr-2013
                18-Oct-2016 
 ******************************************
 %chk=3_opt.chk
 %mem=2GB
 %nproc=4
 Will use up to    4 processors via shared memory.
 -----------------------
 # wb97xd 6-311++g** opt
 -----------------------
 1/14=-1,18=20,19=15,26=3,38=1/1,3;
 2/9=110,12=2,17=6,18=5,40=1/2;
 3/5=4,6=6,7=1111,11=2,16=1,25=1,30=1,71=1,74=-58/1,2,3;
 4//1;
 5/5=2,38=5/2;
 6/7=2,8=2,9=2,10=2,28=1/1;
 7//1,2,3,16;
 1/14=-1,18=20,19=15,26=3/3(2);
 2/9=110/2;
 99//99;
 2/9=110/2;
 3/5=4,6=6,7=1111,11=2,16=1,25=1,30=1,71=1,74=-58/1,2,3;
 4/5=5,16=3,69=1/1;
 5/5=2,38=5/2;
 7//1,2,3,16;
 1/14=-1,18=20,19=15,26=3/3(-5);
 2/9=110/2;
 6/7=2,8=2,9=2,10=2,19=2,28=1/1;
 99/9=1/99;
 -----------
 Geom Opt s0
 -----------
 Symbolic Z-matrix:
 Charge =  0 Multiplicity = 1
 C                     3.7278    1.62815   0.03633 
 H                     4.77567   1.90727   0.1444 
 H                     3.34538   2.05127  -0.9003 
 C                     4.82693  -0.5935   -0.10793 
 H                     5.28356  -0.42712  -1.09033 
 N                     3.61374   0.1847    0.04867 
 H                     3.16648   2.0626    0.86888 
 H                     4.59639  -1.65403  -0.00943 
 H                     5.55388  -0.32581   0.66408 
 C                     2.40431  -0.39839   0.02783 
 H                     2.40635  -1.48458   0.01595 
 C                     1.19474   0.22496   0.02907 
 C                    -0.00074  -0.59666   0.03008 
 H                     1.12141   1.30131   0.0189 
 O                     0.08313  -1.838     0.04384 
 C                    -1.34554   0.03599   0.00857 
 C                    -2.49709  -0.78732  -0.00514 
 C                    -1.53222   1.42727   0.00225 
 O                    -2.43165  -2.11913   0.0008 
 C                    -3.77098  -0.20504  -0.02634 
 C                    -2.78957   1.99635  -0.01799 
 H                    -0.6716    2.08377   0.01392 
 H                    -1.47209  -2.3492    0.019 
 H                    -4.62956  -0.86581  -0.03682 
 C                    -3.91345   1.16644  -0.03254 
 H                    -2.90203   3.07372  -0.02215 
 O                    -5.22338   1.7396   -0.05427 
 C                    -5.60576   2.10697   1.27378 
 H                    -4.96786   2.89114   1.62457 
 H                    -6.62042   2.44663   1.27171 
 H                    -5.51514   1.25804   1.91875 
 

 GradGradGradGradGradGradGradGradGradGradGradGradGradGradGradGradGradGrad
 Berny optimization.
 Initialization pass.
                           ----------------------------
                           !    Initial Parameters    !
                           ! (Angstroms and Degrees)  !
 --------------------------                            --------------------------
 ! Name  Definition              Value          Derivative Info.                !
 --------------------------------------------------------------------------------
 ! R1    R(1,2)                  1.0898         estimate D2E/DX2                !
 ! R2    R(1,3)                  1.0966         estimate D2E/DX2                !
 ! R3    R(1,6)                  1.448          estimate D2E/DX2                !
 ! R4    R(1,7)                  1.0941         estimate D2E/DX2                !
 ! R5    R(4,5)                  1.096          estimate D2E/DX2                !
 ! R6    R(4,6)                  1.4498         estimate D2E/DX2                !
 ! R7    R(4,8)                  1.0898         estimate D2E/DX2                !
 ! R8    R(4,9)                  1.0937         estimate D2E/DX2                !
 ! R9    R(6,10)                 1.3428         estimate D2E/DX2                !
 ! R10   R(10,11)                1.0863         estimate D2E/DX2                !
 ! R11   R(10,12)                1.3607         estimate D2E/DX2                !
 ! R12   R(12,13)                1.4506         estimate D2E/DX2                !
 ! R13   R(12,14)                1.0789         estimate D2E/DX2                !
 ! R14   R(13,15)                1.2442         estimate D2E/DX2                !
 ! R15   R(13,16)                1.4863         estimate D2E/DX2                !
 ! R16   R(16,17)                1.4157         estimate D2E/DX2                !
 ! R17   R(16,18)                1.4038         estimate D2E/DX2                !
 ! R18   R(17,19)                1.3334         estimate D2E/DX2                !
 ! R19   R(17,20)                1.4008         estimate D2E/DX2                !
 ! R20   R(18,21)                1.3803         estimate D2E/DX2                !
 ! R21   R(18,22)                1.0825         estimate D2E/DX2                !
 ! R22   R(19,23)                0.9869         estimate D2E/DX2                !
 ! R23   R(20,24)                1.0835         estimate D2E/DX2                !
 ! R24   R(20,25)                1.3789         estimate D2E/DX2                !
 ! R25   R(21,25)                1.3972         estimate D2E/DX2                !
 ! R26   R(21,26)                1.0832         estimate D2E/DX2                !
 ! R27   R(25,27)                1.43           estimate D2E/DX2                !
 ! R28   R(27,28)                1.43           estimate D2E/DX2                !
 ! R29   R(28,29)                1.07           estimate D2E/DX2                !
 ! R30   R(28,30)                1.07           estimate D2E/DX2                !
 ! R31   R(28,31)                1.07           estimate D2E/DX2                !
 ! A1    A(2,1,3)              108.7349         estimate D2E/DX2                !
 ! A2    A(2,1,6)              109.2826         estimate D2E/DX2                !
 ! A3    A(2,1,7)              108.4307         estimate D2E/DX2                !
 ! A4    A(3,1,6)              111.3731         estimate D2E/DX2                !
 ! A5    A(3,1,7)              108.5308         estimate D2E/DX2                !
 ! A6    A(6,1,7)              110.4234         estimate D2E/DX2                !
 ! A7    A(5,4,6)              111.3431         estimate D2E/DX2                !
 ! A8    A(5,4,8)              108.4749         estimate D2E/DX2                !
 ! A9    A(5,4,9)              108.5797         estimate D2E/DX2                !
 ! A10   A(6,4,8)              109.6073         estimate D2E/DX2                !
 ! A11   A(6,4,9)              110.4006         estimate D2E/DX2                !
 ! A12   A(8,4,9)              108.3616         estimate D2E/DX2                !
 ! A13   A(1,6,4)              117.9197         estimate D2E/DX2                !
 ! A14   A(1,6,10)             120.2438         estimate D2E/DX2                !
 ! A15   A(4,6,10)             121.26           estimate D2E/DX2                !
 ! A16   A(6,10,11)            115.6378         estimate D2E/DX2                !
 ! A17   A(6,10,12)            126.9902         estimate D2E/DX2                !
 ! A18   A(11,10,12)           117.3704         estimate D2E/DX2                !
 ! A19   A(10,12,13)           118.2363         estimate D2E/DX2                !
 ! A20   A(10,12,14)           121.1593         estimate D2E/DX2                !
 ! A21   A(13,12,14)           120.6013         estimate D2E/DX2                !
 ! A22   A(12,13,15)           120.633          estimate D2E/DX2                !
 ! A23   A(12,13,16)           120.302          estimate D2E/DX2                !
 ! A24   A(15,13,16)           119.0645         estimate D2E/DX2                !
 ! A25   A(13,16,17)           119.2471         estimate D2E/DX2                !
 ! A26   A(13,16,18)           122.8365         estimate D2E/DX2                !
 ! A27   A(17,16,18)           117.9164         estimate D2E/DX2                !
 ! A28   A(16,17,19)           122.7449         estimate D2E/DX2                !
 ! A29   A(16,17,20)           119.877          estimate D2E/DX2                !
 ! A30   A(19,17,20)           117.3781         estimate D2E/DX2                !
 ! A31   A(16,18,21)           121.9939         estimate D2E/DX2                !
 ! A32   A(16,18,22)           119.6897         estimate D2E/DX2                !
 ! A33   A(21,18,22)           118.3163         estimate D2E/DX2                !
 ! A34   A(17,19,23)           106.2981         estimate D2E/DX2                !
 ! A35   A(17,20,24)           117.8583         estimate D2E/DX2                !
 ! A36   A(17,20,25)           120.4949         estimate D2E/DX2                !
 ! A37   A(24,20,25)           121.6468         estimate D2E/DX2                !
 ! A38   A(18,21,25)           119.2098         estimate D2E/DX2                !
 ! A39   A(18,21,26)           120.3107         estimate D2E/DX2                !
 ! A40   A(25,21,26)           120.4795         estimate D2E/DX2                !
 ! A41   A(20,25,21)           120.5079         estimate D2E/DX2                !
 ! A42   A(20,25,27)           119.5623         estimate D2E/DX2                !
 ! A43   A(21,25,27)           119.9298         estimate D2E/DX2                !
 ! A44   A(25,27,28)           109.5            estimate D2E/DX2                !
 ! A45   A(27,28,29)           109.4712         estimate D2E/DX2                !
 ! A46   A(27,28,30)           109.4712         estimate D2E/DX2                !
 ! A47   A(27,28,31)           109.4712         estimate D2E/DX2                !
 ! A48   A(29,28,30)           109.4713         estimate D2E/DX2                !
 ! A49   A(29,28,31)           109.4712         estimate D2E/DX2                !
 ! A50   A(30,28,31)           109.4712         estimate D2E/DX2                !
 ! D1    D(2,1,6,4)            -13.4849         estimate D2E/DX2                !
 ! D2    D(2,1,6,10)           175.1118         estimate D2E/DX2                !
 ! D3    D(3,1,6,4)            106.669          estimate D2E/DX2                !
 ! D4    D(3,1,6,10)           -64.7343         estimate D2E/DX2                !
 ! D5    D(7,1,6,4)           -132.6736         estimate D2E/DX2                !
 ! D6    D(7,1,6,10)            55.9231         estimate D2E/DX2                !
 ! D7    D(5,4,6,1)            -63.8899         estimate D2E/DX2                !
 ! D8    D(5,4,6,10)           107.4215         estimate D2E/DX2                !
 ! D9    D(8,4,6,1)            176.0861         estimate D2E/DX2                !
 ! D10   D(8,4,6,10)           -12.6025         estimate D2E/DX2                !
 ! D11   D(9,4,6,1)             56.7938         estimate D2E/DX2                !
 ! D12   D(9,4,6,10)          -131.8948         estimate D2E/DX2                !
 ! D13   D(1,6,10,11)          178.6481         estimate D2E/DX2                !
 ! D14   D(1,6,10,12)           -1.8191         estimate D2E/DX2                !
 ! D15   D(4,6,10,11)            7.5366         estimate D2E/DX2                !
 ! D16   D(4,6,10,12)         -172.9307         estimate D2E/DX2                !
 ! D17   D(6,10,12,13)        -178.8301         estimate D2E/DX2                !
 ! D18   D(6,10,12,14)           1.815          estimate D2E/DX2                !
 ! D19   D(11,10,12,13)          0.6956         estimate D2E/DX2                !
 ! D20   D(11,10,12,14)       -178.6593         estimate D2E/DX2                !
 ! D21   D(10,12,13,15)          0.7511         estimate D2E/DX2                !
 ! D22   D(10,12,13,16)       -178.9787         estimate D2E/DX2                !
 ! D23   D(14,12,13,15)       -179.8902         estimate D2E/DX2                !
 ! D24   D(14,12,13,16)          0.3799         estimate D2E/DX2                !
 ! D25   D(12,13,16,17)        179.2972         estimate D2E/DX2                !
 ! D26   D(12,13,16,18)         -0.7586         estimate D2E/DX2                !
 ! D27   D(15,13,16,17)         -0.4368         estimate D2E/DX2                !
 ! D28   D(15,13,16,18)        179.5074         estimate D2E/DX2                !
 ! D29   D(13,16,17,19)          0.0215         estimate D2E/DX2                !
 ! D30   D(13,16,17,20)       -179.9581         estimate D2E/DX2                !
 ! D31   D(18,16,17,19)       -179.9254         estimate D2E/DX2                !
 ! D32   D(18,16,17,20)          0.0949         estimate D2E/DX2                !
 ! D33   D(13,16,18,21)        179.9907         estimate D2E/DX2                !
 ! D34   D(13,16,18,22)         -0.038          estimate D2E/DX2                !
 ! D35   D(17,16,18,21)         -0.0644         estimate D2E/DX2                !
 ! D36   D(17,16,18,22)        179.9069         estimate D2E/DX2                !
 ! D37   D(16,17,19,23)          0.2018         estimate D2E/DX2                !
 ! D38   D(20,17,19,23)       -179.818          estimate D2E/DX2                !
 ! D39   D(16,17,20,24)        179.9737         estimate D2E/DX2                !
 ! D40   D(16,17,20,25)         -0.0695         estimate D2E/DX2                !
 ! D41   D(19,17,20,24)         -0.0071         estimate D2E/DX2                !
 ! D42   D(19,17,20,25)        179.9497         estimate D2E/DX2                !
 ! D43   D(16,18,21,25)          0.0065         estimate D2E/DX2                !
 ! D44   D(16,18,21,26)        179.9846         estimate D2E/DX2                !
 ! D45   D(22,18,21,25)       -179.9653         estimate D2E/DX2                !
 ! D46   D(22,18,21,26)          0.0129         estimate D2E/DX2                !
 ! D47   D(17,20,25,21)          0.0099         estimate D2E/DX2                !
 ! D48   D(17,20,25,27)        179.9995         estimate D2E/DX2                !
 ! D49   D(24,20,25,21)        179.965          estimate D2E/DX2                !
 ! D50   D(24,20,25,27)         -0.0454         estimate D2E/DX2                !
 ! D51   D(18,21,25,20)          0.022          estimate D2E/DX2                !
 ! D52   D(18,21,25,27)       -179.9676         estimate D2E/DX2                !
 ! D53   D(26,21,25,20)       -179.9561         estimate D2E/DX2                !
 ! D54   D(26,21,25,27)          0.0543         estimate D2E/DX2                !
 ! D55   D(20,25,27,28)         98.0125         estimate D2E/DX2                !
 ! D56   D(21,25,27,28)        -81.9978         estimate D2E/DX2                !
 ! D57   D(25,27,28,29)         65.4943         estimate D2E/DX2                !
 ! D58   D(25,27,28,30)       -174.5057         estimate D2E/DX2                !
 ! D59   D(25,27,28,31)        -54.5057         estimate D2E/DX2                !
 --------------------------------------------------------------------------------
 Trust Radius=3.00D-01 FncErr=1.00D-07 GrdErr=1.00D-06
 Number of steps in this run=    150 maximum allowed number of steps=    186.
 GradGradGradGradGradGradGradGradGradGradGradGradGradGradGradGradGradGrad

                          Input orientation:                          
 ---------------------------------------------------------------------
 Center     Atomic      Atomic             Coordinates (Angstroms)
 Number     Number       Type             X           Y           Z
 ---------------------------------------------------------------------
      1          6           0        3.727801    1.628145    0.036330
      2          1           0        4.775665    1.907272    0.144395
      3          1           0        3.345378    2.051267   -0.900297
      4          6           0        4.826931   -0.593504   -0.107932
      5          1           0        5.283559   -0.427116   -1.090329
      6          7           0        3.613736    0.184696    0.048668
      7          1           0        3.166484    2.062598    0.868877
      8          1           0        4.596388   -1.654034   -0.009431
      9          1           0        5.553881   -0.325812    0.664079
     10          6           0        2.404312   -0.398388    0.027827
     11          1           0        2.406350   -1.484580    0.015950
     12          6           0        1.194736    0.224960    0.029067
     13          6           0       -0.000736   -0.596655    0.030076
     14          1           0        1.121408    1.301311    0.018904
     15          8           0        0.083130   -1.837999    0.043844
     16          6           0       -1.345538    0.035994    0.008573
     17          6           0       -2.497091   -0.787316   -0.005144
     18          6           0       -1.532215    1.427273    0.002253
     19          8           0       -2.431648   -2.119129    0.000800
     20          6           0       -3.770983   -0.205043   -0.026342
     21          6           0       -2.789570    1.996353   -0.017985
     22          1           0       -0.671598    2.083773    0.013922
     23          1           0       -1.472094   -2.349198    0.018999
     24          1           0       -4.629560   -0.865807   -0.036820
     25          6           0       -3.913445    1.166443   -0.032541
     26          1           0       -2.902031    3.073724   -0.022148
     27          8           0       -5.223377    1.739598   -0.054274
     28          6           0       -5.605765    2.106972    1.273775
     29          1           0       -4.967858    2.891137    1.624575
     30          1           0       -6.620422    2.446629    1.271711
     31          1           0       -5.515137    1.258039    1.918755
 ---------------------------------------------------------------------
                    Distance matrix (angstroms):
                    1          2          3          4          5
     1  C    0.000000
     2  H    1.089775   0.000000
     3  H    1.096608   1.777030   0.000000
     4  C    2.482866   2.513996   3.133314   0.000000
     5  H    2.813155   2.689213   3.151990   1.096037   0.000000
     6  N    1.448001   2.080027   2.111075   1.449814   2.111856
     7  H    1.094057   1.771571   1.778232   3.281176   3.810403
     8  H    3.395473   3.569132   4.010975   1.089760   1.773661
     9  H    2.747105   2.421230   3.602119   1.093671   1.778000
    10  C    2.420440   3.309527   2.783492   2.434252   3.088877
    11  H    3.381672   4.139422   3.771405   2.582359   3.258898
    12  C    2.895755   3.958096   2.970585   3.725788   4.289140
    13  C    4.341862   5.394138   4.367329   4.829640   5.404426
    14  H    2.626863   3.706283   2.520597   4.163810   4.641267
    15  O    5.029696   6.004752   5.163338   4.906674   5.506487
    16  C    5.317376   6.402285   5.185756   6.205579   6.735502
    17  C    6.677234   7.757329   6.556927   7.327307   7.864215
    18  C    5.263960   6.327713   4.999488   6.673411   7.147536
    19  O    7.209864   8.256990   7.181797   7.417973   7.973574
    20  C    7.719862   8.805465   7.516470   8.607072   9.119546
    21  C    6.527990   7.567502   6.198312   8.045280   8.496972
    22  H    4.422987   5.451683   4.119824   6.116901   6.556510
    23  H    6.546638   7.560936   6.589176   6.540358   7.110827
    24  H    8.721848   9.807194   8.535488   9.460678   9.978590
    25  C    7.655492   8.722429   7.363859   8.916124   9.393787
    26  H    6.785852   7.767584   6.391141   8.555278   8.966648
    27  O    8.952330  10.002420   8.616057  10.317700  10.777929
    28  C    9.427407  10.444590   9.211550  10.864752  11.427509
    29  H    8.929286   9.904300   8.728703  10.539554  11.111843
    30  H   10.453794  11.464403  10.207404  11.924249  12.471664
    31  H    9.439936  10.462813   9.331934  10.700189  11.336056
                    6          7          8          9         10
     6  N    0.000000
     7  H    2.097449   0.000000
     8  H    2.085643   4.077917   0.000000
     9  H    2.098455   3.383210   1.770475   0.000000
    10  C    1.342806   2.710115   2.526506   3.214011   0.000000
    11  H    2.060421   3.726628   2.196731   3.416104   1.086259
    12  C    2.419414   2.823116   3.886301   4.439452   1.360749
    13  C    3.698008   4.219774   4.717326   5.597239   2.413208
    14  H    2.731193   2.341868   4.561837   4.765564   2.129530
    15  O    4.068968   5.040080   4.517320   5.709686   2.731414
    16  C    4.961665   5.020517   6.177621   6.939926   3.774975
    17  C    6.187884   6.400157   7.146234   8.091909   4.916920
    18  C    5.294050   4.820005   6.859618   7.329671   4.339348
    19  O    6.469665   7.041270   7.043416   8.211248   5.133049
    20  C    7.395377   7.353371   8.491923   9.351169   6.178558
    21  C    6.654988   6.022084   8.238797   8.687395   5.719554
    22  H    4.687407   3.932209   6.459367   6.707115   3.952536
    23  H    5.682180   6.457758   6.108235   7.339928   4.339615
    24  H    8.310403   8.377001   9.259599  10.221806   7.049682
    25  C    7.591369   7.193125   8.965092   9.609494   6.508947
    26  H    7.127883   6.216364   8.864431   9.139486   6.341556
    27  O    8.973454   8.446674  10.389732  10.996874   7.922080
    28  C    9.497117   8.781700  10.948776  11.438001   8.484724
    29  H    9.135210   8.211277  10.714633  11.044379   8.229184
    30  H   10.552259   9.802718  12.011394  12.500772   9.543961
    31  H    9.380064   8.781805  10.697710  11.251931   8.308852
                   11         12         13         14         15
    11  H    0.000000
    12  C    2.095402   0.000000
    13  C    2.565672   1.450588   0.000000
    14  H    3.067943   1.078894   2.204905   0.000000
    15  O    2.350114   2.343435   1.244250   3.306646   0.000000
    16  C    4.048316   2.547375   1.486338   2.772536   2.356732
    17  C    4.952813   3.828245   2.503873   4.178095   2.786373
    18  C    4.898099   2.980359   2.538205   2.656663   3.643223
    19  O    4.879458   4.318126   2.868470   4.931931   2.530809
    20  C    6.308601   4.984610   3.790950   5.119242   4.186366
    21  C    6.254249   4.360590   3.808359   3.972429   4.791501
    22  H    4.712421   2.634126   2.763152   1.956308   3.993846
    23  H    3.973651   3.706531   2.288323   4.477998   1.637273
    24  H    7.063264   5.925921   4.637125   6.145986   4.812599
    25  C    6.853472   5.194584   4.292054   5.036922   5.000512
    26  H    6.997035   4.990148   4.678880   4.396725   5.748092
    27  O    8.283295   6.594941   5.721990   6.360326   6.400613
    28  C    8.869913   7.165060   6.346080   6.890475   7.031291
    29  H    8.724306   6.901573   6.275302   6.494989   7.097599
    30  H    9.925419   8.219286   7.390770   7.925731   8.050050
    31  H    8.596079   7.047025   6.116830   6.903262   6.666433
                   16         17         18         19         20
    16  C    0.000000
    17  C    1.415663   0.000000
    18  C    1.403761   2.415667   0.000000
    19  O    2.413348   1.333433   3.658681   0.000000
    20  C    2.437643   1.400818   2.770804   2.336296   0.000000
    21  C    2.434942   2.799022   1.380291   4.131060   2.410267
    22  H    2.155835   3.402343   1.082493   4.556570   3.853114
    23  H    2.388570   1.868335   3.776987   0.986918   3.143938
    24  H    3.405893   2.134148   3.853996   2.530425   1.083454
    25  C    2.806021   2.413293   2.395725   3.604416   1.378879
    26  H    3.413417   3.882254   2.141913   5.214164   3.391962
    27  O    4.236018   3.717572   3.704783   4.763041   2.427315
    28  C    4.902981   4.435808   4.321177   5.436489   3.225235
    29  H    4.887178   4.721408   4.071667   5.845663   3.707340
    30  H    5.935577   5.393572   5.342327   6.325123   4.103122
    31  H    4.746340   4.122313   4.423266   4.959003   2.994342
                   21         22         23         24         25
    21  C    0.000000
    22  H    2.120015   0.000000
    23  H    4.541027   4.504670   0.000000
    24  H    3.402628   4.936402   3.489005   0.000000
    25  C    1.397161   3.369455   4.280489   2.154734   0.000000
    26  H    1.083233   2.440519   5.608431   4.301683   2.158886
    27  O    2.447581   4.565281   5.549391   2.672276   1.430000
    28  C    3.100296   5.092521   6.206380   3.392352   2.335595
    29  H    2.871163   4.658743   6.500719   4.121809   2.613884
    30  H    4.067123   6.091158   7.146644   4.080198   3.266140
    31  H    3.424147   5.269734   5.741727   3.019808   2.526136
                   26         27         28         29         30
    26  H    0.000000
    27  O    2.677605   0.000000
    28  C    3.150270   1.430000   0.000000
    29  H    2.648146   2.051796   1.070000   0.000000
    30  H    3.986697   2.051796   1.070000   1.747303   0.000000
    31  H    3.727216   2.051796   1.070000   1.747303   1.747303
                   31
    31  H    0.000000
 Stoichiometry    C12H15NO3
 Framework group  C1[X(C12H15NO3)]
 Deg. of freedom    87
 Full point group                 C1      NOp   1
 Largest Abelian subgroup         C1      NOp   1
 Largest concise Abelian subgroup C1      NOp   1
                         Standard orientation:                         
 ---------------------------------------------------------------------
 Center     Atomic      Atomic             Coordinates (Angstroms)
 Number     Number       Type             X           Y           Z
 ---------------------------------------------------------------------
      1          6           0       -4.239693   -1.965891   -0.008654
      2          1           0       -5.233121   -2.396347    0.115512
      3          1           0       -3.847555   -2.261972   -0.989018
      4          6           0       -5.638547    0.084176    0.062452
      5          1           0       -6.113948   -0.072758   -0.912568
      6          7           0       -4.324105   -0.525466    0.112837
      7          1           0       -3.585430   -2.376675    0.766044
      8          1           0       -5.551155    1.156564    0.235431
      9          1           0       -6.284657   -0.338240    0.837192
     10          6           0       -3.208367    0.221450    0.093516
     11          1           0       -3.359830    1.294579    0.167079
     12          6           0       -1.926070   -0.224498    0.001422
     13          6           0       -0.855800    0.754408    0.023118
     14          1           0       -1.706460   -1.276308   -0.095940
     15          8           0       -1.108282    1.967399    0.137418
     16          6           0        0.560495    0.319896   -0.097324
     17          6           0        1.586381    1.295387   -0.088555
     18          6           0        0.935605   -1.027268   -0.219753
     19          8           0        1.339358    2.600863    0.024381
     20          6           0        2.925625    0.900649   -0.202135
     21          6           0        2.256723   -1.411367   -0.330733
     22          1           0        0.174619   -1.797086   -0.228130
     23          1           0        0.359266    2.692128    0.095779
     24          1           0        3.684065    1.674305   -0.192161
     25          6           0        3.254280   -0.433180   -0.321267
     26          1           0        2.515475   -2.459131   -0.423633
     27          8           0        4.627907   -0.813821   -0.435986
     28          6           0        5.119343   -1.219485    0.844181
     29          1           0        4.612232   -2.108779    1.155461
     30          1           0        6.169739   -1.412405    0.778229
     31          1           0        4.943774   -0.440810    1.556741
 ---------------------------------------------------------------------
 Rotational constants (GHZ):      1.2704291      0.2120951      0.1849217
 Standard basis: 6-311++G(d,p) (5D, 7F)
 There are   473 symmetry adapted cartesian basis functions of A   symmetry.
 There are   457 symmetry adapted basis functions of A   symmetry.
   457 basis functions,   711 primitive gaussians,   473 cartesian basis functions
    59 alpha electrons       59 beta electrons
       nuclear repulsion energy      1046.5930756058 Hartrees.
 NAtoms=   31 NActive=   31 NUniq=   31 SFac= 1.00D+00 NAtFMM=   60 NAOKFM=F Big=F
 Integral buffers will be    131072 words long.
 Raffenetti 2 integral format.
 Two-electron integral symmetry is turned on.
 Nuclear repulsion after empirical dispersion term =     1046.5752441977 Hartrees.
 One-electron integrals computed using PRISM.
 NBasis=   457 RedAO= T EigKep=  1.34D-06  NBF=   457
 NBsUse=   454 1.00D-06 EigRej=  6.10D-07 NBFU=   454
 ExpMin= 3.60D-02 ExpMax= 8.59D+03 ExpMxC= 1.30D+03 IAcc=3 IRadAn=         5 AccDes= 0.00D+00
 Harris functional with IExCor= 4639 and IRadAn=       5 diagonalized for initial guess.
 HarFok:  IExCor= 4639 AccDes= 0.00D+00 IRadAn=         5 IDoV= 1 UseB2=F ITyADJ=14
 ICtDFT=  3500011 ScaDFX=  1.000000  1.000000  1.000000  1.000000
 FoFCou: FMM=F IPFlag=           0 FMFlag=      100000 FMFlg1=           0
         NFxFlg=           0 DoJE=T BraDBF=F KetDBF=T FulRan=T
         wScrn=  0.000000 ICntrl=     500 IOpCl=  0 I1Cent=   200000004 NGrid=           0
         NMat0=    1 NMatS0=      1 NMatT0=    0 NMatD0=    1 NMtDS0=    0 NMtDT0=    0
 Petite list used in FoFCou.
 Requested convergence on RMS density matrix=1.00D-08 within 128 cycles.
 Requested convergence on MAX density matrix=1.00D-06.
 Requested convergence on             energy=1.00D-06.
 No special actions if energy rises.
 SCF Done:  E(RwB97XD) =  -746.665202453     A.U. after   17 cycles
            NFock= 17  Conv=0.38D-08     -V/T= 2.0039

 **********************************************************************

            Population analysis using the SCF density.

 **********************************************************************

 Orbital symmetries:
       Occupied  (A) (A) (A) (A) (A) (A) (A) (A) (A) (A) (A) (A)
                 (A) (A) (A) (A) (A) (A) (A) (A) (A) (A) (A) (A)
                 (A) (A) (A) (A) (A) (A) (A) (A) (A) (A) (A) (A)
                 (A) (A) (A) (A) (A) (A) (A) (A) (A) (A) (A) (A)
                 (A) (A) (A) (A) (A) (A) (A) (A) (A) (A) (A)
       Virtual   (A) (A) (A) (A) (A) (A) (A) (A) (A) (A) (A) (A)
                 (A) (A) (A) (A) (A) (A) (A) (A) (A) (A) (A) (A)
                 (A) (A) (A) (A) (A) (A) (A) (A) (A) (A) (A) (A)
                 (A) (A) (A) (A) (A) (A) (A) (A) (A) (A) (A) (A)
                 (A) (A) (A) (A) (A) (A) (A) (A) (A) (A) (A) (A)
                 (A) (A) (A) (A) (A) (A) (A) (A) (A) (A) (A) (A)
                 (A) (A) (A) (A) (A) (A) (A) (A) (A) (A) (A) (A)
                 (A) (A) (A) (A) (A) (A) (A) (A) (A) (A) (A) (A)
                 (A) (A) (A) (A) (A) (A) (A) (A) (A) (A) (A) (A)
                 (A) (A) (A) (A) (A) (A) (A) (A) (A) (A) (A) (A)
                 (A) (A) (A) (A) (A) (A) (A) (A) (A) (A) (A) (A)
                 (A) (A) (A) (A) (A) (A) (A) (A) (A) (A) (A) (A)
                 (A) (A) (A) (A) (A) (A) (A) (A) (A) (A) (A) (A)
                 (A) (A) (A) (A) (A) (A) (A) (A) (A) (A) (A) (A)
                 (A) (A) (A) (A) (A) (A) (A) (A) (A) (A) (A) (A)
                 (A) (A) (A) (A) (A) (A) (A) (A) (A) (A) (A) (A)
                 (A) (A) (A) (A) (A) (A) (A) (A) (A) (A) (A) (A)
                 (A) (A) (A) (A) (A) (A) (A) (A) (A) (A) (A) (A)
                 (A) (A) (A) (A) (A) (A) (A) (A) (A) (A) (A) (A)
                 (A) (A) (A) (A) (A) (A) (A) (A) (A) (A) (A) (A)
                 (A) (A) (A) (A) (A) (A) (A) (A) (A) (A) (A) (A)
                 (A) (A) (A) (A) (A) (A) (A) (A) (A) (A) (A) (A)
                 (A) (A) (A) (A) (A) (A) (A) (A) (A) (A) (A) (A)
                 (A) (A) (A) (A) (A) (A) (A) (A) (A) (A) (A) (A)
                 (A) (A) (A) (A) (A) (A) (A) (A) (A) (A) (A) (A)
                 (A) (A) (A) (A) (A) (A) (A) (A) (A) (A) (A) (A)
                 (A) (A) (A) (A) (A) (A) (A) (A) (A) (A) (A) (A)
                 (A) (A) (A) (A) (A) (A) (A) (A) (A) (A) (A) (A)
                 (A) (A) (A) (A) (A) (A) (A) (A) (A) (A) (A) (A)
                 (A) (A) (A) (A) (A) (A) (A) (A) (A) (A) (A) (A)
                 (A) (A) (A) (A) (A) (A) (A) (A) (A) (A) (A) (A)
                 (A) (A) (A) (A) (A) (A) (A) (A) (A) (A) (A) (A)
                 (A) (A) (A) (A) (A) (A) (A) (A) (A) (A) (A)
 The electronic state is 1-A.
 Alpha  occ. eigenvalues --  -19.26151 -19.25466 -19.22270 -14.49092 -10.37403
 Alpha  occ. eigenvalues --  -10.35631 -10.35023 -10.34618 -10.33991 -10.33741
 Alpha  occ. eigenvalues --  -10.31970 -10.30061 -10.29252 -10.28330 -10.27968
 Alpha  occ. eigenvalues --  -10.27417  -1.16474  -1.14125  -1.12787  -1.08852
 Alpha  occ. eigenvalues --   -0.95895  -0.89465  -0.86424  -0.85342  -0.84395
 Alpha  occ. eigenvalues --   -0.80561  -0.78734  -0.72493  -0.70871  -0.69350
 Alpha  occ. eigenvalues --   -0.65252  -0.63228  -0.61142  -0.59770  -0.58558
 Alpha  occ. eigenvalues --   -0.58390  -0.57062  -0.55050  -0.54550  -0.53236
 Alpha  occ. eigenvalues --   -0.52424  -0.51796  -0.51645  -0.51376  -0.50653
 Alpha  occ. eigenvalues --   -0.49596  -0.48864  -0.47616  -0.47148  -0.46807
 Alpha  occ. eigenvalues --   -0.43949  -0.42902  -0.41760  -0.41387  -0.35892
 Alpha  occ. eigenvalues --   -0.33942  -0.33096  -0.30364  -0.28952
 Alpha virt. eigenvalues --    0.00344   0.02651   0.04073   0.04869   0.05547
 Alpha virt. eigenvalues --    0.05689   0.05966   0.06492   0.07367   0.07567
 Alpha virt. eigenvalues --    0.07746   0.08117   0.08297   0.08509   0.09623
 Alpha virt. eigenvalues --    0.10100   0.10862   0.11125   0.11909   0.12762
 Alpha virt. eigenvalues --    0.13053   0.13445   0.13935   0.14048   0.14530
 Alpha virt. eigenvalues --    0.14793   0.15241   0.15757   0.16350   0.16705
 Alpha virt. eigenvalues --    0.16892   0.17389   0.17669   0.17736   0.18380
 Alpha virt. eigenvalues --    0.18525   0.18746   0.19100   0.19437   0.19530
 Alpha virt. eigenvalues --    0.20110   0.20198   0.21007   0.21109   0.21323
 Alpha virt. eigenvalues --    0.21721   0.22261   0.22919   0.23163   0.23704
 Alpha virt. eigenvalues --    0.23883   0.24089   0.24605   0.25100   0.25234
 Alpha virt. eigenvalues --    0.25707   0.26060   0.26164   0.27063   0.27161
 Alpha virt. eigenvalues --    0.27666   0.27947   0.28216   0.28752   0.29252
 Alpha virt. eigenvalues --    0.29603   0.30203   0.31147   0.31597   0.31951
 Alpha virt. eigenvalues --    0.32472   0.32970   0.33453   0.33640   0.34005
 Alpha virt. eigenvalues --    0.34613   0.35047   0.35301   0.35744   0.36070
 Alpha virt. eigenvalues --    0.36752   0.37439   0.37523   0.38061   0.38358
 Alpha virt. eigenvalues --    0.38880   0.39445   0.39808   0.40779   0.41085
 Alpha virt. eigenvalues --    0.41823   0.42029   0.43175   0.43384   0.43683
 Alpha virt. eigenvalues --    0.44186   0.44785   0.45199   0.45769   0.46524
 Alpha virt. eigenvalues --    0.46939   0.47452   0.49752   0.50300   0.51055
 Alpha virt. eigenvalues --    0.51304   0.51931   0.53011   0.54295   0.54621
 Alpha virt. eigenvalues --    0.55284   0.57748   0.57880   0.58994   0.61052
 Alpha virt. eigenvalues --    0.61531   0.63237   0.64028   0.64662   0.65290
 Alpha virt. eigenvalues --    0.65911   0.66518   0.66964   0.67962   0.68689
 Alpha virt. eigenvalues --    0.69058   0.69350   0.70000   0.70959   0.70975
 Alpha virt. eigenvalues --    0.71067   0.72157   0.72469   0.73925   0.74786
 Alpha virt. eigenvalues --    0.75177   0.76301   0.76554   0.77128   0.77148
 Alpha virt. eigenvalues --    0.77811   0.78680   0.79227   0.80387   0.80762
 Alpha virt. eigenvalues --    0.81963   0.82740   0.83192   0.84609   0.86397
 Alpha virt. eigenvalues --    0.87802   0.88115   0.88327   0.90778   0.92405
 Alpha virt. eigenvalues --    0.94325   0.94887   0.96389   0.97212   0.97846
 Alpha virt. eigenvalues --    0.98553   0.98850   1.00034   1.01422   1.02974
 Alpha virt. eigenvalues --    1.03232   1.04620   1.05025   1.05781   1.07990
 Alpha virt. eigenvalues --    1.08593   1.09433   1.10292   1.11927   1.12330
 Alpha virt. eigenvalues --    1.14336   1.14726   1.15416   1.15940   1.16473
 Alpha virt. eigenvalues --    1.18307   1.18402   1.19125   1.19901   1.22070
 Alpha virt. eigenvalues --    1.22577   1.24357   1.28087   1.31347   1.32433
 Alpha virt. eigenvalues --    1.32648   1.33811   1.34585   1.37397   1.37688
 Alpha virt. eigenvalues --    1.38498   1.40106   1.41644   1.42903   1.45466
 Alpha virt. eigenvalues --    1.46440   1.47413   1.50539   1.51830   1.53562
 Alpha virt. eigenvalues --    1.53633   1.54971   1.56094   1.58215   1.58911
 Alpha virt. eigenvalues --    1.61573   1.61776   1.62670   1.62930   1.64662
 Alpha virt. eigenvalues --    1.64823   1.65087   1.66018   1.67007   1.68059
 Alpha virt. eigenvalues --    1.68776   1.69875   1.70073   1.72413   1.73258
 Alpha virt. eigenvalues --    1.73906   1.76191   1.77210   1.78262   1.79106
 Alpha virt. eigenvalues --    1.79955   1.81330   1.81624   1.82633   1.82782
 Alpha virt. eigenvalues --    1.84036   1.85384   1.85946   1.86957   1.87406
 Alpha virt. eigenvalues --    1.90347   1.92110   1.94601   1.95380   1.97957
 Alpha virt. eigenvalues --    1.99088   1.99902   2.01385   2.02403   2.04269
 Alpha virt. eigenvalues --    2.05766   2.06746   2.07239   2.08194   2.09455
 Alpha virt. eigenvalues --    2.10806   2.11197   2.12704   2.14521   2.16491
 Alpha virt. eigenvalues --    2.17292   2.19061   2.19613   2.21807   2.24066
 Alpha virt. eigenvalues --    2.24281   2.24739   2.26497   2.28480   2.29409
 Alpha virt. eigenvalues --    2.32409   2.33736   2.36355   2.39596   2.41193
 Alpha virt. eigenvalues --    2.42423   2.46356   2.46678   2.50755   2.51428
 Alpha virt. eigenvalues --    2.52763   2.54920   2.56169   2.57553   2.58891
 Alpha virt. eigenvalues --    2.60665   2.62135   2.62849   2.64165   2.66065
 Alpha virt. eigenvalues --    2.66411   2.67116   2.69343   2.70585   2.71350
 Alpha virt. eigenvalues --    2.72173   2.74015   2.75552   2.76661   2.77511
 Alpha virt. eigenvalues --    2.79816   2.80927   2.83605   2.84375   2.85275
 Alpha virt. eigenvalues --    2.86002   2.86727   2.88269   2.89471   2.91797
 Alpha virt. eigenvalues --    2.92118   2.94818   2.95887   2.96168   2.97066
 Alpha virt. eigenvalues --    2.98461   3.00567   3.01159   3.04777   3.08510
 Alpha virt. eigenvalues --    3.08640   3.10683   3.13445   3.13646   3.17487
 Alpha virt. eigenvalues --    3.20200   3.22623   3.23368   3.24231   3.25852
 Alpha virt. eigenvalues --    3.27127   3.30560   3.31529   3.32140   3.37164
 Alpha virt. eigenvalues --    3.38766   3.40922   3.43358   3.49489   3.54209
 Alpha virt. eigenvalues --    3.57450   3.61663   3.63992   3.67665   3.68740
 Alpha virt. eigenvalues --    3.72250   3.75029   3.77463   3.80367   3.81915
 Alpha virt. eigenvalues --    3.83419   3.84962   3.90413   3.93215   3.94763
 Alpha virt. eigenvalues --    3.95328   3.96345   4.04068   4.08948   4.12986
 Alpha virt. eigenvalues --    4.14636   4.18758   4.24802   4.29562   4.31876
 Alpha virt. eigenvalues --    4.40082   4.64521   4.95381   4.98630   5.14604
 Alpha virt. eigenvalues --    5.17925   5.19382   5.27015   5.44167   5.50558
 Alpha virt. eigenvalues --    5.62896   5.78985   5.91313   5.95139  23.71697
 Alpha virt. eigenvalues --   23.94697  24.03737  24.04700  24.06208  24.06691
 Alpha virt. eigenvalues --   24.07814  24.11508  24.16254  24.24960  24.30326
 Alpha virt. eigenvalues --   24.32930  35.70486  50.08831  50.14243  50.20248
          Condensed to atoms (all electrons):
               1          2          3          4          5          6
     1  C    5.276137   0.386942   0.416014  -0.074221   0.013317   0.244696
     2  H    0.386942   0.488261  -0.019340   0.005214  -0.007014  -0.049964
     3  H    0.416014  -0.019340   0.527245  -0.006919   0.000928  -0.055769
     4  C   -0.074221   0.005214  -0.006919   5.188515   0.393723   0.272371
     5  H    0.013317  -0.007014   0.000928   0.393723   0.561445  -0.049279
     6  N    0.244696  -0.049964  -0.055769   0.272371  -0.049279   6.855859
     7  H    0.417829  -0.020674  -0.052831   0.010921   0.001875  -0.034378
     8  H   -0.002854   0.003871  -0.000507   0.411641  -0.030338  -0.092198
     9  H   -0.013551  -0.003022   0.003042   0.412818  -0.064711  -0.050389
    10  C    0.234554   0.027510  -0.008464   0.007626  -0.041565   0.204305
    11  H    0.008687  -0.001062  -0.002421  -0.039503   0.004636  -0.067364
    12  C    0.311515   0.032942  -0.003507  -0.108482   0.025355  -0.258813
    13  C   -0.429691  -0.024691   0.016470  -0.148542   0.004624  -0.006148
    14  H    0.027524   0.002621  -0.013153  -0.005662  -0.000348  -0.028168
    15  O   -0.001178   0.000124   0.000214   0.001108  -0.000141   0.004182
    16  C   -0.297475  -0.008800   0.007128   0.011410  -0.002033  -0.006321
    17  C   -0.060290  -0.000726  -0.000003  -0.005921  -0.000587   0.004840
    18  C   -0.008870  -0.005270   0.000634  -0.017726   0.000671  -0.008419
    19  O   -0.000015  -0.000004   0.000045   0.000308   0.000009  -0.000158
    20  C    0.003856   0.000227  -0.000789  -0.001358   0.000012  -0.000767
    21  C   -0.006751  -0.000644   0.000410   0.001565  -0.000116   0.002885
    22  H   -0.000402  -0.000243   0.000340  -0.002966   0.000081  -0.007850
    23  H   -0.001392  -0.000109   0.000063  -0.000047  -0.000004   0.000110
    24  H    0.000072   0.000003  -0.000008   0.000014   0.000000  -0.000031
    25  C   -0.007287  -0.000260   0.000184  -0.000806  -0.000013  -0.000080
    26  H   -0.000566  -0.000036  -0.000010   0.000139  -0.000004   0.000292
    27  O    0.000018   0.000001   0.000000   0.000001   0.000000   0.000000
    28  C    0.000041   0.000002  -0.000003   0.000004   0.000001   0.000005
    29  H   -0.000021  -0.000001   0.000000  -0.000001   0.000000   0.000003
    30  H    0.000003   0.000000  -0.000001   0.000000   0.000000   0.000000
    31  H   -0.000010  -0.000001   0.000002   0.000000   0.000000  -0.000002
               7          8          9         10         11         12
     1  C    0.417829  -0.002854  -0.013551   0.234554   0.008687   0.311515
     2  H   -0.020674   0.003871  -0.003022   0.027510  -0.001062   0.032942
     3  H   -0.052831  -0.000507   0.003042  -0.008464  -0.002421  -0.003507
     4  C    0.010921   0.411641   0.412818   0.007626  -0.039503  -0.108482
     5  H    0.001875  -0.030338  -0.064711  -0.041565   0.004636   0.025355
     6  N   -0.034378  -0.092198  -0.050389   0.204305  -0.067364  -0.258813
     7  H    0.534781  -0.002989  -0.001414   0.046681   0.002596  -0.058824
     8  H   -0.002989   0.533580  -0.021606   0.056457  -0.008379  -0.010009
     9  H   -0.001414  -0.021606   0.561811  -0.003504   0.000506   0.004620
    10  C    0.046681   0.056457  -0.003504  14.177232   0.245350   3.662216
    11  H    0.002596  -0.008379   0.000506   0.245350   0.469221   0.126491
    12  C   -0.058824  -0.010009   0.004620   3.662216   0.126491  17.418887
    13  C   -0.034297   0.011651   0.000053  -5.711859   0.133253   0.974555
    14  H    0.015281  -0.003390   0.001020   0.141979   0.000156   0.614375
    15  O    0.000647   0.000417   0.000068   0.106407   0.009864  -0.251796
    16  C    0.003055   0.009869   0.001391  -2.619067  -0.081275  -7.289274
    17  C    0.000943   0.005063  -0.000148  -2.015528  -0.074770  -5.975248
    18  C   -0.008364  -0.004072   0.000485  -2.395509   0.051558  -0.692978
    19  O    0.000018  -0.000091   0.000002   0.023033   0.000123  -0.003854
    20  C   -0.001134   0.000229   0.000000  -0.439121  -0.006831  -0.437683
    21  C    0.002425  -0.000139   0.000063   0.191209   0.001609  -0.346607
    22  H   -0.006508   0.000462  -0.000123  -0.226473   0.002749  -0.075950
    23  H   -0.000019   0.000079   0.000040  -0.025245   0.000547  -0.013628
    24  H   -0.000021  -0.000001   0.000001  -0.000822  -0.000203   0.003959
    25  C    0.000173   0.000095   0.000005  -0.366436  -0.003036  -1.254344
    26  H    0.000223   0.000000   0.000006   0.017073  -0.000238   0.010974
    27  O    0.000000   0.000000   0.000000   0.001026   0.000025   0.005424
    28  C   -0.000015  -0.000001  -0.000001   0.001967   0.000020   0.003744
    29  H   -0.000001   0.000001   0.000000  -0.000418  -0.000008  -0.000532
    30  H   -0.000001   0.000000   0.000000   0.000142   0.000002   0.001014
    31  H    0.000007   0.000000   0.000000  -0.000075   0.000010  -0.001097
              13         14         15         16         17         18
     1  C   -0.429691   0.027524  -0.001178  -0.297475  -0.060290  -0.008870
     2  H   -0.024691   0.002621   0.000124  -0.008800  -0.000726  -0.005270
     3  H    0.016470  -0.013153   0.000214   0.007128  -0.000003   0.000634
     4  C   -0.148542  -0.005662   0.001108   0.011410  -0.005921  -0.017726
     5  H    0.004624  -0.000348  -0.000141  -0.002033  -0.000587   0.000671
     6  N   -0.006148  -0.028168   0.004182  -0.006321   0.004840  -0.008419
     7  H   -0.034297   0.015281   0.000647   0.003055   0.000943  -0.008364
     8  H    0.011651  -0.003390   0.000417   0.009869   0.005063  -0.004072
     9  H    0.000053   0.001020   0.000068   0.001391  -0.000148   0.000485
    10  C   -5.711859   0.141979   0.106407  -2.619067  -2.015528  -2.395509
    11  H    0.133253   0.000156   0.009864  -0.081275  -0.074770   0.051558
    12  C    0.974555   0.614375  -0.251796  -7.289274  -5.975248  -0.692978
    13  C   17.336089  -0.116483   0.916120   1.582107  -5.172999   1.215420
    14  H   -0.116483   0.685394  -0.011593  -0.181171  -0.050796  -0.126722
    15  O    0.916120  -0.011593   8.136893  -0.131630  -0.173248  -0.268764
    16  C    1.582107  -0.181171  -0.131630  21.159876   3.442492  -5.762992
    17  C   -5.172999  -0.050796  -0.173248   3.442492  18.213915  -4.147101
    18  C    1.215420  -0.126722  -0.268764  -5.762992  -4.147101  16.588198
    19  O   -0.001744   0.000445   0.006157   0.087654   0.348455  -0.062411
    20  C   -0.990769  -0.020232  -0.065556  -3.654012   0.898218   2.123494
    21  C   -0.702482  -0.008191   0.007786  -0.588160   0.582937  -0.083923
    22  H    0.080673  -0.036465  -0.001616  -0.227158   0.022267   0.820136
    23  H    0.008983  -0.000436   0.069044  -0.143196   0.018810   0.050409
    24  H    0.015528  -0.000213   0.000645  -0.112376  -0.064824   0.025367
    25  C   -2.167642  -0.022904  -0.030243  -1.465896  -0.432006   0.782804
    26  H   -0.007872   0.007744   0.000678   0.137558   0.042053  -0.109199
    27  O    0.010515  -0.000501  -0.000026   0.016670  -0.078810  -0.035833
    28  C    0.012487  -0.000395   0.000009  -0.032919   0.077646   0.015586
    29  H   -0.002380   0.000561  -0.000028  -0.002201  -0.010741  -0.027344
    30  H    0.002399   0.000078   0.000003   0.003587   0.003743  -0.002638
    31  H    0.001700  -0.000235   0.000018   0.016807  -0.002768   0.002730
              19         20         21         22         23         24
     1  C   -0.000015   0.003856  -0.006751  -0.000402  -0.001392   0.000072
     2  H   -0.000004   0.000227  -0.000644  -0.000243  -0.000109   0.000003
     3  H    0.000045  -0.000789   0.000410   0.000340   0.000063  -0.000008
     4  C    0.000308  -0.001358   0.001565  -0.002966  -0.000047   0.000014
     5  H    0.000009   0.000012  -0.000116   0.000081  -0.000004   0.000000
     6  N   -0.000158  -0.000767   0.002885  -0.007850   0.000110  -0.000031
     7  H    0.000018  -0.001134   0.002425  -0.006508  -0.000019  -0.000021
     8  H   -0.000091   0.000229  -0.000139   0.000462   0.000079  -0.000001
     9  H    0.000002   0.000000   0.000063  -0.000123   0.000040   0.000001
    10  C    0.023033  -0.439121   0.191209  -0.226473  -0.025245  -0.000822
    11  H    0.000123  -0.006831   0.001609   0.002749   0.000547  -0.000203
    12  C   -0.003854  -0.437683  -0.346607  -0.075950  -0.013628   0.003959
    13  C   -0.001744  -0.990769  -0.702482   0.080673   0.008983   0.015528
    14  H    0.000445  -0.020232  -0.008191  -0.036465  -0.000436  -0.000213
    15  O    0.006157  -0.065556   0.007786  -0.001616   0.069044   0.000645
    16  C    0.087654  -3.654012  -0.588160  -0.227158  -0.143196  -0.112376
    17  C    0.348455   0.898218   0.582937   0.022267   0.018810  -0.064824
    18  C   -0.062411   2.123494  -0.083923   0.820136   0.050409   0.025367
    19  O    8.091348  -0.423585   0.025943  -0.004443   0.253070  -0.023760
    20  C   -0.423585  13.091220  -3.305147   0.158567   0.079020   0.710191
    21  C    0.025943  -3.305147  10.530340  -0.228535   0.013867  -0.086450
    22  H   -0.004443   0.158567  -0.228535   0.607358   0.001675   0.002199
    23  H    0.253070   0.079020   0.013867   0.001675   0.303867   0.001853
    24  H   -0.023760   0.710191  -0.086450   0.002199   0.001853   0.463978
    25  C   -0.020816  -1.207142  -0.065407   0.093478   0.014276  -0.182219
    26  H    0.000902  -0.109119   0.559018  -0.037471   0.000205  -0.000485
    27  O   -0.000505  -0.305865  -0.219973   0.002405  -0.000128  -0.018105
    28  C    0.001546   0.068630   0.084039   0.003634   0.000212   0.005575
    29  H   -0.000134  -0.004800  -0.055944  -0.001909   0.000026  -0.001685
    30  H    0.000105   0.004805   0.008836   0.000007   0.000004  -0.000182
    31  H   -0.000113  -0.018200   0.025430  -0.000035  -0.000212  -0.000009
              25         26         27         28         29         30
     1  C   -0.007287  -0.000566   0.000018   0.000041  -0.000021   0.000003
     2  H   -0.000260  -0.000036   0.000001   0.000002  -0.000001   0.000000
     3  H    0.000184  -0.000010   0.000000  -0.000003   0.000000  -0.000001
     4  C   -0.000806   0.000139   0.000001   0.000004  -0.000001   0.000000
     5  H   -0.000013  -0.000004   0.000000   0.000001   0.000000   0.000000
     6  N   -0.000080   0.000292   0.000000   0.000005   0.000003   0.000000
     7  H    0.000173   0.000223   0.000000  -0.000015  -0.000001  -0.000001
     8  H    0.000095   0.000000   0.000000  -0.000001   0.000001   0.000000
     9  H    0.000005   0.000006   0.000000  -0.000001   0.000000   0.000000
    10  C   -0.366436   0.017073   0.001026   0.001967  -0.000418   0.000142
    11  H   -0.003036  -0.000238   0.000025   0.000020  -0.000008   0.000002
    12  C   -1.254344   0.010974   0.005424   0.003744  -0.000532   0.001014
    13  C   -2.167642  -0.007872   0.010515   0.012487  -0.002380   0.002399
    14  H   -0.022904   0.007744  -0.000501  -0.000395   0.000561   0.000078
    15  O   -0.030243   0.000678  -0.000026   0.000009  -0.000028   0.000003
    16  C   -1.465896   0.137558   0.016670  -0.032919  -0.002201   0.003587
    17  C   -0.432006   0.042053  -0.078810   0.077646  -0.010741   0.003743
    18  C    0.782804  -0.109199  -0.035833   0.015586  -0.027344  -0.002638
    19  O   -0.020816   0.000902  -0.000505   0.001546  -0.000134   0.000105
    20  C   -1.207142  -0.109119  -0.305865   0.068630  -0.004800   0.004805
    21  C   -0.065407   0.559018  -0.219973   0.084039  -0.055944   0.008836
    22  H    0.093478  -0.037471   0.002405   0.003634  -0.001909   0.000007
    23  H    0.014276   0.000205  -0.000128   0.000212   0.000026   0.000004
    24  H   -0.182219  -0.000485  -0.018105   0.005575  -0.001685  -0.000182
    25  C   13.028453  -0.243025   0.795050  -0.396167   0.115631  -0.005802
    26  H   -0.243025   0.509512  -0.018783  -0.002647  -0.004606   0.000234
    27  O    0.795050  -0.018783   7.967527   0.176762  -0.046964  -0.056879
    28  C   -0.396167  -0.002647   0.176762   5.116495   0.392504   0.402568
    29  H    0.115631  -0.004606  -0.046964   0.392504   0.619423  -0.029558
    30  H   -0.005802   0.000234  -0.056879   0.402568  -0.029558   0.508164
    31  H   -0.020281   0.000432  -0.045760   0.407467  -0.072548  -0.024866
              31
     1  C   -0.000010
     2  H   -0.000001
     3  H    0.000002
     4  C    0.000000
     5  H    0.000000
     6  N   -0.000002
     7  H    0.000007
     8  H    0.000000
     9  H    0.000000
    10  C   -0.000075
    11  H    0.000010
    12  C   -0.001097
    13  C    0.001700
    14  H   -0.000235
    15  O    0.000018
    16  C    0.016807
    17  C   -0.002768
    18  C    0.002730
    19  O   -0.000113
    20  C   -0.018200
    21  C    0.025430
    22  H   -0.000035
    23  H   -0.000212
    24  H   -0.000009
    25  C   -0.020281
    26  H    0.000432
    27  O   -0.045760
    28  C    0.407467
    29  H   -0.072548
    30  H   -0.024866
    31  H    0.585707
 Mulliken charges:
               1
     1  C   -0.436631
     2  H    0.194144
     3  H    0.191005
     4  C   -0.305225
     5  H    0.189477
     6  N    0.126551
     7  H    0.184015
     8  H    0.143157
     9  H    0.172537
    10  C    0.709319
    11  H    0.227688
    12  C   -0.413447
    13  C   -0.805028
    14  H    0.129882
    15  O   -0.324564
    16  C    2.126354
    17  C    0.605133
    18  C   -1.909357
    19  O   -0.297529
    20  C   -0.146360
    21  C   -0.339893
    22  H    0.062117
    23  H    0.368253
    24  H    0.262010
    25  C   -0.938338
    26  H    0.247017
    27  O   -0.147291
    28  C   -0.338798
    29  H    0.133674
    30  H    0.184232
    31  H    0.145898
 Sum of Mulliken charges =   0.00000
 Mulliken charges with hydrogens summed into heavy atoms:
               1
     1  C    0.132532
     4  C    0.199947
     6  N    0.126551
    10  C    0.937007
    12  C   -0.283565
    13  C   -0.805028
    15  O   -0.324564
    16  C    2.126354
    17  C    0.605133
    18  C   -1.847240
    19  O    0.070724
    20  C    0.115650
    21  C   -0.092877
    25  C   -0.938338
    27  O   -0.147291
    28  C    0.125006
 Electronic spatial extent (au):  <R**2>=           5713.2447
 Charge=              0.0000 electrons
 Dipole moment (field-independent basis, Debye):
    X=             -5.8197    Y=             -4.4508    Z=              1.3101  Tot=              7.4428
 Quadrupole moment (field-independent basis, Debye-Ang):
   XX=            -65.0857   YY=            -96.1531   ZZ=            -98.9984
   XY=              1.9915   XZ=              8.0471   YZ=             -1.4690
 Traceless Quadrupole moment (field-independent basis, Debye-Ang):
   XX=             21.6600   YY=             -9.4073   ZZ=            -12.2527
   XY=              1.9915   XZ=              8.0471   YZ=             -1.4690
 Octapole moment (field-independent basis, Debye-Ang**2):
  XXX=           -152.9747  YYY=            -25.9334  ZZZ=              2.4834  XYY=            -12.4068
  XXY=            -24.1607  XXZ=             43.3771  XZZ=             -2.0824  YZZ=              4.0211
  YYZ=              0.9763  XYZ=             -8.3539
 Hexadecapole moment (field-independent basis, Debye-Ang**3):
 XXXX=          -5240.6617 YYYY=          -1070.8035 ZZZZ=           -181.4891 XXXY=             12.5516
 XXXZ=            199.4585 YYYX=            -18.2678 YYYZ=              0.7868 ZZZX=              7.9377
 ZZZY=              0.3068 XXYY=          -1141.3698 XXZZ=          -1104.2435 YYZZ=           -210.0107
 XXYZ=            -42.9276 YYXZ=              4.2982 ZZXY=              2.6870
 N-N= 1.046575244198D+03 E-N=-3.835944439301D+03  KE= 7.437467947802D+02
 Calling FoFJK, ICntrl=      2127 FMM=F ISym2X=0 I1Cent= 0 IOpClX= 0 NMat=1 NMatS=1 NMatT=0.
 ***** Axes restored to original set *****
 -------------------------------------------------------------------
 Center     Atomic                   Forces (Hartrees/Bohr)
 Number     Number              X              Y              Z
 -------------------------------------------------------------------
      1        6           0.000092783   -0.000083640    0.000008723
      2        1          -0.000050840    0.000203616   -0.000019440
      3        1           0.000004641   -0.000078961   -0.000012705
      4        6           0.000208708   -0.000047820   -0.000010356
      5        1          -0.000060768    0.000006770    0.000005551
      6        7          -0.000015548    0.000019695    0.000033368
      7        1          -0.000162633   -0.000079705   -0.000027374
      8        1          -0.000202198    0.000055734   -0.000084913
      9        1           0.000060800   -0.000083305    0.000043047
     10        6           0.000143464   -0.000159560   -0.000042073
     11        1           0.000064633    0.000099934    0.000103721
     12        6          -0.000508001    0.000102715    0.000110683
     13        6          -0.000349917    0.000488126   -0.000208386
     14        1           0.000268503    0.000116025   -0.000095648
     15        8          -0.000324102   -0.000367811    0.000103624
     16        6           0.002130718   -0.000311775    0.000236481
     17        6           0.000442968    0.001923111   -0.000755758
     18        6          -0.001993343   -0.002341960   -0.000003488
     19        8          -0.001417313    0.001419490    0.000128627
     20        6          -0.003560798   -0.002025342   -0.000082028
     21        6          -0.000851307    0.003373693    0.000326662
     22        1          -0.000698730    0.000101546   -0.000181718
     23        1           0.000816073    0.000244072   -0.000023857
     24        1          -0.001079916    0.001906696   -0.000216108
     25        6          -0.024719738    0.010796844   -0.002318843
     26        1          -0.001461449   -0.000188617   -0.000611531
     27        8           0.030523980   -0.014825513    0.005326394
     28        6           0.006560736   -0.004622455   -0.017172896
     29        1           0.009123898    0.013190619    0.008251463
     30        1          -0.013184250    0.003818285   -0.005114667
     31        1           0.000198946   -0.012650507    0.012303445
 -------------------------------------------------------------------
 Cartesian Forces:  Max     0.030523980 RMS     0.005852285

 GradGradGradGradGradGradGradGradGradGradGradGradGradGradGradGradGradGrad
 Berny optimization.
 FormGI is forming the generalized inverse of G from B-inverse, IUseBI=4.
 Internal  Forces:  Max     0.036546678 RMS     0.004257902
 Search for a local minimum.
 Step number   1 out of a maximum of  150
 All quantities printed in internal units (Hartrees-Bohrs-Radians)
 Mixed Optimization -- RFO/linear search
 Second derivative matrix not updated -- first step.
 ITU=  0
     Eigenvalues ---    0.00947   0.01033   0.01057   0.01187   0.01295
     Eigenvalues ---    0.01295   0.01420   0.01445   0.01654   0.01963
     Eigenvalues ---    0.02017   0.02063   0.02087   0.02167   0.02192
     Eigenvalues ---    0.02214   0.02251   0.02283   0.02448   0.02529
     Eigenvalues ---    0.02572   0.02608   0.07401   0.07416   0.07589
     Eigenvalues ---    0.07635   0.10344   0.10344   0.15999   0.16000
     Eigenvalues ---    0.16000   0.16000   0.16000   0.16000   0.16000
     Eigenvalues ---    0.16000   0.16000   0.16000   0.16000   0.16000
     Eigenvalues ---    0.16000   0.16000   0.16000   0.22000   0.22000
     Eigenvalues ---    0.22365   0.23492   0.24602   0.24709   0.24813
     Eigenvalues ---    0.25000   0.25000   0.25000   0.25000   0.25000
     Eigenvalues ---    0.25000   0.33854   0.34060   0.34124   0.34348
     Eigenvalues ---    0.34392   0.34839   0.34840   0.35249   0.35580
     Eigenvalues ---    0.35607   0.35695   0.36128   0.37230   0.37230
     Eigenvalues ---    0.37230   0.38168   0.38269   0.38508   0.40989
     Eigenvalues ---    0.40989   0.40997   0.42171   0.44536   0.45630
     Eigenvalues ---    0.47851   0.48795   0.50064   0.52796   0.56581
     Eigenvalues ---    0.58702   0.85398
 RFO step:  Lambda=-7.35589121D-03 EMin= 9.46674379D-03
 Linear search not attempted -- first point.
 Iteration  1 RMS(Cart)=  0.03324253 RMS(Int)=  0.00145602
 Iteration  2 RMS(Cart)=  0.00227031 RMS(Int)=  0.00012741
 Iteration  3 RMS(Cart)=  0.00000880 RMS(Int)=  0.00012729
 Iteration  4 RMS(Cart)=  0.00000000 RMS(Int)=  0.00012729
 Variable       Old X    -DE/DX   Delta X   Delta X   Delta X     New X
                                 (Linear)    (Quad)   (Total)
    R1        2.05938   0.00000   0.00000   0.00001   0.00001   2.05938
    R2        2.07229  -0.00003   0.00000  -0.00009  -0.00009   2.07220
    R3        2.73633  -0.00005   0.00000  -0.00013  -0.00013   2.73620
    R4        2.06747   0.00004   0.00000   0.00011   0.00011   2.06758
    R5        2.07121  -0.00003   0.00000  -0.00007  -0.00007   2.07114
    R6        2.73975   0.00005   0.00000   0.00012   0.00012   2.73988
    R7        2.05935  -0.00002   0.00000  -0.00005  -0.00005   2.05929
    R8        2.06674   0.00005   0.00000   0.00014   0.00014   2.06687
    R9        2.53754  -0.00015   0.00000  -0.00026  -0.00026   2.53727
   R10        2.05273  -0.00010   0.00000  -0.00028  -0.00028   2.05245
   R11        2.57144   0.00014   0.00000   0.00027   0.00027   2.57171
   R12        2.74121  -0.00009   0.00000  -0.00023  -0.00023   2.74099
   R13        2.03881   0.00010   0.00000   0.00027   0.00027   2.03908
   R14        2.35129   0.00035   0.00000   0.00040   0.00040   2.35169
   R15        2.80877  -0.00083   0.00000  -0.00241  -0.00241   2.80636
   R16        2.67522   0.00024   0.00000   0.00074   0.00071   2.67592
   R17        2.65272  -0.00011   0.00000  -0.00007  -0.00010   2.65262
   R18        2.51982  -0.00169   0.00000  -0.00285  -0.00285   2.51697
   R19        2.64716  -0.00103   0.00000  -0.00222  -0.00222   2.64495
   R20        2.60837  -0.00092   0.00000  -0.00185  -0.00185   2.60652
   R21        2.04561  -0.00049   0.00000  -0.00136  -0.00136   2.04426
   R22        1.86500   0.00073   0.00000   0.00145   0.00145   1.86645
   R23        2.04743  -0.00031   0.00000  -0.00084  -0.00084   2.04659
   R24        2.60570  -0.00357   0.00000  -0.00730  -0.00728   2.59843
   R25        2.64025  -0.00271   0.00000  -0.00598  -0.00595   2.63431
   R26        2.04701  -0.00003   0.00000  -0.00009  -0.00009   2.04693
   R27        2.70231  -0.03655   0.00000  -0.08759  -0.08759   2.61472
   R28        2.70231  -0.00238   0.00000  -0.00570  -0.00570   2.69661
   R29        2.02201   0.01781   0.00000   0.04691   0.04691   2.06892
   R30        2.02201   0.01372   0.00000   0.03614   0.03614   2.05815
   R31        2.02201   0.01748   0.00000   0.04604   0.04604   2.06805
    A1        1.89778  -0.00007   0.00000  -0.00015  -0.00015   1.89763
    A2        1.90734   0.00039   0.00000   0.00272   0.00272   1.91006
    A3        1.89247   0.00000   0.00000   0.00047   0.00047   1.89295
    A4        1.94383  -0.00015   0.00000  -0.00111  -0.00111   1.94272
    A5        1.89422   0.00005   0.00000  -0.00043  -0.00044   1.89378
    A6        1.92725  -0.00022   0.00000  -0.00147  -0.00147   1.92578
    A7        1.94330  -0.00006   0.00000  -0.00042  -0.00043   1.94288
    A8        1.89325   0.00007   0.00000  -0.00020  -0.00020   1.89305
    A9        1.89507   0.00002   0.00000   0.00061   0.00061   1.89569
   A10        1.91301  -0.00032   0.00000  -0.00219  -0.00219   1.91082
   A11        1.92685   0.00022   0.00000   0.00164   0.00164   1.92849
   A12        1.89127   0.00008   0.00000   0.00058   0.00059   1.89185
   A13        2.05809   0.00053   0.00000   0.00205   0.00205   2.06014
   A14        2.09865  -0.00041   0.00000  -0.00166  -0.00166   2.09698
   A15        2.11639  -0.00012   0.00000  -0.00052  -0.00052   2.11587
   A16        2.01826   0.00003   0.00000   0.00003   0.00003   2.01829
   A17        2.21640  -0.00020   0.00000  -0.00086  -0.00086   2.21553
   A18        2.04850   0.00017   0.00000   0.00083   0.00083   2.04933
   A19        2.06361  -0.00011   0.00000  -0.00047  -0.00047   2.06314
   A20        2.11463  -0.00023   0.00000  -0.00145  -0.00145   2.11317
   A21        2.10489   0.00034   0.00000   0.00192   0.00192   2.10680
   A22        2.10544   0.00026   0.00000   0.00101   0.00101   2.10645
   A23        2.09967   0.00030   0.00000   0.00118   0.00117   2.10084
   A24        2.07807  -0.00056   0.00000  -0.00217  -0.00217   2.07589
   A25        2.08125  -0.00031   0.00000  -0.00173  -0.00171   2.07954
   A26        2.14390   0.00106   0.00000   0.00356   0.00358   2.14748
   A27        2.05803  -0.00075   0.00000  -0.00183  -0.00187   2.05616
   A28        2.14230  -0.00020   0.00000  -0.00116  -0.00116   2.14114
   A29        2.09225   0.00091   0.00000   0.00431   0.00430   2.09654
   A30        2.04863  -0.00071   0.00000  -0.00314  -0.00314   2.04550
   A31        2.12920   0.00054   0.00000   0.00319   0.00318   2.13238
   A32        2.08898   0.00025   0.00000   0.00150   0.00150   2.09048
   A33        2.06501  -0.00079   0.00000  -0.00469  -0.00470   2.06031
   A34        1.85525  -0.00080   0.00000  -0.00478  -0.00478   1.85047
   A35        2.05702   0.00369   0.00000   0.01969   0.01966   2.07667
   A36        2.10303  -0.00293   0.00000  -0.01277  -0.01274   2.09030
   A37        2.12314  -0.00076   0.00000  -0.00692  -0.00695   2.11619
   A38        2.08060  -0.00268   0.00000  -0.01171  -0.01168   2.06892
   A39        2.09982   0.00285   0.00000   0.01491   0.01486   2.11468
   A40        2.10276  -0.00018   0.00000  -0.00320  -0.00324   2.09952
   A41        2.10326   0.00491   0.00000   0.01882   0.01879   2.12205
   A42        2.08676  -0.00318   0.00000  -0.01224  -0.01238   2.07437
   A43        2.09317  -0.00173   0.00000  -0.00659  -0.00673   2.08644
   A44        1.91114   0.01085   0.00000   0.04215   0.04215   1.95329
   A45        1.91063   0.00533   0.00000   0.03413   0.03377   1.94440
   A46        1.91063  -0.00974   0.00000  -0.06261  -0.06247   1.84816
   A47        1.91063   0.00460   0.00000   0.02958   0.02918   1.93981
   A48        1.91063   0.00047   0.00000  -0.00141  -0.00123   1.90940
   A49        1.91063  -0.00134   0.00000   0.00083   0.00003   1.91066
   A50        1.91063   0.00068   0.00000  -0.00052  -0.00042   1.91022
    D1       -0.23536  -0.00005   0.00000  -0.00303  -0.00303  -0.23839
    D2        3.05628  -0.00002   0.00000  -0.00201  -0.00201   3.05427
    D3        1.86173   0.00003   0.00000  -0.00213  -0.00213   1.85959
    D4       -1.12983   0.00005   0.00000  -0.00111  -0.00111  -1.13094
    D5       -2.31559  -0.00016   0.00000  -0.00441  -0.00441  -2.32000
    D6        0.97604  -0.00014   0.00000  -0.00339  -0.00339   0.97266
    D7       -1.11509  -0.00002   0.00000   0.00249   0.00249  -1.11260
    D8        1.87486  -0.00007   0.00000   0.00135   0.00135   1.87621
    D9        3.07328   0.00014   0.00000   0.00444   0.00444   3.07772
   D10       -0.21995   0.00009   0.00000   0.00331   0.00331  -0.21665
   D11        0.99124   0.00011   0.00000   0.00408   0.00408   0.99532
   D12       -2.30200   0.00006   0.00000   0.00295   0.00295  -2.29905
   D13        3.11800   0.00012   0.00000   0.00278   0.00278   3.12078
   D14       -0.03175   0.00008   0.00000   0.00155   0.00155  -0.03020
   D15        0.13154   0.00009   0.00000   0.00362   0.00362   0.13516
   D16       -3.01821   0.00005   0.00000   0.00239   0.00239  -3.01582
   D17       -3.12117   0.00005   0.00000   0.00131   0.00131  -3.11986
   D18        0.03168   0.00007   0.00000   0.00228   0.00228   0.03395
   D19        0.01214   0.00001   0.00000   0.00006   0.00006   0.01220
   D20       -3.11819   0.00003   0.00000   0.00103   0.00103  -3.11717
   D21        0.01311   0.00004   0.00000   0.00197   0.00197   0.01508
   D22       -3.12377  -0.00003   0.00000  -0.00201  -0.00201  -3.12578
   D23       -3.13968   0.00001   0.00000   0.00098   0.00099  -3.13869
   D24        0.00663  -0.00006   0.00000  -0.00299  -0.00300   0.00363
   D25        3.12933  -0.00005   0.00000  -0.00209  -0.00210   3.12723
   D26       -0.01324   0.00008   0.00000   0.00321   0.00321  -0.01002
   D27       -0.00762  -0.00012   0.00000  -0.00601  -0.00602  -0.01364
   D28        3.13299   0.00000   0.00000  -0.00072  -0.00071   3.13229
   D29        0.00038   0.00002   0.00000   0.00095   0.00093   0.00131
   D30       -3.14086  -0.00002   0.00000  -0.00049  -0.00051  -3.14137
   D31       -3.14029  -0.00010   0.00000  -0.00409  -0.00410   3.13879
   D32        0.00166  -0.00014   0.00000  -0.00552  -0.00554  -0.00389
   D33        3.14143  -0.00005   0.00000  -0.00194  -0.00196   3.13947
   D34       -0.00066   0.00015   0.00000   0.00482   0.00483   0.00417
   D35       -0.00112   0.00007   0.00000   0.00329   0.00328   0.00216
   D36        3.13997   0.00027   0.00000   0.01005   0.01007  -3.13314
   D37        0.00352  -0.00007   0.00000  -0.00230  -0.00230   0.00123
   D38       -3.13842  -0.00003   0.00000  -0.00090  -0.00089  -3.13931
   D39        3.14113  -0.00019   0.00000  -0.00668  -0.00671   3.13442
   D40       -0.00121   0.00006   0.00000   0.00201   0.00203   0.00081
   D41       -0.00012  -0.00023   0.00000  -0.00804  -0.00807  -0.00820
   D42        3.14071   0.00002   0.00000   0.00065   0.00067   3.14138
   D43        0.00011   0.00008   0.00000   0.00252   0.00251   0.00262
   D44        3.14132   0.00045   0.00000   0.01504   0.01510  -3.12676
   D45       -3.14099  -0.00012   0.00000  -0.00415  -0.00417   3.13803
   D46        0.00022   0.00026   0.00000   0.00837   0.00842   0.00865
   D47        0.00017   0.00009   0.00000   0.00395   0.00402   0.00419
   D48        3.14158  -0.00067   0.00000  -0.02328  -0.02324   3.11834
   D49        3.14098   0.00036   0.00000   0.01299   0.01297  -3.12923
   D50       -0.00079  -0.00041   0.00000  -0.01424  -0.01429  -0.01508
   D51        0.00038  -0.00016   0.00000  -0.00620  -0.00627  -0.00589
   D52       -3.14103   0.00060   0.00000   0.02112   0.02117  -3.11985
   D53       -3.14083  -0.00053   0.00000  -0.01875  -0.01875   3.12360
   D54        0.00095   0.00023   0.00000   0.00858   0.00869   0.00964
   D55        1.71064   0.00044   0.00000   0.01670   0.01651   1.72715
   D56       -1.43113  -0.00031   0.00000  -0.01037  -0.01018  -1.44131
   D57        1.14309   0.00174   0.00000  -0.00241  -0.00163   1.14146
   D58       -3.04570  -0.00039   0.00000  -0.02158  -0.02164  -3.06734
   D59       -0.95130  -0.00270   0.00000  -0.04244  -0.04315  -0.99445
         Item               Value     Threshold  Converged?
 Maximum Force            0.036547     0.000450     NO 
 RMS     Force            0.004258     0.000300     NO 
 Maximum Displacement     0.279336     0.001800     NO 
 RMS     Displacement     0.034675     0.001200     NO 
 Predicted change in Energy=-3.785932D-03
 GradGradGradGradGradGradGradGradGradGradGradGradGradGradGradGradGradGrad

                          Input orientation:                          
 ---------------------------------------------------------------------
 Center     Atomic      Atomic             Coordinates (Angstroms)
 Number     Number       Type             X           Y           Z
 ---------------------------------------------------------------------
      1          6           0        3.733448    1.624268    0.037461
      2          1           0        4.780782    1.905674    0.144799
      3          1           0        3.347895    2.051836   -0.895803
      4          6           0        4.830317   -0.598881   -0.125986
      5          1           0        5.283183   -0.425410   -1.108855
      6          7           0        3.619471    0.180832    0.041504
      7          1           0        3.172294    2.052390    0.873467
      8          1           0        4.595092   -1.659165   -0.036660
      9          1           0        5.561428   -0.341333    0.645648
     10          6           0        2.409140   -0.400096    0.022133
     11          1           0        2.409292   -1.486092    0.006341
     12          6           0        1.201029    0.226338    0.030548
     13          6           0        0.003989   -0.592774    0.033545
     14          1           0        1.131921    1.303136    0.023593
     15          8           0        0.084123   -1.834604    0.044671
     16          6           0       -1.339192    0.040586    0.022407
     17          6           0       -2.490397   -0.783837    0.007869
     18          6           0       -1.529605    1.431318    0.020472
     19          8           0       -2.422342   -2.114019    0.005163
     20          6           0       -3.766285   -0.208514   -0.003080
     21          6           0       -2.785857    2.000674    0.007580
     22          1           0       -0.672210    2.090940    0.023380
     23          1           0       -1.460413   -2.337828    0.016115
     24          1           0       -4.633966   -0.856371   -0.020923
     25          6           0       -3.897971    1.160192   -0.000642
     26          1           0       -2.913673    3.076188   -0.007464
     27          8           0       -5.167572    1.708889   -0.039777
     28          6           0       -5.617676    2.102865    1.255783
     29          1           0       -5.010436    2.920074    1.658360
     30          1           0       -6.643168    2.445166    1.123893
     31          1           0       -5.601948    1.259160    1.952593
 ---------------------------------------------------------------------
                    Distance matrix (angstroms):
                    1          2          3          4          5
     1  C    0.000000
     2  H    1.089779   0.000000
     3  H    1.096561   1.776902   0.000000
     4  C    2.484396   2.519637   3.133128   0.000000
     5  H    2.813698   2.694069   3.150790   1.095998   0.000000
     6  N    1.447935   2.081920   2.110202   1.449880   2.111585
     7  H    1.094116   1.771924   1.777962   3.282862   3.811161
     8  H    3.395417   3.574281   4.008136   1.089731   1.773478
     9  H    2.752270   2.430905   3.605975   1.093743   1.778418
    10  C    2.419107   3.310031   2.781337   2.433835   3.088673
    11  H    3.380635   4.140919   3.769850   2.581863   3.260055
    12  C    2.892646   3.955736   2.966412   3.725213   4.288006
    13  C    4.338681   5.391880   4.363411   4.828967   5.403978
    14  H    2.621310   3.700261   2.513242   4.161511   4.637164
    15  O    5.028063   6.004857   5.161503   4.907392   5.508782
    16  C    5.314127   6.399032   5.182376   6.204335   6.734446
    17  C    6.673537   7.753855   6.553116   7.324273   7.861559
    18  C    5.266617   6.329412   5.001461   6.677707   7.151008
    19  O    7.202054   8.249995   7.173683   7.410392   7.966653
    20  C    7.720540   8.805908   7.517826   8.606338   9.119357
    21  C    6.530231   7.568479   6.200132   8.048703   8.499513
    22  H    4.430328   5.457489   4.124036   6.126601   6.563587
    23  H    6.532600   7.548270   6.574236   6.528202   7.099225
    24  H    8.727577   9.812942   8.540093   9.468368   9.985949
    25  C    7.645612   8.711926   7.355197   8.904665   9.382743
    26  H    6.803992   7.784467   6.406690   8.572605   8.981242
    27  O    8.901757   9.952011   8.565254  10.261141  10.719909
    28  C    9.442293  10.459498   9.220271  10.879764  11.437326
    29  H    8.986764   9.959308   8.782897  10.602233  11.171765
    30  H   10.465580  11.478514  10.200746  11.936049  12.468489
    31  H    9.536806  10.558749   9.425571  10.798378  11.432250
                    6          7          8          9         10
     6  N    0.000000
     7  H    2.096392   0.000000
     8  H    2.084114   4.077784   0.000000
     9  H    2.099724   3.389657   1.770884   0.000000
    10  C    1.342667   2.705894   2.523310   3.213898   0.000000
    11  H    2.060195   3.722221   2.193063   3.413963   1.086110
    12  C    2.418895   2.816178   3.883207   4.440008   1.360890
    13  C    3.697329   4.211949   4.713846   5.596697   2.412883
    14  H    2.729065   2.333836   4.557676   4.765686   2.128918
    15  O    4.069482   5.033132   4.515112   5.708932   2.732037
    16  C    4.960683   5.012500   6.173197   6.939225   3.774148
    17  C    6.185646   6.392145   7.139491   8.089157   4.914563
    18  C    5.298788   4.818836   6.860486   7.335931   4.343708
    19  O    6.463062   7.029428   7.032284   8.203244   5.126504
    20  C    7.396146   7.350095   8.486350   9.351188   6.178448
    21  C    6.658919   6.020963   8.238615   8.693060   5.722928
    22  H    4.697592   3.937555   6.466170   6.720224   3.962320
    23  H    5.670055   6.439801   6.093645   7.327247   4.327619
    24  H    8.318588   8.378455   9.263921  10.230134   7.058001
    25  C    7.581086   7.179744   8.948865   9.599609   6.497282
    26  H    7.146150   6.234035   8.877273   9.161514   6.357497
    27  O    8.919288   8.396747  10.327313  10.944618   7.865000
[...]
 Alpha virt. eigenvalues --    2.17353   2.20244   2.20599   2.21929   2.22920
 Alpha virt. eigenvalues --    2.24395   2.24615   2.26344   2.29060   2.30132
 Alpha virt. eigenvalues --    2.31041   2.33197   2.38064   2.40683   2.42265
 Alpha virt. eigenvalues --    2.44676   2.46908   2.47117   2.51446   2.52027
 Alpha virt. eigenvalues --    2.53254   2.55146   2.55593   2.56716   2.57658
 Alpha virt. eigenvalues --    2.59416   2.60815   2.60982   2.62451   2.64456
 Alpha virt. eigenvalues --    2.65341   2.67010   2.68941   2.71183   2.71797
 Alpha virt. eigenvalues --    2.72830   2.74623   2.76137   2.77478   2.78633
 Alpha virt. eigenvalues --    2.79936   2.82682   2.83091   2.84643   2.85526
 Alpha virt. eigenvalues --    2.86012   2.88373   2.89178   2.89754   2.91917
 Alpha virt. eigenvalues --    2.92963   2.93332   2.96367   2.96580   2.98526
 Alpha virt. eigenvalues --    2.99085   2.99952   3.02158   3.05193   3.08445
 Alpha virt. eigenvalues --    3.10499   3.13329   3.15271   3.15329   3.19814
 Alpha virt. eigenvalues --    3.20799   3.23141   3.23956   3.25308   3.26705
 Alpha virt. eigenvalues --    3.27131   3.31439   3.32018   3.32856   3.35160
 Alpha virt. eigenvalues --    3.38076   3.43775   3.44935   3.52599   3.56189
 Alpha virt. eigenvalues --    3.58130   3.62027   3.64108   3.67829   3.68969
 Alpha virt. eigenvalues --    3.72551   3.75103   3.77477   3.80633   3.82331
 Alpha virt. eigenvalues --    3.84086   3.85301   3.87282   3.90493   3.92986
 Alpha virt. eigenvalues --    3.94284   3.95247   4.04916   4.09502   4.13711
 Alpha virt. eigenvalues --    4.19629   4.21411   4.28769   4.31176   4.34783
 Alpha virt. eigenvalues --    4.40938   4.66237   4.96091   4.99066   5.14580
 Alpha virt. eigenvalues --    5.14986   5.18187   5.19747   5.44735   5.51776
 Alpha virt. eigenvalues --    5.63668   5.87974   5.93713   5.97694  23.75249
 Alpha virt. eigenvalues --   23.95074  24.04246  24.04964  24.05790  24.06396
 Alpha virt. eigenvalues --   24.07736  24.08775  24.16688  24.25763  24.31060
 Alpha virt. eigenvalues --   24.32895  35.70748  50.10869  50.15001  50.20820
          Condensed to atoms (all electrons):
               1          2          3          4          5          6
     1  C    5.317108   0.387879   0.413203  -0.084871   0.018185   0.252320
     2  H    0.387879   0.493604  -0.021270   0.005113  -0.006943  -0.049652
     3  H    0.413203  -0.021270   0.529932  -0.007713   0.001611  -0.056407
     4  C   -0.084871   0.005113  -0.007713   5.194774   0.389078   0.272297
     5  H    0.018185  -0.006943   0.001611   0.389078   0.565794  -0.048117
     6  N    0.252320  -0.049652  -0.056407   0.272297  -0.048117   6.841021
     7  H    0.413324  -0.021061  -0.052642   0.011791   0.001648  -0.034084
     8  H   -0.002928   0.004072  -0.000633   0.412396  -0.032565  -0.086638
     9  H   -0.017130  -0.002435   0.003297   0.414995  -0.065314  -0.050756
    10  C    0.064871   0.024972  -0.018663  -0.007595  -0.055481   0.226727
    11  H    0.009490  -0.000965  -0.003123  -0.040480   0.005494  -0.069543
    12  C    0.627434   0.039745  -0.009208  -0.123703   0.043976  -0.285828
    13  C   -0.551562  -0.029506   0.029858  -0.125466   0.000144  -0.005416
    14  H    0.053538   0.003360  -0.013469  -0.008124  -0.000211  -0.029645
    15  O   -0.001155   0.000149   0.000021   0.001062  -0.000148   0.003826
    16  C   -0.393179  -0.011484   0.013243   0.022204  -0.003991  -0.001424
    17  C   -0.074390  -0.001200   0.001637  -0.001215  -0.000877   0.009321
    18  C    0.020360  -0.003496   0.000469  -0.014916   0.000880  -0.007841
    19  O    0.000001  -0.000004   0.000040   0.000234   0.000008  -0.000191
    20  C   -0.000557   0.000039  -0.000814  -0.000747   0.000001   0.000216
    21  C    0.002165   0.000112  -0.000231   0.001324   0.000000   0.001494
    22  H   -0.009680  -0.000728   0.000682  -0.002117  -0.000009  -0.007704
    23  H   -0.001182  -0.000088   0.000078   0.000158  -0.000005   0.000097
    24  H    0.000072   0.000002  -0.000015   0.000021   0.000001  -0.000015
    25  C   -0.005901  -0.000128  -0.000002  -0.000186  -0.000038   0.000547
    26  H   -0.000007  -0.000006  -0.000015   0.000108   0.000004   0.000390
    27  O    0.000004   0.000000   0.000003   0.000001   0.000000   0.000000
    28  C   -0.000135  -0.000003   0.000013   0.000006   0.000000   0.000005
    29  H    0.000004   0.000000   0.000004  -0.000001   0.000000  -0.000004
    30  H    0.000001   0.000000  -0.000001   0.000000   0.000000   0.000000
    31  H   -0.000017  -0.000001   0.000002  -0.000001   0.000000  -0.000003
               7          8          9         10         11         12
     1  C    0.413324  -0.002928  -0.017130   0.064871   0.009490   0.627434
     2  H   -0.021061   0.004072  -0.002435   0.024972  -0.000965   0.039745
     3  H   -0.052642  -0.000633   0.003297  -0.018663  -0.003123  -0.009208
     4  C    0.011791   0.412396   0.414995  -0.007595  -0.040480  -0.123703
     5  H    0.001648  -0.032565  -0.065314  -0.055481   0.005494   0.043976
     6  N   -0.034084  -0.086638  -0.050756   0.226727  -0.069543  -0.285828
     7  H    0.536227  -0.002859  -0.001625   0.041206   0.003138  -0.075754
     8  H   -0.002859   0.528572  -0.020505   0.050476  -0.007661  -0.021295
     9  H   -0.001625  -0.020505   0.564206  -0.005216   0.000082   0.007747
    10  C    0.041206   0.050476  -0.005216  12.344605   0.206604   1.876975
    11  H    0.003138  -0.007661   0.000082   0.206604   0.473373   0.164195
    12  C   -0.075754  -0.021295   0.007747   1.876975   0.164195  25.980340
    13  C   -0.019155   0.018419   0.001110  -4.555517   0.142805   0.209899
    14  H    0.013612  -0.004778   0.001275  -0.051456   0.000722   1.154925
    15  O    0.000805   0.001127   0.000035   0.201300   0.008375  -0.371219
    16  C    0.016155   0.015367   0.000848  -1.271956  -0.091703 -12.847545
    17  C    0.003000   0.005037  -0.000133  -1.261935  -0.062065  -6.590978
    18  C   -0.008343  -0.003212   0.000413  -1.807420   0.045812  -0.136184
    19  O    0.000027  -0.000049  -0.000001   0.024150  -0.000122  -0.006103
    20  C   -0.000985   0.000255   0.000027  -0.525677  -0.008974  -0.994251
    21  C    0.000094  -0.000063  -0.000073   0.309756   0.000132  -0.710677
    22  H   -0.005099   0.000664  -0.000152  -0.175419   0.002852  -0.351024
    23  H   -0.000011   0.000064   0.000032  -0.009553   0.000486  -0.010468
    24  H   -0.000023   0.000001   0.000001  -0.001604  -0.000235   0.002948
    25  C   -0.000137   0.000162  -0.000004  -0.137414  -0.002247  -1.280386
    26  H    0.000062  -0.000009   0.000005   0.010499  -0.000295   0.035346
    27  O    0.000004   0.000000   0.000000   0.001199   0.000025   0.003379
    28  C    0.000006   0.000002   0.000000   0.002894  -0.000066  -0.019944
    29  H    0.000004   0.000000   0.000000  -0.000109   0.000011  -0.000796
    30  H   -0.000001   0.000000   0.000000   0.000113  -0.000002   0.000046
    31  H    0.000010   0.000000   0.000000  -0.000208   0.000010  -0.001776
              13         14         15         16         17         18
     1  C   -0.551562   0.053538  -0.001155  -0.393179  -0.074390   0.020360
     2  H   -0.029506   0.003360   0.000149  -0.011484  -0.001200  -0.003496
     3  H    0.029858  -0.013469   0.000021   0.013243   0.001637   0.000469
     4  C   -0.125466  -0.008124   0.001062   0.022204  -0.001215  -0.014916
     5  H    0.000144  -0.000211  -0.000148  -0.003991  -0.000877   0.000880
     6  N   -0.005416  -0.029645   0.003826  -0.001424   0.009321  -0.007841
     7  H   -0.019155   0.013612   0.000805   0.016155   0.003000  -0.008343
     8  H    0.018419  -0.004778   0.001127   0.015367   0.005037  -0.003212
     9  H    0.001110   0.001275   0.000035   0.000848  -0.000133   0.000413
    10  C   -4.555517  -0.051456   0.201300  -1.271956  -1.261935  -1.807420
    11  H    0.142805   0.000722   0.008375  -0.091703  -0.062065   0.045812
    12  C    0.209899   1.154925  -0.371219 -12.847545  -6.590978  -0.136184
    13  C   21.964260  -0.138493   0.926553  -0.330769  -4.800889   0.310022
    14  H   -0.138493   0.756238  -0.014854  -0.458557  -0.049348  -0.130339
    15  O    0.926553  -0.014854   8.141643  -0.142174  -0.172764  -0.234755
    16  C   -0.330769  -0.458557  -0.142174  25.981077   4.850925  -4.801863
    17  C   -4.800889  -0.049348  -0.172764   4.850925  17.343529  -5.048142
    18  C    0.310022  -0.130339  -0.234755  -4.801863  -5.048142  16.748079
    19  O   -0.034469  -0.000667   0.013432   0.167491   0.343421  -0.022608
    20  C   -1.721259   0.030481  -0.086228  -3.956030   1.820685   0.709452
    21  C   -1.643047  -0.141534   0.011565  -1.630639  -0.385736   2.079193
    22  H   -0.004079  -0.073491   0.000645  -0.019428  -0.009324   0.762541
    23  H    0.028420  -0.001466   0.067773  -0.174488   0.028022   0.050204
    24  H    0.002375   0.000843   0.000729  -0.148169  -0.069949  -0.007464
    25  C   -2.823334  -0.030513  -0.030153  -1.100655  -0.587746  -0.389708
    26  H    0.029990   0.012357   0.000545   0.091405   0.040206  -0.047138
    27  O   -0.001474  -0.000716  -0.000005   0.033928  -0.082787  -0.002883
    28  C   -0.078619  -0.002234   0.000140  -0.146428   0.066005  -0.215351
    29  H   -0.001268  -0.000707  -0.000013  -0.001415  -0.010080  -0.001527
    30  H   -0.001652   0.000000   0.000010  -0.008219   0.004184  -0.008016
    31  H   -0.002143  -0.000565  -0.000013  -0.001972  -0.011149   0.003029
              19         20         21         22         23         24
     1  C    0.000001  -0.000557   0.002165  -0.009680  -0.001182   0.000072
     2  H   -0.000004   0.000039   0.000112  -0.000728  -0.000088   0.000002
     3  H    0.000040  -0.000814  -0.000231   0.000682   0.000078  -0.000015
     4  C    0.000234  -0.000747   0.001324  -0.002117   0.000158   0.000021
     5  H    0.000008   0.000001   0.000000  -0.000009  -0.000005   0.000001
     6  N   -0.000191   0.000216   0.001494  -0.007704   0.000097  -0.000015
     7  H    0.000027  -0.000985   0.000094  -0.005099  -0.000011  -0.000023
     8  H   -0.000049   0.000255  -0.000063   0.000664   0.000064   0.000001
     9  H   -0.000001   0.000027  -0.000073  -0.000152   0.000032   0.000001
    10  C    0.024150  -0.525677   0.309756  -0.175419  -0.009553  -0.001604
    11  H   -0.000122  -0.008974   0.000132   0.002852   0.000486  -0.000235
    12  C   -0.006103  -0.994251  -0.710677  -0.351024  -0.010468   0.002948
    13  C   -0.034469  -1.721259  -1.643047  -0.004079   0.028420   0.002375
    14  H   -0.000667   0.030481  -0.141534  -0.073491  -0.001466   0.000843
    15  O    0.013432  -0.086228   0.011565   0.000645   0.067773   0.000729
    16  C    0.167491  -3.956030  -1.630639  -0.019428  -0.174488  -0.148169
    17  C    0.343421   1.820685  -0.385736  -0.009324   0.028022  -0.069949
    18  C   -0.022608   0.709452   2.079193   0.762541   0.050204  -0.007464
    19  O    8.101782  -0.502477   0.017501  -0.002552   0.255777  -0.027514
    20  C   -0.502477  14.191663  -3.130915   0.022316   0.080230   0.697119
    21  C    0.017501  -3.130915  10.850303   0.087480   0.015411  -0.069449
    22  H   -0.002552   0.022316   0.087480   0.641587   0.002078  -0.000165
    23  H    0.255777   0.080230   0.015411   0.002078   0.301208   0.003031
    24  H   -0.027514   0.697119  -0.069449  -0.000165   0.003031   0.460006
    25  C   -0.019232   0.492313   0.242298   0.112725  -0.005653  -0.075486
    26  H    0.000454  -0.003239   0.369387  -0.043614   0.000185   0.000137
    27  O   -0.001452  -0.672031   0.287229   0.001266  -0.000521  -0.019928
    28  C   -0.000503   0.109583  -0.231862   0.012758   0.000429   0.004389
    29  H    0.000003  -0.020454   0.035999   0.004201  -0.000039  -0.000742
    30  H    0.000035   0.016736  -0.013063   0.000027   0.000069   0.000501
    31  H   -0.000017  -0.021706   0.039518   0.003651  -0.000037  -0.000635
              25         26         27         28         29         30
     1  C   -0.005901  -0.000007   0.000004  -0.000135   0.000004   0.000001
     2  H   -0.000128  -0.000006   0.000000  -0.000003   0.000000   0.000000
     3  H   -0.000002  -0.000015   0.000003   0.000013   0.000004  -0.000001
     4  C   -0.000186   0.000108   0.000001   0.000006  -0.000001   0.000000
     5  H   -0.000038   0.000004   0.000000   0.000000   0.000000   0.000000
     6  N    0.000547   0.000390   0.000000   0.000005  -0.000004   0.000000
     7  H   -0.000137   0.000062   0.000004   0.000006   0.000004  -0.000001
     8  H    0.000162  -0.000009   0.000000   0.000002   0.000000   0.000000
     9  H   -0.000004   0.000005   0.000000   0.000000   0.000000   0.000000
    10  C   -0.137414   0.010499   0.001199   0.002894  -0.000109   0.000113
    11  H   -0.002247  -0.000295   0.000025  -0.000066   0.000011  -0.000002
    12  C   -1.280386   0.035346   0.003379  -0.019944  -0.000796   0.000046
    13  C   -2.823334   0.029990  -0.001474  -0.078619  -0.001268  -0.001652
    14  H   -0.030513   0.012357  -0.000716  -0.002234  -0.000707   0.000000
    15  O   -0.030153   0.000545  -0.000005   0.000140  -0.000013   0.000010
    16  C   -1.100655   0.091405   0.033928  -0.146428  -0.001415  -0.008219
    17  C   -0.587746   0.040206  -0.082787   0.066005  -0.010080   0.004184
    18  C   -0.389708  -0.047138  -0.002883  -0.215351  -0.001527  -0.008016
    19  O   -0.019232   0.000454  -0.001452  -0.000503   0.000003   0.000035
    20  C    0.492313  -0.003239  -0.672031   0.109583  -0.020454   0.016736
    21  C    0.242298   0.369387   0.287229  -0.231862   0.035999  -0.013063
    22  H    0.112725  -0.043614   0.001266   0.012758   0.004201   0.000027
    23  H   -0.005653   0.000185  -0.000521   0.000429  -0.000039   0.000069
    24  H   -0.075486   0.000137  -0.019928   0.004389  -0.000742   0.000501
    25  C   12.038103  -0.198776   0.351033   0.236853  -0.024339   0.051959
    26  H   -0.198776   0.527168  -0.022371  -0.026603  -0.015761   0.003889
    27  O    0.351033  -0.022371   8.188178   0.196164  -0.029609  -0.069933
    28  C    0.236853  -0.026603   0.196164   5.269848   0.409890   0.392760
    29  H   -0.024339  -0.015761  -0.029609   0.409890   0.577753  -0.019778
    30  H    0.051959   0.003889  -0.069933   0.392760  -0.019778   0.454719
    31  H   -0.025959  -0.015243  -0.030382   0.409342  -0.063226  -0.020527
              31
     1  C   -0.000017
     2  H   -0.000001
     3  H    0.000002
     4  C   -0.000001
     5  H    0.000000
     6  N   -0.000003
     7  H    0.000010
     8  H    0.000000
     9  H    0.000000
    10  C   -0.000208
    11  H    0.000010
    12  C   -0.001776
    13  C   -0.002143
    14  H   -0.000565
    15  O   -0.000013
    16  C   -0.001972
    17  C   -0.011149
    18  C    0.003029
    19  O   -0.000017
    20  C   -0.021706
    21  C    0.039518
    22  H    0.003651
    23  H   -0.000037
    24  H   -0.000635
    25  C   -0.025959
    26  H   -0.015243
    27  O   -0.030382
    28  C    0.409342
    29  H   -0.063226
    30  H   -0.020527
    31  H    0.579126
 Mulliken charges:
               1
     1  C   -0.437266
     2  H    0.189922
     3  H    0.190113
     4  C   -0.308428
     5  H    0.186874
     6  N    0.125009
     7  H    0.180665
     8  H    0.146581
     9  H    0.169272
    10  C    0.498876
    11  H    0.223873
    12  C   -0.309819
    13  C   -0.795737
    14  H    0.123814
    15  O   -0.326254
    16  C    2.349443
    17  C    0.704735
    18  C   -1.839246
    19  O   -0.306396
    20  C   -0.524773
    21  C   -0.393671
    22  H    0.049112
    23  H    0.369760
    24  H    0.249217
    25  C   -0.787992
    26  H    0.250938
    27  O   -0.128322
    28  C   -0.389338
    29  H    0.161999
    30  H    0.216143
    31  H    0.160893
 Sum of Mulliken charges =   0.00000
 Mulliken charges with hydrogens summed into heavy atoms:
               1
     1  C    0.123435
     4  C    0.194299
     6  N    0.125009
    10  C    0.722749
    12  C   -0.186004
    13  C   -0.795737
    15  O   -0.326254
    16  C    2.349443
    17  C    0.704735
    18  C   -1.790135
    19  O    0.063364
    20  C   -0.275556
    21  C   -0.142733
    25  C   -0.787992
    27  O   -0.128322
    28  C    0.149697
 Electronic spatial extent (au):  <R**2>=           5724.5416
 Charge=              0.0000 electrons
 Dipole moment (field-independent basis, Debye):
    X=             -4.4122    Y=             -6.0537    Z=             -0.1949  Tot=              7.4935
 Quadrupole moment (field-independent basis, Debye-Ang):
   XX=            -61.4339   YY=            -94.8002   ZZ=            -99.0752
   XY=             -4.4904   XZ=              0.6339   YZ=             -0.2855
 Traceless Quadrupole moment (field-independent basis, Debye-Ang):
   XX=             23.6692   YY=             -9.6971   ZZ=            -13.9721
   XY=             -4.4904   XZ=              0.6339   YZ=             -0.2855
 Octapole moment (field-independent basis, Debye-Ang**2):
  XXX=           -114.8132  YYY=            -31.9803  ZZZ=             -0.7013  XYY=              0.9298
  XXY=            -61.0379  XXZ=             -4.4041  XZZ=             -1.4895  YZZ=              2.6650
  YYZ=              0.3317  XYZ=              1.7108
 Hexadecapole moment (field-independent basis, Debye-Ang**3):
 XXXX=          -5108.1643 YYYY=          -1201.4446 ZZZZ=           -129.2383 XXXY=           -146.0208
 XXXZ=              7.7794 YYYX=            -34.7789 YYYZ=             -1.8164 ZZZX=              3.2860
 ZZZY=              0.6569 XXYY=          -1089.0665 XXZZ=          -1087.9465 YYZZ=           -219.9254
 XXYZ=             -4.7631 YYXZ=             -4.3739 ZZXY=             -1.7821
 N-N= 1.047396047356D+03 E-N=-3.837657908486D+03  KE= 7.437828363244D+02
 1\1\GINC-DN52\FOpt\RwB97XD\6-311++G(d,p)\C12H15N1O3\CA12053\18-Oct-201
 6\0\\# wb97xd 6-311++g** opt\\Geom Opt s0\\0,1\C,3.666802186,1.6388632
 261,0.2994840829\H,4.7056905543,1.9312806991,0.452139733\H,3.250995484
 5,2.2346791465,-0.5226710145\C,4.8249902604,-0.4408326703,-0.401945801
 3\H,5.1890646357,-0.049292834,-1.3591353873\N,3.604025453,0.2219270716
 ,0.0121213902\H,3.1064936458,1.866773561,1.2107828422\H,4.639153745,-1
 .508835586,-0.5141518102\H,5.6069681099,-0.3044343083,0.350397946\C,2.
 4135023149,-0.3960306255,-0.084261833\H,2.452452271,-1.4530769622,-0.3
 310548016\C,1.1850044149,0.1554583888,0.1032496224\C,0.0206812677,-0.7
 05596019,-0.0149764221\H,1.0728995181,1.2051428453,0.3274627254\O,0.15
 62457084,-1.9207965086,-0.2505354747\C,-1.3410371282,-0.1481366744,0.1
 402066456\C,-2.4674301869,-1.0100178076,0.040395463\C,-1.5903665356,1.
 20617947,0.3844830565\O,-2.3434098833,-2.3159713557,-0.1941591074\C,-3
 .7549116743,-0.5038881491,0.1883379172\C,-2.8652170341,1.7193529233,0.
 5300920196\H,-0.7607854101,1.8970637941,0.462839592\H,-1.3744918601,-2
 .4904728844,-0.2759412093\H,-4.6015966233,-1.1734054625,0.1107712023\C
 ,-3.9576684261,0.8463488721,0.4307325501\H,-2.9974349069,2.7759109845,
 0.7163558039\O,-5.2467048937,1.2335877991,0.5564787522\C,-5.524824059,
 2.5961106487,0.8001859812\H,-5.1636040001,3.2303214372,-0.0166111477\H
 ,-6.6091029663,2.6722750659,0.8608963031\H,-5.0856919916,2.9311151941,
 1.7461666805\\Version=ES64L-G09RevD.01\State=1-A\HF=-746.674904\RMSD=9
 .047e-09\RMSF=3.253e-06\Dipole=2.0359164,2.1220989,0.2084881\Quadrupol
 e=16.1412875,-6.2144012,-9.9268862,-6.1000421,-2.8874077,1.3389363\PG=
 C01 [X(C12H15N1O3)]\\@


 SLITHERY-DITHERY
 FRIEDRICH A. KEKULE
 DREAMT ON A BUS OF THINGS
 FREUD WOULD THINK KEEN.
 MOST OF THE TIME THEY WERE
 HERPETOLOGICAL
 BITING THEIR TAILS IN THE
 SHAPE OF BENZENE.
 Job cpu time:       0 days 22 hours 40 minutes  8.0 seconds.
 File lengths (MBytes):  RWF=    125 Int=      0 D2E=      0 Chk=     15 Scr=      1
 Normal termination of Gaussian 09 at Tue Oct 18 21:37:06 2016.
