 Entering Gaussian System, Link 0=g09
 Input=3_optS1_rotated.com
 Output=3_optS1_rotated.out
 Initial command:
 /share/apps/gaussian/g09_D01/g09/l1.exe "/tmp/4030279.1.chemistry.q/Gau-25848.inp" -scrdir="/tmp/4030279.1.chemistry.q/"
 Entering Link 1 = /share/apps/gaussian/g09_D01/g09/l1.exe PID=     25849.
  
 Copyright (c) 1988,1990,1992,1993,1995,1998,2003,2009,2013,
            Gaussian, Inc.  All Rights Reserved.
  
 This is part of the Gaussian(R) 09 program.  It is based on
 the Gaussian(R) 03 system (copyright 2003, Gaussian, Inc.),
 the Gaussian(R) 98 system (copyright 1998, Gaussian, Inc.),
 the Gaussian(R) 94 system (copyright 1995, Gaussian, Inc.),
 the Gaussian 92(TM) system (copyright 1992, Gaussian, Inc.),
 the Gaussian 90(TM) system (copyright 1990, Gaussian, Inc.),
 the Gaussian 88(TM) system (copyright 1988, Gaussian, Inc.),
 the Gaussian 86(TM) system (copyright 1986, Carnegie Mellon
 University), and the Gaussian 82(TM) system (copyright 1983,
 Carnegie Mellon University). Gaussian is a federally registered
 trademark of Gaussian, Inc.
  
 This software contains proprietary and confidential information,
 including trade secrets, belonging to Gaussian, Inc.
  
 This software is provided under written license and may be
 used, copied, transmitted, or stored only in accord with that
 written license.
  
 The following legend is applicable only to US Government
 contracts under FAR:
  
                    RESTRICTED RIGHTS LEGEND
  
 Use, reproduction and disclosure by the US Government is
 subject to restrictions as set forth in subparagraphs (a)
 and (c) of the Commercial Computer Software - Restricted
 Rights clause in FAR 52.227-19.
  
 Gaussian, Inc.
 340 Quinnipiac St., Bldg. 40, Wallingford CT 06492
  
  
 ---------------------------------------------------------------
 Warning -- This program may not be used in any manner that
 competes with the business of Gaussian, Inc. or will provide
 assistance to any competitor of Gaussian, Inc.  The licensee
 of this program is prohibited from giving any competitor of
 Gaussian, Inc. access to this program.  By using this program,
 the user acknowledges that Gaussian, Inc. is engaged in the
 business of creating and licensing software in the field of
 computational chemistry and represents and warrants to the
 licensee that it is not a competitor of Gaussian, Inc. and that
 it will not use this program in any manner prohibited above.
 ---------------------------------------------------------------
  

 Cite this work as:
 Gaussian 09, Revision D.01,
 M. J. Frisch, G. W. Trucks, H. B. Schlegel, G. E. Scuseria, 
 M. A. Robb, J. R. Cheeseman, G. Scalmani, V. Barone, B. Mennucci, 
 G. A. Petersson, H. Nakatsuji, M. Caricato, X. Li, H. P. Hratchian, 
 A. F. Izmaylov, J. Bloino, G. Zheng, J. L. Sonnenberg, M. Hada, 
 M. Ehara, K. Toyota, R. Fukuda, J. Hasegawa, M. Ishida, T. Nakajima, 
 Y. Honda, O. Kitao, H. Nakai, T. Vreven, J. A. Montgomery, Jr., 
 J. E. Peralta, F. Ogliaro, M. Bearpark, J. J. Heyd, E. Brothers, 
 K. N. Kudin, V. N. Staroverov, T. Keith, R. Kobayashi, J. Normand, 
 K. Raghavachari, A. Rendell, J. C. Burant, S. S. Iyengar, J. Tomasi, 
 M. Cossi, N. Rega, J. M. Millam, M. Klene, J. E. Knox, J. B. Cross, 
 V. Bakken, C. Adamo, J. Jaramillo, R. Gomperts, R. E. Stratmann, 
 O. Yazyev, A. J. Austin, R. Cammi, C. Pomelli, J. W. Ochterski, 
 R. L. Martin, K. Morokuma, V. G. Zakrzewski, G. A. Voth, 
 P. Salvador, J. J. Dannenberg, S. Dapprich, A. D. Daniels, 
 O. Farkas, J. B. Foresman, J. V. Ortiz, J. Cioslowski, 
 and D. J. Fox, Gaussian, Inc., Wallingford CT, 2013.
 
 ******************************************
 Gaussian 09:  ES64L-G09RevD.01 24-Apr-2013
                19-Jul-2017 
 ******************************************
 %chk=3_optS1_rotated.chk
 %mem=28GB
 %nproc=4
 Will use up to    4 processors via shared memory.
 ---------------------------------------------
 # wb97xd 6-311++g** opt td=(nstates=1,root=1)
 ---------------------------------------------
 1/14=-1,18=20,19=15,26=3,38=1/1,3;
 2/9=110,12=2,17=6,18=5,40=1/2;
 3/5=4,6=6,7=1111,11=9,16=1,25=1,30=1,71=1,74=-58/1,2,8,3;
 4//1;
 5/5=2,38=5/2;
 8/6=1,10=2,107=1,108=1/1;
 9/8=1,15=2,41=1,42=1,70=2/14;
 10/5=4/2;
 6/7=2,8=2,9=2,10=2/1;
 7/12=6,13=5,14=1/1,2,3,16;
 1/14=-1,18=20,19=15,26=3/3(2);
 2/9=110/2;
 99//99;
 2/9=110/2;
 3/5=4,6=6,7=1111,11=9,16=1,25=1,30=1,71=1,74=-58/1,2,8,3;
 4/5=5,16=3,69=1/1;
 5/5=2,38=5/2;
 8/6=1,10=2,107=1,108=1/1;
 9/8=1,15=2,41=1,42=1,49=4,70=2/14;
 10/5=4/2;
 7/12=6,13=5,14=1/1,2,3,16;
 1/14=-1,18=20,19=15,26=3/3(-8);
 2/9=110/2;
 6/7=2,8=2,9=2,10=2/1;
 99//99;
 ----------------------
 restarted optimization
 ----------------------
 Symbolic Z-matrix:
 Charge =  0 Multiplicity = 1
 C                     3.3547    0.23318   2.6104 
 H                     4.29598   0.17746   3.15719 
 H                     3.18148   1.27525   2.31387 
 C                     4.72047  -1.09109   1.01681 
 H                     5.33762  -0.25233   0.67378 
 N                     3.41512  -0.64255   1.45989 
 H                     2.54728  -0.07541   3.28062 
 H                     4.60312  -1.79336   0.1917 
 H                     5.24525  -1.59999   1.83029 
 C                     2.32085  -0.84178   0.70398 
 H                     2.4574   -1.48937  -0.15727 
 C                     1.07724  -0.33233   0.9099 
 C                     0.02068  -0.7056   -0.01498 
 H                     0.87752   0.33665   1.73285 
 O                     0.25042  -1.49628  -0.94912 
 C                    -1.34104  -0.14814   0.14021 
 C                    -2.2927   -0.83452   0.94319 
 C                    -1.75578   1.03999  -0.46999 
 O                    -2.00384  -1.97656   1.56626 
 C                    -3.57628  -0.32244   1.10405 
 C                    -3.02904   1.55553  -0.31895 
 H                    -1.06343   1.59101  -1.09346 
 H                    -1.06655  -2.18688   1.33563 
 H                    -4.28848  -0.85638   1.71953 
 C                    -3.94622   0.86017   0.4815 
 H                    -3.29405   2.478    -0.81625 
 O                    -5.21598   1.26806   0.70223 
 C                    -5.6598    2.46275   0.09482 
 H                    -5.61705   2.39578  -0.99768 
 H                    -6.69538   2.58806   0.40629 
 H                    -5.07425   3.32476   0.43247 
 

 GradGradGradGradGradGradGradGradGradGradGradGradGradGradGradGradGradGrad
 Berny optimization.
 Initialization pass.
                           ----------------------------
                           !    Initial Parameters    !
                           ! (Angstroms and Degrees)  !
 --------------------------                            --------------------------
 ! Name  Definition              Value          Derivative Info.                !
 --------------------------------------------------------------------------------
 ! R1    R(1,2)                  1.09           estimate D2E/DX2                !
 ! R2    R(1,3)                  1.0972         estimate D2E/DX2                !
 ! R3    R(1,6)                  1.4471         estimate D2E/DX2                !
 ! R4    R(1,7)                  1.0938         estimate D2E/DX2                !
 ! R5    R(4,5)                  1.0964         estimate D2E/DX2                !
 ! R6    R(4,6)                  1.4496         estimate D2E/DX2                !
 ! R7    R(4,8)                  1.0898         estimate D2E/DX2                !
 ! R8    R(4,9)                  1.0937         estimate D2E/DX2                !
 ! R9    R(6,10)                 1.3448         estimate D2E/DX2                !
 ! R10   R(10,11)                1.0862         estimate D2E/DX2                !
 ! R11   R(10,12)                1.3596         estimate D2E/DX2                !
 ! R12   R(12,13)                1.4529         estimate D2E/DX2                !
 ! R13   R(12,14)                1.0792         estimate D2E/DX2                !
 ! R14   R(13,15)                1.2452         estimate D2E/DX2                !
 ! R15   R(13,16)                1.4796         estimate D2E/DX2                !
 ! R16   R(16,17)                1.4218         estimate D2E/DX2                !
 ! R17   R(16,18)                1.3986         estimate D2E/DX2                !
 ! R18   R(17,19)                1.3326         estimate D2E/DX2                !
 ! R19   R(17,20)                1.3913         estimate D2E/DX2                !
 ! R20   R(18,21)                1.382          estimate D2E/DX2                !
 ! R21   R(18,22)                1.0824         estimate D2E/DX2                !
 ! R22   R(19,23)                0.9879         estimate D2E/DX2                !
 ! R23   R(20,24)                1.0822         estimate D2E/DX2                !
 ! R24   R(20,25)                1.3867         estimate D2E/DX2                !
 ! R25   R(21,25)                1.4019         estimate D2E/DX2                !
 ! R26   R(21,26)                1.081          estimate D2E/DX2                !
 ! R27   R(25,27)                1.3518         estimate D2E/DX2                !
 ! R28   R(27,28)                1.4118         estimate D2E/DX2                !
 ! R29   R(28,29)                1.0954         estimate D2E/DX2                !
 ! R30   R(28,30)                1.0886         estimate D2E/DX2                !
 ! R31   R(28,31)                1.0954         estimate D2E/DX2                !
 ! A1    A(2,1,3)              108.691          estimate D2E/DX2                !
 ! A2    A(2,1,6)              109.3798         estimate D2E/DX2                !
 ! A3    A(2,1,7)              108.4007         estimate D2E/DX2                !
 ! A4    A(3,1,6)              111.4978         estimate D2E/DX2                !
 ! A5    A(3,1,7)              108.483          estimate D2E/DX2                !
 ! A6    A(6,1,7)              110.3187         estimate D2E/DX2                !
 ! A7    A(5,4,6)              111.4559         estimate D2E/DX2                !
 ! A8    A(5,4,8)              108.4635         estimate D2E/DX2                !
 ! A9    A(5,4,9)              108.5784         estimate D2E/DX2                !
 ! A10   A(6,4,8)              109.5006         estimate D2E/DX2                !
 ! A11   A(6,4,9)              110.4081         estimate D2E/DX2                !
 ! A12   A(8,4,9)              108.3585         estimate D2E/DX2                !
 ! A13   A(1,6,4)              117.8934         estimate D2E/DX2                !
 ! A14   A(1,6,10)             120.1693         estimate D2E/DX2                !
 ! A15   A(4,6,10)             121.0021         estimate D2E/DX2                !
 ! A16   A(6,10,11)            115.5774         estimate D2E/DX2                !
 ! A17   A(6,10,12)            127.1307         estimate D2E/DX2                !
 ! A18   A(11,10,12)           117.2896         estimate D2E/DX2                !
 ! A19   A(10,12,13)           118.1952         estimate D2E/DX2                !
 ! A20   A(10,12,14)           121.1343         estimate D2E/DX2                !
 ! A21   A(13,12,14)           120.6693         estimate D2E/DX2                !
 ! A22   A(12,13,15)           120.4304         estimate D2E/DX2                !
 ! A23   A(12,13,16)           120.3783         estimate D2E/DX2                !
 ! A24   A(15,13,16)           119.1912         estimate D2E/DX2                !
 ! A25   A(13,16,17)           119.562          estimate D2E/DX2                !
 ! A26   A(13,16,18)           123.1781         estimate D2E/DX2                !
 ! A27   A(17,16,18)           117.26           estimate D2E/DX2                !
 ! A28   A(16,17,19)           122.1864         estimate D2E/DX2                !
 ! A29   A(16,17,20)           120.3399         estimate D2E/DX2                !
 ! A30   A(19,17,20)           117.4736         estimate D2E/DX2                !
 ! A31   A(16,18,21)           122.8506         estimate D2E/DX2                !
 ! A32   A(16,18,22)           119.6094         estimate D2E/DX2                !
 ! A33   A(21,18,22)           117.5398         estimate D2E/DX2                !
 ! A34   A(17,19,23)           106.1975         estimate D2E/DX2                !
 ! A35   A(17,20,24)           119.4275         estimate D2E/DX2                !
 ! A36   A(17,20,25)           120.5377         estimate D2E/DX2                !
 ! A37   A(24,20,25)           120.0346         estimate D2E/DX2                !
 ! A38   A(18,21,25)           118.6947         estimate D2E/DX2                !
 ! A39   A(18,21,26)           119.6002         estimate D2E/DX2                !
 ! A40   A(25,21,26)           121.705          estimate D2E/DX2                !
 ! A41   A(20,25,21)           120.3166         estimate D2E/DX2                !
 ! A42   A(20,25,27)           115.7602         estimate D2E/DX2                !
 ! A43   A(21,25,27)           123.9232         estimate D2E/DX2                !
 ! A44   A(25,27,28)           118.7092         estimate D2E/DX2                !
 ! A45   A(27,28,29)           111.4132         estimate D2E/DX2                !
 ! A46   A(27,28,30)           105.8637         estimate D2E/DX2                !
 ! A47   A(27,28,31)           111.4227         estimate D2E/DX2                !
 ! A48   A(29,28,30)           109.2397         estimate D2E/DX2                !
 ! A49   A(29,28,31)           109.5533         estimate D2E/DX2                !
 ! A50   A(30,28,31)           109.2516         estimate D2E/DX2                !
 ! D1    D(2,1,6,4)            -17.4568         estimate D2E/DX2                !
 ! D2    D(2,1,6,10)           173.4973         estimate D2E/DX2                !
 ! D3    D(3,1,6,4)            102.7857         estimate D2E/DX2                !
 ! D4    D(3,1,6,10)           -66.2603         estimate D2E/DX2                !
 ! D5    D(7,1,6,4)           -136.6052         estimate D2E/DX2                !
 ! D6    D(7,1,6,10)            54.3488         estimate D2E/DX2                !
 ! D7    D(5,4,6,1)            -63.9038         estimate D2E/DX2                !
 ! D8    D(5,4,6,10)           105.0464         estimate D2E/DX2                !
 ! D9    D(8,4,6,1)            176.0849         estimate D2E/DX2                !
 ! D10   D(8,4,6,10)           -14.9648         estimate D2E/DX2                !
 ! D11   D(9,4,6,1)             56.8585         estimate D2E/DX2                !
 ! D12   D(9,4,6,10)          -134.1913         estimate D2E/DX2                !
 ! D13   D(1,6,10,11)          178.265          estimate D2E/DX2                !
 ! D14   D(1,6,10,12)           -2.3042         estimate D2E/DX2                !
 ! D15   D(4,6,10,11)            9.5643         estimate D2E/DX2                !
 ! D16   D(4,6,10,12)         -171.0049         estimate D2E/DX2                !
 ! D17   D(6,10,12,13)        -178.3493         estimate D2E/DX2                !
 ! D18   D(6,10,12,14)           2.0525         estimate D2E/DX2                !
 ! D19   D(11,10,12,13)          1.0731         estimate D2E/DX2                !
 ! D20   D(11,10,12,14)       -178.5252         estimate D2E/DX2                !
 ! D21   D(10,12,13,15)          1.6684         estimate D2E/DX2                !
 ! D22   D(10,12,13,16)       -178.1962         estimate D2E/DX2                !
 ! D23   D(14,12,13,15)       -178.7314         estimate D2E/DX2                !
 ! D24   D(14,12,13,16)          1.404          estimate D2E/DX2                !
 ! D25   D(12,13,16,17)        -90.1338         estimate D2E/DX2                !
 ! D26   D(12,13,16,18)         89.8716         estimate D2E/DX2                !
 ! D27   D(15,13,16,17)         90.0            estimate D2E/DX2                !
 ! D28   D(15,13,16,18)        -89.9946         estimate D2E/DX2                !
 ! D29   D(13,16,17,19)         -0.1971         estimate D2E/DX2                !
 ! D30   D(13,16,17,20)        179.773          estimate D2E/DX2                !
 ! D31   D(18,16,17,19)        179.7978         estimate D2E/DX2                !
 ! D32   D(18,16,17,20)         -0.232          estimate D2E/DX2                !
 ! D33   D(13,16,18,21)       -179.9111         estimate D2E/DX2                !
 ! D34   D(13,16,18,22)          0.2841         estimate D2E/DX2                !
 ! D35   D(17,16,18,21)          0.0941         estimate D2E/DX2                !
 ! D36   D(17,16,18,22)       -179.7106         estimate D2E/DX2                !
 ! D37   D(16,17,19,23)         -0.422          estimate D2E/DX2                !
 ! D38   D(20,17,19,23)        179.6071         estimate D2E/DX2                !
 ! D39   D(16,17,20,24)       -179.9243         estimate D2E/DX2                !
 ! D40   D(16,17,20,25)          0.1957         estimate D2E/DX2                !
 ! D41   D(19,17,20,24)          0.0472         estimate D2E/DX2                !
 ! D42   D(19,17,20,25)       -179.8328         estimate D2E/DX2                !
 ! D43   D(16,18,21,25)          0.0818         estimate D2E/DX2                !
 ! D44   D(16,18,21,26)       -179.9096         estimate D2E/DX2                !
 ! D45   D(22,18,21,25)        179.8903         estimate D2E/DX2                !
 ! D46   D(22,18,21,26)         -0.1011         estimate D2E/DX2                !
 ! D47   D(17,20,25,21)         -0.0134         estimate D2E/DX2                !
 ! D48   D(17,20,25,27)        179.9181         estimate D2E/DX2                !
 ! D49   D(24,20,25,21)       -179.8926         estimate D2E/DX2                !
 ! D50   D(24,20,25,27)          0.0389         estimate D2E/DX2                !
 ! D51   D(18,21,25,20)         -0.1243         estimate D2E/DX2                !
 ! D52   D(18,21,25,27)        179.95           estimate D2E/DX2                !
 ! D53   D(26,21,25,20)        179.8669         estimate D2E/DX2                !
 ! D54   D(26,21,25,27)         -0.0588         estimate D2E/DX2                !
 ! D55   D(20,25,27,28)       -179.8063         estimate D2E/DX2                !
 ! D56   D(21,25,27,28)          0.1224         estimate D2E/DX2                !
 ! D57   D(25,27,28,29)         61.2022         estimate D2E/DX2                !
 ! D58   D(25,27,28,30)        179.849          estimate D2E/DX2                !
 ! D59   D(25,27,28,31)        -61.4847         estimate D2E/DX2                !
 --------------------------------------------------------------------------------
 Trust Radius=3.00D-01 FncErr=1.00D-07 GrdErr=1.00D-06
 Number of steps in this run=    150 maximum allowed number of steps=    186.
 GradGradGradGradGradGradGradGradGradGradGradGradGradGradGradGradGradGrad

                          Input orientation:                          
 ---------------------------------------------------------------------
 Center     Atomic      Atomic             Coordinates (Angstroms)
 Number     Number       Type             X           Y           Z
 ---------------------------------------------------------------------
      1          6           0        3.354700    0.233183    2.610397
      2          1           0        4.295984    0.177459    3.157190
      3          1           0        3.181479    1.275246    2.313870
      4          6           0        4.720472   -1.091089    1.016813
      5          1           0        5.337621   -0.252327    0.673782
      6          7           0        3.415117   -0.642547    1.459887
      7          1           0        2.547284   -0.075414    3.280622
      8          1           0        4.603118   -1.793355    0.191704
      9          1           0        5.245246   -1.599988    1.830293
     10          6           0        2.320850   -0.841783    0.703982
     11          1           0        2.457398   -1.489372   -0.157269
     12          6           0        1.077240   -0.332331    0.909900
     13          6           0        0.020681   -0.705596   -0.014976
     14          1           0        0.877519    0.336655    1.732850
     15          8           0        0.250424   -1.496278   -0.949117
     16          6           0       -1.341037   -0.148137    0.140207
     17          6           0       -2.292701   -0.834520    0.943187
     18          6           0       -1.755777    1.039994   -0.469993
     19          8           0       -2.003841   -1.976556    1.566261
     20          6           0       -3.576276   -0.322442    1.104049
     21          6           0       -3.029042    1.555525   -0.318951
     22          1           0       -1.063435    1.591011   -1.093460
     23          1           0       -1.066550   -2.186877    1.335628
     24          1           0       -4.288479   -0.856383    1.719532
     25          6           0       -3.946223    0.860174    0.481501
     26          1           0       -3.294051    2.477999   -0.816246
     27          8           0       -5.215983    1.268061    0.702228
     28          6           0       -5.659803    2.462752    0.094817
     29          1           0       -5.617053    2.395776   -0.997679
     30          1           0       -6.695384    2.588065    0.406290
     31          1           0       -5.074251    3.324763    0.432471
 ---------------------------------------------------------------------
                    Distance matrix (angstroms):
                    1          2          3          4          5
     1  C    0.000000
     2  H    1.090001   0.000000
     3  H    1.097192   1.777202   0.000000
     4  C    2.481640   2.524009   3.106509   0.000000
     5  H    2.813925   2.727094   3.110035   1.096387   0.000000
     6  N    1.447144   2.080667   2.112298   1.449641   2.113352
     7  H    1.093780   1.771195   1.777948   3.298359   3.822681
     8  H    3.393447   3.573871   3.992613   1.089842   1.773884
     9  H    2.746496   2.412690   3.572108   1.093671   1.778270
    10  C    2.420499   3.310323   2.795395   2.432736   3.073968
    11  H    3.381171   4.140575   3.778086   2.580426   3.242932
    12  C    2.897985   3.958599   2.997208   3.722940   4.267669
    13  C    4.346213   5.396354   4.397488   4.827135   5.380492
    14  H    2.630061   3.706749   2.554754   4.161665   4.621800
    15  O    5.029682   6.002475   5.188402   4.900040   5.482772
    16  C    5.319510   6.401890   5.215743   6.196732   6.700748
    17  C    5.984373   7.024008   6.024660   7.018251   7.657241
    18  C    6.021356   7.108040   5.672894   6.978102   7.300316
    19  O    5.889578   6.845337   6.166091   6.804582   7.593850
    20  C    7.114509   8.150937   7.048654   8.332735   8.924551
    21  C    7.147156   8.224271   6.751361   8.297217   8.617128
    22  H    5.923020   6.984949   5.452420   6.715690   6.891629
    23  H    5.198959   6.137177   5.566777   5.898476   6.722643
    24  H    7.771678   8.765197   7.790850   9.039364   9.701560
    25  C    7.630779   8.692490   7.371159   8.899752   9.352239
    26  H    7.809416   8.870699   7.292237   8.962761   9.175000
    27  O    8.841305   9.884015   8.550719  10.217519  10.662595
    28  C    9.620831  10.663882   9.192531  11.010449  11.342407
    29  H    9.908954  10.975070   9.467634  11.094180  11.393468
    30  H   10.554987  11.583982  10.144692  12.009608  12.366592
    31  H    9.238422  10.253337   8.711903  10.760010  11.011852
                    6          7          8          9         10
     6  N    0.000000
     7  H    2.095197   0.000000
     8  H    2.084225   4.088911   0.000000
     9  H    2.098397   3.421517   1.770507   0.000000
    10  C    1.344807   2.697715   2.525206   3.224212   0.000000
    11  H    2.061438   3.718393   2.195062   3.425599   1.086172
    12  C    2.421649   2.801313   3.883582   4.452679   1.359599
    13  C    3.701539   4.200216   4.714304   5.612578   2.413757
    14  H    2.733633   2.313766   4.559843   4.778820   2.128495
    15  O    4.067854   5.018477   4.509509   5.717003   2.729059
    16  C    4.960543   4.998653   6.167850   6.952941   3.769403
    17  C    5.734372   5.428195   7.002601   7.628470   4.619754
    18  C    5.770054   5.816148   6.992943   7.827844   4.640925
    19  O    5.581756   5.221696   6.750917   7.263662   4.553481
    20  C    7.007757   6.503575   8.360529   8.943087   5.933453
    21  C    7.037256   6.834640   8.350188   9.112648   5.951035
    22  H    5.618343   5.911586   6.724239   7.650507   4.539015
    23  H    4.741912   4.615308   5.797289   6.358294   3.699018
    24  H    7.710935   7.055109   9.070428   9.563321   6.686911
    25  C    7.576590   7.132743   8.956362   9.610137   6.497873
    26  H    7.741545   7.577958   9.034695   9.826176   6.697698
    27  O    8.872448   8.289834  10.297944  10.905757   7.826576
    28  C    9.688161   9.162310  11.110868  11.765960   8.659206
    29  H    9.841297   9.542905  11.109246  11.914407   8.740008
    30  H   10.666262  10.039065  12.120191  12.733665   9.651163
    31  H    9.426796   8.818218  10.950095  11.519509   8.492428
                   11         12         13         14         15
    11  H    0.000000
    12  C    2.093425   0.000000
    13  C    2.563619   1.452942   0.000000
    14  H    3.066422   1.079202   2.208020   0.000000
    15  O    2.344740   2.344001   1.245223   3.308449   0.000000
    16  C    4.039247   2.544488   1.479567   2.773720   2.353053
    17  C    4.919683   3.407317   2.507276   3.470665   3.238244
    18  C    4.924057   3.437058   2.531783   3.504490   3.269109
    19  O    4.807344   3.553498   2.866067   3.698775   3.411672
    20  C    6.273586   4.657575   3.786440   4.545997   4.498557
    21  C    6.276829   4.683549   3.808659   4.577854   4.523883
    22  H    4.770899   3.506449   2.759137   3.650854   3.358335
    23  H    3.890175   2.866430   2.280438   3.210203   2.726061
    24  H    7.030641   5.451704   4.647592   5.301985   5.304035
    25  C    6.850895   5.180808   4.293536   5.010831   5.021093
    26  H    7.018081   5.475922   4.665272   5.337157   5.326898
    27  O    8.198960   6.496848   5.642017   6.249836   6.344298
    28  C    9.031710   7.339251   6.505258   7.066825   7.189889
    29  H    8.999857   7.476295   6.509090   7.339975   7.041145
    30  H   10.035762   8.318415   7.492076   8.011084   8.170877
    31  H    8.958205   7.172386   6.511708   6.785524   7.314601
                   16         17         18         19         20
    16  C    0.000000
    17  C    1.421817   0.000000
    18  C    1.398574   2.408146   0.000000
    19  O    2.411650   1.332633   3.647937   0.000000
    20  C    2.440424   1.391282   2.765512   2.328580   0.000000
    21  C    2.441855   2.801340   1.381952   4.132876   2.418916
    22  H    2.150263   3.397385   1.082436   4.548188   3.847690
    23  H    2.379251   1.867171   3.761382   0.987897   3.135040
    24  H    3.418083   2.141569   3.847706   2.549088   1.082195
    25  C    2.814279   2.412317   2.394939   3.605078   1.386725
    26  H    3.409642   3.882150   2.134019   5.213832   3.407295
    27  O    4.163735   3.608944   3.660484   4.646714   2.319439
    28  C    5.046835   4.788435   4.193408   5.936217   3.621732
    29  H    5.103978   5.025244   4.126263   6.224658   3.996340
    30  H    6.018857   5.602317   5.250154   6.647697   4.322818
    31  H    5.107185   5.029660   4.128787   6.230320   3.999632
                   21         22         23         24         25
    21  C    0.000000
    22  H    2.112993   0.000000
    23  H    4.538126   4.491427   0.000000
    24  H    3.399837   4.929865   3.506910   0.000000
    25  C    1.401948   3.365278   4.278617   2.143928   0.000000
    26  H    1.080967   2.416453   5.599410   4.305481   2.174129
    27  O    2.430668   4.535686   5.436505   2.531489   1.351807
    28  C    2.813390   4.826856   6.652567   3.941686   2.377844
    29  H    2.804370   4.625177   6.866739   4.441270   2.708823
    30  H    3.877393   5.912886   7.439591   4.402502   3.247946
    31  H    2.806727   4.628284   6.874267   4.444767   2.710914
                   26         27         28         29         30
    26  H    0.000000
    27  O    2.731947   0.000000
    28  C    2.535163   1.411812   0.000000
    29  H    2.331527   2.079010   1.095381   0.000000
    30  H    3.616045   2.004649   1.088645   1.780702   0.000000
    31  H    2.333542   2.079154   1.095420   1.789687   1.780866
                   31
    31  H    0.000000
 Stoichiometry    C12H15NO3
 Framework group  C1[X(C12H15NO3)]
 Deg. of freedom    87
 Full point group                 C1      NOp   1
 Largest Abelian subgroup         C1      NOp   1
 Largest concise Abelian subgroup C1      NOp   1
                         Standard orientation:                         
 ---------------------------------------------------------------------
 Center     Atomic      Atomic             Coordinates (Angstroms)
 Number     Number       Type             X           Y           Z
 ---------------------------------------------------------------------
      1          6           0        4.133829   -1.227835   -1.518600
      2          1           0        5.116884   -1.390614   -1.960423
      3          1           0        3.683086   -2.202821   -1.294848
      4          6           0        5.587060   -0.314930    0.273958
      5          1           0        5.941806   -1.286803    0.636839
      6          7           0        4.271334   -0.420752   -0.325312
      7          1           0        3.505658   -0.715783   -2.253146
      8          1           0        5.548566    0.375054    1.116690
      9          1           0        6.307613    0.069580   -0.453415
     10          6           0        3.178174    0.021600    0.321089
     11          1           0        3.367241    0.595758    1.223511
     12          6           0        1.880392   -0.163942   -0.039250
     13          6           0        0.846123    0.433933    0.787714
     14          1           0        1.620930   -0.744332   -0.911320
     15          8           0        1.151080    1.122352    1.779511
     16          6           0       -0.582817    0.229475    0.462988
     17          6           0       -1.244320    1.146119   -0.399414
     18          6           0       -1.337129   -0.835586    0.965648
     19          8           0       -0.620965    2.197517   -0.930356
     20          6           0       -2.586388    0.966720   -0.719315
     21          6           0       -2.671202   -1.021082    0.656404
     22          1           0       -0.872746   -1.553471    1.629469
     23          1           0        0.306915    2.167231   -0.592623
     24          1           0       -3.074922    1.672709   -1.378147
     25          6           0       -3.297595   -0.104217   -0.199428
     26          1           0       -3.204579   -1.862469    1.076007
     27          8           0       -4.594537   -0.184564   -0.572079
     28          6           0       -5.378142   -1.248823   -0.075562
     29          1           0       -5.445109   -1.220125    1.017393
     30          1           0       -6.371194   -1.110226   -0.499574
     31          1           0       -4.982021   -2.219448   -0.393239
 ---------------------------------------------------------------------
 Rotational constants (GHZ):      1.3337638      0.2015339      0.1966649
 Standard basis: 6-311++G(d,p) (5D, 7F)
 There are   473 symmetry adapted cartesian basis functions of A   symmetry.
 There are   457 symmetry adapted basis functions of A   symmetry.
   457 basis functions,   711 primitive gaussians,   473 cartesian basis functions
    59 alpha electrons       59 beta electrons
       nuclear repulsion energy      1045.7773787943 Hartrees.
 NAtoms=   31 NActive=   31 NUniq=   31 SFac= 1.00D+00 NAtFMM=   60 NAOKFM=F Big=F
 Integral buffers will be    131072 words long.
 Raffenetti 1 integral format.
 Two-electron integral symmetry is turned on.
 Nuclear repulsion after empirical dispersion term =     1045.7591294111 Hartrees.
 One-electron integrals computed using PRISM.
 NBasis=   457 RedAO= T EigKep=  1.89D-06  NBF=   457
 NBsUse=   455 1.00D-06 EigRej=  4.63D-07 NBFU=   455
 ExpMin= 3.60D-02 ExpMax= 8.59D+03 ExpMxC= 1.30D+03 IAcc=3 IRadAn=         5 AccDes= 0.00D+00
 Harris functional with IExCor= 4639 and IRadAn=       5 diagonalized for initial guess.
 HarFok:  IExCor= 4639 AccDes= 0.00D+00 IRadAn=         5 IDoV= 1 UseB2=F ITyADJ=14
 ICtDFT=  3500011 ScaDFX=  1.000000  1.000000  1.000000  1.000000
 FoFCou: FMM=F IPFlag=           0 FMFlag=      100000 FMFlg1=           0
         NFxFlg=           0 DoJE=T BraDBF=F KetDBF=T FulRan=T
         wScrn=  0.000000 ICntrl=     500 IOpCl=  0 I1Cent=   200000004 NGrid=           0
         NMat0=    1 NMatS0=      1 NMatT0=    0 NMatD0=    1 NMtDS0=    0 NMtDT0=    0
 Petite list used in FoFCou.
 Requested convergence on RMS density matrix=1.00D-08 within 128 cycles.
 Requested convergence on MAX density matrix=1.00D-06.
 Requested convergence on             energy=1.00D-06.
 No special actions if energy rises.
 SCF Done:  E(RwB97XD) =  -746.650726841     A.U. after   17 cycles
            NFock= 17  Conv=0.75D-08     -V/T= 2.0039
 DoSCS=F DFT=T ScalE2(SS,OS)=  1.000000  1.000000
 ExpMin= 3.60D-02 ExpMax= 8.59D+03 ExpMxC= 1.30D+03 IAcc=3 IRadAn=         5 AccDes= 0.00D+00
 HarFok:  IExCor=  205 AccDes= 0.00D+00 IRadAn=         5 IDoV=-2 UseB2=F ITyADJ=14
 ICtDFT= 12500011 ScaDFX=  1.000000  1.000000  1.000000  1.000000
 Range of M.O.s used for correlation:    17   455
 NBasis=   457 NAE=    59 NBE=    59 NFC=    16 NFV=     0
 NROrb=    439 NOA=    43 NOB=    43 NVA=   396 NVB=   396

 **** Warning!!: The largest alpha MO coefficient is  0.10398400D+03

 Would need an additional         29152300000 words for in-memory AO integral storage.
 Orbital symmetries:
       Occupied  (A) (A) (A) (A) (A) (A) (A) (A) (A) (A) (A) (A)
                 (A) (A) (A) (A) (A) (A) (A) (A) (A) (A) (A) (A)
                 (A) (A) (A) (A) (A) (A) (A) (A) (A) (A) (A) (A)
                 (A) (A) (A) (A) (A) (A) (A) (A) (A) (A) (A) (A)
                 (A) (A) (A) (A) (A) (A) (A) (A) (A) (A) (A)
       Virtual   (A) (A) (A) (A) (A) (A) (A) (A) (A) (A) (A) (A)
                 (A) (A) (A) (A) (A) (A) (A) (A) (A) (A) (A) (A)
                 (A) (A) (A) (A) (A) (A) (A) (A) (A) (A) (A) (A)
                 (A) (A) (A) (A) (A) (A) (A) (A) (A) (A) (A) (A)
                 (A) (A) (A) (A) (A) (A) (A) (A) (A) (A) (A) (A)
                 (A) (A) (A) (A) (A) (A) (A) (A) (A) (A) (A) (A)
                 (A) (A) (A) (A) (A) (A) (A) (A) (A) (A) (A) (A)
                 (A) (A) (A) (A) (A) (A) (A) (A) (A) (A) (A) (A)
                 (A) (A) (A) (A) (A) (A) (A) (A) (A) (A) (A) (A)
                 (A) (A) (A) (A) (A) (A) (A) (A) (A) (A) (A) (A)
                 (A) (A) (A) (A) (A) (A) (A) (A) (A) (A) (A) (A)
                 (A) (A) (A) (A) (A) (A) (A) (A) (A) (A) (A) (A)
                 (A) (A) (A) (A) (A) (A) (A) (A) (A) (A) (A) (A)
                 (A) (A) (A) (A) (A) (A) (A) (A) (A) (A) (A) (A)
                 (A) (A) (A) (A) (A) (A) (A) (A) (A) (A) (A) (A)
                 (A) (A) (A) (A) (A) (A) (A) (A) (A) (A) (A) (A)
                 (A) (A) (A) (A) (A) (A) (A) (A) (A) (A) (A) (A)
                 (A) (A) (A) (A) (A) (A) (A) (A) (A) (A) (A) (A)
                 (A) (A) (A) (A) (A) (A) (A) (A) (A) (A) (A) (A)
                 (A) (A) (A) (A) (A) (A) (A) (A) (A) (A) (A) (A)
                 (A) (A) (A) (A) (A) (A) (A) (A) (A) (A) (A) (A)
                 (A) (A) (A) (A) (A) (A) (A) (A) (A) (A) (A) (A)
                 (A) (A) (A) (A) (A) (A) (A) (A) (A) (A) (A) (A)
                 (A) (A) (A) (A) (A) (A) (A) (A) (A) (A) (A) (A)
                 (A) (A) (A) (A) (A) (A) (A) (A) (A) (A) (A) (A)
                 (A) (A) (A) (A) (A) (A) (A) (A) (A) (A) (A) (A)
                 (A) (A) (A) (A) (A) (A) (A) (A) (A) (A) (A) (A)
                 (A) (A) (A) (A) (A) (A) (A) (A) (A) (A) (A) (A)
                 (A) (A) (A) (A) (A) (A) (A) (A) (A) (A) (A) (A)
                 (A) (A) (A) (A) (A) (A) (A) (A) (A) (A) (A) (A)
                 (A) (A) (A) (A) (A) (A) (A) (A) (A) (A) (A) (A)
                 (A) (A) (A) (A) (A) (A) (A) (A) (A) (A) (A) (A)
                 (A) (A) (A) (A) (A) (A) (A) (A) (A) (A) (A) (A)
     8 initial guesses have been made.
 Convergence on wavefunction:    0.000001000000000
 Iteration     1 Dimension     8 NMult     0 NNew      8
 CISAX will form     8 AO SS matrices at one time.
 Iteration     2 Dimension    12 NMult     8 NNew      4
 Iteration     3 Dimension    16 NMult    12 NNew      4
 Iteration     4 Dimension    20 NMult    16 NNew      4
 Iteration     5 Dimension    24 NMult    20 NNew      4
 Iteration     6 Dimension    28 NMult    24 NNew      4
 Iteration     7 Dimension    32 NMult    28 NNew      4
 Iteration     8 Dimension    36 NMult    32 NNew      4
 Iteration     9 Dimension    40 NMult    36 NNew      4
 Iteration    10 Dimension    44 NMult    40 NNew      4
 Iteration    11 Dimension    48 NMult    44 NNew      4
 Iteration    12 Dimension    52 NMult    48 NNew      4
 Iteration    13 Dimension    56 NMult    52 NNew      4
 ***********************************************************************
 Excited states from <AA,BB:AA,BB> singles matrix:
 ***********************************************************************
 
 Ground to excited state transition densities written to RWF  633
 Ground to excited state transition electric dipole moments (Au):
       state          X           Y           Z        Dip. S.      Osc.
         1         0.1053     -0.0597     -0.0196      0.0150      0.0014
 Ground to excited state transition velocity dipole moments (Au):
       state          X           Y           Z        Dip. S.      Osc.
         1        -0.0136      0.0044      0.0062      0.0002      0.0012
 Ground to excited state transition magnetic dipole moments (Au):
       state          X           Y           Z
         1         0.1788      0.4209      0.6245
 Ground to excited state transition velocity quadrupole moments (Au):
       state          XX          YY          ZZ          XY          XZ          YZ
         1        -0.1227     -0.0045      0.0136      0.0361      0.0094     -0.0011
 <0|del|b> * <b|rxdel|0> + <0|del|b> * <b|delr+rdel|0>
 Rotatory Strengths (R) in cgs (10**-40 erg-esu-cm/Gauss)
       state          XX          YY          ZZ    R(velocity)    E-M Angle
         1        15.0481      3.1365     -1.3737      5.6036       74.09
 1/2[<0|r|b>*<b|rxdel|0> + (<0|rxdel|b>*<b|r|0>)*]
 Rotatory Strengths (R) in cgs (10**-40 erg-esu-cm/Gauss)
       state          XX          YY          ZZ     R(length)
         1       -13.3107     17.7661      8.6373      4.3643
  1/2[<0|del|b>*<b|r|0> + (<0|r|b>*<b|del|0>)*] (Au)
       state          X           Y           Z        Dip. S.   Osc.(frdel)
         1        -0.0014     -0.0003     -0.0001      0.0018      0.0012

 Excitation energies and oscillator strengths:
 
 Excited State   1:      Singlet-A      3.7774 eV  328.23 nm  f=0.0014  <S**2>=0.000
      56 -> 60         0.56537
      59 -> 60         0.35592
 This state for optimization and/or second-order correction.
 Total Energy, E(TD-HF/TD-KS) =  -746.511910636    
 Copying the excited state density for this state as the 1-particle RhoCI density.
 SavETr:  write IOETrn=   770 NScale= 10 NData=  16 NLR=1 NState=    1 LETran=      28.
          IDoAtm=1111111111111111111111111111111
          Differentiating once with respect to electric field.
                with respect to dipole field.
          Differentiating once with respect to nuclear coordinates.
          There are     1 degrees of freedom in the 1st order CPHF.  IDoFFX=0 NUNeed=     1.
 LinEq1:  Iter=  0 NonCon=     1 RMS=7.15D-03 Max=4.49D-01 NDo=     1
 AX will form     1 AO Fock derivatives at one time.
 LinEq1:  Iter=  1 NonCon=     1 RMS=1.96D-03 Max=6.83D-02 NDo=     1
 LinEq1:  Iter=  2 NonCon=     1 RMS=1.21D-03 Max=5.56D-02 NDo=     1
 LinEq1:  Iter=  3 NonCon=     1 RMS=5.84D-04 Max=3.13D-02 NDo=     1
 LinEq1:  Iter=  4 NonCon=     1 RMS=3.09D-04 Max=1.01D-02 NDo=     1
 LinEq1:  Iter=  5 NonCon=     1 RMS=1.26D-04 Max=4.91D-03 NDo=     1
 LinEq1:  Iter=  6 NonCon=     1 RMS=6.28D-05 Max=2.47D-03 NDo=     1
 LinEq1:  Iter=  7 NonCon=     1 RMS=3.25D-05 Max=1.35D-03 NDo=     1
 LinEq1:  Iter=  8 NonCon=     1 RMS=1.35D-05 Max=7.24D-04 NDo=     1
 LinEq1:  Iter=  9 NonCon=     1 RMS=7.28D-06 Max=3.69D-04 NDo=     1
 LinEq1:  Iter= 10 NonCon=     1 RMS=3.14D-06 Max=1.41D-04 NDo=     1
 LinEq1:  Iter= 11 NonCon=     1 RMS=1.33D-06 Max=5.08D-05 NDo=     1
 LinEq1:  Iter= 12 NonCon=     1 RMS=4.88D-07 Max=1.22D-05 NDo=     1
 LinEq1:  Iter= 13 NonCon=     1 RMS=2.52D-07 Max=8.86D-06 NDo=     1
 LinEq1:  Iter= 14 NonCon=     1 RMS=1.24D-07 Max=6.33D-06 NDo=     1
 LinEq1:  Iter= 15 NonCon=     1 RMS=5.86D-08 Max=2.78D-06 NDo=     1
 LinEq1:  Iter= 16 NonCon=     1 RMS=2.58D-08 Max=1.13D-06 NDo=     1
 LinEq1:  Iter= 17 NonCon=     1 RMS=1.29D-08 Max=5.58D-07 NDo=     1
 LinEq1:  Iter= 18 NonCon=     1 RMS=5.99D-09 Max=1.84D-07 NDo=     1
 LinEq1:  Iter= 19 NonCon=     1 RMS=2.65D-09 Max=7.74D-08 NDo=     1
 LinEq1:  Iter= 20 NonCon=     1 RMS=1.16D-09 Max=3.66D-08 NDo=     1
 LinEq1:  Iter= 21 NonCon=     1 RMS=4.74D-10 Max=2.23D-08 NDo=     1
 LinEq1:  Iter= 22 NonCon=     1 RMS=2.39D-10 Max=6.35D-09 NDo=     1
 LinEq1:  Iter= 23 NonCon=     1 RMS=8.27D-11 Max=2.77D-09 NDo=     1
 LinEq1:  Iter= 24 NonCon=     1 RMS=4.09D-11 Max=1.61D-09 NDo=     1
 LinEq1:  Iter= 25 NonCon=     0 RMS=1.66D-11 Max=2.67D-10 NDo=     1
 Linear equations converged to 1.000D-10 1.000D-09 after    25 iterations.
 End of Minotr F.D. properties file   721 does not exist.
 End of Minotr F.D. properties file   722 does not exist.
 End of Minotr F.D. properties file   788 does not exist.

 **********************************************************************

            Population analysis using the SCF density.

 **********************************************************************

 Orbital symmetries:
       Occupied  (A) (A) (A) (A) (A) (A) (A) (A) (A) (A) (A) (A)
                 (A) (A) (A) (A) (A) (A) (A) (A) (A) (A) (A) (A)
                 (A) (A) (A) (A) (A) (A) (A) (A) (A) (A) (A) (A)
                 (A) (A) (A) (A) (A) (A) (A) (A) (A) (A) (A) (A)
                 (A) (A) (A) (A) (A) (A) (A) (A) (A) (A) (A)
       Virtual   (A) (A) (A) (A) (A) (A) (A) (A) (A) (A) (A) (A)
                 (A) (A) (A) (A) (A) (A) (A) (A) (A) (A) (A) (A)
                 (A) (A) (A) (A) (A) (A) (A) (A) (A) (A) (A) (A)
                 (A) (A) (A) (A) (A) (A) (A) (A) (A) (A) (A) (A)
                 (A) (A) (A) (A) (A) (A) (A) (A) (A) (A) (A) (A)
                 (A) (A) (A) (A) (A) (A) (A) (A) (A) (A) (A) (A)
                 (A) (A) (A) (A) (A) (A) (A) (A) (A) (A) (A) (A)
                 (A) (A) (A) (A) (A) (A) (A) (A) (A) (A) (A) (A)
                 (A) (A) (A) (A) (A) (A) (A) (A) (A) (A) (A) (A)
                 (A) (A) (A) (A) (A) (A) (A) (A) (A) (A) (A) (A)
                 (A) (A) (A) (A) (A) (A) (A) (A) (A) (A) (A) (A)
                 (A) (A) (A) (A) (A) (A) (A) (A) (A) (A) (A) (A)
                 (A) (A) (A) (A) (A) (A) (A) (A) (A) (A) (A) (A)
                 (A) (A) (A) (A) (A) (A) (A) (A) (A) (A) (A) (A)
                 (A) (A) (A) (A) (A) (A) (A) (A) (A) (A) (A) (A)
                 (A) (A) (A) (A) (A) (A) (A) (A) (A) (A) (A) (A)
                 (A) (A) (A) (A) (A) (A) (A) (A) (A) (A) (A) (A)
                 (A) (A) (A) (A) (A) (A) (A) (A) (A) (A) (A) (A)
                 (A) (A) (A) (A) (A) (A) (A) (A) (A) (A) (A) (A)
                 (A) (A) (A) (A) (A) (A) (A) (A) (A) (A) (A) (A)
                 (A) (A) (A) (A) (A) (A) (A) (A) (A) (A) (A) (A)
                 (A) (A) (A) (A) (A) (A) (A) (A) (A) (A) (A) (A)
                 (A) (A) (A) (A) (A) (A) (A) (A) (A) (A) (A) (A)
                 (A) (A) (A) (A) (A) (A) (A) (A) (A) (A) (A) (A)
                 (A) (A) (A) (A) (A) (A) (A) (A) (A) (A) (A) (A)
                 (A) (A) (A) (A) (A) (A) (A) (A) (A) (A) (A) (A)
                 (A) (A) (A) (A) (A) (A) (A) (A) (A) (A) (A) (A)
                 (A) (A) (A) (A) (A) (A) (A) (A) (A) (A) (A) (A)
                 (A) (A) (A) (A) (A) (A) (A) (A) (A) (A) (A) (A)
                 (A) (A) (A) (A) (A) (A) (A) (A) (A) (A) (A) (A)
                 (A) (A) (A) (A) (A) (A) (A) (A) (A) (A) (A) (A)
                 (A) (A) (A) (A) (A) (A) (A) (A) (A) (A) (A) (A)
                 (A) (A) (A) (A) (A) (A) (A) (A) (A) (A) (A) (A)
 The electronic state is 1-A.
 Alpha  occ. eigenvalues --  -19.27861 -19.27576 -19.21294 -14.49169 -10.36483
 Alpha  occ. eigenvalues --  -10.34982 -10.34585 -10.34584 -10.33970 -10.33613
 Alpha  occ. eigenvalues --  -10.33429 -10.29061 -10.28337 -10.27497 -10.27252
 Alpha  occ. eigenvalues --  -10.26918  -1.17569  -1.17344  -1.11742  -1.08832
 Alpha  occ. eigenvalues --   -0.95055  -0.89221  -0.86585  -0.85284  -0.83898
 Alpha  occ. eigenvalues --   -0.81327  -0.79039  -0.72635  -0.70119  -0.68708
 Alpha  occ. eigenvalues --   -0.65184  -0.63374  -0.62273  -0.59871  -0.58518
 Alpha  occ. eigenvalues --   -0.58161  -0.57363  -0.56014  -0.55504  -0.52389
 Alpha  occ. eigenvalues --   -0.52226  -0.51672  -0.51291  -0.50509  -0.49773
 Alpha  occ. eigenvalues --   -0.49464  -0.48747  -0.47805  -0.46557  -0.45533
 Alpha  occ. eigenvalues --   -0.44793  -0.43924  -0.41373  -0.40762  -0.39286
 Alpha  occ. eigenvalues --   -0.32865  -0.30458  -0.29562  -0.28541
 Alpha virt. eigenvalues --    0.01609   0.02806   0.04243   0.04727   0.05478
 Alpha virt. eigenvalues --    0.05700   0.06283   0.06541   0.07252   0.07330
 Alpha virt. eigenvalues --    0.07791   0.08048   0.08146   0.08591   0.08909
 Alpha virt. eigenvalues --    0.09774   0.09981   0.11027   0.11437   0.12513
 Alpha virt. eigenvalues --    0.12834   0.13534   0.13785   0.14035   0.14500
 Alpha virt. eigenvalues --    0.14977   0.15131   0.15413   0.16006   0.16299
 Alpha virt. eigenvalues --    0.16752   0.16978   0.17636   0.17794   0.18016
 Alpha virt. eigenvalues --    0.18042   0.18323   0.18835   0.19064   0.19263
 Alpha virt. eigenvalues --    0.19526   0.20007   0.20292   0.20894   0.21198
 Alpha virt. eigenvalues --    0.21479   0.21884   0.22266   0.22805   0.22976
 Alpha virt. eigenvalues --    0.23401   0.24195   0.24335   0.24507   0.24910
 Alpha virt. eigenvalues --    0.25096   0.25431   0.25718   0.26078   0.27142
 Alpha virt. eigenvalues --    0.28049   0.28463   0.29003   0.29359   0.29750
 Alpha virt. eigenvalues --    0.30355   0.30531   0.30921   0.31290   0.31351
 Alpha virt. eigenvalues --    0.31845   0.32682   0.33099   0.33739   0.33863
 Alpha virt. eigenvalues --    0.34237   0.34644   0.34862   0.35096   0.35721
 Alpha virt. eigenvalues --    0.36206   0.36778   0.37164   0.37282   0.37898
 Alpha virt. eigenvalues --    0.38661   0.39066   0.39855   0.40156   0.40326
 Alpha virt. eigenvalues --    0.40647   0.41112   0.41427   0.42428   0.42722
 Alpha virt. eigenvalues --    0.43166   0.44743   0.45111   0.45579   0.46063
 Alpha virt. eigenvalues --    0.46527   0.47040   0.48117   0.48659   0.50259
 Alpha virt. eigenvalues --    0.50640   0.51085   0.51423   0.52855   0.53574
 Alpha virt. eigenvalues --    0.53904   0.55302   0.56572   0.57047   0.58387
 Alpha virt. eigenvalues --    0.59813   0.60988   0.62658   0.64663   0.65034
 Alpha virt. eigenvalues --    0.65145   0.66150   0.66880   0.67628   0.67875
 Alpha virt. eigenvalues --    0.68393   0.70089   0.70502   0.70950   0.71364
 Alpha virt. eigenvalues --    0.71738   0.72176   0.72457   0.73273   0.73947
 Alpha virt. eigenvalues --    0.74570   0.75113   0.75647   0.76393   0.77101
 Alpha virt. eigenvalues --    0.77672   0.78457   0.79081   0.79497   0.81241
 Alpha virt. eigenvalues --    0.81783   0.82264   0.82583   0.83678   0.84196
 Alpha virt. eigenvalues --    0.85584   0.85904   0.86169   0.87193   0.89443
 Alpha virt. eigenvalues --    0.89886   0.92043   0.92300   0.94460   0.96136
 Alpha virt. eigenvalues --    0.96839   0.97875   0.99112   0.99214   0.99775
 Alpha virt. eigenvalues --    1.02055   1.03254   1.03389   1.04378   1.05925
 Alpha virt. eigenvalues --    1.06980   1.07536   1.08026   1.10315   1.11084
 Alpha virt. eigenvalues --    1.12010   1.13299   1.13848   1.14804   1.15536
 Alpha virt. eigenvalues --    1.16115   1.17666   1.18862   1.20711   1.21593
 Alpha virt. eigenvalues --    1.22327   1.26476   1.27451   1.28251   1.29123
 Alpha virt. eigenvalues --    1.30849   1.32958   1.33773   1.35587   1.36705
 Alpha virt. eigenvalues --    1.38928   1.39292   1.40385   1.42133   1.42323
 Alpha virt. eigenvalues --    1.43147   1.45915   1.48732   1.50972   1.52171
 Alpha virt. eigenvalues --    1.52538   1.53853   1.54888   1.57060   1.58475
 Alpha virt. eigenvalues --    1.59124   1.59706   1.61328   1.62802   1.63037
 Alpha virt. eigenvalues --    1.63910   1.65690   1.66187   1.66481   1.67880
 Alpha virt. eigenvalues --    1.68568   1.68723   1.69970   1.70980   1.72396
 Alpha virt. eigenvalues --    1.73804   1.75878   1.76827   1.77698   1.77859
 Alpha virt. eigenvalues --    1.78654   1.79476   1.80467   1.81374   1.82483
 Alpha virt. eigenvalues --    1.82673   1.83100   1.84571   1.85338   1.87519
 Alpha virt. eigenvalues --    1.89865   1.90292   1.91694   1.92609   1.94957
 Alpha virt. eigenvalues --    1.95401   1.97957   1.99658   2.01133   2.03791
 Alpha virt. eigenvalues --    2.04548   2.04724   2.06745   2.07630   2.08764
 Alpha virt. eigenvalues --    2.10062   2.10875   2.12157   2.13626   2.14484
 Alpha virt. eigenvalues --    2.16827   2.18048   2.19402   2.19934   2.21244
 Alpha virt. eigenvalues --    2.22272   2.22837   2.23450   2.24102   2.27443
 Alpha virt. eigenvalues --    2.28199   2.29140   2.32434   2.37459   2.40984
 Alpha virt. eigenvalues --    2.42250   2.42491   2.46250   2.50206   2.50995
 Alpha virt. eigenvalues --    2.51829   2.53719   2.55138   2.56004   2.56032
 Alpha virt. eigenvalues --    2.58384   2.58622   2.59411   2.61439   2.61858
 Alpha virt. eigenvalues --    2.62442   2.65553   2.66079   2.68060   2.70105
 Alpha virt. eigenvalues --    2.70954   2.73308   2.74722   2.75931   2.78513
 Alpha virt. eigenvalues --    2.80715   2.81055   2.82660   2.83091   2.83724
 Alpha virt. eigenvalues --    2.83883   2.85819   2.87441   2.88022   2.90521
 Alpha virt. eigenvalues --    2.91418   2.91703   2.94288   2.95801   2.96288
 Alpha virt. eigenvalues --    2.99929   3.00306   3.00721   3.01928   3.05025
 Alpha virt. eigenvalues --    3.07942   3.09172   3.11546   3.14082   3.15596
 Alpha virt. eigenvalues --    3.16032   3.19334   3.20733   3.23665   3.23850
 Alpha virt. eigenvalues --    3.26087   3.27800   3.30439   3.30832   3.35185
 Alpha virt. eigenvalues --    3.35864   3.39827   3.42468   3.44798   3.52400
 Alpha virt. eigenvalues --    3.56622   3.57149   3.60352   3.63634   3.65572
 Alpha virt. eigenvalues --    3.68470   3.71128   3.72517   3.76699   3.80136
 Alpha virt. eigenvalues --    3.81665   3.83804   3.85028   3.87866   3.91845
 Alpha virt. eigenvalues --    3.93511   3.94068   3.99065   4.02205   4.09331
 Alpha virt. eigenvalues --    4.13729   4.17283   4.21370   4.26998   4.30027
 Alpha virt. eigenvalues --    4.32176   4.38867   4.51534   4.96018   4.98544
 Alpha virt. eigenvalues --    5.14571   5.15669   5.17141   5.24847   5.38121
 Alpha virt. eigenvalues --    5.52066   5.58061   5.85579   5.89949   5.94621
 Alpha virt. eigenvalues --   23.74922  23.94811  24.03327  24.04620  24.06226
 Alpha virt. eigenvalues --   24.06582  24.06997  24.09993  24.19783  24.25779
 Alpha virt. eigenvalues --   24.30364  24.33341  35.69358  50.08949  50.11881
 Alpha virt. eigenvalues --   50.17503
          Condensed to atoms (all electrons):
               1          2          3          4          5          6
     1  C    5.250028   0.388638   0.414463  -0.089787   0.019202   0.254513
     2  H    0.388638   0.520861  -0.023821   0.012614  -0.007043  -0.048467
     3  H    0.414463  -0.023821   0.523513  -0.007573   0.001936  -0.056313
     4  C   -0.089787   0.012614  -0.007573   5.195512   0.405808   0.258080
     5  H    0.019202  -0.007043   0.001936   0.405808   0.558503  -0.044843
     6  N    0.254513  -0.048467  -0.056313   0.258080  -0.044843   6.834487
     7  H    0.409091  -0.023081  -0.047994   0.007291   0.001345  -0.040054
     8  H   -0.005615   0.003177  -0.000363   0.399640  -0.031581  -0.094170
     9  H   -0.015807  -0.003059   0.002661   0.413913  -0.059432  -0.047585
    10  C   -0.232799   0.049688   0.008242  -0.000781  -0.049500   0.242470
    11  H    0.010828   0.001962  -0.004023  -0.022452   0.003777  -0.056772
    12  C    0.247889  -0.033749  -0.003791  -0.260476   0.022759  -0.274552
    13  C   -0.128320  -0.008246   0.004429  -0.013922  -0.004539  -0.025745
    14  H    0.014018  -0.004205  -0.009438  -0.011318   0.000775  -0.032274
    15  O   -0.001011   0.000341   0.000298   0.006596  -0.000040   0.010316
    16  C   -0.120863  -0.006413   0.002504   0.025443  -0.001386  -0.026808
    17  C    0.007435   0.000502   0.000852   0.012832   0.001030   0.016170
    18  C    0.006731   0.000557  -0.000239  -0.004627  -0.001578  -0.005287
    19  O    0.003743   0.000380  -0.000061  -0.000513  -0.000002  -0.000340
    20  C    0.006769   0.000077  -0.000934   0.000511   0.000160   0.002767
    21  C    0.007413   0.000959  -0.000116   0.001398  -0.000506   0.001786
    22  H    0.001288   0.000213  -0.000592  -0.000317  -0.000067   0.000281
    23  H    0.000914   0.000018   0.000253  -0.000051   0.000061   0.000504
    24  H    0.000229   0.000020  -0.000030   0.000008   0.000000   0.000049
    25  C   -0.001809  -0.000067   0.000333   0.000499  -0.000052   0.000038
    26  H   -0.000107  -0.000010   0.000034   0.000051   0.000002  -0.000034
    27  O    0.000005   0.000001   0.000001   0.000000   0.000000  -0.000001
    28  C    0.000042   0.000005  -0.000005   0.000002  -0.000001   0.000005
    29  H    0.000002   0.000000   0.000000  -0.000001   0.000000   0.000001
    30  H    0.000004   0.000000  -0.000001   0.000000   0.000000   0.000000
    31  H   -0.000017  -0.000002   0.000000   0.000001   0.000000  -0.000003
               7          8          9         10         11         12
     1  C    0.409091  -0.005615  -0.015807  -0.232799   0.010828   0.247889
     2  H   -0.023081   0.003177  -0.003059   0.049688   0.001962  -0.033749
     3  H   -0.047994  -0.000363   0.002661   0.008242  -0.004023  -0.003791
     4  C    0.007291   0.399640   0.413913  -0.000781  -0.022452  -0.260476
     5  H    0.001345  -0.031581  -0.059432  -0.049500   0.003777   0.022759
     6  N   -0.040054  -0.094170  -0.047585   0.242470  -0.056772  -0.274552
     7  H    0.527761  -0.002733  -0.001116  -0.006135   0.002050  -0.020074
     8  H   -0.002733   0.538058  -0.021065   0.084713  -0.011525  -0.016988
     9  H   -0.001116  -0.021065   0.553608  -0.012636  -0.000834   0.017772
    10  C   -0.006135   0.084713  -0.012636   9.932961   0.367653  -4.220070
    11  H    0.002050  -0.011525  -0.000834   0.367653   0.477825  -0.014075
    12  C   -0.020074  -0.016988   0.017772  -4.220070  -0.014075  13.083039
    13  C   -0.000242   0.008348   0.000200  -1.250540   0.019814   0.396077
    14  H   -0.000574  -0.001520   0.000886  -0.316434   0.004050   0.686604
    15  O    0.000527  -0.001120  -0.000097   0.111365   0.037836  -0.537279
    16  C    0.006533   0.005745   0.001166   1.277040  -0.008338  -3.565747
    17  C    0.001603  -0.002179  -0.001231   0.350142   0.007681  -0.049339
    18  C   -0.000836   0.003399   0.001158  -0.313874  -0.030018   0.625609
    19  O   -0.001097  -0.000073  -0.000046  -0.024594   0.002257   0.041678
    20  C   -0.001642  -0.000145  -0.000139  -0.222430  -0.005104   0.364018
    21  C    0.002902   0.000492   0.000171   0.328994  -0.002854  -0.013325
    22  H    0.000201   0.000061  -0.000016  -0.020252   0.000643   0.008705
    23  H   -0.000925   0.000037  -0.000016  -0.022777  -0.000990   0.047846
    24  H   -0.000021   0.000002  -0.000003  -0.002515  -0.000044   0.003782
    25  C    0.000785   0.000037   0.000019   0.079372  -0.000947  -0.126909
    26  H    0.000017   0.000002   0.000001   0.003112  -0.000071  -0.000386
    27  O    0.000002   0.000000   0.000000   0.000568   0.000026  -0.000168
    28  C    0.000034   0.000000   0.000000   0.002421   0.000022  -0.001309
    29  H   -0.000001   0.000000   0.000000   0.000128   0.000005   0.000034
    30  H    0.000002   0.000000   0.000000   0.000046  -0.000001   0.000193
    31  H   -0.000001   0.000000   0.000000  -0.000104   0.000003  -0.000806
              13         14         15         16         17         18
     1  C   -0.128320   0.014018  -0.001011  -0.120863   0.007435   0.006731
     2  H   -0.008246  -0.004205   0.000341  -0.006413   0.000502   0.000557
     3  H    0.004429  -0.009438   0.000298   0.002504   0.000852  -0.000239
     4  C   -0.013922  -0.011318   0.006596   0.025443   0.012832  -0.004627
     5  H   -0.004539   0.000775  -0.000040  -0.001386   0.001030  -0.001578
     6  N   -0.025745  -0.032274   0.010316  -0.026808   0.016170  -0.005287
     7  H   -0.000242  -0.000574   0.000527   0.006533   0.001603  -0.000836
     8  H    0.008348  -0.001520  -0.001120   0.005745  -0.002179   0.003399
     9  H    0.000200   0.000886  -0.000097   0.001166  -0.001231   0.001158
    10  C   -1.250540  -0.316434   0.111365   1.277040   0.350142  -0.313874
    11  H    0.019814   0.004050   0.037836  -0.008338   0.007681  -0.030018
    12  C    0.396077   0.686604  -0.537279  -3.565747  -0.049339   0.625609
    13  C   10.296512   0.084305   0.617616  -0.000141   0.078881  -2.103912
    14  H    0.084305   0.546071  -0.011199  -0.044450  -0.013562  -0.024506
    15  O    0.617616  -0.011199   7.965356   0.291867  -0.187615   0.039940
    16  C   -0.000141  -0.044450   0.291867  15.536843  -1.266227  -1.158683
    17  C    0.078881  -0.013562  -0.187615  -1.266227  13.596560  -5.548810
    18  C   -2.103912  -0.024506   0.039940  -1.158683  -5.548810  15.001684
    19  O    0.067079  -0.005119   0.001415   0.173721   0.197488   0.079466
    20  C   -1.460043   0.043446  -0.010805  -4.636314  -1.208513   3.283934
    21  C   -0.182189  -0.080265  -0.041114  -0.455771   0.265843  -1.322030
    22  H   -0.051688  -0.002272  -0.003705  -0.074175   0.040140   0.340634
    23  H   -0.109262   0.003506  -0.005685  -0.107205  -0.029561   0.080829
    24  H   -0.044634  -0.000001   0.000187  -0.126823  -0.123515   0.068008
    25  C    0.116658  -0.016395  -0.013619  -0.923077   0.314265  -2.419608
    26  H    0.013309   0.000154   0.000235   0.048313   0.001547  -0.018558
    27  O    0.002479  -0.000402  -0.000059   0.042978   0.003697  -0.022210
    28  C   -0.011592  -0.001139  -0.000329  -0.105755   0.069999  -0.249546
    29  H   -0.002097  -0.000060  -0.000011   0.008514  -0.002678   0.002601
    30  H   -0.001028  -0.000065  -0.000007  -0.008776   0.002769  -0.012691
    31  H    0.003681   0.000133  -0.000002   0.012018  -0.005323   0.006771
              19         20         21         22         23         24
     1  C    0.003743   0.006769   0.007413   0.001288   0.000914   0.000229
     2  H    0.000380   0.000077   0.000959   0.000213   0.000018   0.000020
     3  H   -0.000061  -0.000934  -0.000116  -0.000592   0.000253  -0.000030
     4  C   -0.000513   0.000511   0.001398  -0.000317  -0.000051   0.000008
     5  H   -0.000002   0.000160  -0.000506  -0.000067   0.000061   0.000000
     6  N   -0.000340   0.002767   0.001786   0.000281   0.000504   0.000049
     7  H   -0.001097  -0.001642   0.002902   0.000201  -0.000925  -0.000021
     8  H   -0.000073  -0.000145   0.000492   0.000061   0.000037   0.000002
     9  H   -0.000046  -0.000139   0.000171  -0.000016  -0.000016  -0.000003
    10  C   -0.024594  -0.222430   0.328994  -0.020252  -0.022777  -0.002515
    11  H    0.002257  -0.005104  -0.002854   0.000643  -0.000990  -0.000044
    12  C    0.041678   0.364018  -0.013325   0.008705   0.047846   0.003782
    13  C    0.067079  -1.460043  -0.182189  -0.051688  -0.109262  -0.044634
    14  H   -0.005119   0.043446  -0.080265  -0.002272   0.003506  -0.000001
    15  O    0.001415  -0.010805  -0.041114  -0.003705  -0.005685   0.000187
    16  C    0.173721  -4.636314  -0.455771  -0.074175  -0.107205  -0.126823
    17  C    0.197488  -1.208513   0.265843   0.040140  -0.029561  -0.123515
    18  C    0.079466   3.283934  -1.322030   0.340634   0.080829   0.068008
    19  O    7.947549  -0.554406   0.043961  -0.001871   0.264867  -0.028430
    20  C   -0.554406  16.861230  -5.526092   0.092803   0.176238   0.769201
    21  C    0.043961  -5.526092  12.386102  -0.103140  -0.021710  -0.130027
    22  H   -0.001871   0.092803  -0.103140   0.508931  -0.000407   0.003373
    23  H    0.264867   0.176238  -0.021710  -0.000407   0.409474   0.003590
    24  H   -0.028430   0.769201  -0.130027   0.003373   0.003590   0.473026
    25  C   -0.002665  -0.829785   0.100221   0.051057  -0.026510  -0.098295
    26  H    0.000656  -0.076357   0.510144  -0.019863   0.000528  -0.003246
    27  O   -0.001992  -0.704892   0.314510  -0.002191  -0.000482  -0.021050
    28  C   -0.000488   0.107184  -0.211805   0.006183  -0.000281   0.004120
    29  H   -0.000007  -0.015447   0.027390   0.000561  -0.000030  -0.000414
    30  H    0.000034   0.020063  -0.011722   0.000442   0.000016   0.000696
    31  H   -0.000099  -0.014659   0.024749   0.000070  -0.000091  -0.000259
              25         26         27         28         29         30
     1  C   -0.001809  -0.000107   0.000005   0.000042   0.000002   0.000004
     2  H   -0.000067  -0.000010   0.000001   0.000005   0.000000   0.000000
     3  H    0.000333   0.000034   0.000001  -0.000005   0.000000  -0.000001
     4  C    0.000499   0.000051   0.000000   0.000002  -0.000001   0.000000
     5  H   -0.000052   0.000002   0.000000  -0.000001   0.000000   0.000000
     6  N    0.000038  -0.000034  -0.000001   0.000005   0.000001   0.000000
     7  H    0.000785   0.000017   0.000002   0.000034  -0.000001   0.000002
     8  H    0.000037   0.000002   0.000000   0.000000   0.000000   0.000000
     9  H    0.000019   0.000001   0.000000   0.000000   0.000000   0.000000
    10  C    0.079372   0.003112   0.000568   0.002421   0.000128   0.000046
    11  H   -0.000947  -0.000071   0.000026   0.000022   0.000005  -0.000001
    12  C   -0.126909  -0.000386  -0.000168  -0.001309   0.000034   0.000193
    13  C    0.116658   0.013309   0.002479  -0.011592  -0.002097  -0.001028
    14  H   -0.016395   0.000154  -0.000402  -0.001139  -0.000060  -0.000065
    15  O   -0.013619   0.000235  -0.000059  -0.000329  -0.000011  -0.000007
    16  C   -0.923077   0.048313   0.042978  -0.105755   0.008514  -0.008776
    17  C    0.314265   0.001547   0.003697   0.069999  -0.002678   0.002769
    18  C   -2.419608  -0.018558  -0.022210  -0.249546   0.002601  -0.012691
    19  O   -0.002665   0.000656  -0.001992  -0.000488  -0.000007   0.000034
    20  C   -0.829785  -0.076357  -0.704892   0.107184  -0.015447   0.020063
    21  C    0.100221   0.510144   0.314510  -0.211805   0.027390  -0.011722
    22  H    0.051057  -0.019863  -0.002191   0.006183   0.000561   0.000442
    23  H   -0.026510   0.000528  -0.000482  -0.000281  -0.000030   0.000016
    24  H   -0.098295  -0.003246  -0.021050   0.004120  -0.000414   0.000696
    25  C   10.093603  -0.125784   0.275979   0.123845  -0.043850   0.052808
    26  H   -0.125784   0.511474  -0.015163  -0.013624  -0.008313   0.001861
    27  O    0.275979  -0.015163   8.187782   0.205159  -0.032158  -0.068796
    28  C    0.123845  -0.013624   0.205159   5.253176   0.409592   0.393903
    29  H   -0.043850  -0.008313  -0.032158   0.409592   0.576185  -0.019632
    30  H    0.052808   0.001861  -0.068796   0.393903  -0.019632   0.461487
    31  H   -0.045055  -0.007279  -0.034817   0.401099  -0.066797  -0.021799
              31
     1  C   -0.000017
     2  H   -0.000002
     3  H    0.000000
     4  C    0.000001
     5  H    0.000000
     6  N   -0.000003
     7  H   -0.000001
     8  H    0.000000
     9  H    0.000000
    10  C   -0.000104
    11  H    0.000003
    12  C   -0.000806
    13  C    0.003681
    14  H    0.000133
    15  O   -0.000002
    16  C    0.012018
    17  C   -0.005323
    18  C    0.006771
    19  O   -0.000099
    20  C   -0.014659
    21  C    0.024749
    22  H    0.000070
    23  H   -0.000091
    24  H   -0.000259
    25  C   -0.045055
    26  H   -0.007279
    27  O   -0.034817
    28  C    0.401099
    29  H   -0.066797
    30  H   -0.021799
    31  H    0.584304
 Mulliken charges:
               1
     1  C   -0.447113
     2  H    0.178149
     3  H    0.195772
     4  C   -0.328381
     5  H    0.185211
     6  N    0.131779
     7  H    0.186380
     8  H    0.145367
     9  H    0.171528
    10  C   -0.143473
    11  H    0.221614
    12  C   -0.406959
    13  C   -0.311249
    14  H    0.191252
    15  O   -0.270197
    16  C    1.204268
    17  C   -0.530881
    18  C   -0.304307
    19  O   -0.202489
    20  C   -0.460696
    21  C    0.085632
    22  H    0.224970
    23  H    0.337303
    24  H    0.253016
    25  C   -0.535090
    26  H    0.197357
    27  O   -0.128805
    28  C   -0.380917
    29  H    0.166480
    30  H    0.210192
    31  H    0.164284
 Sum of Mulliken charges =   0.00000
 Mulliken charges with hydrogens summed into heavy atoms:
               1
     1  C    0.113189
     4  C    0.173725
     6  N    0.131779
    10  C    0.078141
    12  C   -0.215707
    13  C   -0.311249
    15  O   -0.270197
    16  C    1.204268
    17  C   -0.530881
    18  C   -0.079337
    19  O    0.134814
    20  C   -0.207679
    21  C    0.282989
    25  C   -0.535090
    27  O   -0.128805
    28  C    0.160040
 Electronic spatial extent (au):  <R**2>=           5665.3387
 Charge=              0.0000 electrons
 Dipole moment (field-independent basis, Debye):
    X=              4.6534    Y=             -4.2469    Z=             -1.8190  Tot=              6.5574
 Quadrupole moment (field-independent basis, Debye-Ang):
   XX=            -56.6145   YY=            -95.8309   ZZ=           -100.8060
   XY=              3.8392   XZ=             -7.4170   YZ=             -2.6253
 Traceless Quadrupole moment (field-independent basis, Debye-Ang):
   XX=             27.8026   YY=            -11.4137   ZZ=            -16.3889
   XY=              3.8392   XZ=             -7.4170   YZ=             -2.6253
 Octapole moment (field-independent basis, Debye-Ang**2):
  XXX=            101.3317  YYY=             -6.0569  ZZZ=            -16.3496  XYY=             -2.6007
  XXY=            -53.1320  XXZ=              1.7741  XZZ=              9.4723  YZZ=            -12.8839
  YYZ=             -2.2327  XYZ=              7.3808
 Hexadecapole moment (field-independent basis, Debye-Ang**3):
 XXXX=          -4990.0545 YYYY=           -686.5640 ZZZZ=           -543.0635 XXXY=            123.0507
 XXXZ=            -48.8719 YYYX=             20.0174 YYYZ=             -0.5177 ZZZX=            -14.2437
 ZZZY=            -13.3588 XXYY=          -1095.6348 XXZZ=          -1104.8998 YYZZ=           -207.1200
 XXYZ=             17.1770 YYXZ=            -10.2226 ZZXY=            -14.4886
 N-N= 1.045759129411D+03 E-N=-3.834331460104D+03  KE= 7.437297884405D+02
 Calling FoFJK, ICntrl=  10005127 FMM=F ISym2X=0 I1Cent= 0 IOpClX= 0 NMat=1 NMatS=1 NMatT=0.
 ***** Axes restored to original set *****
 -------------------------------------------------------------------
 Center     Atomic                   Forces (Hartrees/Bohr)
 Number     Number              X              Y              Z
 -------------------------------------------------------------------
      1        6           0.000632533   -0.003171338   -0.004870975
      2        1           0.000070362    0.000046053    0.000277955
      3        1          -0.000330072    0.001627558    0.000468152
      4        6          -0.004552859    0.003049862    0.001177294
      5        1           0.001570099    0.000262245   -0.001097131
      6        7           0.019483899    0.000377152    0.015901720
      7        1          -0.000722415    0.000096539    0.000895654
      8        1           0.000141251   -0.000259266   -0.000103052
      9        1           0.000685542   -0.000259759    0.000244526
     10        6          -0.001076583   -0.008843235   -0.015744165
     11        1           0.003717184    0.000365313    0.001984824
     12        6          -0.017639267   -0.007078234   -0.017849117
     13        6           0.018192816    0.054505249    0.081945445
     14        1          -0.008375098    0.001930759   -0.000646748
     15        8          -0.001079455   -0.038964720   -0.053708039
     16        6          -0.018719769   -0.000402614   -0.001493291
     17        6          -0.007096861    0.011595994   -0.010849979
     18        6           0.002985792   -0.002727287   -0.005133742
     19        8           0.024821633   -0.010573221   -0.003374452
     20        6           0.003230582   -0.002908236    0.002953884
     21        6          -0.002510993   -0.000480682    0.003423335
     22        1           0.003344112   -0.002041277   -0.000690565
     23        1          -0.016798645    0.001334347    0.007366737
     24        1          -0.000433710    0.000339471    0.000348634
     25        6          -0.000678575    0.002665591   -0.001940773
     26        1           0.000415361    0.000378724    0.000573235
     27        8           0.000878401   -0.001149103    0.000256386
     28        6          -0.000303340    0.000423527   -0.000449825
     29        1          -0.000102420   -0.000011245    0.000078339
     30        1           0.000122902    0.000030378    0.000019581
     31        1           0.000127592   -0.000158545    0.000036155
 -------------------------------------------------------------------
 Cartesian Forces:  Max     0.081945445 RMS     0.013942883

 GradGradGradGradGradGradGradGradGradGradGradGradGradGradGradGradGradGrad
 Berny optimization.
 FormGI is forming the generalized inverse of G from B-inverse, IUseBI=4.
 Internal  Forces:  Max     0.064833013 RMS     0.007405768
 Search for a local minimum.
 Step number   1 out of a maximum of  150
 All quantities printed in internal units (Hartrees-Bohrs-Radians)
 Mixed Optimization -- RFO/linear search
 Second derivative matrix not updated -- first step.
 ITU=  0
     Eigenvalues ---    0.01035   0.01036   0.01068   0.01215   0.01388
     Eigenvalues ---    0.01464   0.01536   0.01679   0.01952   0.02009
     Eigenvalues ---    0.02108   0.02144   0.02178   0.02198   0.02222
     Eigenvalues ---    0.02235   0.02251   0.02329   0.02422   0.02524
     Eigenvalues ---    0.02583   0.02623   0.07389   0.07413   0.07601
     Eigenvalues ---    0.07635   0.10085   0.10703   0.16000   0.16000
     Eigenvalues ---    0.16000   0.16000   0.16000   0.16000   0.16000
     Eigenvalues ---    0.16000   0.16000   0.16000   0.16000   0.16000
     Eigenvalues ---    0.16000   0.16000   0.16000   0.22000   0.22000
     Eigenvalues ---    0.22368   0.23488   0.24535   0.24600   0.24697
     Eigenvalues ---    0.25000   0.25000   0.25000   0.25000   0.25000
     Eigenvalues ---    0.25000   0.33995   0.34085   0.34194   0.34198
     Eigenvalues ---    0.34379   0.34392   0.34619   0.34813   0.34831
     Eigenvalues ---    0.34970   0.35259   0.35702   0.35730   0.35878
     Eigenvalues ---    0.36091   0.37862   0.38292   0.38622   0.40329
     Eigenvalues ---    0.42735   0.43718   0.44191   0.46210   0.47362
     Eigenvalues ---    0.48241   0.49881   0.53029   0.54639   0.56141
     Eigenvalues ---    0.58888   0.85027
 RFO step:  Lambda=-1.59239390D-02 EMin= 1.03513051D-02
 Linear search not attempted -- first point.
 Iteration  1 RMS(Cart)=  0.06274327 RMS(Int)=  0.00130028
 Iteration  2 RMS(Cart)=  0.00269999 RMS(Int)=  0.00016264
 Iteration  3 RMS(Cart)=  0.00000376 RMS(Int)=  0.00016262
 Iteration  4 RMS(Cart)=  0.00000000 RMS(Int)=  0.00016262
 Variable       Old X    -DE/DX   Delta X   Delta X   Delta X     New X
                                 (Linear)    (Quad)   (Total)
    R1        2.05980   0.00020   0.00000   0.00054   0.00054   2.06035
    R2        2.07339   0.00147   0.00000   0.00414   0.00414   2.07753
    R3        2.73471  -0.00339   0.00000  -0.00844  -0.00844   2.72627
    R4        2.06694   0.00105   0.00000   0.00293   0.00293   2.06988
    R5        2.07187   0.00143   0.00000   0.00401   0.00401   2.07588
    R6        2.73942  -0.00287   0.00000  -0.00721  -0.00721   2.73222
    R7        2.05950   0.00023   0.00000   0.00062   0.00062   2.06013
    R8        2.06674   0.00063   0.00000   0.00175   0.00175   2.06849
    R9        2.54132   0.02133   0.00000   0.03695   0.03695   2.57827
   R10        2.05257  -0.00133   0.00000  -0.00360  -0.00360   2.04897
   R11        2.56927   0.02058   0.00000   0.03768   0.03768   2.60695
   R12        2.74566  -0.02001   0.00000  -0.05071  -0.05071   2.69495
   R13        2.03940   0.00225   0.00000   0.00598   0.00598   2.04538
   R14        2.35313   0.06483   0.00000   0.07485   0.07485   2.42798
   R15        2.79598   0.00754   0.00000   0.02082   0.02082   2.81680
   R16        2.68684  -0.00675   0.00000  -0.01622  -0.01621   2.67064
   R17        2.64292  -0.00478   0.00000  -0.01046  -0.01048   2.63244
   R18        2.51831   0.01152   0.00000   0.01906   0.01906   2.53737
   R19        2.62914  -0.00290   0.00000  -0.00627  -0.00624   2.62290
   R20        2.61151   0.00247   0.00000   0.00522   0.00518   2.61669
   R21        2.04551   0.00150   0.00000   0.00401   0.00401   2.04952
   R22        1.86686  -0.01794   0.00000  -0.03485  -0.03485   1.83200
   R23        2.04505   0.00032   0.00000   0.00085   0.00085   2.04590
   R24        2.62053   0.00260   0.00000   0.00564   0.00566   2.62619
   R25        2.64930   0.00034   0.00000   0.00147   0.00146   2.65076
   R26        2.04273  -0.00004   0.00000  -0.00012  -0.00012   2.04262
   R27        2.55455  -0.00095   0.00000  -0.00169  -0.00169   2.55286
   R28        2.66794   0.00041   0.00000   0.00092   0.00092   2.66885
   R29        2.06997  -0.00008   0.00000  -0.00023  -0.00023   2.06974
   R30        2.05724  -0.00011   0.00000  -0.00029  -0.00029   2.05695
   R31        2.07004  -0.00005   0.00000  -0.00014  -0.00014   2.06991
    A1        1.89702  -0.00048   0.00000  -0.00229  -0.00229   1.89472
    A2        1.90904  -0.00004   0.00000  -0.00034  -0.00034   1.90870
    A3        1.89195  -0.00035   0.00000  -0.00275  -0.00275   1.88920
    A4        1.94600   0.00121   0.00000   0.00723   0.00722   1.95323
    A5        1.89339  -0.00077   0.00000  -0.00409  -0.00410   1.88928
    A6        1.92542   0.00037   0.00000   0.00190   0.00189   1.92732
    A7        1.94527   0.00174   0.00000   0.01048   0.01047   1.95574
    A8        1.89305  -0.00082   0.00000  -0.00490  -0.00490   1.88815
    A9        1.89505  -0.00075   0.00000  -0.00284  -0.00286   1.89219
   A10        1.91115  -0.00024   0.00000  -0.00212  -0.00212   1.90903
   A11        1.92699   0.00032   0.00000   0.00199   0.00198   1.92896
   A12        1.89121  -0.00033   0.00000  -0.00308  -0.00309   1.88813
   A13        2.05763   0.00030   0.00000   0.00022   0.00016   2.05779
   A14        2.09735  -0.00065   0.00000  -0.00354  -0.00360   2.09375
   A15        2.11188   0.00024   0.00000  -0.00015  -0.00022   2.11167
   A16        2.01721  -0.00235   0.00000  -0.01593  -0.01593   2.00127
   A17        2.21885  -0.00355   0.00000  -0.01505  -0.01505   2.20380
   A18        2.04709   0.00590   0.00000   0.03099   0.03099   2.07808
   A19        2.06289   0.01641   0.00000   0.06954   0.06954   2.13243
   A20        2.11419   0.00028   0.00000   0.01345   0.01345   2.12764
   A21        2.10608  -0.01668   0.00000  -0.08296  -0.08296   2.02311
   A22        2.10191   0.01068   0.00000   0.04016   0.04002   2.14193
   A23        2.10100   0.01178   0.00000   0.04428   0.04417   2.14516
   A24        2.08028  -0.02247   0.00000  -0.08450  -0.08461   1.99567
   A25        2.08675  -0.00079   0.00000  -0.00208  -0.00210   2.08465
   A26        2.14986  -0.00398   0.00000  -0.01409  -0.01410   2.13576
   A27        2.04657   0.00476   0.00000   0.01617   0.01599   2.06257
   A28        2.13256  -0.00395   0.00000  -0.01408  -0.01425   2.11830
   A29        2.10033   0.00075   0.00000   0.00125   0.00102   2.10134
   A30        2.05030   0.00320   0.00000   0.01281   0.01261   2.06291
   A31        2.14415  -0.00332   0.00000  -0.01377  -0.01397   2.13017
   A32        2.08758  -0.00206   0.00000  -0.01423  -0.01425   2.07333
   A33        2.05146   0.00538   0.00000   0.02807   0.02805   2.07950
   A34        1.85350   0.00712   0.00000   0.04049   0.04049   1.89399
   A35        2.08440   0.00149   0.00000   0.00671   0.00672   2.09112
   A36        2.10378  -0.00202   0.00000  -0.00798  -0.00800   2.09578
   A37        2.09500   0.00053   0.00000   0.00127   0.00128   2.09628
   A38        2.07161  -0.00026   0.00000   0.00154   0.00142   2.07303
   A39        2.08742  -0.00006   0.00000  -0.00181  -0.00175   2.08566
   A40        2.12415   0.00031   0.00000   0.00028   0.00034   2.12449
   A41        2.09992   0.00007   0.00000   0.00271   0.00264   2.10256
   A42        2.02040  -0.00064   0.00000  -0.00365  -0.00361   2.01678
   A43        2.16287   0.00058   0.00000   0.00094   0.00097   2.16384
   A44        2.07187  -0.00021   0.00000  -0.00080  -0.00080   2.07107
   A45        1.94453   0.00009   0.00000   0.00052   0.00052   1.94505
   A46        1.84767   0.00005   0.00000   0.00030   0.00030   1.84797
   A47        1.94469  -0.00030   0.00000  -0.00177  -0.00177   1.94292
   A48        1.90659   0.00000   0.00000   0.00012   0.00012   1.90671
   A49        1.91207   0.00009   0.00000   0.00047   0.00047   1.91254
   A50        1.90680   0.00008   0.00000   0.00037   0.00037   1.90717
    D1       -0.30468  -0.00043   0.00000  -0.01205  -0.01204  -0.31672
    D2        3.02810   0.00015   0.00000   0.00806   0.00805   3.03614
    D3        1.79395  -0.00029   0.00000  -0.01053  -0.01052   1.78343
    D4       -1.15646   0.00029   0.00000   0.00958   0.00957  -1.14689
    D5       -2.38421  -0.00021   0.00000  -0.00962  -0.00961  -2.39382
    D6        0.94857   0.00038   0.00000   0.01049   0.01048   0.95905
    D7       -1.11533  -0.00004   0.00000   0.00027   0.00027  -1.11506
    D8        1.83341  -0.00073   0.00000  -0.02040  -0.02043   1.81298
    D9        3.07326   0.00003   0.00000   0.00112   0.00113   3.07439
   D10       -0.26119  -0.00065   0.00000  -0.01955  -0.01956  -0.28075
   D11        0.99237   0.00039   0.00000   0.00502   0.00504   0.99741
   D12       -2.34208  -0.00030   0.00000  -0.01565  -0.01565  -2.35773
   D13        3.11131   0.00012   0.00000   0.00022   0.00024   3.11155
   D14       -0.04022   0.00021   0.00000   0.00204   0.00204  -0.03818
   D15        0.16693   0.00071   0.00000   0.02094   0.02094   0.18786
   D16       -2.98460   0.00080   0.00000   0.02275   0.02273  -2.96187
   D17       -3.11278   0.00051   0.00000   0.01254   0.01261  -3.10017
   D18        0.03582   0.00032   0.00000   0.00657   0.00648   0.04230
   D19        0.01873   0.00056   0.00000   0.01414   0.01423   0.03296
   D20       -3.11585   0.00036   0.00000   0.00818   0.00810  -3.10775
   D21        0.02912  -0.00030   0.00000  -0.00950  -0.00988   0.01924
   D22       -3.11011   0.00055   0.00000   0.02027   0.02084  -3.08927
   D23       -3.11945  -0.00004   0.00000  -0.00316  -0.00373  -3.12318
[...]
 Alpha virt. eigenvalues --    2.15633   2.16798   2.19034   2.19215   2.20885
 Alpha virt. eigenvalues --    2.21351   2.22300   2.22775   2.25017   2.27118
 Alpha virt. eigenvalues --    2.28688   2.29249   2.32011   2.35976   2.38461
 Alpha virt. eigenvalues --    2.41241   2.43169   2.45211   2.49273   2.50886
 Alpha virt. eigenvalues --    2.51336   2.53576   2.55871   2.56213   2.57986
 Alpha virt. eigenvalues --    2.58494   2.58947   2.59617   2.61142   2.61731
 Alpha virt. eigenvalues --    2.64302   2.66234   2.66352   2.69224   2.71058
 Alpha virt. eigenvalues --    2.72397   2.73917   2.75102   2.76578   2.77749
 Alpha virt. eigenvalues --    2.79601   2.80195   2.81459   2.83447   2.84685
 Alpha virt. eigenvalues --    2.86000   2.86138   2.87330   2.88065   2.89874
 Alpha virt. eigenvalues --    2.91543   2.93076   2.96015   2.96447   2.97542
 Alpha virt. eigenvalues --    2.99315   3.00148   3.01535   3.02727   3.04750
 Alpha virt. eigenvalues --    3.05375   3.06439   3.10091   3.11158   3.14574
 Alpha virt. eigenvalues --    3.16009   3.20098   3.21452   3.21899   3.23768
 Alpha virt. eigenvalues --    3.25291   3.27087   3.30738   3.32630   3.32969
 Alpha virt. eigenvalues --    3.36215   3.38313   3.41145   3.43457   3.50808
 Alpha virt. eigenvalues --    3.52459   3.56708   3.59388   3.59529   3.63319
 Alpha virt. eigenvalues --    3.66683   3.66813   3.69081   3.75859   3.78319
 Alpha virt. eigenvalues --    3.81240   3.83341   3.86243   3.88068   3.90056
 Alpha virt. eigenvalues --    3.90912   3.93378   3.97972   4.03244   4.09264
 Alpha virt. eigenvalues --    4.17128   4.17931   4.21651   4.27210   4.30408
 Alpha virt. eigenvalues --    4.32676   4.37241   4.52366   4.96084   4.97223
 Alpha virt. eigenvalues --    5.10984   5.14859   5.15746   5.23980   5.38286
 Alpha virt. eigenvalues --    5.52112   5.58394   5.84523   5.88782   5.95503
 Alpha virt. eigenvalues --   23.73868  23.89545  24.02918  24.05797  24.05987
 Alpha virt. eigenvalues --   24.06367  24.07854  24.10270  24.18162  24.25922
 Alpha virt. eigenvalues --   24.26194  24.33353  35.65923  50.08517  50.12092
 Alpha virt. eigenvalues --   50.16976
          Condensed to atoms (all electrons):
               1          2          3          4          5          6
     1  C    5.374305   0.386098   0.402275  -0.144058   0.004302   0.285704
     2  H    0.386098   0.515593  -0.035008   0.010869  -0.008166  -0.048691
     3  H    0.402275  -0.035008   0.529468  -0.020877   0.010172  -0.058407
     4  C   -0.144058   0.010869  -0.020877   5.303667   0.403710   0.272521
     5  H    0.004302  -0.008166   0.010172   0.403710   0.556520  -0.032608
     6  N    0.285704  -0.048691  -0.058407   0.272521  -0.032608   6.744364
     7  H    0.404460  -0.015892  -0.043933   0.014144  -0.000276  -0.031004
     8  H    0.006316   0.003908  -0.000635   0.397250  -0.037935  -0.067508
     9  H   -0.021746   0.005933   0.000209   0.413779  -0.057987  -0.053817
    10  C   -0.307062   0.026726   0.032721  -0.119837  -0.085575   0.193074
    11  H    0.007482  -0.000463  -0.003319  -0.022379   0.003217  -0.060449
    12  C    0.581333   0.002481  -0.029102  -0.192920   0.052273  -0.188758
    13  C   -0.390459  -0.019119   0.030878  -0.008274   0.004725  -0.050986
    14  H    0.025755   0.001202  -0.016321  -0.004455   0.001879  -0.038012
    15  O    0.000983   0.000254   0.000258   0.004687  -0.000463   0.007084
    16  C   -0.219978  -0.010544   0.011930   0.035359   0.001571  -0.046192
    17  C    0.030090   0.003617  -0.007058   0.010613  -0.001169   0.032230
    18  C   -0.003679  -0.001348   0.005888  -0.001312   0.000588  -0.008119
    19  O   -0.000187  -0.000102   0.001245  -0.001372   0.000065  -0.003573
    20  C    0.022846   0.000955  -0.002681   0.001645   0.000077   0.007686
    21  C   -0.006062  -0.000021   0.001288   0.000115  -0.000112  -0.000934
    22  H   -0.000544   0.000011  -0.000038  -0.000225  -0.000070  -0.000074
    23  H    0.001202   0.000196   0.000956   0.001868   0.000109   0.006117
    24  H   -0.000053   0.000004  -0.000002  -0.000004   0.000003  -0.000005
    25  C   -0.000961  -0.000035   0.000097   0.000575  -0.000107  -0.000184
    26  H    0.000026   0.000006  -0.000001   0.000037   0.000009   0.000027
    27  O    0.000008   0.000001   0.000002   0.000000   0.000000   0.000000
    28  C   -0.000052   0.000000  -0.000002   0.000005  -0.000001  -0.000004
    29  H   -0.000001   0.000000   0.000000   0.000000   0.000000   0.000000
    30  H   -0.000001   0.000000   0.000000   0.000000   0.000000   0.000000
    31  H    0.000003   0.000000   0.000000   0.000001   0.000000  -0.000001
               7          8          9         10         11         12
     1  C    0.404460   0.006316  -0.021746  -0.307062   0.007482   0.581333
     2  H   -0.015892   0.003908   0.005933   0.026726  -0.000463   0.002481
     3  H   -0.043933  -0.000635   0.000209   0.032721  -0.003319  -0.029102
     4  C    0.014144   0.397250   0.413779  -0.119837  -0.022379  -0.192920
     5  H   -0.000276  -0.037935  -0.057987  -0.085575   0.003217   0.052273
     6  N   -0.031004  -0.067508  -0.053817   0.193074  -0.060449  -0.188758
     7  H    0.522315  -0.003096  -0.000187   0.017500   0.001180  -0.006198
     8  H   -0.003096   0.518524  -0.011195   0.052699  -0.003193  -0.032072
     9  H   -0.000187  -0.011195   0.551553   0.031048  -0.001581  -0.020110
    10  C    0.017500   0.052699   0.031048  10.131449   0.365523  -4.962719
    11  H    0.001180  -0.003193  -0.001581   0.365523   0.462184  -0.029625
    12  C   -0.006198  -0.032072  -0.020110  -4.962719  -0.029625  24.651367
    13  C   -0.027930   0.008492   0.001741   0.271469   0.056765  -5.987053
    14  H   -0.002891  -0.001594  -0.001456  -0.377421   0.002496   0.693076
    15  O    0.000384   0.000816   0.000201   0.169565   0.021186  -0.160963
    16  C   -0.023190   0.006124   0.000737   0.656717   0.022344  -8.647573
    17  C    0.017795  -0.000582   0.000403   0.599177  -0.013872  -0.588608
    18  C   -0.005421   0.001940   0.000197  -0.459982  -0.017986   1.063492
    19  O   -0.001662  -0.000185  -0.000050  -0.039059   0.003671   0.143544
    20  C    0.003751  -0.000428   0.000024  -0.201786  -0.005366   1.211992
    21  C    0.001023   0.000710   0.000020   0.180206  -0.006236  -0.777995
    22  H    0.000007   0.000053   0.000012  -0.011151   0.000178  -0.067081
    23  H   -0.003824   0.000269   0.000005  -0.019658  -0.002731  -0.000829
    24  H   -0.000023   0.000001   0.000000  -0.004222  -0.000004  -0.005055
    25  C    0.001140   0.000132   0.000025   0.081479  -0.002184  -0.175371
    26  H    0.000002   0.000000  -0.000002   0.002897   0.000043  -0.005164
    27  O    0.000000   0.000000   0.000000   0.000337   0.000018   0.000375
    28  C    0.000019   0.000002   0.000000   0.001690  -0.000026  -0.021208
    29  H   -0.000001   0.000000   0.000000   0.000120   0.000006  -0.000175
    30  H    0.000002   0.000000   0.000000   0.000018  -0.000003  -0.000586
    31  H    0.000000   0.000000   0.000000  -0.000052   0.000003   0.001055
              13         14         15         16         17         18
     1  C   -0.390459   0.025755   0.000983  -0.219978   0.030090  -0.003679
     2  H   -0.019119   0.001202   0.000254  -0.010544   0.003617  -0.001348
     3  H    0.030878  -0.016321   0.000258   0.011930  -0.007058   0.005888
     4  C   -0.008274  -0.004455   0.004687   0.035359   0.010613  -0.001312
     5  H    0.004725   0.001879  -0.000463   0.001571  -0.001169   0.000588
     6  N   -0.050986  -0.038012   0.007084  -0.046192   0.032230  -0.008119
     7  H   -0.027930  -0.002891   0.000384  -0.023190   0.017795  -0.005421
     8  H    0.008492  -0.001594   0.000816   0.006124  -0.000582   0.001940
     9  H    0.001741  -0.001456   0.000201   0.000737   0.000403   0.000197
    10  C    0.271469  -0.377421   0.169565   0.656717   0.599177  -0.459982
    11  H    0.056765   0.002496   0.021186   0.022344  -0.013872  -0.017986
    12  C   -5.987053   0.693076  -0.160963  -8.647573  -0.588608   1.063492
    13  C   14.669028   0.045938   0.630848   1.544349   0.379018  -2.928744
    14  H    0.045938   0.575245  -0.016380   0.025520  -0.121901   0.026465
    15  O    0.630848  -0.016380   8.078330  -0.262627  -0.107624   0.023448
    16  C    1.544349   0.025520  -0.262627  19.081013  -1.521799  -0.874071
    17  C    0.379018  -0.121901  -0.107624  -1.521799  13.761532  -5.317559
    18  C   -2.928744   0.026465   0.023448  -0.874071  -5.317559  14.568501
    19  O    0.090155  -0.022917   0.001776   0.131204   0.126957   0.078904
    20  C   -2.058355   0.014362   0.026406  -4.117340  -1.117108   3.039317
    21  C    0.303225  -0.029319  -0.098400  -0.039434   0.061548  -0.630976
    22  H   -0.047025  -0.003244  -0.010209   0.054125   0.095553   0.215138
    23  H   -0.200636  -0.000668  -0.004239  -0.060814   0.042195   0.061049
    24  H   -0.059648  -0.000759  -0.000222  -0.083990  -0.083180   0.066231
    25  C    0.242122  -0.014036  -0.003189  -1.029813   0.105620  -2.456705
    26  H   -0.011110   0.000025  -0.001650   0.031750  -0.003572   0.015797
    27  O    0.004451  -0.000311  -0.000073   0.052591  -0.034403   0.010653
    28  C   -0.019440  -0.000365  -0.001115  -0.128483   0.073455  -0.216571
    29  H   -0.000337  -0.000005   0.000036   0.010037  -0.004161   0.000189
    30  H   -0.001194  -0.000035  -0.000031  -0.010343   0.006068  -0.015801
    31  H    0.004363  -0.000004   0.000050   0.017084  -0.010881   0.017390
              19         20         21         22         23         24
     1  C   -0.000187   0.022846  -0.006062  -0.000544   0.001202  -0.000053
     2  H   -0.000102   0.000955  -0.000021   0.000011   0.000196   0.000004
     3  H    0.001245  -0.002681   0.001288  -0.000038   0.000956  -0.000002
     4  C   -0.001372   0.001645   0.000115  -0.000225   0.001868  -0.000004
     5  H    0.000065   0.000077  -0.000112  -0.000070   0.000109   0.000003
     6  N   -0.003573   0.007686  -0.000934  -0.000074   0.006117  -0.000005
     7  H   -0.001662   0.003751   0.001023   0.000007  -0.003824  -0.000023
     8  H   -0.000185  -0.000428   0.000710   0.000053   0.000269   0.000001
     9  H   -0.000050   0.000024   0.000020   0.000012   0.000005   0.000000
    10  C   -0.039059  -0.201786   0.180206  -0.011151  -0.019658  -0.004222
    11  H    0.003671  -0.005366  -0.006236   0.000178  -0.002731  -0.000004
    12  C    0.143544   1.211992  -0.777995  -0.067081  -0.000829  -0.005055
    13  C    0.090155  -2.058355   0.303225  -0.047025  -0.200636  -0.059648
    14  H   -0.022917   0.014362  -0.029319  -0.003244  -0.000668  -0.000759
    15  O    0.001776   0.026406  -0.098400  -0.010209  -0.004239  -0.000222
    16  C    0.131204  -4.117340  -0.039434   0.054125  -0.060814  -0.083990
    17  C    0.126957  -1.117108   0.061548   0.095553   0.042195  -0.083180
    18  C    0.078904   3.039317  -0.630976   0.215138   0.061049   0.066231
    19  O    7.976841  -0.494654   0.042708  -0.001941   0.247395  -0.025287
    20  C   -0.494654  14.678312  -4.393924   0.044846   0.162751   0.684292
    21  C    0.042708  -4.393924  11.034787  -0.040765  -0.005690  -0.102394
    22  H   -0.001941   0.044846  -0.040765   0.494970   0.000328   0.002943
    23  H    0.247395   0.162751  -0.005690   0.000328   0.433768   0.003870
    24  H   -0.025287   0.684292  -0.102394   0.002943   0.003870   0.471721
    25  C   -0.014665  -0.337684  -0.191056   0.047276  -0.010346  -0.097418
    26  H    0.000899  -0.048664   0.517053  -0.017153   0.000646  -0.002048
    27  O   -0.001862  -0.596787   0.243731  -0.001566  -0.000725  -0.018188
    28  C   -0.000797   0.165518  -0.275909   0.007331   0.000229   0.006262
    29  H   -0.000029  -0.015592   0.024125   0.000789  -0.000014  -0.000506
    30  H    0.000025   0.013961  -0.009773   0.000432   0.000050   0.000611
    31  H   -0.000053  -0.010491   0.016740  -0.000399  -0.000169  -0.000209
              25         26         27         28         29         30
     1  C   -0.000961   0.000026   0.000008  -0.000052  -0.000001  -0.000001
     2  H   -0.000035   0.000006   0.000001   0.000000   0.000000   0.000000
     3  H    0.000097  -0.000001   0.000002  -0.000002   0.000000   0.000000
     4  C    0.000575   0.000037   0.000000   0.000005   0.000000   0.000000
     5  H   -0.000107   0.000009   0.000000  -0.000001   0.000000   0.000000
     6  N   -0.000184   0.000027   0.000000  -0.000004   0.000000   0.000000
     7  H    0.001140   0.000002   0.000000   0.000019  -0.000001   0.000002
     8  H    0.000132   0.000000   0.000000   0.000002   0.000000   0.000000
     9  H    0.000025  -0.000002   0.000000   0.000000   0.000000   0.000000
    10  C    0.081479   0.002897   0.000337   0.001690   0.000120   0.000018
    11  H   -0.002184   0.000043   0.000018  -0.000026   0.000006  -0.000003
    12  C   -0.175371  -0.005164   0.000375  -0.021208  -0.000175  -0.000586
    13  C    0.242122  -0.011110   0.004451  -0.019440  -0.000337  -0.001194
    14  H   -0.014036   0.000025  -0.000311  -0.000365  -0.000005  -0.000035
    15  O   -0.003189  -0.001650  -0.000073  -0.001115   0.000036  -0.000031
    16  C   -1.029813   0.031750   0.052591  -0.128483   0.010037  -0.010343
    17  C    0.105620  -0.003572  -0.034403   0.073455  -0.004161   0.006068
    18  C   -2.456705   0.015797   0.010653  -0.216571   0.000189  -0.015801
    19  O   -0.014665   0.000899  -0.001862  -0.000797  -0.000029   0.000025
    20  C   -0.337684  -0.048664  -0.596787   0.165518  -0.015592   0.013961
    21  C   -0.191056   0.517053   0.243731  -0.275909   0.024125  -0.009773
    22  H    0.047276  -0.017153  -0.001566   0.007331   0.000789   0.000432
    23  H   -0.010346   0.000646  -0.000725   0.000229  -0.000014   0.000050
    24  H   -0.097418  -0.002048  -0.018188   0.006262  -0.000506   0.000611
    25  C   10.082968  -0.149478   0.246824   0.136804  -0.033816   0.054921
    26  H   -0.149478   0.510555  -0.016239  -0.010581  -0.009384   0.001997
    27  O    0.246824  -0.016239   8.184254   0.189485  -0.031376  -0.070175
    28  C    0.136804  -0.010581   0.189485   5.263017   0.404142   0.398745
    29  H   -0.033816  -0.009384  -0.031376   0.404142   0.575036  -0.020188
    30  H    0.054921   0.001997  -0.070175   0.398745  -0.020188   0.466143
    31  H   -0.052247  -0.007004  -0.035898   0.402731  -0.065187  -0.022733
              31
     1  C    0.000003
     2  H    0.000000
     3  H    0.000000
     4  C    0.000001
     5  H    0.000000
     6  N   -0.000001
     7  H    0.000000
     8  H    0.000000
     9  H    0.000000
    10  C   -0.000052
    11  H    0.000003
    12  C    0.001055
    13  C    0.004363
    14  H   -0.000004
    15  O    0.000050
    16  C    0.017084
    17  C   -0.010881
    18  C    0.017390
    19  O   -0.000053
    20  C   -0.010491
    21  C    0.016740
    22  H   -0.000399
    23  H   -0.000169
    24  H   -0.000209
    25  C   -0.052247
    26  H   -0.007004
    27  O   -0.035898
    28  C    0.402731
    29  H   -0.065187
    30  H   -0.022733
    31  H    0.581287
 Mulliken charges:
               1
     1  C   -0.438346
     2  H    0.181535
     3  H    0.189996
     4  C   -0.355130
     5  H    0.185251
     6  N    0.140517
     7  H    0.181808
     8  H    0.161187
     9  H    0.162243
    10  C   -0.225888
    11  H    0.223123
    12  C   -0.501823
    13  C   -0.477259
    14  H    0.240133
    15  O   -0.299127
    16  C    1.393735
    17  C   -0.412392
    18  C   -0.256916
    19  O   -0.236991
    20  C   -0.677881
    21  C    0.181721
    22  H    0.237492
    23  H    0.347341
    24  H    0.247280
    25  C   -0.430688
    26  H    0.200279
    27  O   -0.125125
    28  C   -0.374881
    29  H    0.166293
    30  H    0.207892
    31  H    0.164620
 Sum of Mulliken charges =   0.00000
 Mulliken charges with hydrogens summed into heavy atoms:
               1
     1  C    0.114994
     4  C    0.153552
     6  N    0.140517
    10  C   -0.002766
    12  C   -0.261690
    13  C   -0.477259
    15  O   -0.299127
    16  C    1.393735
    17  C   -0.412392
    18  C   -0.019423
    19  O    0.110350
    20  C   -0.430601
    21  C    0.382000
    25  C   -0.430688
    27  O   -0.125125
    28  C    0.163924
 Electronic spatial extent (au):  <R**2>=           5671.1800
 Charge=              0.0000 electrons
 Dipole moment (field-independent basis, Debye):
    X=              4.8698    Y=              0.6500    Z=             -3.9154  Tot=              6.2823
 Quadrupole moment (field-independent basis, Debye-Ang):
   XX=            -52.3403   YY=           -100.3826   ZZ=            -99.0745
   XY=              8.3635   XZ=             -0.1827   YZ=              3.0939
 Traceless Quadrupole moment (field-independent basis, Debye-Ang):
   XX=             31.5922   YY=            -16.4501   ZZ=            -15.1420
   XY=              8.3635   XZ=             -0.1827   YZ=              3.0939
 Octapole moment (field-independent basis, Debye-Ang**2):
  XXX=             85.7452  YYY=              8.3005  ZZZ=             -3.0160  XYY=              3.8921
  XXY=            -25.1470  XXZ=            -39.1864  XZZ=              5.3078  YZZ=              7.2623
  YYZ=            -14.7824  XYZ=            -10.2070
 Hexadecapole moment (field-independent basis, Debye-Ang**3):
 XXXX=          -4971.2939 YYYY=           -700.5997 ZZZZ=           -414.4296 XXXY=             84.0825
 XXXZ=             55.6788 YYYX=             14.5030 YYYZ=             15.9589 ZZZX=              3.6113
 ZZZY=              2.8436 XXYY=          -1144.2643 XXZZ=          -1108.9994 YYZZ=           -196.9568
 XXYZ=            -18.6822 YYXZ=            -10.3364 ZZXY=              7.9214
 N-N= 1.047542403087D+03 E-N=-3.837715553717D+03  KE= 7.435974060384D+02
 1\1\GINC-NXN33\FOpt\RwB97XD TD-FC\6-311++G(d,p)\C12H15N1O3\BTX008\20-J
 ul-2017\0\\# wb97xd 6-311++g** opt td=(nstates=1,root=1)\\restarted op
 timization\\0,1\C,3.2985938694,-0.2486809793,2.781806626\H,4.158159765
 ,-0.478391446,3.4132192755\H,3.2613842913,0.8412282376,2.6224447052\C,
 4.7433536509,-1.0666264782,0.9834396664\H,5.1133387822,-0.0904830957,0
 .6333423036\N,3.4091113569,-0.9825263247,1.5433514503\H,2.3951732567,-
 0.5490517627,3.3181372347\H,4.7416989211,-1.7555833356,0.1366848758\H,
 5.4350867558,-1.4532704946,1.7353735587\C,2.3637362065,-0.9180792855,0
 .6469005009\H,2.5452981839,-1.4247058738,-0.2938122317\C,1.1390980612,
 -0.3234830769,0.8705082619\C,0.1039044183,-0.3392071997,-0.068733648\H
 ,0.9310434313,0.220864483,1.7849769345\O,0.1423647715,-0.9094185359,-1
 .2371566628\C,-1.2854662745,0.1277828031,0.1426186097\C,-2.1048901285,
 -0.5043364368,1.1117273806\C,-1.8564232866,1.1125386222,-0.6711970571\
 O,-1.6371058453,-1.5047740623,1.8761205067\C,-3.4061653748,-0.07865068
 07,1.3103007961\C,-3.1587279681,1.5354022234,-0.492346473\H,-1.2428057
 664,1.5567808444,-1.4456422038\H,-0.7211535016,-1.6817959024,1.6184906
 599\H,-4.0231857929,-0.5425821731,2.0688322543\C,-3.9341232729,0.93411
 37957,0.5118555954\H,-3.5600381589,2.3155802949,-1.1235462513\O,-5.211
 8737319,1.2689846401,0.775950253\C,-5.8295413103,2.2771292133,-0.00008
 32029\H,-5.857770034,2.0036719344,-1.0597312674\H,-6.8470115342,2.3603
 617599,0.3768328376\H,-5.3198193332,3.2388746177,0.1191025332\\Version
 =ES64L-G09RevD.01\State=1-A\HF=-746.6360898\RMSD=5.960e-09\RMSF=5.640e
 -06\Dipole=0.1304874,1.1423712,0.3245386\PG=C01 [X(C12H15N1O3)]\\@


 A true friend is someone who is there for
 you when he'd rather be anywhere else.
                               -- Len Wein
 Job cpu time:       1 days 13 hours 47 minutes 17.9 seconds.
 File lengths (MBytes):  RWF=    206 Int=      0 D2E=      0 Chk=     29 Scr=      1
 Normal termination of Gaussian 09 at Thu Jul 20 01:39:10 2017.
