 Entering Gaussian System, Link 0=g09
 Input=5_opts1_E.com
 Output=5_opts1_E.out
 Initial command:
 /share/apps/gaussian/g09_D01/g09/l1.exe "/tmp/4029983.1.chemistry.q/Gau-15242.inp" -scrdir="/tmp/4029983.1.chemistry.q/"
 Entering Link 1 = /share/apps/gaussian/g09_D01/g09/l1.exe PID=     15243.
  
 Copyright (c) 1988,1990,1992,1993,1995,1998,2003,2009,2013,
            Gaussian, Inc.  All Rights Reserved.
  
 This is part of the Gaussian(R) 09 program.  It is based on
 the Gaussian(R) 03 system (copyright 2003, Gaussian, Inc.),
 the Gaussian(R) 98 system (copyright 1998, Gaussian, Inc.),
 the Gaussian(R) 94 system (copyright 1995, Gaussian, Inc.),
 the Gaussian 92(TM) system (copyright 1992, Gaussian, Inc.),
 the Gaussian 90(TM) system (copyright 1990, Gaussian, Inc.),
 the Gaussian 88(TM) system (copyright 1988, Gaussian, Inc.),
 the Gaussian 86(TM) system (copyright 1986, Carnegie Mellon
 University), and the Gaussian 82(TM) system (copyright 1983,
 Carnegie Mellon University). Gaussian is a federally registered
 trademark of Gaussian, Inc.
  
 This software contains proprietary and confidential information,
 including trade secrets, belonging to Gaussian, Inc.
  
 This software is provided under written license and may be
 used, copied, transmitted, or stored only in accord with that
 written license.
  
 The following legend is applicable only to US Government
 contracts under FAR:
  
                    RESTRICTED RIGHTS LEGEND
  
 Use, reproduction and disclosure by the US Government is
 subject to restrictions as set forth in subparagraphs (a)
 and (c) of the Commercial Computer Software - Restricted
 Rights clause in FAR 52.227-19.
  
 Gaussian, Inc.
 340 Quinnipiac St., Bldg. 40, Wallingford CT 06492
  
  
 ---------------------------------------------------------------
 Warning -- This program may not be used in any manner that
 competes with the business of Gaussian, Inc. or will provide
 assistance to any competitor of Gaussian, Inc.  The licensee
 of this program is prohibited from giving any competitor of
 Gaussian, Inc. access to this program.  By using this program,
 the user acknowledges that Gaussian, Inc. is engaged in the
 business of creating and licensing software in the field of
 computational chemistry and represents and warrants to the
 licensee that it is not a competitor of Gaussian, Inc. and that
 it will not use this program in any manner prohibited above.
 ---------------------------------------------------------------
  

 Cite this work as:
 Gaussian 09, Revision D.01,
 M. J. Frisch, G. W. Trucks, H. B. Schlegel, G. E. Scuseria, 
 M. A. Robb, J. R. Cheeseman, G. Scalmani, V. Barone, B. Mennucci, 
 G. A. Petersson, H. Nakatsuji, M. Caricato, X. Li, H. P. Hratchian, 
 A. F. Izmaylov, J. Bloino, G. Zheng, J. L. Sonnenberg, M. Hada, 
 M. Ehara, K. Toyota, R. Fukuda, J. Hasegawa, M. Ishida, T. Nakajima, 
 Y. Honda, O. Kitao, H. Nakai, T. Vreven, J. A. Montgomery, Jr., 
 J. E. Peralta, F. Ogliaro, M. Bearpark, J. J. Heyd, E. Brothers, 
 K. N. Kudin, V. N. Staroverov, T. Keith, R. Kobayashi, J. Normand, 
 K. Raghavachari, A. Rendell, J. C. Burant, S. S. Iyengar, J. Tomasi, 
 M. Cossi, N. Rega, J. M. Millam, M. Klene, J. E. Knox, J. B. Cross, 
 V. Bakken, C. Adamo, J. Jaramillo, R. Gomperts, R. E. Stratmann, 
 O. Yazyev, A. J. Austin, R. Cammi, C. Pomelli, J. W. Ochterski, 
 R. L. Martin, K. Morokuma, V. G. Zakrzewski, G. A. Voth, 
 P. Salvador, J. J. Dannenberg, S. Dapprich, A. D. Daniels, 
 O. Farkas, J. B. Foresman, J. V. Ortiz, J. Cioslowski, 
 and D. J. Fox, Gaussian, Inc., Wallingford CT, 2013.
 
 ******************************************
 Gaussian 09:  ES64L-G09RevD.01 24-Apr-2013
                18-Jul-2017 
 ******************************************
 %chk=5_opts1_E.chk
 %mem=28GB
 %nproc=4
 Will use up to    4 processors via shared memory.
 ---------------------------------------------
 # wb97xd 6-311++g** opt td=(nstates=1,root=1)
 ---------------------------------------------
 1/14=-1,18=20,19=15,26=3,38=1/1,3;
 2/9=110,12=2,17=6,18=5,40=1/2;
 3/5=4,6=6,7=1111,11=9,16=1,25=1,30=1,71=1,74=-58/1,2,8,3;
 4//1;
 5/5=2,38=5/2;
 8/6=1,10=2,107=1,108=1/1;
 9/8=1,15=2,41=1,42=1,70=2/14;
 10/5=4/2;
 6/7=2,8=2,9=2,10=2/1;
 7/12=6,13=5,14=1/1,2,3,16;
 1/14=-1,18=20,19=15,26=3/3(2);
 2/9=110/2;
 99//99;
 2/9=110/2;
 3/5=4,6=6,7=1111,11=9,16=1,25=1,30=1,71=1,74=-58/1,2,8,3;
 4/5=5,16=3,69=1/1;
 5/5=2,38=5/2;
 8/6=1,10=2,107=1,108=1/1;
 9/8=1,15=2,41=1,42=1,49=4,70=2/14;
 10/5=4/2;
 7/12=6,13=5,14=1/1,2,3,16;
 1/14=-1,18=20,19=15,26=3/3(-8);
 2/9=110/2;
 6/7=2,8=2,9=2,10=2/1;
 99//99;
 -----------
 Geom Opt s1
 -----------
 Symbolic Z-matrix:
 Charge =  0 Multiplicity = 1
 C                    -0.0607    0.34566   8.5644 
 H                     0.88016   0.82169   8.83955 
 H                    -0.84439   1.11125   8.52268 
 C                     1.2762   -0.01305   6.50273 
 H                     1.30325   1.04581   6.22195 
 N                     0.09513  -0.31779   7.28637 
 H                    -0.32385  -0.37883   9.34085 
 H                     1.27454  -0.61069   5.59149 
 H                     2.18255  -0.24734   7.06879 
 C                    -0.90113  -1.0657    6.78686 
 H                    -0.71316  -1.51353   5.81528 
 C                    -2.10357  -1.32233   7.37085 
 C                    -3.04207  -2.17192   6.66512 
 H                    -2.36706  -0.8877    8.32266 
 O                    -2.76096  -2.64555   5.54988 
 C                    -4.36909  -2.47572   7.26372 
 C                    -5.54169  -2.08997   6.57732 
 C                    -4.50694  -3.13924   8.49341 
 O                    -5.52101  -1.47519   5.3911 
 C                    -6.79367  -2.34605   7.14987 
 C                    -5.74466  -3.39517   9.04293 
 H                    -3.64018  -3.47078   9.04972 
 H                    -4.57148  -1.39844   5.13748 
 H                    -7.67573  -2.02244   6.61054 
 C                    -6.89695  -2.98331   8.36821 
 H                    -7.87295  -3.1565    8.80794 
 O                    -5.80764  -4.00619   10.27293 
 C                    -6.46342  -5.26026   10.28258 
 H                    -7.52273  -5.17093   10.01616 
 H                    -5.97982  -5.95819   9.58882 
 H                    -6.38676  -5.64572   11.29911 
 

 GradGradGradGradGradGradGradGradGradGradGradGradGradGradGradGradGradGrad
 Berny optimization.
 Initialization pass.
                           ----------------------------
                           !    Initial Parameters    !
                           ! (Angstroms and Degrees)  !
 --------------------------                            --------------------------
 ! Name  Definition              Value          Derivative Info.                !
 --------------------------------------------------------------------------------
 ! R1    R(1,2)                  1.0897         estimate D2E/DX2                !
 ! R2    R(1,3)                  1.0964         estimate D2E/DX2                !
 ! R3    R(1,6)                  1.4484         estimate D2E/DX2                !
 ! R4    R(1,7)                  1.0941         estimate D2E/DX2                !
 ! R5    R(4,5)                  1.0958         estimate D2E/DX2                !
 ! R6    R(4,6)                  1.4498         estimate D2E/DX2                !
 ! R7    R(4,8)                  1.0897         estimate D2E/DX2                !
 ! R8    R(4,9)                  1.094          estimate D2E/DX2                !
 ! R9    R(6,10)                 1.3422         estimate D2E/DX2                !
 ! R10   R(10,11)                1.0862         estimate D2E/DX2                !
 ! R11   R(10,12)                1.3612         estimate D2E/DX2                !
 ! R12   R(12,13)                1.4494         estimate D2E/DX2                !
 ! R13   R(12,14)                1.079          estimate D2E/DX2                !
 ! R14   R(13,15)                1.2438         estimate D2E/DX2                !
 ! R15   R(13,16)                1.4871         estimate D2E/DX2                !
 ! R16   R(16,17)                1.4124         estimate D2E/DX2                !
 ! R17   R(16,18)                1.4041         estimate D2E/DX2                !
 ! R18   R(17,19)                1.3362         estimate D2E/DX2                !
 ! R19   R(17,20)                1.4003         estimate D2E/DX2                !
 ! R20   R(18,21)                1.3782         estimate D2E/DX2                !
 ! R21   R(18,22)                1.082          estimate D2E/DX2                !
 ! R22   R(19,23)                0.9858         estimate D2E/DX2                !
 ! R23   R(20,24)                1.0833         estimate D2E/DX2                !
 ! R24   R(20,25)                1.3788         estimate D2E/DX2                !
 ! R25   R(21,25)                1.3974         estimate D2E/DX2                !
 ! R26   R(21,27)                1.3748         estimate D2E/DX2                !
 ! R27   R(25,26)                1.0844         estimate D2E/DX2                !
 ! R28   R(27,28)                1.4152         estimate D2E/DX2                !
 ! R29   R(28,29)                1.096          estimate D2E/DX2                !
 ! R30   R(28,30)                1.0965         estimate D2E/DX2                !
 ! R31   R(28,31)                1.0899         estimate D2E/DX2                !
 ! A1    A(2,1,3)              108.7672         estimate D2E/DX2                !
 ! A2    A(2,1,6)              109.2684         estimate D2E/DX2                !
 ! A3    A(2,1,7)              108.5261         estimate D2E/DX2                !
 ! A4    A(3,1,6)              111.2964         estimate D2E/DX2                !
 ! A5    A(3,1,7)              108.5108         estimate D2E/DX2                !
 ! A6    A(6,1,7)              110.4118         estimate D2E/DX2                !
 ! A7    A(5,4,6)              111.2058         estimate D2E/DX2                !
 ! A8    A(5,4,8)              108.4042         estimate D2E/DX2                !
 ! A9    A(5,4,9)              108.6075         estimate D2E/DX2                !
 ! A10   A(6,4,8)              109.6009         estimate D2E/DX2                !
 ! A11   A(6,4,9)              110.5012         estimate D2E/DX2                !
 ! A12   A(8,4,9)              108.4505         estimate D2E/DX2                !
 ! A13   A(1,6,4)              117.9249         estimate D2E/DX2                !
 ! A14   A(1,6,10)             120.2508         estimate D2E/DX2                !
 ! A15   A(4,6,10)             121.3763         estimate D2E/DX2                !
 ! A16   A(6,10,11)            115.7334         estimate D2E/DX2                !
 ! A17   A(6,10,12)            126.9487         estimate D2E/DX2                !
 ! A18   A(11,10,12)           117.3167         estimate D2E/DX2                !
 ! A19   A(10,12,13)           118.2697         estimate D2E/DX2                !
 ! A20   A(10,12,14)           121.2148         estimate D2E/DX2                !
 ! A21   A(13,12,14)           120.498          estimate D2E/DX2                !
 ! A22   A(12,13,15)           120.8942         estimate D2E/DX2                !
 ! A23   A(12,13,16)           120.1033         estimate D2E/DX2                !
 ! A24   A(15,13,16)           118.9982         estimate D2E/DX2                !
 ! A25   A(13,16,17)           119.3017         estimate D2E/DX2                !
 ! A26   A(13,16,18)           122.4577         estimate D2E/DX2                !
 ! A27   A(17,16,18)           118.2404         estimate D2E/DX2                !
 ! A28   A(16,17,19)           122.9716         estimate D2E/DX2                !
 ! A29   A(16,17,20)           119.5788         estimate D2E/DX2                !
 ! A30   A(19,17,20)           117.4485         estimate D2E/DX2                !
 ! A31   A(16,18,21)           121.6773         estimate D2E/DX2                !
 ! A32   A(16,18,22)           121.0949         estimate D2E/DX2                !
 ! A33   A(21,18,22)           117.2277         estimate D2E/DX2                !
 ! A34   A(17,19,23)           106.2071         estimate D2E/DX2                !
 ! A35   A(17,20,24)           118.0201         estimate D2E/DX2                !
 ! A36   A(17,20,25)           120.8496         estimate D2E/DX2                !
 ! A37   A(24,20,25)           121.1288         estimate D2E/DX2                !
 ! A38   A(18,21,25)           119.5581         estimate D2E/DX2                !
 ! A39   A(18,21,27)           118.7107         estimate D2E/DX2                !
 ! A40   A(25,21,27)           121.6811         estimate D2E/DX2                !
 ! A41   A(20,25,21)           120.0732         estimate D2E/DX2                !
 ! A42   A(20,25,26)           119.9702         estimate D2E/DX2                !
 ! A43   A(21,25,26)           119.9539         estimate D2E/DX2                !
 ! A44   A(21,27,28)           114.9072         estimate D2E/DX2                !
 ! A45   A(27,28,29)           111.9628         estimate D2E/DX2                !
 ! A46   A(27,28,30)           110.8154         estimate D2E/DX2                !
 ! A47   A(27,28,31)           106.6894         estimate D2E/DX2                !
 ! A48   A(29,28,30)           108.927          estimate D2E/DX2                !
 ! A49   A(29,28,31)           108.8778         estimate D2E/DX2                !
 ! A50   A(30,28,31)           109.5116         estimate D2E/DX2                !
 ! D1    D(2,1,6,4)            -12.8316         estimate D2E/DX2                !
 ! D2    D(2,1,6,10)           174.7423         estimate D2E/DX2                !
 ! D3    D(3,1,6,4)            107.305          estimate D2E/DX2                !
 ! D4    D(3,1,6,10)           -65.1212         estimate D2E/DX2                !
 ! D5    D(7,1,6,4)           -132.1215         estimate D2E/DX2                !
 ! D6    D(7,1,6,10)            55.4523         estimate D2E/DX2                !
 ! D7    D(5,4,6,1)            -62.2711         estimate D2E/DX2                !
 ! D8    D(5,4,6,10)           110.0652         estimate D2E/DX2                !
 ! D9    D(8,4,6,1)            177.8845         estimate D2E/DX2                !
 ! D10   D(8,4,6,10)            -9.7791         estimate D2E/DX2                !
 ! D11   D(9,4,6,1)             58.4243         estimate D2E/DX2                !
 ! D12   D(9,4,6,10)          -129.2393         estimate D2E/DX2                !
 ! D13   D(1,6,10,11)          178.8496         estimate D2E/DX2                !
 ! D14   D(1,6,10,12)           -1.5669         estimate D2E/DX2                !
 ! D15   D(4,6,10,11)            6.6894         estimate D2E/DX2                !
 ! D16   D(4,6,10,12)         -173.7271         estimate D2E/DX2                !
 ! D17   D(6,10,12,13)        -179.381          estimate D2E/DX2                !
 ! D18   D(6,10,12,14)           2.1341         estimate D2E/DX2                !
 ! D19   D(11,10,12,13)          0.1967         estimate D2E/DX2                !
 ! D20   D(11,10,12,14)       -178.2882         estimate D2E/DX2                !
 ! D21   D(10,12,13,15)         -0.581          estimate D2E/DX2                !
 ! D22   D(10,12,13,16)       -179.8184         estimate D2E/DX2                !
 ! D23   D(14,12,13,15)        177.9152         estimate D2E/DX2                !
 ! D24   D(14,12,13,16)         -1.3222         estimate D2E/DX2                !
 ! D25   D(12,13,16,17)        119.2518         estimate D2E/DX2                !
 ! D26   D(12,13,16,18)        -60.8977         estimate D2E/DX2                !
 ! D27   D(15,13,16,17)        -60.0            estimate D2E/DX2                !
 ! D28   D(15,13,16,18)        119.8505         estimate D2E/DX2                !
 ! D29   D(13,16,17,19)          1.0563         estimate D2E/DX2                !
 ! D30   D(13,16,17,20)       -178.5611         estimate D2E/DX2                !
 ! D31   D(18,16,17,19)       -178.8006         estimate D2E/DX2                !
 ! D32   D(18,16,17,20)          1.5821         estimate D2E/DX2                !
 ! D33   D(13,16,18,21)        179.0263         estimate D2E/DX2                !
 ! D34   D(13,16,18,22)         -0.9359         estimate D2E/DX2                !
 ! D35   D(17,16,18,21)         -1.1217         estimate D2E/DX2                !
 ! D36   D(17,16,18,22)        178.9161         estimate D2E/DX2                !
 ! D37   D(16,17,19,23)          1.6513         estimate D2E/DX2                !
 ! D38   D(20,17,19,23)       -178.7237         estimate D2E/DX2                !
 ! D39   D(16,17,20,24)        178.8446         estimate D2E/DX2                !
 ! D40   D(16,17,20,25)         -0.728          estimate D2E/DX2                !
 ! D41   D(19,17,20,24)         -0.7936         estimate D2E/DX2                !
 ! D42   D(19,17,20,25)        179.6338         estimate D2E/DX2                !
 ! D43   D(16,18,21,25)         -0.2243         estimate D2E/DX2                !
 ! D44   D(16,18,21,27)       -177.6933         estimate D2E/DX2                !
 ! D45   D(22,18,21,25)        179.7393         estimate D2E/DX2                !
 ! D46   D(22,18,21,27)          2.2702         estimate D2E/DX2                !
 ! D47   D(17,20,25,21)         -0.6429         estimate D2E/DX2                !
 ! D48   D(17,20,25,26)        178.7604         estimate D2E/DX2                !
 ! D49   D(24,20,25,21)        179.7979         estimate D2E/DX2                !
 ! D50   D(24,20,25,26)         -0.7988         estimate D2E/DX2                !
 ! D51   D(18,21,25,20)          1.1215         estimate D2E/DX2                !
 ! D52   D(18,21,25,26)       -178.2819         estimate D2E/DX2                !
 ! D53   D(27,21,25,20)        178.5129         estimate D2E/DX2                !
 ! D54   D(27,21,25,26)         -0.8904         estimate D2E/DX2                !
 ! D55   D(18,21,27,28)       -118.6257         estimate D2E/DX2                !
 ! D56   D(25,21,27,28)         63.9614         estimate D2E/DX2                !
 ! D57   D(21,27,28,29)        -64.1365         estimate D2E/DX2                !
 ! D58   D(21,27,28,30)         57.6988         estimate D2E/DX2                !
 ! D59   D(21,27,28,31)        176.8433         estimate D2E/DX2                !
 --------------------------------------------------------------------------------
 Trust Radius=3.00D-01 FncErr=1.00D-07 GrdErr=1.00D-06
 Number of steps in this run=    150 maximum allowed number of steps=    186.
 GradGradGradGradGradGradGradGradGradGradGradGradGradGradGradGradGradGrad

                          Input orientation:                          
 ---------------------------------------------------------------------
 Center     Atomic      Atomic             Coordinates (Angstroms)
 Number     Number       Type             X           Y           Z
 ---------------------------------------------------------------------
      1          6           0       -0.060702    0.345663    8.564402
      2          1           0        0.880164    0.821688    8.839551
      3          1           0       -0.844388    1.111252    8.522682
      4          6           0        1.276203   -0.013048    6.502729
      5          1           0        1.303248    1.045812    6.221950
      6          7           0        0.095132   -0.317789    7.286374
      7          1           0       -0.323853   -0.378829    9.340855
      8          1           0        1.274544   -0.610692    5.591489
      9          1           0        2.182551   -0.247338    7.068790
     10          6           0       -0.901131   -1.065699    6.786855
     11          1           0       -0.713160   -1.513526    5.815280
     12          6           0       -2.103565   -1.322327    7.370854
     13          6           0       -3.042069   -2.171915    6.665122
     14          1           0       -2.367063   -0.887699    8.322662
     15          8           0       -2.760962   -2.645546    5.549876
     16          6           0       -4.369086   -2.475719    7.263723
     17          6           0       -5.541688   -2.089967    6.577325
     18          6           0       -4.506939   -3.139244    8.493415
     19          8           0       -5.521008   -1.475193    5.391097
     20          6           0       -6.793667   -2.346054    7.149871
     21          6           0       -5.744656   -3.395173    9.042933
     22          1           0       -3.640181   -3.470782    9.049721
     23          1           0       -4.571480   -1.398444    5.137484
     24          1           0       -7.675733   -2.022442    6.610542
     25          6           0       -6.896953   -2.983312    8.368208
     26          1           0       -7.872945   -3.156500    8.807942
     27          8           0       -5.807641   -4.006186   10.272929
     28          6           0       -6.463416   -5.260257   10.282582
     29          1           0       -7.522730   -5.170934   10.016155
     30          1           0       -5.979820   -5.958189    9.588820
     31          1           0       -6.386764   -5.645722   11.299109
 ---------------------------------------------------------------------
                    Distance matrix (angstroms):
                    1          2          3          4          5
     1  C    0.000000
     2  H    1.089741   0.000000
     3  H    1.096372   1.777170   0.000000
     4  C    2.483241   2.512841   3.137063   0.000000
     5  H    2.799580   2.661027   3.148014   1.095789   0.000000
     6  N    1.448381   2.080154   2.110288   1.449791   2.109965
     7  H    1.094082   1.772626   1.777837   3.278557   3.795343
     8  H    3.396426   3.571716   4.005853   1.089743   1.772656
     9  H    2.760560   2.444304   3.622420   1.093976   1.778356
    10  C    2.420318   3.308897   2.784857   2.435074   3.104333
    11  H    3.382301   4.139821   3.773156   2.584876   3.283518
    12  C    2.894829   3.956831   2.972296   3.727021   4.305164
    13  C    4.339817   5.392004   4.365721   4.830585   5.425122
    14  H    2.626580   3.705895   2.520784   4.165400   4.650015
    15  O    5.032505   6.008450   5.159880   4.912909   5.531330
    16  C    5.311698   6.396151   5.184094   6.205896   6.757355
    17  C    6.318384   7.405105   6.008065   7.127608   7.537410
    18  C    5.649658   6.695496   5.610869   6.868818   7.512158
    19  O    6.572695   7.625123   6.194134   7.040999   7.322312
    20  C    7.387764   8.472148   7.016516   8.425231   8.827561
    21  C    6.821304   7.855668   6.677661   8.196577   8.795070
    22  H    5.254851   6.237227   5.393447   6.527934   7.268659
    23  H    5.927293   6.953755   5.625776   6.162679   6.454679
    24  H    8.210615   9.287677   7.755230   9.175318   9.496699
    25  C    7.606240   8.670855   7.309094   8.893984   9.385284
    26  H    8.564788   9.614775   8.227739   9.944959  10.418700
    27  O    7.408438   8.371957   7.340668   8.963281   9.617580
    28  C    8.681776   9.643680   8.675647  10.085742  10.797051
    29  H    9.392672  10.387711   9.289595  10.787455  11.442981
    30  H    8.707695   9.674065   8.802631   9.875148  10.650584
    31  H    9.132052  10.034194   9.169688  10.651448  11.388171
                    6          7          8          9         10
     6  N    0.000000
     7  H    2.097657   0.000000
     8  H    2.085531   4.082448   0.000000
     9  H    2.099911   3.385503   1.771700   0.000000
    10  C    1.342173   2.707020   2.523785   3.202858   0.000000
    11  H    2.060883   3.724081   2.194575   3.399950   1.086204
    12  C    2.418781   2.817529   3.883836   4.429180   1.361161
    13  C    3.696724   4.214665   4.714155   5.582437   2.412913
    14  H    2.731500   2.338883   4.560410   4.762483   2.130574
    15  O    4.073224   5.044703   4.519698   5.700598   2.735874
    16  C    4.958469   5.007528   6.174565   6.922978   3.773893
    17  C    5.951227   6.147430   7.044228   7.956173   4.756869
    18  C    5.531421   5.082938   6.945523   7.425763   4.495975
    19  O    6.039262   6.619141   6.853251   7.979167   4.843458
    20  C    7.182482   7.108367   8.398575   9.218659   6.040950
    21  C    6.830734   6.210652   8.302709   8.754811   5.828900
    22  H    5.196472   4.543453   6.655374   6.943982   4.290383
    23  H    5.250030   6.062201   5.916306   7.118422   4.037649
    24  H    7.984293   8.012878   9.118058  10.027301   6.844098
    25  C    7.560729   7.136877   8.950578   9.571386   6.490593
    26  H    8.594400   8.061529  10.025132  10.611356   7.553968
    27  O    7.574068   6.640663   9.143446   9.393541   6.698732
    28  C    8.741842   7.899963  10.173536  10.498122   7.794449
    29  H    9.435918   8.674338  10.851982  11.274806   8.433677
    30  H    8.603512   7.948630   9.859016  10.275636   7.588186
    31  H    9.300746   8.266426  10.799263  10.975942   8.451580
                   11         12         13         14         15
    11  H    0.000000
    12  C    2.095136   0.000000
    13  C    2.565058   1.449361   0.000000
    14  H    3.068227   1.079014   2.202790   0.000000
    15  O    2.354868   2.345003   1.243833   3.306588   0.000000
    16  C    4.048407   2.544479   1.487143   2.766090   2.356305
    17  C    4.922162   3.611046   2.502503   3.817053   3.016083
    18  C    4.920175   3.215204   2.534605   3.110897   3.457831
    19  O    4.826676   3.952433   2.872926   4.345871   3.002131
    20  C    6.280669   4.805612   3.786792   4.805940   4.348838
    21  C    6.266921   4.511107   3.801884   4.267828   4.654656
    22  H    4.781204   3.129799   2.780487   2.970146   3.701750
    23  H    3.919092   3.329316   2.295873   3.907132   2.236807
    24  H    7.026298   5.667212   4.636396   5.692186   5.066384
    25  C    6.849599   5.170121   4.291736   4.991349   5.016323
    26  H    7.932081   6.222151   5.375728   5.974755   6.083456
    27  O    7.213718   5.417132   4.901960   5.036475   5.782804
    28  C    8.189031   6.556962   5.859137   6.304019   6.553120
    29  H    8.797399   7.153792   6.348217   6.913387   6.999977
    30  H    7.856994   6.437076   5.613757   6.353349   6.135775
    31  H    8.907143   7.243530   6.687911   6.903333   7.429749
                   16         17         18         19         20
    16  C    0.000000
    17  C    1.412425   0.000000
    18  C    1.404069   2.417248   0.000000
    19  O    2.415514   1.336230   3.663575   0.000000
    20  C    2.430714   1.400300   2.768282   2.339092   0.000000
    21  C    2.429646   2.797139   1.378192   4.131858   2.405152
    22  H    2.170539   3.411030   1.081972   4.572244   3.849534
    23  H    2.392149   1.868863   3.781114   0.985806   3.144167
    24  H    3.400885   2.135372   3.851456   2.535621   1.083347
    25  C    2.804933   2.417037   2.398365   3.609825   1.378807
    26  H    3.889101   3.398221   3.380713   4.475850   2.137957
    27  O    3.669753   4.171345   2.368562   5.506394   3.671754
    28  C    4.610139   4.962787   3.395235   6.256315   4.291331
    29  H    4.978508   5.024186   3.942271   6.249525   4.089873
    30  H    4.486440   4.921810   3.363889   6.158624   4.433773
    31  H    5.514008   5.970996   4.205721   7.283368   5.316912
                   21         22         23         24         25
    21  C    0.000000
    22  H    2.105844   0.000000
    23  H    4.540463   4.524103   0.000000
    24  H    3.395581   4.932845   3.492229   0.000000
    25  C    1.397380   3.362833   4.284531   2.149222   0.000000
    26  H    2.154484   4.251297   5.240486   2.480634   1.084399
    27  O    1.374843   2.545737   5.890773   4.564875   2.420916
    28  C    2.351996   3.562698   6.705599   5.043514   3.006204
    29  H    2.694816   4.347263   6.836885   4.640540   2.809452
    30  H    2.631035   3.457128   6.526033   5.218847   3.343789
    31  H    3.250785   4.163391   7.700666   6.064013   3.992355
                   26         27         28         29         30
    26  H    0.000000
    27  O    2.670887   0.000000
    28  C    2.930381   1.415213   0.000000
    29  H    2.374947   2.089043   1.095951   0.000000
    30  H    3.470325   2.075565   1.096485   1.784085   0.000000
    31  H    3.822417   2.019036   1.089856   1.778149   1.785589
                   31
    31  H    0.000000
 Stoichiometry    C12H15NO3
 Framework group  C1[X(C12H15NO3)]
 Deg. of freedom    87
 Full point group                 C1      NOp   1
 Largest Abelian subgroup         C1      NOp   1
 Largest concise Abelian subgroup C1      NOp   1
                         Standard orientation:                         
 ---------------------------------------------------------------------
 Center     Atomic      Atomic             Coordinates (Angstroms)
 Number     Number       Type             X           Y           Z
 ---------------------------------------------------------------------
      1          6           0       -3.928329   -1.624538   -1.204308
      2          1           0       -4.884410   -2.117617   -1.378429
      3          1           0       -3.613865   -1.127914   -2.129785
      4          6           0       -5.411816   -0.339540    0.317051
      5          1           0       -5.983590    0.136136   -0.487660
      6          7           0       -4.070766   -0.674948   -0.119965
      7          1           0       -3.185647   -2.386374   -0.949271
      8          1           0       -5.360134    0.352043    1.157635
      9          1           0       -5.945425   -1.238165    0.640341
     10          6           0       -2.998207   -0.018544    0.349267
     11          1           0       -3.191745    0.689952    1.149527
     12          6           0       -1.709080   -0.155338   -0.065703
     13          6           0       -0.689907    0.643356    0.585468
     14          1           0       -1.449582   -0.820856   -0.874417
     15          8           0       -0.986434    1.441232    1.492433
     16          6           0        0.730996    0.529287    0.161657
     17          6           0        1.395004    1.668576   -0.344364
     18          6           0        1.448468   -0.674607    0.247011
     19          8           0        0.810668    2.866059   -0.444854
     20          6           0        2.723593    1.560628   -0.773364
     21          6           0        2.759172   -0.767039   -0.168831
     22          1           0        0.990572   -1.571076    0.643669
     23          1           0       -0.099859    2.759190   -0.082457
     24          1           0        3.202329    2.445724   -1.174683
     25          6           0        3.396750    0.359910   -0.694332
     26          1           0        4.418862    0.287517   -1.049251
     27          8           0        3.388688   -1.987478   -0.102269
     28          6           0        4.522435   -2.027958    0.743786
     29          1           0        5.325647   -1.374692    0.384337
     30          1           0        4.256260   -1.734757    1.766265
     31          1           0        4.878104   -3.058142    0.741429
 ---------------------------------------------------------------------
 Rotational constants (GHZ):      0.9179328      0.2392720      0.2058761
 Standard basis: 6-311++G(d,p) (5D, 7F)
 There are   473 symmetry adapted cartesian basis functions of A   symmetry.
 There are   457 symmetry adapted basis functions of A   symmetry.
   457 basis functions,   711 primitive gaussians,   473 cartesian basis functions
    59 alpha electrons       59 beta electrons
       nuclear repulsion energy      1050.3996362508 Hartrees.
 NAtoms=   31 NActive=   31 NUniq=   31 SFac= 1.00D+00 NAtFMM=   60 NAOKFM=F Big=F
 Integral buffers will be    131072 words long.
 Raffenetti 1 integral format.
 Two-electron integral symmetry is turned on.
 Nuclear repulsion after empirical dispersion term =     1050.3815336192 Hartrees.
 One-electron integrals computed using PRISM.
 NBasis=   457 RedAO= T EigKep=  2.75D-06  NBF=   457
 NBsUse=   455 1.00D-06 EigRej=  6.32D-07 NBFU=   455
 ExpMin= 3.60D-02 ExpMax= 8.59D+03 ExpMxC= 1.30D+03 IAcc=3 IRadAn=         5 AccDes= 0.00D+00
 Harris functional with IExCor= 4639 and IRadAn=       5 diagonalized for initial guess.
 HarFok:  IExCor= 4639 AccDes= 0.00D+00 IRadAn=         5 IDoV= 1 UseB2=F ITyADJ=14
 ICtDFT=  3500011 ScaDFX=  1.000000  1.000000  1.000000  1.000000
 FoFCou: FMM=F IPFlag=           0 FMFlag=      100000 FMFlg1=           0
         NFxFlg=           0 DoJE=T BraDBF=F KetDBF=T FulRan=T
         wScrn=  0.000000 ICntrl=     500 IOpCl=  0 I1Cent=   200000004 NGrid=           0
         NMat0=    1 NMatS0=      1 NMatT0=    0 NMatD0=    1 NMtDS0=    0 NMtDT0=    0
 Petite list used in FoFCou.
 Requested convergence on RMS density matrix=1.00D-08 within 128 cycles.
 Requested convergence on MAX density matrix=1.00D-06.
 Requested convergence on             energy=1.00D-06.
 No special actions if energy rises.
 SCF Done:  E(RwB97XD) =  -746.651699560     A.U. after   17 cycles
            NFock= 17  Conv=0.73D-08     -V/T= 2.0039
 DoSCS=F DFT=T ScalE2(SS,OS)=  1.000000  1.000000
 ExpMin= 3.60D-02 ExpMax= 8.59D+03 ExpMxC= 1.30D+03 IAcc=3 IRadAn=         5 AccDes= 0.00D+00
 HarFok:  IExCor=  205 AccDes= 0.00D+00 IRadAn=         5 IDoV=-2 UseB2=F ITyADJ=14
 ICtDFT= 12500011 ScaDFX=  1.000000  1.000000  1.000000  1.000000
 Range of M.O.s used for correlation:    17   455
 NBasis=   457 NAE=    59 NBE=    59 NFC=    16 NFV=     0
 NROrb=    439 NOA=    43 NOB=    43 NVA=   396 NVB=   396

 **** Warning!!: The largest alpha MO coefficient is  0.11595115D+03

 Would need an additional         29152300000 words for in-memory AO integral storage.
 Orbital symmetries:
       Occupied  (A) (A) (A) (A) (A) (A) (A) (A) (A) (A) (A) (A)
                 (A) (A) (A) (A) (A) (A) (A) (A) (A) (A) (A) (A)
                 (A) (A) (A) (A) (A) (A) (A) (A) (A) (A) (A) (A)
                 (A) (A) (A) (A) (A) (A) (A) (A) (A) (A) (A) (A)
                 (A) (A) (A) (A) (A) (A) (A) (A) (A) (A) (A)
       Virtual   (A) (A) (A) (A) (A) (A) (A) (A) (A) (A) (A) (A)
                 (A) (A) (A) (A) (A) (A) (A) (A) (A) (A) (A) (A)
                 (A) (A) (A) (A) (A) (A) (A) (A) (A) (A) (A) (A)
                 (A) (A) (A) (A) (A) (A) (A) (A) (A) (A) (A) (A)
                 (A) (A) (A) (A) (A) (A) (A) (A) (A) (A) (A) (A)
                 (A) (A) (A) (A) (A) (A) (A) (A) (A) (A) (A) (A)
                 (A) (A) (A) (A) (A) (A) (A) (A) (A) (A) (A) (A)
                 (A) (A) (A) (A) (A) (A) (A) (A) (A) (A) (A) (A)
                 (A) (A) (A) (A) (A) (A) (A) (A) (A) (A) (A) (A)
                 (A) (A) (A) (A) (A) (A) (A) (A) (A) (A) (A) (A)
                 (A) (A) (A) (A) (A) (A) (A) (A) (A) (A) (A) (A)
                 (A) (A) (A) (A) (A) (A) (A) (A) (A) (A) (A) (A)
                 (A) (A) (A) (A) (A) (A) (A) (A) (A) (A) (A) (A)
                 (A) (A) (A) (A) (A) (A) (A) (A) (A) (A) (A) (A)
                 (A) (A) (A) (A) (A) (A) (A) (A) (A) (A) (A) (A)
                 (A) (A) (A) (A) (A) (A) (A) (A) (A) (A) (A) (A)
                 (A) (A) (A) (A) (A) (A) (A) (A) (A) (A) (A) (A)
                 (A) (A) (A) (A) (A) (A) (A) (A) (A) (A) (A) (A)
                 (A) (A) (A) (A) (A) (A) (A) (A) (A) (A) (A) (A)
                 (A) (A) (A) (A) (A) (A) (A) (A) (A) (A) (A) (A)
                 (A) (A) (A) (A) (A) (A) (A) (A) (A) (A) (A) (A)
                 (A) (A) (A) (A) (A) (A) (A) (A) (A) (A) (A) (A)
                 (A) (A) (A) (A) (A) (A) (A) (A) (A) (A) (A) (A)
                 (A) (A) (A) (A) (A) (A) (A) (A) (A) (A) (A) (A)
                 (A) (A) (A) (A) (A) (A) (A) (A) (A) (A) (A) (A)
                 (A) (A) (A) (A) (A) (A) (A) (A) (A) (A) (A) (A)
                 (A) (A) (A) (A) (A) (A) (A) (A) (A) (A) (A) (A)
                 (A) (A) (A) (A) (A) (A) (A) (A) (A) (A) (A) (A)
                 (A) (A) (A) (A) (A) (A) (A) (A) (A) (A) (A) (A)
                 (A) (A) (A) (A) (A) (A) (A) (A) (A) (A) (A) (A)
                 (A) (A) (A) (A) (A) (A) (A) (A) (A) (A) (A) (A)
                 (A) (A) (A) (A) (A) (A) (A) (A) (A) (A) (A) (A)
                 (A) (A) (A) (A) (A) (A) (A) (A) (A) (A) (A) (A)
     8 initial guesses have been made.
 Convergence on wavefunction:    0.000001000000000
 Iteration     1 Dimension     8 NMult     0 NNew      8
 CISAX will form     8 AO SS matrices at one time.
 Iteration     2 Dimension    12 NMult     8 NNew      4
 Iteration     3 Dimension    16 NMult    12 NNew      4
 Iteration     4 Dimension    20 NMult    16 NNew      4
 Iteration     5 Dimension    24 NMult    20 NNew      4
 Iteration     6 Dimension    28 NMult    24 NNew      4
 Iteration     7 Dimension    32 NMult    28 NNew      4
 Iteration     8 Dimension    36 NMult    32 NNew      4
 Iteration     9 Dimension    40 NMult    36 NNew      4
 Iteration    10 Dimension    44 NMult    40 NNew      4
 Iteration    11 Dimension    48 NMult    44 NNew      4
 Iteration    12 Dimension    52 NMult    48 NNew      4
 Iteration    13 Dimension    56 NMult    52 NNew      4
 ***********************************************************************
 Excited states from <AA,BB:AA,BB> singles matrix:
 ***********************************************************************
 
 Ground to excited state transition densities written to RWF  633
 Ground to excited state transition electric dipole moments (Au):
       state          X           Y           Z        Dip. S.      Osc.
         1        -0.4110     -0.0704      0.0692      0.1787      0.0173
 Ground to excited state transition velocity dipole moments (Au):
       state          X           Y           Z        Dip. S.      Osc.
         1         0.0600      0.0144     -0.0123      0.0040      0.0182
 Ground to excited state transition magnetic dipole moments (Au):
       state          X           Y           Z
         1        -0.1770      0.5248      0.5539
 Ground to excited state transition velocity quadrupole moments (Au):
       state          XX          YY          ZZ          XY          XZ          YZ
         1        -0.0405      0.0595     -0.0124      0.0447     -0.0579     -0.0436
 <0|del|b> * <b|rxdel|0> + <0|del|b> * <b|delr+rdel|0>
 Rotatory Strengths (R) in cgs (10**-40 erg-esu-cm/Gauss)
       state          XX          YY          ZZ    R(velocity)    E-M Angle
         1         2.4752    -47.5207     -3.0840    -16.0431      101.57
 1/2[<0|r|b>*<b|rxdel|0> + (<0|rxdel|b>*<b|r|0>)*]
 Rotatory Strengths (R) in cgs (10**-40 erg-esu-cm/Gauss)
       state          XX          YY          ZZ     R(length)
         1       -51.4385     26.1267    -27.1035    -17.4718
  1/2[<0|del|b>*<b|r|0> + (<0|r|b>*<b|del|0>)*] (Au)
       state          X           Y           Z        Dip. S.   Osc.(frdel)
         1        -0.0246     -0.0010     -0.0009      0.0265      0.0177

 Excitation energies and oscillator strengths:
 
 Excited State   1:      Singlet-A      3.9493 eV  313.94 nm  f=0.0173  <S**2>=0.000
      56 -> 60         0.35859
      57 -> 60         0.51508
      59 -> 60        -0.22430
 This state for optimization and/or second-order correction.
 Total Energy, E(TD-HF/TD-KS) =  -746.506565829    
 Copying the excited state density for this state as the 1-particle RhoCI density.
 SavETr:  write IOETrn=   770 NScale= 10 NData=  16 NLR=1 NState=    1 LETran=      28.
          IDoAtm=1111111111111111111111111111111
          Differentiating once with respect to electric field.
                with respect to dipole field.
          Differentiating once with respect to nuclear coordinates.
          There are     1 degrees of freedom in the 1st order CPHF.  IDoFFX=0 NUNeed=     1.
 LinEq1:  Iter=  0 NonCon=     1 RMS=7.16D-03 Max=4.39D-01 NDo=     1
 AX will form     1 AO Fock derivatives at one time.
 LinEq1:  Iter=  1 NonCon=     1 RMS=1.84D-03 Max=6.65D-02 NDo=     1
 LinEq1:  Iter=  2 NonCon=     1 RMS=1.14D-03 Max=3.75D-02 NDo=     1
 LinEq1:  Iter=  3 NonCon=     1 RMS=5.41D-04 Max=3.11D-02 NDo=     1
 LinEq1:  Iter=  4 NonCon=     1 RMS=2.77D-04 Max=1.01D-02 NDo=     1
 LinEq1:  Iter=  5 NonCon=     1 RMS=1.26D-04 Max=6.40D-03 NDo=     1
 LinEq1:  Iter=  6 NonCon=     1 RMS=6.07D-05 Max=2.77D-03 NDo=     1
 LinEq1:  Iter=  7 NonCon=     1 RMS=3.23D-05 Max=1.32D-03 NDo=     1
 LinEq1:  Iter=  8 NonCon=     1 RMS=1.32D-05 Max=6.05D-04 NDo=     1
 LinEq1:  Iter=  9 NonCon=     1 RMS=6.61D-06 Max=2.59D-04 NDo=     1
 LinEq1:  Iter= 10 NonCon=     1 RMS=2.93D-06 Max=1.47D-04 NDo=     1
 LinEq1:  Iter= 11 NonCon=     1 RMS=1.20D-06 Max=2.90D-05 NDo=     1
 LinEq1:  Iter= 12 NonCon=     1 RMS=5.36D-07 Max=1.60D-05 NDo=     1
 LinEq1:  Iter= 13 NonCon=     1 RMS=2.60D-07 Max=5.07D-06 NDo=     1
 LinEq1:  Iter= 14 NonCon=     1 RMS=1.02D-07 Max=2.46D-06 NDo=     1
 LinEq1:  Iter= 15 NonCon=     1 RMS=4.17D-08 Max=7.14D-07 NDo=     1
 LinEq1:  Iter= 16 NonCon=     1 RMS=1.72D-08 Max=3.08D-07 NDo=     1
 LinEq1:  Iter= 17 NonCon=     1 RMS=8.98D-09 Max=2.39D-07 NDo=     1
 LinEq1:  Iter= 18 NonCon=     1 RMS=3.61D-09 Max=9.75D-08 NDo=     1
 LinEq1:  Iter= 19 NonCon=     1 RMS=1.74D-09 Max=5.68D-08 NDo=     1
 LinEq1:  Iter= 20 NonCon=     1 RMS=7.40D-10 Max=1.85D-08 NDo=     1
 LinEq1:  Iter= 21 NonCon=     1 RMS=2.79D-10 Max=6.40D-09 NDo=     1
 LinEq1:  Iter= 22 NonCon=     1 RMS=9.94D-11 Max=4.26D-09 NDo=     1
 LinEq1:  Iter= 23 NonCon=     1 RMS=4.89D-11 Max=1.52D-09 NDo=     1
 LinEq1:  Iter= 24 NonCon=     1 RMS=2.75D-11 Max=1.36D-09 NDo=     1
 LinEq1:  Iter= 25 NonCon=     0 RMS=1.49D-11 Max=4.50D-10 NDo=     1
 Linear equations converged to 1.000D-10 1.000D-09 after    25 iterations.
 End of Minotr F.D. properties file   721 does not exist.
 End of Minotr F.D. properties file   722 does not exist.
 End of Minotr F.D. properties file   788 does not exist.

 **********************************************************************

            Population analysis using the SCF density.

 **********************************************************************

 Orbital symmetries:
       Occupied  (A) (A) (A) (A) (A) (A) (A) (A) (A) (A) (A) (A)
                 (A) (A) (A) (A) (A) (A) (A) (A) (A) (A) (A) (A)
                 (A) (A) (A) (A) (A) (A) (A) (A) (A) (A) (A) (A)
                 (A) (A) (A) (A) (A) (A) (A) (A) (A) (A) (A) (A)
                 (A) (A) (A) (A) (A) (A) (A) (A) (A) (A) (A)
       Virtual   (A) (A) (A) (A) (A) (A) (A) (A) (A) (A) (A) (A)
                 (A) (A) (A) (A) (A) (A) (A) (A) (A) (A) (A) (A)
                 (A) (A) (A) (A) (A) (A) (A) (A) (A) (A) (A) (A)
                 (A) (A) (A) (A) (A) (A) (A) (A) (A) (A) (A) (A)
                 (A) (A) (A) (A) (A) (A) (A) (A) (A) (A) (A) (A)
                 (A) (A) (A) (A) (A) (A) (A) (A) (A) (A) (A) (A)
                 (A) (A) (A) (A) (A) (A) (A) (A) (A) (A) (A) (A)
                 (A) (A) (A) (A) (A) (A) (A) (A) (A) (A) (A) (A)
                 (A) (A) (A) (A) (A) (A) (A) (A) (A) (A) (A) (A)
                 (A) (A) (A) (A) (A) (A) (A) (A) (A) (A) (A) (A)
                 (A) (A) (A) (A) (A) (A) (A) (A) (A) (A) (A) (A)
                 (A) (A) (A) (A) (A) (A) (A) (A) (A) (A) (A) (A)
                 (A) (A) (A) (A) (A) (A) (A) (A) (A) (A) (A) (A)
                 (A) (A) (A) (A) (A) (A) (A) (A) (A) (A) (A) (A)
                 (A) (A) (A) (A) (A) (A) (A) (A) (A) (A) (A) (A)
                 (A) (A) (A) (A) (A) (A) (A) (A) (A) (A) (A) (A)
                 (A) (A) (A) (A) (A) (A) (A) (A) (A) (A) (A) (A)
                 (A) (A) (A) (A) (A) (A) (A) (A) (A) (A) (A) (A)
                 (A) (A) (A) (A) (A) (A) (A) (A) (A) (A) (A) (A)
                 (A) (A) (A) (A) (A) (A) (A) (A) (A) (A) (A) (A)
                 (A) (A) (A) (A) (A) (A) (A) (A) (A) (A) (A) (A)
                 (A) (A) (A) (A) (A) (A) (A) (A) (A) (A) (A) (A)
                 (A) (A) (A) (A) (A) (A) (A) (A) (A) (A) (A) (A)
                 (A) (A) (A) (A) (A) (A) (A) (A) (A) (A) (A) (A)
                 (A) (A) (A) (A) (A) (A) (A) (A) (A) (A) (A) (A)
                 (A) (A) (A) (A) (A) (A) (A) (A) (A) (A) (A) (A)
                 (A) (A) (A) (A) (A) (A) (A) (A) (A) (A) (A) (A)
                 (A) (A) (A) (A) (A) (A) (A) (A) (A) (A) (A) (A)
                 (A) (A) (A) (A) (A) (A) (A) (A) (A) (A) (A) (A)
                 (A) (A) (A) (A) (A) (A) (A) (A) (A) (A) (A) (A)
                 (A) (A) (A) (A) (A) (A) (A) (A) (A) (A) (A) (A)
                 (A) (A) (A) (A) (A) (A) (A) (A) (A) (A) (A) (A)
                 (A) (A) (A) (A) (A) (A) (A) (A) (A) (A) (A) (A)
 The electronic state is 1-A.
 Alpha  occ. eigenvalues --  -19.27121 -19.26035 -19.21622 -14.49239 -10.36877
 Alpha  occ. eigenvalues --  -10.34753 -10.34662 -10.34042 -10.33645 -10.33186
 Alpha  occ. eigenvalues --  -10.32713 -10.29339 -10.28744 -10.28703 -10.28158
 Alpha  occ. eigenvalues --  -10.27230  -1.16878  -1.15614  -1.12281  -1.08919
 Alpha  occ. eigenvalues --   -0.95381  -0.89307  -0.86309  -0.85324  -0.84539
 Alpha  occ. eigenvalues --   -0.80132  -0.78130  -0.74314  -0.69849  -0.68149
 Alpha  occ. eigenvalues --   -0.65076  -0.63173  -0.62014  -0.59990  -0.58582
 Alpha  occ. eigenvalues --   -0.58080  -0.57517  -0.54936  -0.54307  -0.52780
 Alpha  occ. eigenvalues --   -0.51895  -0.51777  -0.51553  -0.50746  -0.49844
 Alpha  occ. eigenvalues --   -0.49591  -0.49513  -0.47896  -0.46736  -0.46201
 Alpha  occ. eigenvalues --   -0.44120  -0.42992  -0.41519  -0.40708  -0.36356
 Alpha  occ. eigenvalues --   -0.33688  -0.32452  -0.29671  -0.28185
 Alpha virt. eigenvalues --    0.01082   0.02798   0.04510   0.04800   0.05524
 Alpha virt. eigenvalues --    0.05803   0.06062   0.06368   0.07069   0.07537
 Alpha virt. eigenvalues --    0.07750   0.08031   0.08357   0.08491   0.09142
 Alpha virt. eigenvalues --    0.09272   0.10900   0.11188   0.12151   0.12529
 Alpha virt. eigenvalues --    0.12853   0.13438   0.13593   0.14322   0.14853
 Alpha virt. eigenvalues --    0.14897   0.15262   0.15724   0.15945   0.16295
 Alpha virt. eigenvalues --    0.16607   0.16733   0.17067   0.17397   0.17712
 Alpha virt. eigenvalues --    0.18070   0.18419   0.18770   0.19335   0.19447
 Alpha virt. eigenvalues --    0.19928   0.20258   0.20501   0.21025   0.21114
 Alpha virt. eigenvalues --    0.21558   0.22122   0.22245   0.22704   0.22834
 Alpha virt. eigenvalues --    0.23340   0.23745   0.24059   0.24412   0.24757
 Alpha virt. eigenvalues --    0.25453   0.25623   0.26525   0.27098   0.27257
 Alpha virt. eigenvalues --    0.27762   0.27915   0.28319   0.28789   0.29656
 Alpha virt. eigenvalues --    0.29960   0.30269   0.30909   0.31124   0.32076
 Alpha virt. eigenvalues --    0.32352   0.32545   0.33138   0.33452   0.33560
 Alpha virt. eigenvalues --    0.33738   0.34566   0.35003   0.35124   0.35659
 Alpha virt. eigenvalues --    0.35950   0.36061   0.36525   0.37112   0.37303
 Alpha virt. eigenvalues --    0.37580   0.37958   0.38732   0.39527   0.39927
 Alpha virt. eigenvalues --    0.40463   0.41777   0.42070   0.42656   0.43245
 Alpha virt. eigenvalues --    0.43651   0.43809   0.44521   0.44943   0.45920
 Alpha virt. eigenvalues --    0.46485   0.47273   0.47555   0.48160   0.49449
 Alpha virt. eigenvalues --    0.49757   0.51008   0.51686   0.52352   0.53444
 Alpha virt. eigenvalues --    0.54356   0.54977   0.55714   0.56932   0.57337
 Alpha virt. eigenvalues --    0.58727   0.60638   0.62929   0.63413   0.64703
 Alpha virt. eigenvalues --    0.65954   0.66073   0.66733   0.67412   0.68006
 Alpha virt. eigenvalues --    0.68433   0.68836   0.69788   0.70881   0.71392
 Alpha virt. eigenvalues --    0.71489   0.72016   0.72133   0.72710   0.73511
 Alpha virt. eigenvalues --    0.73685   0.73984   0.75044   0.76221   0.76604
 Alpha virt. eigenvalues --    0.77206   0.78062   0.78634   0.78874   0.79916
 Alpha virt. eigenvalues --    0.80905   0.81213   0.82225   0.83227   0.83771
 Alpha virt. eigenvalues --    0.84437   0.85414   0.86839   0.86852   0.88127
 Alpha virt. eigenvalues --    0.89826   0.92111   0.92938   0.94500   0.95878
 Alpha virt. eigenvalues --    0.96471   0.96575   0.98075   0.99493   0.99913
 Alpha virt. eigenvalues --    1.01907   1.02333   1.02763   1.03759   1.04525
 Alpha virt. eigenvalues --    1.04628   1.05937   1.06982   1.08560   1.10373
 Alpha virt. eigenvalues --    1.11724   1.13275   1.14142   1.14936   1.16155
 Alpha virt. eigenvalues --    1.17311   1.18210   1.20476   1.21244   1.22149
 Alpha virt. eigenvalues --    1.22818   1.24986   1.26521   1.28700   1.29468
 Alpha virt. eigenvalues --    1.30639   1.33403   1.34083   1.35416   1.37076
 Alpha virt. eigenvalues --    1.37865   1.39124   1.40629   1.42149   1.43041
 Alpha virt. eigenvalues --    1.43941   1.45044   1.47889   1.50903   1.51772
 Alpha virt. eigenvalues --    1.52493   1.53558   1.55210   1.57420   1.58455
 Alpha virt. eigenvalues --    1.59110   1.60645   1.61207   1.62682   1.63032
 Alpha virt. eigenvalues --    1.63878   1.65120   1.66031   1.67058   1.67722
 Alpha virt. eigenvalues --    1.69093   1.69384   1.71312   1.71821   1.72910
 Alpha virt. eigenvalues --    1.73383   1.75252   1.75987   1.77054   1.77604
 Alpha virt. eigenvalues --    1.79136   1.79830   1.80468   1.81236   1.82084
 Alpha virt. eigenvalues --    1.82675   1.84937   1.85490   1.85924   1.87238
 Alpha virt. eigenvalues --    1.88376   1.89297   1.90234   1.91220   1.93475
 Alpha virt. eigenvalues --    1.94486   1.98706   2.00118   2.02155   2.03597
 Alpha virt. eigenvalues --    2.03783   2.04288   2.05681   2.06694   2.07982
 Alpha virt. eigenvalues --    2.08609   2.09325   2.11564   2.12859   2.14276
 Alpha virt. eigenvalues --    2.15722   2.16635   2.18111   2.20289   2.21727
 Alpha virt. eigenvalues --    2.22823   2.24111   2.24611   2.25500   2.26339
 Alpha virt. eigenvalues --    2.26998   2.29894   2.31941   2.34798   2.40537
 Alpha virt. eigenvalues --    2.41260   2.44500   2.45050   2.46793   2.50510
 Alpha virt. eigenvalues --    2.51634   2.53044   2.54178   2.55416   2.56009
 Alpha virt. eigenvalues --    2.58800   2.59645   2.61431   2.62209   2.62890
 Alpha virt. eigenvalues --    2.64371   2.65636   2.66657   2.68672   2.71622
 Alpha virt. eigenvalues --    2.71800   2.72847   2.73630   2.75525   2.76224
 Alpha virt. eigenvalues --    2.78592   2.80383   2.81488   2.82455   2.83311
 Alpha virt. eigenvalues --    2.85558   2.86242   2.87495   2.88121   2.89788
 Alpha virt. eigenvalues --    2.90242   2.92483   2.93130   2.94737   2.95900
 Alpha virt. eigenvalues --    2.96945   2.99927   3.01386   3.04090   3.06095
 Alpha virt. eigenvalues --    3.08037   3.09543   3.11577   3.12440   3.13982
 Alpha virt. eigenvalues --    3.15330   3.16689   3.20913   3.22076   3.23358
 Alpha virt. eigenvalues --    3.25546   3.27080   3.31077   3.31279   3.33644
 Alpha virt. eigenvalues --    3.36889   3.41163   3.43521   3.44588   3.49368
 Alpha virt. eigenvalues --    3.53591   3.56809   3.61799   3.63979   3.66882
 Alpha virt. eigenvalues --    3.68445   3.71184   3.73183   3.77090   3.80246
 Alpha virt. eigenvalues --    3.81125   3.83117   3.84971   3.89199   3.92229
 Alpha virt. eigenvalues --    3.93053   3.94044   3.96592   4.00910   4.09124
 Alpha virt. eigenvalues --    4.13717   4.13995   4.17505   4.25952   4.28157
 Alpha virt. eigenvalues --    4.31703   4.37096   4.53476   4.95646   4.98403
 Alpha virt. eigenvalues --    5.14547   5.17546   5.23610   5.26221   5.37786
 Alpha virt. eigenvalues --    5.50816   5.58682   5.84889   5.88725   5.92170
 Alpha virt. eigenvalues --   23.73235  23.95025  24.02606  24.04731  24.05295
 Alpha virt. eigenvalues --   24.05528  24.06657  24.11099  24.17734  24.25480
 Alpha virt. eigenvalues --   24.29933  24.33511  35.69508  50.09379  50.11395
 Alpha virt. eigenvalues --   50.16967
          Condensed to atoms (all electrons):
               1          2          3          4          5          6
     1  C    5.250140   0.393003   0.414385  -0.077722   0.015306   0.241154
     2  H    0.393003   0.511406  -0.022824   0.010811  -0.006945  -0.052244
     3  H    0.414385  -0.022824   0.521704  -0.006474   0.000844  -0.055253
     4  C   -0.077722   0.010811  -0.006474   5.169336   0.405791   0.252792
     5  H    0.015306  -0.006945   0.000844   0.405791   0.557984  -0.047272
     6  N    0.241154  -0.052244  -0.055253   0.252792  -0.047272   6.843311
     7  H    0.409652  -0.026044  -0.051790   0.005187   0.001640  -0.041986
     8  H   -0.002774   0.004375  -0.001116   0.409024  -0.032365  -0.094300
     9  H   -0.010881  -0.003865   0.002719   0.415183  -0.060205  -0.048596
    10  C   -0.160795   0.036919  -0.024941  -0.038249  -0.053004   0.232167
    11  H    0.003623  -0.000050  -0.001716  -0.026451   0.004615  -0.061235
    12  C    0.254323  -0.020345   0.000907  -0.171822   0.033788  -0.271511
    13  C   -0.159311  -0.009578   0.022475  -0.029016  -0.004555  -0.002035
    14  H    0.023197   0.000825  -0.009112  -0.011788   0.001557  -0.033526
    15  O   -0.001637   0.000138  -0.000169   0.005041  -0.000244   0.007279
    16  C   -0.134303  -0.002537   0.017436   0.026316  -0.001917  -0.004829
    17  C    0.036224   0.002701  -0.002574   0.006881  -0.000607  -0.002567
    18  C   -0.045519  -0.003555   0.001684  -0.003585   0.000355   0.005641
    19  O   -0.000298   0.000006   0.000091  -0.000196   0.000024  -0.000119
    20  C   -0.000743  -0.000164   0.000870  -0.001358  -0.000033  -0.001056
    21  C    0.004735   0.000792  -0.002333   0.003051   0.000045   0.002638
    22  H    0.000306   0.000513   0.000875   0.000303  -0.000071   0.001616
    23  H   -0.000025   0.000013   0.000059  -0.000071  -0.000104   0.000637
    24  H    0.000104   0.000015   0.000028  -0.000006  -0.000003   0.000060
    25  C   -0.003247  -0.000344  -0.000700   0.000592   0.000039  -0.001378
    26  H   -0.000193  -0.000014   0.000008   0.000011   0.000001  -0.000025
    27  O    0.000189   0.000013   0.000007   0.000000   0.000000   0.000023
    28  C    0.000022   0.000010   0.000020  -0.000013  -0.000001  -0.000003
    29  H    0.000014   0.000001   0.000001  -0.000002   0.000000   0.000001
    30  H   -0.000009  -0.000001  -0.000004   0.000002   0.000000  -0.000001
    31  H   -0.000007  -0.000001   0.000003   0.000000   0.000000  -0.000003
               7          8          9         10         11         12
     1  C    0.409652  -0.002774  -0.010881  -0.160795   0.003623   0.254323
     2  H   -0.026044   0.004375  -0.003865   0.036919  -0.000050  -0.020345
     3  H   -0.051790  -0.001116   0.002719  -0.024941  -0.001716   0.000907
     4  C    0.005187   0.409024   0.415183  -0.038249  -0.026451  -0.171822
     5  H    0.001640  -0.032365  -0.060205  -0.053004   0.004615   0.033788
     6  N   -0.041986  -0.094300  -0.048596   0.232167  -0.061235  -0.271511
     7  H    0.539164  -0.002856  -0.000701   0.007003   0.001342   0.022509
     8  H   -0.002856   0.537738  -0.021370   0.086552  -0.007093  -0.023030
     9  H   -0.000701  -0.021370   0.552136  -0.005909   0.000345   0.003935
    10  C    0.007003   0.086552  -0.005909   8.425009   0.380911  -2.260241
    11  H    0.001342  -0.007093   0.000345   0.380911   0.470231  -0.036721
    12  C    0.022509  -0.023030   0.003935  -2.260241  -0.036721  13.977000
    13  C   -0.036717   0.000938   0.000134  -1.849661   0.030828   0.018699
    14  H    0.000207  -0.000997  -0.000420  -0.169631   0.004942   0.600669
    15  O    0.000876  -0.000753   0.000065   0.060837   0.031121  -0.171700
    16  C   -0.016556   0.005292   0.000139   1.227213   0.004074  -5.926452
    17  C    0.000499  -0.001896   0.000878   0.222794   0.016012   0.856960
    18  C   -0.002714   0.001697  -0.000889  -0.208199  -0.027973  -0.865821
    19  O   -0.000171   0.000074  -0.000017  -0.018749  -0.000484  -0.128216
    20  C   -0.001740  -0.000134   0.000088  -0.176345  -0.000460   0.051433
    21  C    0.007227   0.000394  -0.000235   0.332274  -0.006606   0.232611
    22  H   -0.003383   0.000118  -0.000020  -0.011794   0.000004  -0.061633
    23  H   -0.000057   0.000262   0.000008  -0.005209  -0.003378   0.012896
    24  H   -0.000067   0.000003  -0.000001  -0.001483  -0.000013  -0.008737
    25  C    0.003147  -0.000009   0.000028   0.066124  -0.000570   0.264895
    26  H    0.000045   0.000000   0.000001   0.001590   0.000019  -0.005212
    27  O    0.000042   0.000001  -0.000001   0.000904  -0.000084   0.007295
    28  C   -0.000012   0.000004  -0.000002   0.003915   0.000041  -0.005030
    29  H   -0.000005   0.000000   0.000000  -0.000366  -0.000009  -0.000073
    30  H    0.000006  -0.000002   0.000000  -0.000641   0.000017  -0.000579
    31  H    0.000013   0.000000   0.000000   0.000334   0.000000   0.000192
              13         14         15         16         17         18
     1  C   -0.159311   0.023197  -0.001637  -0.134303   0.036224  -0.045519
     2  H   -0.009578   0.000825   0.000138  -0.002537   0.002701  -0.003555
     3  H    0.022475  -0.009112  -0.000169   0.017436  -0.002574   0.001684
     4  C   -0.029016  -0.011788   0.005041   0.026316   0.006881  -0.003585
     5  H   -0.004555   0.001557  -0.000244  -0.001917  -0.000607   0.000355
     6  N   -0.002035  -0.033526   0.007279  -0.004829  -0.002567   0.005641
     7  H   -0.036717   0.000207   0.000876  -0.016556   0.000499  -0.002714
     8  H    0.000938  -0.000997  -0.000753   0.005292  -0.001896   0.001697
     9  H    0.000134  -0.000420   0.000065   0.000139   0.000878  -0.000889
    10  C   -1.849661  -0.169631   0.060837   1.227213   0.222794  -0.208199
    11  H    0.030828   0.004942   0.031121   0.004074   0.016012  -0.027973
    12  C    0.018699   0.600669  -0.171700  -5.926452   0.856960  -0.865821
    13  C   10.524434   0.049431   0.690215  -0.975262  -0.480547  -0.686894
    14  H    0.049431   0.530026  -0.006083  -0.118366  -0.081038   0.071709
    15  O    0.690215  -0.006083   8.117036  -0.346656  -0.057284   0.011072
    16  C   -0.975262  -0.118366  -0.346656  18.802656  -3.555785  -1.015678
    17  C   -0.480547  -0.081038  -0.057284  -3.555785  19.616639  -8.836551
    18  C   -0.686894   0.071709   0.011072  -1.015678  -8.836551  23.746860
    19  O   -0.010050   0.001594  -0.016117   0.354134   0.203680   0.093765
    20  C   -0.102641   0.013689  -0.048145  -3.053704  -2.272827   4.358377
    21  C   -0.883243  -0.031486   0.002676  -1.542129   0.162273  -2.471343
    22  H   -0.004985  -0.006952  -0.007746   0.041945   0.058157   0.637391
    23  H   -0.032465  -0.001554   0.011109  -0.155955  -0.002092   0.070937
    24  H   -0.024752  -0.000189  -0.002701  -0.101259  -0.187444   0.157591
    25  C    0.250754  -0.009687   0.044523   0.901529   1.371965  -8.405279
    26  H    0.005477  -0.000024   0.000516   0.116980   0.024593  -0.171861
    27  O   -0.011131  -0.002935   0.000238  -0.055449   0.051803  -0.415737
    28  C   -0.042510  -0.000755  -0.000465  -0.075126   0.014169   0.110239
    29  H    0.000909  -0.000129  -0.000054  -0.015514  -0.010113   0.015303
    30  H    0.007624   0.000160   0.000063   0.034362   0.003224   0.068012
    31  H   -0.001131  -0.000175   0.000030   0.000792   0.002538  -0.019356
              19         20         21         22         23         24
     1  C   -0.000298  -0.000743   0.004735   0.000306  -0.000025   0.000104
     2  H    0.000006  -0.000164   0.000792   0.000513   0.000013   0.000015
     3  H    0.000091   0.000870  -0.002333   0.000875   0.000059   0.000028
     4  C   -0.000196  -0.001358   0.003051   0.000303  -0.000071  -0.000006
     5  H    0.000024  -0.000033   0.000045  -0.000071  -0.000104  -0.000003
     6  N   -0.000119  -0.001056   0.002638   0.001616   0.000637   0.000060
     7  H   -0.000171  -0.001740   0.007227  -0.003383  -0.000057  -0.000067
     8  H    0.000074  -0.000134   0.000394   0.000118   0.000262   0.000003
     9  H   -0.000017   0.000088  -0.000235  -0.000020   0.000008  -0.000001
    10  C   -0.018749  -0.176345   0.332274  -0.011794  -0.005209  -0.001483
    11  H   -0.000484  -0.000460  -0.006606   0.000004  -0.003378  -0.000013
    12  C   -0.128216   0.051433   0.232611  -0.061633   0.012896  -0.008737
    13  C   -0.010050  -0.102641  -0.883243  -0.004985  -0.032465  -0.024752
    14  H    0.001594   0.013689  -0.031486  -0.006952  -0.001554  -0.000189
    15  O   -0.016117  -0.048145   0.002676  -0.007746   0.011109  -0.002701
    16  C    0.354134  -3.053704  -1.542129   0.041945  -0.155955  -0.101259
    17  C    0.203680  -2.272827   0.162273   0.058157  -0.002092  -0.187444
    18  C    0.093765   4.358377  -2.471343   0.637391   0.070937   0.157591
    19  O    7.958608  -0.487139   0.011001  -0.001602   0.254589  -0.029721
    20  C   -0.487139  11.432305  -0.932559   0.112222   0.125372   0.651216
    21  C    0.011001  -0.932559  11.342482  -0.279670   0.016319   0.051569
    22  H   -0.001602   0.112222  -0.279670   0.491005   0.000453   0.004905
    23  H    0.254589   0.125372   0.016319   0.000453   0.414678   0.002211
    24  H   -0.029721   0.651216   0.051569   0.004905   0.002211   0.490803
    25  C    0.002198  -3.298509   0.446808  -0.198167  -0.014845  -0.220734
    26  H    0.001806  -0.175542  -0.218938  -0.005354  -0.000505  -0.023524
    27  O    0.000195  -0.025285   0.696633  -0.005322   0.000327  -0.000710
    28  C    0.000221   0.080674  -0.234009   0.001154   0.000268   0.001213
    29  H   -0.000127  -0.005642   0.032756   0.002124   0.000014   0.001820
    30  H    0.000107   0.004964  -0.097363  -0.001783  -0.000065  -0.000756
    31  H    0.000026  -0.006084   0.040803  -0.001346   0.000022  -0.000055
              25         26         27         28         29         30
     1  C   -0.003247  -0.000193   0.000189   0.000022   0.000014  -0.000009
     2  H   -0.000344  -0.000014   0.000013   0.000010   0.000001  -0.000001
     3  H   -0.000700   0.000008   0.000007   0.000020   0.000001  -0.000004
     4  C    0.000592   0.000011   0.000000  -0.000013  -0.000002   0.000002
     5  H    0.000039   0.000001   0.000000  -0.000001   0.000000   0.000000
     6  N   -0.001378  -0.000025   0.000023  -0.000003   0.000001  -0.000001
     7  H    0.003147   0.000045   0.000042  -0.000012  -0.000005   0.000006
     8  H   -0.000009   0.000000   0.000001   0.000004   0.000000  -0.000002
     9  H    0.000028   0.000001  -0.000001  -0.000002   0.000000   0.000000
    10  C    0.066124   0.001590   0.000904   0.003915  -0.000366  -0.000641
    11  H   -0.000570   0.000019  -0.000084   0.000041  -0.000009   0.000017
    12  C    0.264895  -0.005212   0.007295  -0.005030  -0.000073  -0.000579
    13  C    0.250754   0.005477  -0.011131  -0.042510   0.000909   0.007624
    14  H   -0.009687  -0.000024  -0.002935  -0.000755  -0.000129   0.000160
    15  O    0.044523   0.000516   0.000238  -0.000465  -0.000054   0.000063
    16  C    0.901529   0.116980  -0.055449  -0.075126  -0.015514   0.034362
    17  C    1.371965   0.024593   0.051803   0.014169  -0.010113   0.003224
    18  C   -8.405279  -0.171861  -0.415737   0.110239   0.015303   0.068012
    19  O    0.002198   0.001806   0.000195   0.000221  -0.000127   0.000107
    20  C   -3.298509  -0.175542  -0.025285   0.080674  -0.005642   0.004964
    21  C    0.446808  -0.218938   0.696633  -0.234009   0.032756  -0.097363
    22  H   -0.198167  -0.005354  -0.005322   0.001154   0.002124  -0.001783
    23  H   -0.014845  -0.000505   0.000327   0.000268   0.000014  -0.000065
    24  H   -0.220734  -0.023524  -0.000710   0.001213   0.001820  -0.000756
    25  C   14.076746   0.745570  -0.154622  -0.009907  -0.028650  -0.019976
    26  H    0.745570   0.538932  -0.013535  -0.010963  -0.007554   0.002418
    27  O   -0.154622  -0.013535   8.068562   0.151454  -0.037955  -0.051218
    28  C   -0.009907  -0.010963   0.151454   5.151934   0.403208   0.414059
    29  H   -0.028650  -0.007554  -0.037955   0.403208   0.619468  -0.066930
    30  H   -0.019976   0.002418  -0.051218   0.414059  -0.066930   0.572772
    31  H    0.008594  -0.000898  -0.062690   0.398732  -0.026964  -0.022384
              31
     1  C   -0.000007
     2  H   -0.000001
     3  H    0.000003
     4  C    0.000000
     5  H    0.000000
     6  N   -0.000003
     7  H    0.000013
     8  H    0.000000
     9  H    0.000000
    10  C    0.000334
    11  H    0.000000
    12  C    0.000192
    13  C   -0.001131
    14  H   -0.000175
    15  O    0.000030
    16  C    0.000792
    17  C    0.002538
    18  C   -0.019356
    19  O    0.000026
    20  C   -0.006084
    21  C    0.040803
    22  H   -0.001346
    23  H    0.000022
    24  H   -0.000055
    25  C    0.008594
    26  H   -0.000898
    27  O   -0.062690
    28  C    0.398732
    29  H   -0.026964
    30  H   -0.022384
    31  H    0.517504
 Mulliken charges:
               1
     1  C   -0.448908
     2  H    0.186971
     3  H    0.194888
     4  C   -0.343566
     5  H    0.185338
     6  N    0.130619
     7  H    0.186239
     8  H    0.142221
     9  H    0.177452
    10  C   -0.099328
    11  H    0.224717
    12  C   -0.380988
    13  C   -0.255436
    14  H    0.186839
    15  O   -0.323081
    16  C    1.564608
    17  C   -1.160665
    18  C   -0.169677
    19  O   -0.189114
    20  C   -0.241102
    21  C   -0.687173
    22  H    0.236738
    23  H    0.306152
    24  H    0.240619
    25  C    0.183110
    26  H    0.196178
    27  O   -0.141012
    28  C   -0.352542
    29  H    0.124471
    30  H    0.153922
    31  H    0.171511
 Sum of Mulliken charges =   0.00000
 Mulliken charges with hydrogens summed into heavy atoms:
               1
     1  C    0.119190
     4  C    0.161445
     6  N    0.130619
    10  C    0.125389
    12  C   -0.194149
    13  C   -0.255436
    15  O   -0.323081
    16  C    1.564608
    17  C   -1.160665
    18  C    0.067061
    19  O    0.117039
    20  C   -0.000483
    21  C   -0.687173
    25  C    0.379287
    27  O   -0.141012
    28  C    0.097362
 Electronic spatial extent (au):  <R**2>=           5332.9518
 Charge=              0.0000 electrons
 Dipole moment (field-independent basis, Debye):
    X=             -4.4664    Y=             -3.0593    Z=             -1.3517  Tot=              5.5799
 Quadrupole moment (field-independent basis, Debye-Ang):
   XX=            -55.8444   YY=           -100.4661   ZZ=            -99.4636
   XY=              3.7689   XZ=              5.0114   YZ=             -3.7445
 Traceless Quadrupole moment (field-independent basis, Debye-Ang):
   XX=             29.4137   YY=            -15.2081   ZZ=            -14.2056
   XY=              3.7689   XZ=              5.0114   YZ=             -3.7445
 Octapole moment (field-independent basis, Debye-Ang**2):
  XXX=            -87.4841  YYY=            -17.2726  ZZZ=             -3.2616  XYY=            -14.9151
  XXY=            -27.1018  XXZ=              4.0956  XZZ=             -5.5818  YZZ=            -10.5792
  YYZ=              0.2702  XYZ=            -18.0593
 Hexadecapole moment (field-independent basis, Debye-Ang**3):
 XXXX=          -4352.7721 YYYY=          -1255.3167 ZZZZ=           -398.7157 XXXY=             12.6906
 XXXZ=              6.4783 YYYX=            -29.4394 YYYZ=             -3.7952 ZZZX=             17.3419
 ZZZY=             -5.3854 XXYY=          -1042.1483 XXZZ=           -947.6588 YYZZ=           -278.7765
 XXYZ=            -26.4873 YYXZ=             33.6531 ZZXY=              4.0171
 N-N= 1.050381533619D+03 E-N=-3.843668402314D+03  KE= 7.437257766533D+02
 Calling FoFJK, ICntrl=  10005127 FMM=F ISym2X=0 I1Cent= 0 IOpClX= 0 NMat=1 NMatS=1 NMatT=0.
 ***** Axes restored to original set *****
 -------------------------------------------------------------------
 Center     Atomic                   Forces (Hartrees/Bohr)
 Number     Number              X              Y              Z
 -------------------------------------------------------------------
      1        6           0.000682432   -0.002564228   -0.005029994
      2        1           0.000002677    0.000120159    0.000288103
      3        1          -0.000844781    0.001184587    0.000735483
      4        6          -0.004384378    0.000280832    0.002396400
      5        1           0.000764022    0.000948066   -0.001047715
      6        7           0.018518503    0.011628194    0.009596014
      7        1          -0.000232208   -0.000298848    0.001086633
      8        1           0.000114565   -0.000130873   -0.000143535
      9        1           0.000786523   -0.000043167   -0.000072839
     10        6          -0.002084308   -0.009544728   -0.015056279
     11        1           0.003865749    0.001940640    0.001364849
     12        6          -0.012737844   -0.013648989   -0.012343054
     13        6          -0.000546119    0.047314975    0.087812423
     14        1          -0.007543401   -0.003833708    0.001764986
     15        8           0.004912760   -0.027859533   -0.061122951
     16        6          -0.010431117   -0.003844467   -0.004023521
     17        6          -0.005474631   -0.013261984    0.011809578
     18        6           0.007697782   -0.001307161   -0.000853957
     19        8           0.027153827    0.006398845   -0.012358673
     20        6           0.003360007    0.003256916   -0.003423276
     21        6          -0.005062157    0.002426334    0.001280497
     22        1           0.003160653    0.000238440   -0.002035926
     23        1          -0.021181789    0.001071939   -0.001531308
     24        1          -0.000166562    0.000147600    0.000095313
     25        6          -0.001209833   -0.001907265    0.003086090
     26        1           0.000133862   -0.000295404   -0.000274664
     27        8           0.001165657    0.001976507   -0.001901028
     28        6          -0.000522333   -0.000698877   -0.000289344
     29        1           0.000084262    0.000092510   -0.000015044
     30        1          -0.000022353    0.000009234    0.000242488
     31        1           0.000040536    0.000203456   -0.000035747
 -------------------------------------------------------------------
 Cartesian Forces:  Max     0.087812423 RMS     0.013941214

 GradGradGradGradGradGradGradGradGradGradGradGradGradGradGradGradGradGrad
 Berny optimization.
 FormGI is forming the generalized inverse of G from B-inverse, IUseBI=4.
 GSVD:  received Info=                   1 from GESDD.
 Internal  Forces:  Max     0.066524638 RMS     0.007368005
 Search for a local minimum.
 Step number   1 out of a maximum of  150
 All quantities printed in internal units (Hartrees-Bohrs-Radians)
 Mixed Optimization -- RFO/linear search
 Second derivative matrix not updated -- first step.
 ITU=  0
     Eigenvalues ---    0.00936   0.01033   0.01052   0.01191   0.01436
     Eigenvalues ---    0.01438   0.01491   0.01665   0.01990   0.02025
     Eigenvalues ---    0.02025   0.02096   0.02167   0.02173   0.02213
     Eigenvalues ---    0.02227   0.02262   0.02296   0.02457   0.02531
     Eigenvalues ---    0.02535   0.02603   0.07411   0.07426   0.07585
     Eigenvalues ---    0.07633   0.10084   0.10595   0.15997   0.15999
     Eigenvalues ---    0.16000   0.16000   0.16000   0.16000   0.16000
     Eigenvalues ---    0.16000   0.16000   0.16000   0.16000   0.16000
     Eigenvalues ---    0.16000   0.16000   0.16000   0.22000   0.22001
     Eigenvalues ---    0.22362   0.23481   0.24597   0.24773   0.24854
     Eigenvalues ---    0.24974   0.24999   0.24999   0.25000   0.25000
     Eigenvalues ---    0.25000   0.33765   0.34074   0.34087   0.34134
     Eigenvalues ---    0.34152   0.34345   0.34357   0.34829   0.34842
     Eigenvalues ---    0.34843   0.35255   0.35468   0.35593   0.35757
     Eigenvalues ---    0.36114   0.38272   0.38329   0.38458   0.41289
     Eigenvalues ---    0.42210   0.43189   0.44694   0.45628   0.48015
     Eigenvalues ---    0.48978   0.50057   0.50274   0.52713   0.56721
     Eigenvalues ---    0.58058   0.85558
 RFO step:  Lambda=-1.64054332D-02 EMin= 9.36021597D-03
 Linear search not attempted -- first point.
 Iteration  1 RMS(Cart)=  0.13730363 RMS(Int)=  0.00378222
 Iteration  2 RMS(Cart)=  0.00697883 RMS(Int)=  0.00012435
 Iteration  3 RMS(Cart)=  0.00002206 RMS(Int)=  0.00012402
 Iteration  4 RMS(Cart)=  0.00000000 RMS(Int)=  0.00012402
 Variable       Old X    -DE/DX   Delta X   Delta X   Delta X     New X
                                 (Linear)    (Quad)   (Total)
    R1        2.05931   0.00013   0.00000   0.00034   0.00034   2.05966
    R2        2.07184   0.00142   0.00000   0.00396   0.00396   2.07580
    R3        2.73704  -0.00323   0.00000  -0.00806  -0.00806   2.72898
    R4        2.06752   0.00102   0.00000   0.00283   0.00283   2.07035
    R5        2.07074   0.00120   0.00000   0.00336   0.00336   2.07410
    R6        2.73971  -0.00261   0.00000  -0.00654  -0.00654   2.73316
    R7        2.05932   0.00019   0.00000   0.00051   0.00051   2.05983
    R8        2.06732   0.00063   0.00000   0.00174   0.00174   2.06906
    R9        2.53634   0.02055   0.00000   0.03522   0.03522   2.57156
   R10        2.05263  -0.00135   0.00000  -0.00367  -0.00367   2.04896
   R11        2.57222   0.01835   0.00000   0.03377   0.03377   2.60599
   R12        2.73890  -0.01818   0.00000  -0.04548  -0.04548   2.69341
   R13        2.03904   0.00185   0.00000   0.00491   0.00491   2.04395
   R14        2.35050   0.06652   0.00000   0.07629   0.07629   2.42680
   R15        2.81029  -0.00187   0.00000  -0.00528  -0.00528   2.80501
   R16        2.66910  -0.00272   0.00000  -0.00671  -0.00670   2.66239
   R17        2.65331  -0.00487   0.00000  -0.01071  -0.01073   2.64258
   R18        2.52511   0.01586   0.00000   0.02657   0.02657   2.55168
   R19        2.64618  -0.00316   0.00000  -0.00709  -0.00707   2.63911
   R20        2.60441   0.00370   0.00000   0.00761   0.00759   2.61199
   R21        2.04463   0.00141   0.00000   0.00378   0.00378   2.04841
   R22        1.86290  -0.01991   0.00000  -0.03836  -0.03836   1.82454
   R23        2.04723   0.00013   0.00000   0.00036   0.00036   2.04759
   R24        2.60557   0.00328   0.00000   0.00669   0.00671   2.61228
   R25        2.64067   0.00053   0.00000   0.00178   0.00178   2.64244
   R26        2.59808  -0.00251   0.00000  -0.00486  -0.00486   2.59321
   R27        2.04922  -0.00019   0.00000  -0.00050  -0.00050   2.04871
   R28        2.67437   0.00051   0.00000   0.00115   0.00115   2.67551
   R29        2.07105  -0.00007   0.00000  -0.00019  -0.00019   2.07086
   R30        2.07206  -0.00018   0.00000  -0.00051  -0.00051   2.07154
   R31        2.05953  -0.00010   0.00000  -0.00027  -0.00027   2.05926
    A1        1.89835  -0.00057   0.00000  -0.00328  -0.00328   1.89507
    A2        1.90709   0.00007   0.00000   0.00009   0.00008   1.90718
    A3        1.89414  -0.00044   0.00000  -0.00311  -0.00311   1.89103
    A4        1.94249   0.00105   0.00000   0.00626   0.00625   1.94874
    A5        1.89387  -0.00068   0.00000  -0.00327  -0.00328   1.89059
    A6        1.92705   0.00052   0.00000   0.00298   0.00297   1.93002
    A7        1.94091   0.00146   0.00000   0.00888   0.00887   1.94978
    A8        1.89201  -0.00063   0.00000  -0.00390  -0.00389   1.88812
    A9        1.89556  -0.00065   0.00000  -0.00218  -0.00221   1.89335
   A10        1.91290  -0.00034   0.00000  -0.00272  -0.00272   1.91018
   A11        1.92861   0.00046   0.00000   0.00278   0.00277   1.93138
   A12        1.89282  -0.00036   0.00000  -0.00326  -0.00326   1.88956
   A13        2.05818   0.00038   0.00000   0.00099   0.00096   2.05914
   A14        2.09877  -0.00070   0.00000  -0.00315  -0.00318   2.09559
   A15        2.11842   0.00027   0.00000   0.00050   0.00047   2.11888
   A16        2.01993  -0.00253   0.00000  -0.01703  -0.01703   2.00290
   A17        2.21567  -0.00377   0.00000  -0.01595  -0.01595   2.19972
   A18        2.04756   0.00630   0.00000   0.03301   0.03301   2.08057
   A19        2.06420   0.01566   0.00000   0.06630   0.06626   2.13046
   A20        2.11560   0.00073   0.00000   0.01552   0.01548   2.13108
   A21        2.10309  -0.01637   0.00000  -0.08146  -0.08150   2.02159
   A22        2.11000   0.00803   0.00000   0.03016   0.03016   2.14016
   A23        2.09620   0.00801   0.00000   0.03009   0.03008   2.12628
   A24        2.07691  -0.01603   0.00000  -0.06016  -0.06017   2.01674
   A25        2.08221   0.00019   0.00000   0.00142   0.00149   2.08370
   A26        2.13729  -0.00568   0.00000  -0.02059  -0.02052   2.11677
   A27        2.06368   0.00549   0.00000   0.01918   0.01903   2.08272
   A28        2.14626   0.00003   0.00000   0.00091   0.00085   2.14711
   A29        2.08704  -0.00081   0.00000  -0.00475  -0.00493   2.08212
   A30        2.04986   0.00077   0.00000   0.00369   0.00361   2.05347
   A31        2.12367  -0.00419   0.00000  -0.01714  -0.01743   2.10624
   A32        2.11351  -0.00140   0.00000  -0.01128  -0.01137   2.10213
   A33        2.04601   0.00560   0.00000   0.02840   0.02828   2.07429
   A34        1.85366   0.01374   0.00000   0.07789   0.07789   1.93155
   A35        2.05984   0.00044   0.00000   0.00197   0.00199   2.06183
   A36        2.10922  -0.00067   0.00000  -0.00277  -0.00282   2.10640
   A37        2.11410   0.00023   0.00000   0.00078   0.00080   2.11490
   A38        2.08668   0.00079   0.00000   0.00519   0.00508   2.09176
   A39        2.07189  -0.00086   0.00000  -0.00433  -0.00427   2.06763
   A40        2.12374   0.00007   0.00000  -0.00084  -0.00080   2.12294
   A41        2.09567  -0.00063   0.00000  -0.00047  -0.00053   2.09514
   A42        2.09388   0.00028   0.00000   0.00001   0.00004   2.09391
   A43        2.09359   0.00036   0.00000   0.00048   0.00051   2.09410
   A44        2.00551   0.00018   0.00000   0.00068   0.00068   2.00619
   A45        1.95412  -0.00012   0.00000  -0.00060  -0.00060   1.95352
   A46        1.93409   0.00021   0.00000   0.00134   0.00134   1.93544
   A47        1.86208  -0.00033   0.00000  -0.00208  -0.00208   1.86000
   A48        1.90113   0.00011   0.00000   0.00100   0.00100   1.90214
   A49        1.90028   0.00010   0.00000   0.00028   0.00028   1.90056
   A50        1.91134   0.00002   0.00000  -0.00001  -0.00001   1.91132
    D1       -0.22395  -0.00027   0.00000  -0.00808  -0.00807  -0.23202
    D2        3.04983   0.00013   0.00000   0.00587   0.00587   3.05569
    D3        1.87282  -0.00028   0.00000  -0.00815  -0.00815   1.86468
    D4       -1.13658   0.00013   0.00000   0.00580   0.00579  -1.13079
    D5       -2.30596  -0.00009   0.00000  -0.00612  -0.00611  -2.31207
    D6        0.96783   0.00031   0.00000   0.00783   0.00783   0.97565
    D7       -1.08684  -0.00005   0.00000   0.00110   0.00110  -1.08574
    D8        1.92100  -0.00053   0.00000  -0.01331  -0.01333   1.90767
    D9        3.10467   0.00004   0.00000   0.00210   0.00211   3.10678
   D10       -0.17068  -0.00045   0.00000  -0.01230  -0.01231  -0.18299
   D11        1.01970   0.00041   0.00000   0.00612   0.00614   1.02584
   D12       -2.25565  -0.00008   0.00000  -0.00828  -0.00828  -2.26393
   D13        3.12152   0.00022   0.00000   0.00344   0.00349   3.12501
   D14       -0.02735   0.00051   0.00000   0.01004   0.01000  -0.01735
   D15        0.11675   0.00064   0.00000   0.01786   0.01789   0.13465
   D16       -3.03211   0.00092   0.00000   0.02445   0.02440  -3.00771
   D17       -3.13079  -0.00012   0.00000  -0.00116  -0.00098  -3.13177
   D18        0.03725  -0.00056   0.00000  -0.01528  -0.01554   0.02171
   D19        0.00343   0.00013   0.00000   0.00534   0.00559   0.00903
   D20       -3.11172  -0.00030   0.00000  -0.00878  -0.00896  -3.12068
   D21       -0.01014  -0.00012   0.00000   0.00124   0.00157  -0.00857
   D22       -3.13842  -0.00024   0.00000  -0.00602  -0.00589   3.13887
[...]
 Alpha virt. eigenvalues --    2.16466   2.17454   2.18629   2.19246   2.19762
 Alpha virt. eigenvalues --    2.21848   2.21998   2.23507   2.24500   2.25167
 Alpha virt. eigenvalues --    2.30078   2.30930   2.32331   2.34623   2.38020
 Alpha virt. eigenvalues --    2.39561   2.42383   2.42764   2.45048   2.46844
 Alpha virt. eigenvalues --    2.48112   2.50915   2.54624   2.56577   2.56992
 Alpha virt. eigenvalues --    2.57947   2.58455   2.60340   2.60857   2.63101
 Alpha virt. eigenvalues --    2.63583   2.64278   2.67306   2.68348   2.69013
 Alpha virt. eigenvalues --    2.69770   2.72183   2.72995   2.74360   2.75627
 Alpha virt. eigenvalues --    2.76103   2.80246   2.81410   2.82432   2.83450
 Alpha virt. eigenvalues --    2.83835   2.87165   2.88316   2.90062   2.90250
 Alpha virt. eigenvalues --    2.92052   2.92896   2.93840   2.95410   2.96672
 Alpha virt. eigenvalues --    2.99499   3.01268   3.01918   3.03019   3.04500
 Alpha virt. eigenvalues --    3.07101   3.08249   3.09451   3.12588   3.14683
 Alpha virt. eigenvalues --    3.15939   3.18620   3.20462   3.22183   3.25639
 Alpha virt. eigenvalues --    3.26212   3.26392   3.29507   3.32624   3.35533
 Alpha virt. eigenvalues --    3.39792   3.41432   3.43911   3.47307   3.51865
 Alpha virt. eigenvalues --    3.52726   3.53657   3.58571   3.62558   3.63018
 Alpha virt. eigenvalues --    3.66485   3.67539   3.74972   3.77096   3.78030
 Alpha virt. eigenvalues --    3.80580   3.83504   3.85236   3.87503   3.88136
 Alpha virt. eigenvalues --    3.90295   3.95099   3.96643   3.99501   4.03798
 Alpha virt. eigenvalues --    4.11108   4.21380   4.24200   4.29904   4.31242
 Alpha virt. eigenvalues --    4.33369   4.39919   4.49784   4.93682   4.96825
 Alpha virt. eigenvalues --    5.07247   5.16219   5.19218   5.30522   5.45034
 Alpha virt. eigenvalues --    5.52235   5.55326   5.80491   5.92550   6.00824
 Alpha virt. eigenvalues --   23.75703  23.87925  23.99986  24.01660  24.03409
 Alpha virt. eigenvalues --   24.08193  24.08638  24.13898  24.16182  24.23379
 Alpha virt. eigenvalues --   24.32423  24.37833  35.61346  50.03563  50.14716
 Alpha virt. eigenvalues --   50.28437
          Condensed to atoms (all electrons):
               1          2          3          4          5          6
     1  C    5.367327   0.373024   0.420946  -0.150043   0.012881   0.287472
     2  H    0.373024   0.497045  -0.028855   0.005652  -0.005290  -0.040608
     3  H    0.420946  -0.028855   0.495435  -0.022429   0.008053  -0.047863
     4  C   -0.150043   0.005652  -0.022429   5.288112   0.401782   0.258063
     5  H    0.012881  -0.005290   0.008053   0.401782   0.531024  -0.026063
     6  N    0.287472  -0.040608  -0.047863   0.258063  -0.026063   6.661001
     7  H    0.395323  -0.019839  -0.036445   0.016359  -0.000232  -0.029408
     8  H    0.001147   0.002423  -0.001328   0.396491  -0.040257  -0.070163
     9  H   -0.022601   0.005877   0.000611   0.409342  -0.053274  -0.046635
    10  C   -0.191304   0.010172   0.007567  -0.159555  -0.067074   0.166238
    11  H    0.017412  -0.000430  -0.001762  -0.014573   0.007081  -0.054477
    12  C    0.204980   0.000482   0.016206  -0.031831   0.031922  -0.145602
    13  C   -0.158169   0.002769  -0.006567  -0.043389  -0.001778  -0.033047
    14  H    0.018468   0.002864  -0.006334   0.001776   0.001630  -0.028646
    15  O   -0.004011  -0.000302   0.000527  -0.001500  -0.000097  -0.001279
    16  C   -0.105649   0.002516  -0.010860   0.003874  -0.000609  -0.013060
    17  C   -0.036072  -0.000257  -0.003009  -0.007369   0.000410  -0.014633
    18  C    0.030258   0.001169   0.001345   0.008420  -0.002210   0.015657
    19  O    0.002258   0.000233  -0.000262  -0.000273  -0.000018   0.000603
    20  C    0.004746  -0.000060  -0.001364  -0.000112   0.000029   0.001885
    21  C    0.005167   0.000260   0.000568   0.001508  -0.000691   0.004503
    22  H   -0.000157   0.000265  -0.001139   0.000024  -0.000158   0.000979
    23  H   -0.000981   0.000015  -0.000083  -0.000630  -0.000052  -0.000804
    24  H    0.000129   0.000017  -0.000040  -0.000008  -0.000001   0.000088
    25  C   -0.004372  -0.000144   0.001022  -0.000035  -0.000027  -0.001520
    26  H    0.000025   0.000006   0.000005  -0.000004   0.000001  -0.000022
    27  O    0.000011   0.000001   0.000007  -0.000002  -0.000001   0.000016
    28  C   -0.000042   0.000004  -0.000027  -0.000005   0.000000   0.000013
    29  H   -0.000017  -0.000002   0.000006   0.000002  -0.000001   0.000001
    30  H    0.000031   0.000002  -0.000015   0.000000   0.000000   0.000002
    31  H   -0.000006   0.000000  -0.000001  -0.000001   0.000000   0.000001
               7          8          9         10         11         12
     1  C    0.395323   0.001147  -0.022601  -0.191304   0.017412   0.204980
     2  H   -0.019839   0.002423   0.005877   0.010172  -0.000430   0.000482
     3  H   -0.036445  -0.001328   0.000611   0.007567  -0.001762   0.016206
     4  C    0.016359   0.396491   0.409342  -0.159555  -0.014573  -0.031831
     5  H   -0.000232  -0.040257  -0.053274  -0.067074   0.007081   0.031922
     6  N   -0.029408  -0.070163  -0.046635   0.166238  -0.054477  -0.145602
     7  H    0.492929  -0.002305  -0.000265   0.024765  -0.000042  -0.029205
     8  H   -0.002305   0.521377  -0.010959   0.048220  -0.008489  -0.020347
     9  H   -0.000265  -0.010959   0.529338   0.012584  -0.002131   0.006470
    10  C    0.024765   0.048220   0.012584   8.615837   0.374070  -1.807508
    11  H   -0.000042  -0.008489  -0.002131   0.374070   0.452196   0.136235
    12  C   -0.029205  -0.020347   0.006470  -1.807508   0.136235  14.254998
    13  C   -0.014949   0.015140  -0.001825  -1.286648  -0.094315  -0.626469
    14  H   -0.006652  -0.002006  -0.000986  -0.171619   0.008931   0.543994
    15  O    0.000424   0.000930   0.000106   0.057660   0.001238  -0.524331
    16  C   -0.006586   0.004464  -0.001300   0.255216  -0.049475  -5.293793
    17  C    0.002221  -0.002153  -0.000815   0.315692   0.004378  -2.370123
    18  C    0.004827   0.003740   0.001250  -0.091381  -0.027018   1.493636
    19  O   -0.000382  -0.000147   0.000009  -0.057777   0.002904   0.129984
    20  C   -0.002035  -0.000698   0.000012  -0.195238   0.009092   0.622114
    21  C    0.005397   0.000764   0.000229   0.126529  -0.008019   0.313311
    22  H    0.000228   0.000194  -0.000023   0.003455  -0.001412  -0.111849
    23  H    0.000157   0.000245  -0.000023  -0.014474  -0.002711   0.026468
    24  H   -0.000023  -0.000005   0.000000  -0.004008   0.000074  -0.003103
    25  C    0.001496   0.000165  -0.000025   0.150940  -0.003755  -0.262617
    26  H   -0.000017   0.000001  -0.000001   0.002143   0.000033  -0.001152
    27  O    0.000006   0.000000   0.000000  -0.000106  -0.000041  -0.002623
    28  C   -0.000009  -0.000004   0.000000  -0.000468   0.000017  -0.025367
    29  H    0.000004   0.000000   0.000000  -0.000001  -0.000016   0.000594
    30  H    0.000009   0.000000   0.000000  -0.000133   0.000005   0.000597
    31  H   -0.000003  -0.000001   0.000000   0.000021   0.000002  -0.001680
              13         14         15         16         17         18
     1  C   -0.158169   0.018468  -0.004011  -0.105649  -0.036072   0.030258
     2  H    0.002769   0.002864  -0.000302   0.002516  -0.000257   0.001169
     3  H   -0.006567  -0.006334   0.000527  -0.010860  -0.003009   0.001345
     4  C   -0.043389   0.001776  -0.001500   0.003874  -0.007369   0.008420
     5  H   -0.001778   0.001630  -0.000097  -0.000609   0.000410  -0.002210
     6  N   -0.033047  -0.028646  -0.001279  -0.013060  -0.014633   0.015657
     7  H   -0.014949  -0.006652   0.000424  -0.006586   0.002221   0.004827
     8  H    0.015140  -0.002006   0.000930   0.004464  -0.002153   0.003740
     9  H   -0.001825  -0.000986   0.000106  -0.001300  -0.000815   0.001250
    10  C   -1.286648  -0.171619   0.057660   0.255216   0.315692  -0.091381
    11  H   -0.094315   0.008931   0.001238  -0.049475   0.004378  -0.027018
    12  C   -0.626469   0.543994  -0.524331  -5.293793  -2.370123   1.493636
    13  C   10.636764   0.019396   0.533722  -0.458533  -0.517844  -1.362908
    14  H    0.019396   0.496499  -0.002995   0.013333  -0.035905  -0.038235
    15  O    0.533722  -0.002995   7.782570   0.296126   0.003886  -0.176850
    16  C   -0.458533   0.013333   0.296126  17.475253  -0.474922  -1.733477
    17  C   -0.517844  -0.035905   0.003886  -0.474922  17.583242  -5.739108
    18  C   -1.362908  -0.038235  -0.176850  -1.733477  -5.739108  15.771140
    19  O    0.100067   0.007169  -0.002660  -0.022442   0.075028   0.072320
    20  C   -0.119238   0.068151  -0.007790  -1.936231  -4.295353   3.308855
    21  C   -0.174994  -0.077516  -0.066110  -3.246904  -0.526180   0.620892
    22  H   -0.044905  -0.001067  -0.002155   0.114008   0.142767   0.352892
    23  H    0.082156  -0.000833   0.256585  -0.049409  -0.045028   0.030062
    24  H   -0.021519   0.000716  -0.000585  -0.068078  -0.097189   0.088546
    25  C   -0.009645  -0.046334   0.015295   0.206536   2.295740  -5.899741
    26  H    0.006090   0.000014   0.000235   0.080972   0.005120  -0.094613
    27  O    0.002283  -0.000430  -0.000093  -0.029465   0.028572  -0.400373
    28  C   -0.030587   0.000362  -0.000552  -0.051883   0.101101   0.317962
    29  H   -0.002925  -0.000127   0.000118  -0.010386  -0.008934   0.006670
    30  H    0.001058  -0.000123  -0.000101  -0.018113   0.006952   0.002562
    31  H   -0.001384   0.000064   0.000010   0.008062   0.000816   0.010474
              19         20         21         22         23         24
     1  C    0.002258   0.004746   0.005167  -0.000157  -0.000981   0.000129
     2  H    0.000233  -0.000060   0.000260   0.000265   0.000015   0.000017
     3  H   -0.000262  -0.001364   0.000568  -0.001139  -0.000083  -0.000040
     4  C   -0.000273  -0.000112   0.001508   0.000024  -0.000630  -0.000008
     5  H   -0.000018   0.000029  -0.000691  -0.000158  -0.000052  -0.000001
     6  N    0.000603   0.001885   0.004503   0.000979  -0.000804   0.000088
     7  H   -0.000382  -0.002035   0.005397   0.000228   0.000157  -0.000023
     8  H   -0.000147  -0.000698   0.000764   0.000194   0.000245  -0.000005
     9  H    0.000009   0.000012   0.000229  -0.000023  -0.000023   0.000000
    10  C   -0.057777  -0.195238   0.126529   0.003455  -0.014474  -0.004008
    11  H    0.002904   0.009092  -0.008019  -0.001412  -0.002711   0.000074
    12  C    0.129984   0.622114   0.313311  -0.111849   0.026468  -0.003103
    13  C    0.100067  -0.119238  -0.174994  -0.044905   0.082156  -0.021519
    14  H    0.007169   0.068151  -0.077516  -0.001067  -0.000833   0.000716
    15  O   -0.002660  -0.007790  -0.066110  -0.002155   0.256585  -0.000585
    16  C   -0.022442  -1.936231  -3.246904   0.114008  -0.049409  -0.068078
    17  C    0.075028  -4.295353  -0.526180   0.142767  -0.045028  -0.097189
    18  C    0.072320   3.308855   0.620892   0.352892   0.030062   0.088546
    19  O    8.372838  -0.104030  -0.074190  -0.001780  -0.011486  -0.018707
    20  C   -0.104030  14.916774  -1.459982  -0.040223  -0.036943   0.498456
    21  C   -0.074190  -1.459982  11.119971  -0.056770   0.019018   0.081068
    22  H   -0.001780  -0.040223  -0.056770   0.537053   0.001799   0.002656
    23  H   -0.011486  -0.036943   0.019018   0.001799   0.377766  -0.000515
    24  H   -0.018707   0.498456   0.081068   0.002656  -0.000515   0.499889
    25  C   -0.002381  -4.642710  -0.039848  -0.087272   0.011511  -0.155659
    26  H    0.003322  -0.072135  -0.189032  -0.005146  -0.000001  -0.021579
    27  O    0.000160   0.005913   0.141486  -0.020034   0.000074  -0.001930
    28  C   -0.001909  -0.250044   0.117758   0.010023   0.000258   0.007299
    29  H    0.000120   0.014136  -0.030862  -0.000857   0.000020   0.000177
    30  H   -0.000023   0.023233  -0.027970   0.000884  -0.000010   0.001083
    31  H   -0.000048  -0.014470   0.049233   0.000960   0.000012   0.000341
              25         26         27         28         29         30
     1  C   -0.004372   0.000025   0.000011  -0.000042  -0.000017   0.000031
     2  H   -0.000144   0.000006   0.000001   0.000004  -0.000002   0.000002
     3  H    0.001022   0.000005   0.000007  -0.000027   0.000006  -0.000015
     4  C   -0.000035  -0.000004  -0.000002  -0.000005   0.000002   0.000000
     5  H   -0.000027   0.000001  -0.000001   0.000000  -0.000001   0.000000
     6  N   -0.001520  -0.000022   0.000016   0.000013   0.000001   0.000002
     7  H    0.001496  -0.000017   0.000006  -0.000009   0.000004   0.000009
     8  H    0.000165   0.000001   0.000000  -0.000004   0.000000   0.000000
     9  H   -0.000025  -0.000001   0.000000   0.000000   0.000000   0.000000
    10  C    0.150940   0.002143  -0.000106  -0.000468  -0.000001  -0.000133
    11  H   -0.003755   0.000033  -0.000041   0.000017  -0.000016   0.000005
    12  C   -0.262617  -0.001152  -0.002623  -0.025367   0.000594   0.000597
    13  C   -0.009645   0.006090   0.002283  -0.030587  -0.002925   0.001058
    14  H   -0.046334   0.000014  -0.000430   0.000362  -0.000127  -0.000123
    15  O    0.015295   0.000235  -0.000093  -0.000552   0.000118  -0.000101
    16  C    0.206536   0.080972  -0.029465  -0.051883  -0.010386  -0.018113
    17  C    2.295740   0.005120   0.028572   0.101101  -0.008934   0.006952
    18  C   -5.899741  -0.094613  -0.400373   0.317962   0.006670   0.002562
    19  O   -0.002381   0.003322   0.000160  -0.001909   0.000120  -0.000023
    20  C   -4.642710  -0.072135   0.005913  -0.250044   0.014136   0.023233
    21  C   -0.039848  -0.189032   0.141486   0.117758  -0.030862  -0.027970
    22  H   -0.087272  -0.005146  -0.020034   0.010023  -0.000857   0.000884
    23  H    0.011511  -0.000001   0.000074   0.000258   0.000020  -0.000010
    24  H   -0.155659  -0.021579  -0.001930   0.007299   0.000177   0.001083
    25  C   13.701029   0.595053   0.148563  -0.479328   0.019372   0.001843
    26  H    0.595053   0.559780  -0.013735  -0.013578  -0.010880  -0.012806
    27  O    0.148563  -0.013735   8.249466   0.196137  -0.041192  -0.040649
    28  C   -0.479328  -0.013578   0.196137   5.250972   0.404243   0.395835
    29  H    0.019372  -0.010880  -0.041192   0.404243   0.599603  -0.073520
    30  H    0.001843  -0.012806  -0.040649   0.395835  -0.073520   0.611952
    31  H   -0.009892   0.003746  -0.076165   0.400734  -0.024595  -0.026455
              31
     1  C   -0.000006
     2  H    0.000000
     3  H   -0.000001
     4  C   -0.000001
     5  H    0.000000
     6  N    0.000001
     7  H   -0.000003
     8  H   -0.000001
     9  H    0.000000
    10  C    0.000021
    11  H    0.000002
    12  C   -0.001680
    13  C   -0.001384
    14  H    0.000064
    15  O    0.000010
    16  C    0.008062
    17  C    0.000816
    18  C    0.010474
    19  O   -0.000048
    20  C   -0.014470
    21  C    0.049233
    22  H    0.000960
    23  H    0.000012
    24  H    0.000341
    25  C   -0.009892
    26  H    0.003746
    27  O   -0.076165
    28  C    0.400734
    29  H   -0.024595
    30  H   -0.026455
    31  H    0.491469
 Mulliken charges:
               1
     1  C   -0.468183
     2  H    0.190992
     3  H    0.216085
     4  C   -0.359648
     5  H    0.203018
     6  N    0.157306
     7  H    0.204252
     8  H    0.163557
     9  H    0.175033
    10  C   -0.123816
    11  H    0.254997
    12  C   -0.524392
    13  C   -0.387807
    14  H    0.236442
    15  O   -0.158023
    16  C    1.120815
    17  C   -0.391030
    18  C   -0.576764
    19  O   -0.468500
    20  C   -0.294742
    21  C   -0.628595
    22  H    0.206759
    23  H    0.357836
    24  H    0.212410
    25  C    0.496741
    26  H    0.178154
    27  O   -0.145855
    28  C   -0.348915
    29  H    0.159248
    30  H    0.153871
    31  H    0.188753
 Sum of Mulliken charges =   0.00000
 Mulliken charges with hydrogens summed into heavy atoms:
               1
     1  C    0.143146
     4  C    0.181960
     6  N    0.157306
    10  C    0.131181
    12  C   -0.287950
    13  C   -0.387807
    15  O    0.199814
    16  C    1.120815
    17  C   -0.391030
    18  C   -0.370005
    19  O   -0.468500
    20  C   -0.082331
    21  C   -0.628595
    25  C    0.674896
    27  O   -0.145855
    28  C    0.152956
 Electronic spatial extent (au):  <R**2>=           5379.2984
 Charge=              0.0000 electrons
 Dipole moment (field-independent basis, Debye):
    X=            -10.4054    Y=             -6.0477    Z=             -1.1709  Tot=             12.0920
 Quadrupole moment (field-independent basis, Debye-Ang):
   XX=            -48.6698   YY=           -110.3928   ZZ=            -92.5797
   XY=              4.6254   XZ=              0.1988   YZ=            -10.3186
 Traceless Quadrupole moment (field-independent basis, Debye-Ang):
   XX=             35.2110   YY=            -26.5121   ZZ=             -8.6989
   XY=              4.6254   XZ=              0.1988   YZ=            -10.3186
 Octapole moment (field-independent basis, Debye-Ang**2):
  XXX=           -152.6588  YYY=            -55.1038  ZZZ=             -5.4197  XYY=            -20.6640
  XXY=            -54.1613  XXZ=             15.1384  XZZ=            -25.2941  YZZ=              0.9679
  YYZ=            -21.3057  XYZ=              6.2619
 Hexadecapole moment (field-independent basis, Debye-Ang**3):
 XXXX=          -4244.9223 YYYY=          -1195.5069 ZZZZ=           -493.1029 XXXY=             62.2268
 XXXZ=             33.4491 YYYX=            -43.7990 YYYZ=            -66.3231 ZZZX=            -33.6774
 ZZZY=            -38.5661 XXYY=          -1043.9355 XXZZ=           -959.6236 YYZZ=           -240.9423
 XXYZ=            -31.0947 YYXZ=              2.1446 ZZXY=             12.3359
 N-N= 1.046697665357D+03 E-N=-3.836310623657D+03  KE= 7.435931492735D+02
 1\1\GINC-NXN32\FOpt\RwB97XD TD-FC\6-311++G(d,p)\C12H15N1O3\BTX008\20-J
 ul-2017\0\\# wb97xd 6-311++g** opt td=(nstates=1,root=1)\\Geom Opt s1\
 \0,1\C,0.7494112521,-1.5580401851,7.6865488241\H,1.8385636624,-1.53934
 04832,7.6252481251\H,0.457373127,-1.4943701423,8.7469271284\C,0.939344
 2702,0.7758295416,6.9744140859\H,0.8675610065,1.2453687794,7.967368442
 6\N,0.2111201098,-0.4740864926,6.900634453\H,0.4049992473,-2.515462988
 9,7.2900926278\H,0.5408148972,1.4741125139,6.2364256349\H,1.9937286088
 ,0.60433302,6.7457937967\C,-1.153858835,-0.3906024049,6.7315985697\H,-
 1.4930885567,0.4910474546,6.2023109445\C,-2.0787368457,-1.3320256588,7
 .1222655615\C,-3.436048937,-1.2432032744,6.8584192566\H,-1.7631656536,
 -2.2092965046,7.6738508187\O,-3.9301982202,-0.1152784503,6.2589679794\
 C,-4.428005546,-2.2435735984,7.3154244143\C,-4.8561296855,-3.267665795
 9,6.3780966603\C,-4.9797176876,-2.1818888079,8.569822561\O,-4.44610980
 09,-3.2809614383,5.2009297586\C,-5.8093999636,-4.2397970891,6.86358302
 74\C,-5.9175799197,-3.1351921061,8.9959791498\H,-4.6831924837,-1.40884
 74514,9.2682585378\H,-4.6374826601,-0.3618819028,5.6610247093\H,-6.108
 9015536,-5.0231657842,6.177341852\C,-6.3255361321,-4.1737088021,8.1274
 055543\H,-7.0427690156,-4.9157229386,8.4539721337\O,-6.3642802041,-2.9
 906995111,10.252177283\C,-7.3062919397,-3.9162183365,10.7658954611\H,-
 8.2364258242,-3.892960061,10.1902184764\H,-6.8999851934,-4.9319766607,
 10.7733620134\H,-7.5057709106,-3.5988358874,11.7869691568\\Version=ES6
 4L-G09RevD.01\State=1-A\HF=-746.5721401\RMSD=9.568e-09\RMSF=2.848e-05\
 Dipole=-0.5822697,-0.5442683,1.8068992\PG=C01 [X(C12H15N1O3)]\\@


 THE MORE ACCURATE THE CALCULATIONS BECOME, THE MORE THE CONCEPTS
 TEND TO VANISH INTO THIN AIR.
     -- R.S. MULLIKEN, J.C.P. 43,S2(1965)
 Job cpu time:       8 days  7 hours 37 minutes 33.3 seconds.
 File lengths (MBytes):  RWF=    206 Int=      0 D2E=      0 Chk=     32 Scr=      1
 Normal termination of Gaussian 09 at Thu Jul 20 17:36:54 2017.
