 Entering Gaussian System, Link 0=g09
 Input=5_optS1_trans.com
 Output=5_optS1_trans.out
 Initial command:
 /share/apps/gaussian/g09_D01/g09/l1.exe "/tmp/4042860.1.chemistry.q/Gau-13552.inp" -scrdir="/tmp/4042860.1.chemistry.q/"
 Entering Link 1 = /share/apps/gaussian/g09_D01/g09/l1.exe PID=     13553.
  
 Copyright (c) 1988,1990,1992,1993,1995,1998,2003,2009,2013,
            Gaussian, Inc.  All Rights Reserved.
  
 This is part of the Gaussian(R) 09 program.  It is based on
 the Gaussian(R) 03 system (copyright 2003, Gaussian, Inc.),
 the Gaussian(R) 98 system (copyright 1998, Gaussian, Inc.),
 the Gaussian(R) 94 system (copyright 1995, Gaussian, Inc.),
 the Gaussian 92(TM) system (copyright 1992, Gaussian, Inc.),
 the Gaussian 90(TM) system (copyright 1990, Gaussian, Inc.),
 the Gaussian 88(TM) system (copyright 1988, Gaussian, Inc.),
 the Gaussian 86(TM) system (copyright 1986, Carnegie Mellon
 University), and the Gaussian 82(TM) system (copyright 1983,
 Carnegie Mellon University). Gaussian is a federally registered
 trademark of Gaussian, Inc.
  
 This software contains proprietary and confidential information,
 including trade secrets, belonging to Gaussian, Inc.
  
 This software is provided under written license and may be
 used, copied, transmitted, or stored only in accord with that
 written license.
  
 The following legend is applicable only to US Government
 contracts under FAR:
  
                    RESTRICTED RIGHTS LEGEND
  
 Use, reproduction and disclosure by the US Government is
 subject to restrictions as set forth in subparagraphs (a)
 and (c) of the Commercial Computer Software - Restricted
 Rights clause in FAR 52.227-19.
  
 Gaussian, Inc.
 340 Quinnipiac St., Bldg. 40, Wallingford CT 06492
  
  
 ---------------------------------------------------------------
 Warning -- This program may not be used in any manner that
 competes with the business of Gaussian, Inc. or will provide
 assistance to any competitor of Gaussian, Inc.  The licensee
 of this program is prohibited from giving any competitor of
 Gaussian, Inc. access to this program.  By using this program,
 the user acknowledges that Gaussian, Inc. is engaged in the
 business of creating and licensing software in the field of
 computational chemistry and represents and warrants to the
 licensee that it is not a competitor of Gaussian, Inc. and that
 it will not use this program in any manner prohibited above.
 ---------------------------------------------------------------
  

 Cite this work as:
 Gaussian 09, Revision D.01,
 M. J. Frisch, G. W. Trucks, H. B. Schlegel, G. E. Scuseria, 
 M. A. Robb, J. R. Cheeseman, G. Scalmani, V. Barone, B. Mennucci, 
 G. A. Petersson, H. Nakatsuji, M. Caricato, X. Li, H. P. Hratchian, 
 A. F. Izmaylov, J. Bloino, G. Zheng, J. L. Sonnenberg, M. Hada, 
 M. Ehara, K. Toyota, R. Fukuda, J. Hasegawa, M. Ishida, T. Nakajima, 
 Y. Honda, O. Kitao, H. Nakai, T. Vreven, J. A. Montgomery, Jr., 
 J. E. Peralta, F. Ogliaro, M. Bearpark, J. J. Heyd, E. Brothers, 
 K. N. Kudin, V. N. Staroverov, T. Keith, R. Kobayashi, J. Normand, 
 K. Raghavachari, A. Rendell, J. C. Burant, S. S. Iyengar, J. Tomasi, 
 M. Cossi, N. Rega, J. M. Millam, M. Klene, J. E. Knox, J. B. Cross, 
 V. Bakken, C. Adamo, J. Jaramillo, R. Gomperts, R. E. Stratmann, 
 O. Yazyev, A. J. Austin, R. Cammi, C. Pomelli, J. W. Ochterski, 
 R. L. Martin, K. Morokuma, V. G. Zakrzewski, G. A. Voth, 
 P. Salvador, J. J. Dannenberg, S. Dapprich, A. D. Daniels, 
 O. Farkas, J. B. Foresman, J. V. Ortiz, J. Cioslowski, 
 and D. J. Fox, Gaussian, Inc., Wallingford CT, 2013.
 
 ******************************************
 Gaussian 09:  ES64L-G09RevD.01 24-Apr-2013
                23-Aug-2017 
 ******************************************
 %chk=5_optS1_trans.chk
 %mem=28GB
 %nproc=4
 Will use up to    4 processors via shared memory.
 ---------------------------------------------
 # wb97xd 6-311++g** opt td=(nstates=1,root=1)
 ---------------------------------------------
 1/14=-1,18=20,19=15,26=3,38=1/1,3;
 2/9=110,12=2,17=6,18=5,40=1/2;
 3/5=4,6=6,7=1111,11=9,16=1,25=1,30=1,71=1,74=-58/1,2,8,3;
 4//1;
 5/5=2,38=5/2;
 8/6=1,10=2,107=1,108=1/1;
 9/8=1,15=2,41=1,42=1,70=2/14;
 10/5=4/2;
 6/7=2,8=2,9=2,10=2/1;
 7/12=6,13=5,14=1/1,2,3,16;
 1/14=-1,18=20,19=15,26=3/3(2);
 2/9=110/2;
 99//99;
 2/9=110/2;
 3/5=4,6=6,7=1111,11=9,16=1,25=1,30=1,71=1,74=-58/1,2,8,3;
 4/5=5,16=3,69=1/1;
 5/5=2,38=5/2;
 8/6=1,10=2,107=1,108=1/1;
 9/8=1,15=2,41=1,42=1,49=4,70=2/14;
 10/5=4/2;
 7/12=6,13=5,14=1/1,2,3,16;
 1/14=-1,18=20,19=15,26=3/3(-8);
 2/9=110/2;
 6/7=2,8=2,9=2,10=2/1;
 99//99;
 ----------------------
 restarted optimization
 ----------------------
 Symbolic Z-matrix:
 Charge =  0 Multiplicity = 1
 C                     0.26613  -0.42562   8.68319 
 H                     1.28593  -0.21719   9.0087 
 H                    -0.38232   0.4028    9.00704 
 C                     1.15484   0.23721   6.48947 
 H                     0.86018   1.29655   6.51591 
 N                     0.25184  -0.60389   7.24954 
 H                    -0.06692  -1.33958   9.18118 
 H                     1.17012  -0.0892    5.44822 
 H                     2.16762   0.14672   6.88842 
 C                    -0.90598  -1.01096   6.64179 
 H                    -0.85496  -1.04447   5.55976 
 C                    -2.05716  -1.40419   7.28525 
 C                    -3.20756  -1.83371   6.59129 
 H                    -2.15201  -1.33313   8.36169 
 O                    -3.24207  -1.77862   5.28433 
 C                    -4.45403  -2.29873   7.20673 
 C                    -4.44523  -3.14411   8.33861 
 C                    -5.69202  -1.94163   6.64596 
 O                    -3.30179  -3.62261   8.88696 
 C                    -5.644    -3.52665   8.92596 
 C                    -6.8822   -2.34442   7.22719 
 H                    -5.69907  -1.31457   5.76283 
 H                    -2.56703  -3.4386    8.29054 
 H                    -5.60423  -4.16623   9.79976 
 C                    -6.85502  -3.1268    8.37788 
 H                    -7.78124  -3.44206   8.84467 
 O                    -8.14063  -1.95625   6.6447 
 C                    -9.33359  -2.39251   7.27511 
 H                    -9.40498  -3.48771   7.29615 
 H                    -9.41432  -2.01022   8.30095 
 H                    -10.15423  -1.99177   6.67823 
 

 GradGradGradGradGradGradGradGradGradGradGradGradGradGradGradGradGradGrad
 Berny optimization.
 Initialization pass.
                           ----------------------------
                           !    Initial Parameters    !
                           ! (Angstroms and Degrees)  !
 --------------------------                            --------------------------
 ! Name  Definition              Value          Derivative Info.                !
 --------------------------------------------------------------------------------
 ! R1    R(1,2)                  1.0906         estimate D2E/DX2                !
 ! R2    R(1,3)                  1.1007         estimate D2E/DX2                !
 ! R3    R(1,6)                  1.4448         estimate D2E/DX2                !
 ! R4    R(1,7)                  1.0928         estimate D2E/DX2                !
 ! R5    R(4,5)                  1.0999         estimate D2E/DX2                !
 ! R6    R(4,6)                  1.4493         estimate D2E/DX2                !
 ! R7    R(4,8)                  1.0913         estimate D2E/DX2                !
 ! R8    R(4,9)                  1.0923         estimate D2E/DX2                !
 ! R9    R(6,10)                 1.3695         estimate D2E/DX2                !
 ! R10   R(10,11)                1.0838         estimate D2E/DX2                !
 ! R11   R(10,12)                1.3762         estimate D2E/DX2                !
 ! R12   R(12,13)                1.4105         estimate D2E/DX2                !
 ! R13   R(12,14)                1.083          estimate D2E/DX2                !
 ! R14   R(13,15)                1.3086         estimate D2E/DX2                !
 ! R15   R(13,16)                1.4658         estimate D2E/DX2                !
 ! R16   R(16,17)                1.4128         estimate D2E/DX2                !
 ! R17   R(16,18)                1.4052         estimate D2E/DX2                !
 ! R18   R(17,19)                1.3554         estimate D2E/DX2                !
 ! R19   R(17,20)                1.3887         estimate D2E/DX2                !
 ! R20   R(18,21)                1.3844         estimate D2E/DX2                !
 ! R21   R(18,22)                1.0831         estimate D2E/DX2                !
 ! R22   R(19,23)                0.9641         estimate D2E/DX2                !
 ! R23   R(20,24)                1.0836         estimate D2E/DX2                !
 ! R24   R(20,25)                1.3881         estimate D2E/DX2                !
 ! R25   R(21,25)                1.3917         estimate D2E/DX2                !
 ! R26   R(21,27)                1.44           estimate D2E/DX2                !
 ! R27   R(25,26)                1.084          estimate D2E/DX2                !
 ! R28   R(27,28)                1.4181         estimate D2E/DX2                !
 ! R29   R(28,29)                1.0977         estimate D2E/DX2                !
 ! R30   R(28,30)                1.0977         estimate D2E/DX2                !
 ! R31   R(28,31)                1.091          estimate D2E/DX2                !
 ! A1    A(2,1,3)              108.6146         estimate D2E/DX2                !
 ! A2    A(2,1,6)              109.2084         estimate D2E/DX2                !
 ! A3    A(2,1,7)              107.9872         estimate D2E/DX2                !
 ! A4    A(3,1,6)              112.2712         estimate D2E/DX2                !
 ! A5    A(3,1,7)              108.4103         estimate D2E/DX2                !
 ! A6    A(6,1,7)              110.2421         estimate D2E/DX2                !
 ! A7    A(5,4,6)              112.2983         estimate D2E/DX2                !
 ! A8    A(5,4,8)              108.3463         estimate D2E/DX2                !
 ! A9    A(5,4,9)              108.6277         estimate D2E/DX2                !
 ! A10   A(6,4,8)              109.6036         estimate D2E/DX2                !
 ! A11   A(6,4,9)              109.7599         estimate D2E/DX2                !
 ! A12   A(8,4,9)              108.1028         estimate D2E/DX2                !
 ! A13   A(1,6,4)              116.2716         estimate D2E/DX2                !
 ! A14   A(1,6,10)             119.0374         estimate D2E/DX2                !
 ! A15   A(4,6,10)             117.808          estimate D2E/DX2                !
 ! A16   A(6,10,11)            114.3586         estimate D2E/DX2                !
 ! A17   A(6,10,12)            125.7774         estimate D2E/DX2                !
 ! A18   A(11,10,12)           119.8259         estimate D2E/DX2                !
 ! A19   A(10,12,13)           122.6309         estimate D2E/DX2                !
 ! A20   A(10,12,14)           121.2831         estimate D2E/DX2                !
 ! A21   A(13,12,14)           115.9505         estimate D2E/DX2                !
 ! A22   A(12,13,15)           120.0053         estimate D2E/DX2                !
 ! A23   A(12,13,16)           125.7027         estimate D2E/DX2                !
 ! A24   A(15,13,16)           114.2214         estimate D2E/DX2                !
 ! A25   A(13,16,17)           121.3934         estimate D2E/DX2                !
 ! A26   A(13,16,18)           120.065          estimate D2E/DX2                !
 ! A27   A(17,16,18)           118.5082         estimate D2E/DX2                !
 ! A28   A(16,17,19)           122.7272         estimate D2E/DX2                !
 ! A29   A(16,17,20)           119.8896         estimate D2E/DX2                !
 ! A30   A(19,17,20)           117.3803         estimate D2E/DX2                !
 ! A31   A(16,18,21)           121.0588         estimate D2E/DX2                !
 ! A32   A(16,18,22)           118.5707         estimate D2E/DX2                !
 ! A33   A(21,18,22)           120.3413         estimate D2E/DX2                !
 ! A34   A(17,19,23)           108.9833         estimate D2E/DX2                !
 ! A35   A(17,20,24)           118.1633         estimate D2E/DX2                !
 ! A36   A(17,20,25)           120.4492         estimate D2E/DX2                !
 ! A37   A(24,20,25)           121.3616         estimate D2E/DX2                !
 ! A38   A(18,21,25)           119.5964         estimate D2E/DX2                !
 ! A39   A(18,21,27)           120.2018         estimate D2E/DX2                !
 ! A40   A(25,21,27)           120.2018         estimate D2E/DX2                !
 ! A41   A(20,25,21)           120.3595         estimate D2E/DX2                !
 ! A42   A(20,25,26)           119.4469         estimate D2E/DX2                !
 ! A43   A(21,25,26)           120.1866         estimate D2E/DX2                !
 ! A44   A(21,27,28)           118.1923         estimate D2E/DX2                !
 ! A45   A(27,28,29)           111.7263         estimate D2E/DX2                !
 ! A46   A(27,28,30)           111.7263         estimate D2E/DX2                !
 ! A47   A(27,28,31)           106.0557         estimate D2E/DX2                !
 ! A48   A(29,28,30)           108.9504         estimate D2E/DX2                !
 ! A49   A(29,28,31)           109.1492         estimate D2E/DX2                !
 ! A50   A(30,28,31)           109.1492         estimate D2E/DX2                !
 ! D1    D(2,1,6,4)            -36.2809         estimate D2E/DX2                !
 ! D2    D(2,1,6,10)           173.367          estimate D2E/DX2                !
 ! D3    D(3,1,6,4)             84.2466         estimate D2E/DX2                !
 ! D4    D(3,1,6,10)           -66.1054         estimate D2E/DX2                !
 ! D5    D(7,1,6,4)           -154.7715         estimate D2E/DX2                !
 ! D6    D(7,1,6,10)            54.8765         estimate D2E/DX2                !
 ! D7    D(5,4,6,1)            -68.2087         estimate D2E/DX2                !
 ! D8    D(5,4,6,10)            82.5192         estimate D2E/DX2                !
 ! D9    D(8,4,6,1)            171.3144         estimate D2E/DX2                !
 ! D10   D(8,4,6,10)           -37.9577         estimate D2E/DX2                !
 ! D11   D(9,4,6,1)             52.7322         estimate D2E/DX2                !
 ! D12   D(9,4,6,10)          -156.54           estimate D2E/DX2                !
 ! D13   D(1,6,10,11)          175.3836         estimate D2E/DX2                !
 ! D14   D(1,6,10,12)           -6.8768         estimate D2E/DX2                !
 ! D15   D(4,6,10,11)           25.482          estimate D2E/DX2                !
 ! D16   D(4,6,10,12)         -156.7783         estimate D2E/DX2                !
 ! D17   D(6,10,12,13)        -178.896          estimate D2E/DX2                !
 ! D18   D(6,10,12,14)           5.5069         estimate D2E/DX2                !
 ! D19   D(11,10,12,13)         -1.2696         estimate D2E/DX2                !
 ! D20   D(11,10,12,14)       -176.8666         estimate D2E/DX2                !
 ! D21   D(10,12,13,15)         -4.9163         estimate D2E/DX2                !
 ! D22   D(10,12,13,16)        178.3218         estimate D2E/DX2                !
 ! D23   D(14,12,13,15)        170.8994         estimate D2E/DX2                !
 ! D24   D(14,12,13,16)         -5.8625         estimate D2E/DX2                !
 ! D25   D(12,13,16,17)        -41.2656         estimate D2E/DX2                !
 ! D26   D(12,13,16,18)        140.865          estimate D2E/DX2                !
 ! D27   D(15,13,16,17)        141.8091         estimate D2E/DX2                !
 ! D28   D(15,13,16,18)        -36.0603         estimate D2E/DX2                !
 ! D29   D(13,16,17,19)         -2.9735         estimate D2E/DX2                !
 ! D30   D(13,16,17,20)        177.6621         estimate D2E/DX2                !
 ! D31   D(18,16,17,19)        174.9282         estimate D2E/DX2                !
 ! D32   D(18,16,17,20)         -4.4363         estimate D2E/DX2                !
 ! D33   D(13,16,18,21)       -178.5453         estimate D2E/DX2                !
 ! D34   D(13,16,18,22)         -0.5013         estimate D2E/DX2                !
 ! D35   D(17,16,18,21)          3.5244         estimate D2E/DX2                !
 ! D36   D(17,16,18,22)       -178.4317         estimate D2E/DX2                !
 ! D37   D(16,17,19,23)        -10.9682         estimate D2E/DX2                !
 ! D38   D(20,17,19,23)        168.4113         estimate D2E/DX2                !
 ! D39   D(16,17,20,24)       -179.2996         estimate D2E/DX2                !
 ! D40   D(16,17,20,25)          2.524          estimate D2E/DX2                !
 ! D41   D(19,17,20,24)          1.3025         estimate D2E/DX2                !
 ! D42   D(19,17,20,25)       -176.8739         estimate D2E/DX2                !
 ! D43   D(16,18,21,25)         -0.6468         estimate D2E/DX2                !
 ! D44   D(16,18,21,27)        179.3532         estimate D2E/DX2                !
 ! D45   D(22,18,21,25)       -178.6563         estimate D2E/DX2                !
 ! D46   D(22,18,21,27)          1.3437         estimate D2E/DX2                !
 ! D47   D(17,20,25,21)          0.4238         estimate D2E/DX2                !
 ! D48   D(17,20,25,26)        179.463          estimate D2E/DX2                !
 ! D49   D(24,20,25,21)       -177.6934         estimate D2E/DX2                !
 ! D50   D(24,20,25,26)          1.3458         estimate D2E/DX2                !
 ! D51   D(18,21,25,20)         -1.3752         estimate D2E/DX2                !
 ! D52   D(18,21,25,26)        179.5928         estimate D2E/DX2                !
 ! D53   D(27,21,25,20)        178.6248         estimate D2E/DX2                !
 ! D54   D(27,21,25,26)         -0.4072         estimate D2E/DX2                !
 ! D55   D(18,21,27,28)        180.0            estimate D2E/DX2                !
 ! D56   D(25,21,27,28)          0.0            estimate D2E/DX2                !
 ! D57   D(21,27,28,29)        -61.1755         estimate D2E/DX2                !
 ! D58   D(21,27,28,30)         61.1755         estimate D2E/DX2                !
 ! D59   D(21,27,28,31)        180.0            estimate D2E/DX2                !
 --------------------------------------------------------------------------------
 Trust Radius=3.00D-01 FncErr=1.00D-07 GrdErr=1.00D-06
 Number of steps in this run=    150 maximum allowed number of steps=    186.
 GradGradGradGradGradGradGradGradGradGradGradGradGradGradGradGradGradGrad

                          Input orientation:                          
 ---------------------------------------------------------------------
 Center     Atomic      Atomic             Coordinates (Angstroms)
 Number     Number       Type             X           Y           Z
 ---------------------------------------------------------------------
      1          6           0        0.266127   -0.425621    8.683186
      2          1           0        1.285925   -0.217187    9.008699
      3          1           0       -0.382317    0.402802    9.007044
      4          6           0        1.154837    0.237210    6.489474
      5          1           0        0.860179    1.296549    6.515911
      6          7           0        0.251843   -0.603886    7.249537
      7          1           0       -0.066919   -1.339577    9.181177
      8          1           0        1.170117   -0.089203    5.448222
      9          1           0        2.167617    0.146719    6.888419
     10          6           0       -0.905981   -1.010961    6.641793
     11          1           0       -0.854962   -1.044469    5.559762
     12          6           0       -2.057164   -1.404188    7.285247
     13          6           0       -3.207560   -1.833708    6.591290
     14          1           0       -2.152007   -1.333133    8.361694
     15          8           0       -3.242071   -1.778617    5.284333
     16          6           0       -4.454034   -2.298733    7.206731
     17          6           0       -4.445230   -3.144111    8.338608
     18          6           0       -5.692016   -1.941627    6.645963
     19          8           0       -3.301790   -3.622607    8.886959
     20          6           0       -5.644002   -3.526650    8.925959
     21          6           0       -6.882200   -2.344422    7.227185
     22          1           0       -5.699072   -1.314567    5.762830
     23          1           0       -2.567027   -3.438600    8.290541
     24          1           0       -5.604232   -4.166228    9.799755
     25          6           0       -6.855020   -3.126804    8.377876
     26          1           0       -7.781237   -3.442057    8.844669
     27          8           0       -8.140626   -1.956246    6.644704
     28          6           0       -9.333589   -2.392507    7.275111
     29          1           0       -9.404983   -3.487712    7.296154
     30          1           0       -9.414320   -2.010223    8.300954
     31          1           0      -10.154233   -1.991769    6.678227
 ---------------------------------------------------------------------
                    Distance matrix (angstroms):
                    1          2          3          4          5
     1  C    0.000000
     2  H    1.090592   0.000000
     3  H    1.100749   1.779725   0.000000
     4  C    2.457951   2.563231   2.954390   0.000000
     5  H    2.831227   2.947312   2.923752   1.099873   0.000000
     6  N    1.444760   2.076900   2.122360   1.449323   2.126013
     7  H    1.092808   1.766266   1.779237   3.350255   3.861647
     8  H    3.375702   3.564658   3.913737   1.091322   1.776606
     9  H    2.676645   2.324951   3.325104   1.092277   1.780524
    10  C    2.425643   3.322164   2.804882   2.414146   2.908568
    11  H    3.375736   4.142820   3.768520   2.558585   3.055535
    12  C    2.882622   3.944046   3.005813   3.693832   4.049290
    13  C    4.292463   5.352421   4.338184   4.830070   5.133292
    14  H    2.602750   3.671965   2.561591   4.111740   4.404022
    15  O    5.068555   6.067266   5.176423   4.984849   5.272749
    16  C    5.288515   6.366086   5.207523   6.197169   6.453227
    17  C    5.450303   6.470088   5.434580   6.798042   7.154652
    18  C    6.476729   7.566233   6.266096   7.186878   7.309853
    19  O    4.795026   5.714791   4.974099   6.364562   6.866000
    20  C    6.678693   7.680057   6.567534   8.144158   8.448429
    21  C    7.543230   8.626540   7.277611   8.473665   8.585279
    22  H    6.700918   7.780109   6.460818   7.064849   7.099918
    23  H    4.154392   5.073312   4.476908   5.532422   6.108739
    24  H    7.049821   7.980912   6.983754   8.719704   9.078225
    25  C    7.622358   8.668264   7.399314   8.890470   9.086103
    26  H    8.595640   9.624974   8.339864   9.946726  10.126775
    27  O    8.784743   9.872824   8.446130   9.552014   9.571402
    28  C    9.899792  10.977770   9.536174  10.841574  10.867310
    29  H   10.238683  11.310378   9.973552  11.226556  11.352157
    30  H    9.816727  10.872494   9.375411  10.956254  10.940130
    31  H   10.726443  11.809211  10.327038  11.528185  11.495941
                    6          7          8          9         10
     6  N    0.000000
     7  H    2.091431   0.000000
     8  H    2.086351   4.126578   0.000000
     9  H    2.089020   3.529726   1.767720   0.000000
    10  C    1.369532   2.694529   2.566015   3.293638   0.000000
    11  H    2.067479   3.717896   2.241856   3.510020   1.083751
    12  C    2.444028   2.749509   3.939440   4.517915   1.376184
    13  C    3.730043   4.100647   4.849119   5.736105   2.444735
    14  H    2.747215   2.240354   4.590445   4.797880   2.148124
    15  O    4.177254   5.045765   4.727408   5.961941   2.808792
    16  C    5.001961   4.905629   6.293286   7.065962   3.816568
    17  C    5.449891   4.809976   7.015619   7.527440   4.467191
    18  C    6.122362   6.199314   7.207977   8.135958   4.875683
    19  O    4.941876   3.970287   6.656411   6.936598   4.195398
    20  C    6.790724   5.996022   8.387068   8.869419   5.830519
    21  C    7.343333   7.160716   8.549300   9.392536   6.151097
    22  H    6.174849   6.588389   6.984716   8.080044   4.882466
    23  H    4.131019   3.383736   5.767450   6.102238   3.372073
    24  H    7.313515   6.247754   9.024953   9.353022   6.480895
    25  C    7.625337   7.065252   9.067123   9.713002   6.548423
    26  H    8.667758   8.002772  10.144172  10.755739   7.617876
    27  O    8.522220   8.485206   9.571173  10.523389   7.296140
    28  C    9.750915   9.519082  10.907364  11.784522   8.563547
    29  H   10.078339   9.765615  11.260437  12.136738   8.876684
    30  H    9.824356   9.412676  11.129183  11.865451   8.726006
    31  H   10.513755  10.413646  11.548748  12.507810   9.300187
                   11         12         13         14         15
    11  H    0.000000
    12  C    2.133538   0.000000
    13  C    2.687316   1.410487   0.000000
    14  H    3.101044   1.082951   2.121108   0.000000
    15  O    2.512593   2.355389   1.308573   3.294973   0.000000
    16  C    4.151988   2.559563   1.465849   2.750573   2.331306
    17  C    5.002050   3.136839   2.510399   2.922165   3.555385
    18  C    5.038037   3.729568   2.487400   3.980661   2.807639
    19  O    4.868676   3.005987   2.911895   2.615262   4.047565
    20  C    6.358255   4.479083   3.775312   4.162204   4.699610
    21  C    6.387314   4.916135   3.764063   4.968354   4.164775
    22  H    4.855882   3.948326   2.676469   4.397284   2.545811
    23  H    4.014995   2.325814   2.423513   2.147160   3.499788
    24  H    7.090732   5.151049   4.634537   4.691727   5.627568
    25  C    6.948279   5.213508   4.262388   5.033473   4.943786
    26  H    8.031957   6.272935   5.346309   6.030676   6.003920
    27  O    7.422219   6.141952   4.934876   6.260980   5.087042
    28  C    8.754813   7.343245   6.189354   7.340168   6.437908
    29  H    9.060207   7.637515   6.452954   7.640893   6.704469
    30  H    9.039327   7.451623   6.440340   7.294061   6.873886
    31  H    9.414074   8.141023   6.949015   8.203870   7.054528
                   16         17         18         19         20
    16  C    0.000000
    17  C    1.412759   0.000000
    18  C    1.405199   2.421877   0.000000
    19  O    2.429707   1.355397   3.682518   0.000000
    20  C    2.424778   1.388658   2.777226   2.344501   0.000000
    21  C    2.428682   2.795279   1.384414   4.148246   2.411769
    22  H    2.145589   3.399115   1.083133   4.564449   3.860276
    23  H    2.456570   1.901757   3.835508   0.964080   3.143133
    24  H    3.396214   2.126725   3.860435   2.535736   1.083587
    25  C    2.796787   2.410172   2.399322   3.623593   1.388105
    26  H    3.880762   3.387302   3.383850   4.483284   2.140453
    27  O    3.744880   4.235125   2.448654   5.587378   3.728729
    28  C    4.880935   5.058853   3.722926   6.363474   4.198170
    29  H    5.092500   5.079756   4.074218   6.308551   4.099116
    30  H    5.087730   5.096957   4.074218   6.348717   4.111627
    31  H    5.732871   6.056193   4.462616   7.382012   5.267859
                   21         22         23         24         25
    21  C    0.000000
    22  H    2.145863   0.000000
    23  H    4.576972   4.550884   0.000000
    24  H    3.401514   4.943453   3.468686   0.000000
    25  C    1.391744   3.385097   4.300201   2.160234   0.000000
    26  H    2.151587   4.284782   5.243573   2.485149   1.084047
    27  O    1.440000   2.674068   5.997596   4.612121   2.454969
    28  C    2.452329   4.081503   6.921833   4.840250   2.810443
    29  H    2.770614   4.561515   6.910055   4.601533   2.793329
    30  H    2.770614   4.552920   6.994697   4.627260   2.793329
    31  H    3.336453   4.598371   7.890410   5.930828   3.880969
                   26         27         28         29         30
    26  H    0.000000
    27  O    2.678925   0.000000
    28  C    2.444354   1.418062   0.000000
    29  H    2.244222   2.090066   1.097731   0.000000
    30  H    2.238913   2.090066   1.097731   1.786808   0.000000
    31  H    3.525325   2.014200   1.091017   1.783551   1.783551
                   31
    31  H    0.000000
 Stoichiometry    C12H15NO3
 Framework group  C1[X(C12H15NO3)]
 Deg. of freedom    87
 Full point group                 C1      NOp   1
 Largest Abelian subgroup         C1      NOp   1
 Largest concise Abelian subgroup C1      NOp   1
                         Standard orientation:                         
 ---------------------------------------------------------------------
 Center     Atomic      Atomic             Coordinates (Angstroms)
 Number     Number       Type             X           Y           Z
 ---------------------------------------------------------------------
      1          6           0       -4.297343    1.046134    1.073949
      2          1           0       -5.324521    1.386225    1.210457
      3          1           0       -3.875447    0.797924    2.059872
      4          6           0       -5.402241   -1.002052    0.282962
      5          1           0       -5.391914   -1.560247    1.230608
      6          7           0       -4.286395   -0.083658    0.173515
      7          1           0       -3.721631    1.872799    0.650380
      8          1           0       -5.367931   -1.719480   -0.538686
      9          1           0       -6.342542   -0.450676    0.213049
     10          6           0       -3.084114   -0.586370   -0.247699
     11          1           0       -3.161720   -1.479597   -0.856501
     12          6           0       -1.848979   -0.032860    0.001200
     13          6           0       -0.650994   -0.596255   -0.485517
     14          1           0       -1.739014    0.829533    0.646931
     15          8           0       -0.676754   -1.739030   -1.122514
     16          6           0        0.693785   -0.046210   -0.291266
     17          6           0        0.943484    1.340557   -0.393312
     18          6           0        1.776688   -0.906033   -0.041044
     19          8           0       -0.017093    2.235181   -0.731015
     20          6           0        2.219852    1.833216   -0.155526
     21          6           0        3.049816   -0.406987    0.175055
     22          1           0        1.590489   -1.971734    0.011776
     23          1           0       -0.794417    1.757878   -1.043101
     24          1           0        2.377408    2.902681   -0.230243
     25          6           0        3.266073    0.967152    0.131166
     26          1           0        4.257799    1.368707    0.305496
     27          8           0        4.143641   -1.304220    0.443605
     28          6           0        5.429823   -0.747076    0.658608
     29          1           0        5.783716   -0.191030   -0.219222
     30          1           0        5.443652   -0.081595    1.531510
     31          1           0        6.097383   -1.590531    0.840999
 ---------------------------------------------------------------------
 Rotational constants (GHZ):      1.3008632      0.2151803      0.1950410
 Standard basis: 6-311++G(d,p) (5D, 7F)
 There are   473 symmetry adapted cartesian basis functions of A   symmetry.
 There are   457 symmetry adapted basis functions of A   symmetry.
   457 basis functions,   711 primitive gaussians,   473 cartesian basis functions
    59 alpha electrons       59 beta electrons
       nuclear repulsion energy      1047.0164285011 Hartrees.
 NAtoms=   31 NActive=   31 NUniq=   31 SFac= 1.00D+00 NAtFMM=   60 NAOKFM=F Big=F
 Integral buffers will be    131072 words long.
 Raffenetti 1 integral format.
 Two-electron integral symmetry is turned on.
 Nuclear repulsion after empirical dispersion term =     1046.9980104975 Hartrees.
 One-electron integrals computed using PRISM.
 NBasis=   457 RedAO= T EigKep=  1.74D-06  NBF=   457
 NBsUse=   455 1.00D-06 EigRej=  5.93D-07 NBFU=   455
 ExpMin= 3.60D-02 ExpMax= 8.59D+03 ExpMxC= 1.30D+03 IAcc=3 IRadAn=         5 AccDes= 0.00D+00
 Harris functional with IExCor= 4639 and IRadAn=       5 diagonalized for initial guess.
 HarFok:  IExCor= 4639 AccDes= 0.00D+00 IRadAn=         5 IDoV= 1 UseB2=F ITyADJ=14
 ICtDFT=  3500011 ScaDFX=  1.000000  1.000000  1.000000  1.000000
 FoFCou: FMM=F IPFlag=           0 FMFlag=      100000 FMFlg1=           0
         NFxFlg=           0 DoJE=T BraDBF=F KetDBF=T FulRan=T
         wScrn=  0.000000 ICntrl=     500 IOpCl=  0 I1Cent=   200000004 NGrid=           0
         NMat0=    1 NMatS0=      1 NMatT0=    0 NMatD0=    1 NMtDS0=    0 NMtDT0=    0
 Petite list used in FoFCou.
 Requested convergence on RMS density matrix=1.00D-08 within 128 cycles.
 Requested convergence on MAX density matrix=1.00D-06.
 Requested convergence on             energy=1.00D-06.
 No special actions if energy rises.
 SCF Done:  E(RwB97XD) =  -746.636743483     A.U. after   19 cycles
            NFock= 19  Conv=0.18D-08     -V/T= 2.0044
 DoSCS=F DFT=T ScalE2(SS,OS)=  1.000000  1.000000
 ExpMin= 3.60D-02 ExpMax= 8.59D+03 ExpMxC= 1.30D+03 IAcc=3 IRadAn=         5 AccDes= 0.00D+00
 HarFok:  IExCor=  205 AccDes= 0.00D+00 IRadAn=         5 IDoV=-2 UseB2=F ITyADJ=14
 ICtDFT= 12500011 ScaDFX=  1.000000  1.000000  1.000000  1.000000
 Range of M.O.s used for correlation:    17   455
 NBasis=   457 NAE=    59 NBE=    59 NFC=    16 NFV=     0
 NROrb=    439 NOA=    43 NOB=    43 NVA=   396 NVB=   396

 **** Warning!!: The largest alpha MO coefficient is  0.13699970D+03

 Would need an additional         29152300000 words for in-memory AO integral storage.
 Orbital symmetries:
       Occupied  (A) (A) (A) (A) (A) (A) (A) (A) (A) (A) (A) (A)
                 (A) (A) (A) (A) (A) (A) (A) (A) (A) (A) (A) (A)
                 (A) (A) (A) (A) (A) (A) (A) (A) (A) (A) (A) (A)
                 (A) (A) (A) (A) (A) (A) (A) (A) (A) (A) (A) (A)
                 (A) (A) (A) (A) (A) (A) (A) (A) (A) (A) (A)
       Virtual   (A) (A) (A) (A) (A) (A) (A) (A) (A) (A) (A) (A)
                 (A) (A) (A) (A) (A) (A) (A) (A) (A) (A) (A) (A)
                 (A) (A) (A) (A) (A) (A) (A) (A) (A) (A) (A) (A)
                 (A) (A) (A) (A) (A) (A) (A) (A) (A) (A) (A) (A)
                 (A) (A) (A) (A) (A) (A) (A) (A) (A) (A) (A) (A)
                 (A) (A) (A) (A) (A) (A) (A) (A) (A) (A) (A) (A)
                 (A) (A) (A) (A) (A) (A) (A) (A) (A) (A) (A) (A)
                 (A) (A) (A) (A) (A) (A) (A) (A) (A) (A) (A) (A)
                 (A) (A) (A) (A) (A) (A) (A) (A) (A) (A) (A) (A)
                 (A) (A) (A) (A) (A) (A) (A) (A) (A) (A) (A) (A)
                 (A) (A) (A) (A) (A) (A) (A) (A) (A) (A) (A) (A)
                 (A) (A) (A) (A) (A) (A) (A) (A) (A) (A) (A) (A)
                 (A) (A) (A) (A) (A) (A) (A) (A) (A) (A) (A) (A)
                 (A) (A) (A) (A) (A) (A) (A) (A) (A) (A) (A) (A)
                 (A) (A) (A) (A) (A) (A) (A) (A) (A) (A) (A) (A)
                 (A) (A) (A) (A) (A) (A) (A) (A) (A) (A) (A) (A)
                 (A) (A) (A) (A) (A) (A) (A) (A) (A) (A) (A) (A)
                 (A) (A) (A) (A) (A) (A) (A) (A) (A) (A) (A) (A)
                 (A) (A) (A) (A) (A) (A) (A) (A) (A) (A) (A) (A)
                 (A) (A) (A) (A) (A) (A) (A) (A) (A) (A) (A) (A)
                 (A) (A) (A) (A) (A) (A) (A) (A) (A) (A) (A) (A)
                 (A) (A) (A) (A) (A) (A) (A) (A) (A) (A) (A) (A)
                 (A) (A) (A) (A) (A) (A) (A) (A) (A) (A) (A) (A)
                 (A) (A) (A) (A) (A) (A) (A) (A) (A) (A) (A) (A)
                 (A) (A) (A) (A) (A) (A) (A) (A) (A) (A) (A) (A)
                 (A) (A) (A) (A) (A) (A) (A) (A) (A) (A) (A) (A)
                 (A) (A) (A) (A) (A) (A) (A) (A) (A) (A) (A) (A)
                 (A) (A) (A) (A) (A) (A) (A) (A) (A) (A) (A) (A)
                 (A) (A) (A) (A) (A) (A) (A) (A) (A) (A) (A) (A)
                 (A) (A) (A) (A) (A) (A) (A) (A) (A) (A) (A) (A)
                 (A) (A) (A) (A) (A) (A) (A) (A) (A) (A) (A) (A)
                 (A) (A) (A) (A) (A) (A) (A) (A) (A) (A) (A) (A)
                 (A) (A) (A) (A) (A) (A) (A) (A) (A) (A) (A) (A)
     8 initial guesses have been made.
 Convergence on wavefunction:    0.000001000000000
 Iteration     1 Dimension     8 NMult     0 NNew      8
 CISAX will form     8 AO SS matrices at one time.
 New state      1 was old state      3
 Iteration     2 Dimension    12 NMult     8 NNew      4
 Iteration     3 Dimension    16 NMult    12 NNew      4
 Iteration     4 Dimension    20 NMult    16 NNew      4
 Iteration     5 Dimension    24 NMult    20 NNew      4
 Iteration     6 Dimension    28 NMult    24 NNew      4
 Iteration     7 Dimension    32 NMult    28 NNew      4
 Iteration     8 Dimension    36 NMult    32 NNew      4
 Iteration     9 Dimension    40 NMult    36 NNew      4
 Iteration    10 Dimension    44 NMult    40 NNew      4
 Iteration    11 Dimension    48 NMult    44 NNew      4
 ***********************************************************************
 Excited states from <AA,BB:AA,BB> singles matrix:
 ***********************************************************************
 
 Ground to excited state transition densities written to RWF  633
 Ground to excited state transition electric dipole moments (Au):
       state          X           Y           Z        Dip. S.      Osc.
         1         0.2671      0.1015      0.0245      0.0823      0.0065
 Ground to excited state transition velocity dipole moments (Au):
       state          X           Y           Z        Dip. S.      Osc.
         1        -0.0310     -0.0095     -0.0063      0.0011      0.0061
 Ground to excited state transition magnetic dipole moments (Au):
       state          X           Y           Z
         1        -0.0034      0.6495      0.4086
 Ground to excited state transition velocity quadrupole moments (Au):
       state          XX          YY          ZZ          XY          XZ          YZ
         1        -0.0692      0.0122      0.0189      0.0188     -0.0318      0.0251
 <0|del|b> * <b|rxdel|0> + <0|del|b> * <b|delr+rdel|0>
 Rotatory Strengths (R) in cgs (10**-40 erg-esu-cm/Gauss)
       state          XX          YY          ZZ    R(velocity)    E-M Angle
         1       -27.2179     -9.2502    -14.8482    -17.1054      109.93
 1/2[<0|r|b>*<b|rxdel|0> + (<0|rxdel|b>*<b|r|0>)*]
 Rotatory Strengths (R) in cgs (10**-40 erg-esu-cm/Gauss)
       state          XX          YY          ZZ     R(length)
         1         0.6389    -46.6397     -7.0798    -17.6936
  1/2[<0|del|b>*<b|r|0> + (<0|r|b>*<b|del|0>)*] (Au)
       state          X           Y           Z        Dip. S.   Osc.(frdel)
         1        -0.0083     -0.0010     -0.0002      0.0094      0.0063

 Excitation energies and oscillator strengths:
 
 Excited State   1:      Singlet-A      3.2396 eV  382.72 nm  f=0.0065  <S**2>=0.000
      56 -> 60         0.28268
      57 -> 60         0.61919
 This state for optimization and/or second-order correction.
 Total Energy, E(TD-HF/TD-KS) =  -746.517691288    
 Copying the excited state density for this state as the 1-particle RhoCI density.
 SavETr:  write IOETrn=   770 NScale= 10 NData=  16 NLR=1 NState=    1 LETran=      28.
          IDoAtm=1111111111111111111111111111111
          Differentiating once with respect to electric field.
                with respect to dipole field.
          Differentiating once with respect to nuclear coordinates.
          There are     1 degrees of freedom in the 1st order CPHF.  IDoFFX=0 NUNeed=     1.
 LinEq1:  Iter=  0 NonCon=     1 RMS=9.53D-03 Max=7.11D-01 NDo=     1
 AX will form     1 AO Fock derivatives at one time.
 LinEq1:  Iter=  1 NonCon=     1 RMS=2.38D-03 Max=1.17D-01 NDo=     1
 LinEq1:  Iter=  2 NonCon=     1 RMS=1.56D-03 Max=4.69D-02 NDo=     1
 LinEq1:  Iter=  3 NonCon=     1 RMS=7.54D-04 Max=3.60D-02 NDo=     1
 LinEq1:  Iter=  4 NonCon=     1 RMS=3.37D-04 Max=1.65D-02 NDo=     1
 LinEq1:  Iter=  5 NonCon=     1 RMS=2.02D-04 Max=1.04D-02 NDo=     1
 LinEq1:  Iter=  6 NonCon=     1 RMS=9.03D-05 Max=5.53D-03 NDo=     1
 LinEq1:  Iter=  7 NonCon=     1 RMS=4.49D-05 Max=2.09D-03 NDo=     1
 LinEq1:  Iter=  8 NonCon=     1 RMS=2.33D-05 Max=1.56D-03 NDo=     1
 LinEq1:  Iter=  9 NonCon=     1 RMS=9.93D-06 Max=3.47D-04 NDo=     1
 LinEq1:  Iter= 10 NonCon=     1 RMS=3.95D-06 Max=1.29D-04 NDo=     1
 LinEq1:  Iter= 11 NonCon=     1 RMS=1.61D-06 Max=5.36D-05 NDo=     1
 LinEq1:  Iter= 12 NonCon=     1 RMS=7.71D-07 Max=1.41D-05 NDo=     1
 LinEq1:  Iter= 13 NonCon=     1 RMS=4.37D-07 Max=1.65D-05 NDo=     1
 LinEq1:  Iter= 14 NonCon=     1 RMS=1.64D-07 Max=7.54D-06 NDo=     1
 LinEq1:  Iter= 15 NonCon=     1 RMS=7.71D-08 Max=3.56D-06 NDo=     1
 LinEq1:  Iter= 16 NonCon=     1 RMS=3.11D-08 Max=1.29D-06 NDo=     1
 LinEq1:  Iter= 17 NonCon=     1 RMS=1.55D-08 Max=3.00D-07 NDo=     1
 LinEq1:  Iter= 18 NonCon=     1 RMS=7.53D-09 Max=2.53D-07 NDo=     1
 LinEq1:  Iter= 19 NonCon=     1 RMS=3.09D-09 Max=1.19D-07 NDo=     1
 LinEq1:  Iter= 20 NonCon=     1 RMS=1.35D-09 Max=3.80D-08 NDo=     1
 LinEq1:  Iter= 21 NonCon=     1 RMS=6.03D-10 Max=1.61D-08 NDo=     1
 LinEq1:  Iter= 22 NonCon=     1 RMS=2.83D-10 Max=1.10D-08 NDo=     1
 LinEq1:  Iter= 23 NonCon=     1 RMS=1.43D-10 Max=4.52D-09 NDo=     1
 LinEq1:  Iter= 24 NonCon=     1 RMS=5.64D-11 Max=1.38D-09 NDo=     1
 LinEq1:  Iter= 25 NonCon=     0 RMS=2.46D-11 Max=5.80D-10 NDo=     1
 Linear equations converged to 1.000D-10 1.000D-09 after    25 iterations.
 End of Minotr F.D. properties file   721 does not exist.
 End of Minotr F.D. properties file   722 does not exist.
 End of Minotr F.D. properties file   788 does not exist.

 **********************************************************************

            Population analysis using the SCF density.

 **********************************************************************

 Orbital symmetries:
       Occupied  (A) (A) (A) (A) (A) (A) (A) (A) (A) (A) (A) (A)
                 (A) (A) (A) (A) (A) (A) (A) (A) (A) (A) (A) (A)
                 (A) (A) (A) (A) (A) (A) (A) (A) (A) (A) (A) (A)
                 (A) (A) (A) (A) (A) (A) (A) (A) (A) (A) (A) (A)
                 (A) (A) (A) (A) (A) (A) (A) (A) (A) (A) (A)
       Virtual   (A) (A) (A) (A) (A) (A) (A) (A) (A) (A) (A) (A)
                 (A) (A) (A) (A) (A) (A) (A) (A) (A) (A) (A) (A)
                 (A) (A) (A) (A) (A) (A) (A) (A) (A) (A) (A) (A)
                 (A) (A) (A) (A) (A) (A) (A) (A) (A) (A) (A) (A)
                 (A) (A) (A) (A) (A) (A) (A) (A) (A) (A) (A) (A)
                 (A) (A) (A) (A) (A) (A) (A) (A) (A) (A) (A) (A)
                 (A) (A) (A) (A) (A) (A) (A) (A) (A) (A) (A) (A)
                 (A) (A) (A) (A) (A) (A) (A) (A) (A) (A) (A) (A)
                 (A) (A) (A) (A) (A) (A) (A) (A) (A) (A) (A) (A)
                 (A) (A) (A) (A) (A) (A) (A) (A) (A) (A) (A) (A)
                 (A) (A) (A) (A) (A) (A) (A) (A) (A) (A) (A) (A)
                 (A) (A) (A) (A) (A) (A) (A) (A) (A) (A) (A) (A)
                 (A) (A) (A) (A) (A) (A) (A) (A) (A) (A) (A) (A)
                 (A) (A) (A) (A) (A) (A) (A) (A) (A) (A) (A) (A)
                 (A) (A) (A) (A) (A) (A) (A) (A) (A) (A) (A) (A)
                 (A) (A) (A) (A) (A) (A) (A) (A) (A) (A) (A) (A)
                 (A) (A) (A) (A) (A) (A) (A) (A) (A) (A) (A) (A)
                 (A) (A) (A) (A) (A) (A) (A) (A) (A) (A) (A) (A)
                 (A) (A) (A) (A) (A) (A) (A) (A) (A) (A) (A) (A)
                 (A) (A) (A) (A) (A) (A) (A) (A) (A) (A) (A) (A)
                 (A) (A) (A) (A) (A) (A) (A) (A) (A) (A) (A) (A)
                 (A) (A) (A) (A) (A) (A) (A) (A) (A) (A) (A) (A)
                 (A) (A) (A) (A) (A) (A) (A) (A) (A) (A) (A) (A)
                 (A) (A) (A) (A) (A) (A) (A) (A) (A) (A) (A) (A)
                 (A) (A) (A) (A) (A) (A) (A) (A) (A) (A) (A) (A)
                 (A) (A) (A) (A) (A) (A) (A) (A) (A) (A) (A) (A)
                 (A) (A) (A) (A) (A) (A) (A) (A) (A) (A) (A) (A)
                 (A) (A) (A) (A) (A) (A) (A) (A) (A) (A) (A) (A)
                 (A) (A) (A) (A) (A) (A) (A) (A) (A) (A) (A) (A)
                 (A) (A) (A) (A) (A) (A) (A) (A) (A) (A) (A) (A)
                 (A) (A) (A) (A) (A) (A) (A) (A) (A) (A) (A) (A)
                 (A) (A) (A) (A) (A) (A) (A) (A) (A) (A) (A) (A)
                 (A) (A) (A) (A) (A) (A) (A) (A) (A) (A) (A) (A)
 The electronic state is 1-A.
 Alpha  occ. eigenvalues --  -19.27899 -19.26649 -19.20195 -14.49594 -10.36524
 Alpha  occ. eigenvalues --  -10.35972 -10.35130 -10.34401 -10.34028 -10.33709
 Alpha  occ. eigenvalues --  -10.33059 -10.29853 -10.29314 -10.28993 -10.28659
 Alpha  occ. eigenvalues --  -10.28570  -1.17363  -1.13947  -1.09130  -1.08020
 Alpha  occ. eigenvalues --   -0.95839  -0.89718  -0.86501  -0.85328  -0.85083
 Alpha  occ. eigenvalues --   -0.80882  -0.78666  -0.74436  -0.69788  -0.69040
 Alpha  occ. eigenvalues --   -0.65980  -0.63573  -0.62194  -0.60185  -0.58701
 Alpha  occ. eigenvalues --   -0.58400  -0.57482  -0.54675  -0.54548  -0.52211
 Alpha  occ. eigenvalues --   -0.52070  -0.51731  -0.51417  -0.50630  -0.49860
 Alpha  occ. eigenvalues --   -0.49463  -0.49049  -0.47693  -0.46374  -0.46024
 Alpha  occ. eigenvalues --   -0.44511  -0.43125  -0.40765  -0.40401  -0.37844
 Alpha  occ. eigenvalues --   -0.33797  -0.31322  -0.30324  -0.28378
 Alpha virt. eigenvalues --   -0.00877   0.02900   0.04352   0.04718   0.05395
 Alpha virt. eigenvalues --    0.05678   0.05848   0.06250   0.07466   0.07694
 Alpha virt. eigenvalues --    0.07764   0.07876   0.08186   0.08442   0.08961
 Alpha virt. eigenvalues --    0.10112   0.10503   0.11061   0.11535   0.12515
 Alpha virt. eigenvalues --    0.12904   0.13150   0.14025   0.14458   0.14605
 Alpha virt. eigenvalues --    0.14789   0.15382   0.15569   0.16028   0.16301
 Alpha virt. eigenvalues --    0.16854   0.17400   0.17499   0.17885   0.18057
 Alpha virt. eigenvalues --    0.18292   0.18356   0.18810   0.19166   0.19256
 Alpha virt. eigenvalues --    0.19911   0.20411   0.20573   0.20994   0.21396
 Alpha virt. eigenvalues --    0.21809   0.21913   0.22441   0.23022   0.23089
 Alpha virt. eigenvalues --    0.23194   0.23651   0.24124   0.24341   0.24640
 Alpha virt. eigenvalues --    0.25028   0.25385   0.25769   0.26134   0.27111
 Alpha virt. eigenvalues --    0.27829   0.28231   0.28694   0.28840   0.29353
 Alpha virt. eigenvalues --    0.29827   0.30169   0.30661   0.30933   0.31437
 Alpha virt. eigenvalues --    0.31930   0.32306   0.33040   0.33295   0.33397
 Alpha virt. eigenvalues --    0.34023   0.34488   0.34552   0.34949   0.35204
 Alpha virt. eigenvalues --    0.35440   0.35983   0.37255   0.37602   0.37875
 Alpha virt. eigenvalues --    0.38162   0.38285   0.39078   0.39535   0.39776
 Alpha virt. eigenvalues --    0.40105   0.40518   0.41085   0.41581   0.42054
 Alpha virt. eigenvalues --    0.42472   0.42892   0.43896   0.44697   0.45852
 Alpha virt. eigenvalues --    0.46289   0.46728   0.47022   0.47832   0.48452
 Alpha virt. eigenvalues --    0.48748   0.49771   0.51238   0.52102   0.53131
 Alpha virt. eigenvalues --    0.53290   0.53669   0.56883   0.57386   0.58858
 Alpha virt. eigenvalues --    0.59544   0.61710   0.62699   0.63842   0.64927
 Alpha virt. eigenvalues --    0.65419   0.65841   0.66550   0.67888   0.68266
 Alpha virt. eigenvalues --    0.68678   0.69341   0.69791   0.70235   0.70790
 Alpha virt. eigenvalues --    0.71218   0.71882   0.72452   0.72828   0.73503
 Alpha virt. eigenvalues --    0.74041   0.74898   0.75477   0.76634   0.76875
 Alpha virt. eigenvalues --    0.77058   0.78189   0.78521   0.79165   0.80344
 Alpha virt. eigenvalues --    0.81107   0.81865   0.82334   0.82940   0.83700
 Alpha virt. eigenvalues --    0.84461   0.85121   0.86114   0.86991   0.87943
 Alpha virt. eigenvalues --    0.90026   0.90737   0.92463   0.92593   0.95646
 Alpha virt. eigenvalues --    0.96125   0.96647   0.97991   0.98527   0.98860
 Alpha virt. eigenvalues --    1.00067   1.00597   1.01290   1.02838   1.04525
 Alpha virt. eigenvalues --    1.05959   1.06403   1.10267   1.10768   1.11055
 Alpha virt. eigenvalues --    1.12046   1.12860   1.13130   1.14536   1.15094
 Alpha virt. eigenvalues --    1.16295   1.16944   1.19136   1.19398   1.21227
 Alpha virt. eigenvalues --    1.21351   1.22828   1.26092   1.26960   1.28290
 Alpha virt. eigenvalues --    1.31219   1.32849   1.34585   1.34801   1.36562
 Alpha virt. eigenvalues --    1.38037   1.39210   1.39388   1.40596   1.41255
 Alpha virt. eigenvalues --    1.43195   1.48433   1.49889   1.52219   1.52820
 Alpha virt. eigenvalues --    1.52920   1.53962   1.55685   1.56855   1.58242
 Alpha virt. eigenvalues --    1.59015   1.59627   1.61950   1.62348   1.62679
 Alpha virt. eigenvalues --    1.63313   1.64506   1.65412   1.65541   1.66623
 Alpha virt. eigenvalues --    1.67937   1.68273   1.69743   1.70498   1.71940
 Alpha virt. eigenvalues --    1.73158   1.74672   1.75547   1.75981   1.77590
 Alpha virt. eigenvalues --    1.78171   1.78984   1.79856   1.80479   1.82089
 Alpha virt. eigenvalues --    1.82407   1.82794   1.84447   1.86542   1.87522
 Alpha virt. eigenvalues --    1.88434   1.88664   1.90900   1.91938   1.93799
 Alpha virt. eigenvalues --    1.95147   1.96576   1.99888   2.01764   2.02037
 Alpha virt. eigenvalues --    2.03433   2.04576   2.05566   2.06029   2.07760
 Alpha virt. eigenvalues --    2.09292   2.09678   2.12519   2.14080   2.15669
 Alpha virt. eigenvalues --    2.17403   2.18003   2.18349   2.19665   2.20514
 Alpha virt. eigenvalues --    2.21345   2.21761   2.22952   2.25006   2.27308
 Alpha virt. eigenvalues --    2.29346   2.29818   2.31541   2.36578   2.37814
 Alpha virt. eigenvalues --    2.41877   2.43836   2.44322   2.45775   2.49970
 Alpha virt. eigenvalues --    2.51096   2.53394   2.54221   2.55389   2.57252
 Alpha virt. eigenvalues --    2.57930   2.58229   2.59676   2.61998   2.62449
 Alpha virt. eigenvalues --    2.65397   2.65947   2.67547   2.70763   2.70963
 Alpha virt. eigenvalues --    2.71717   2.73109   2.75350   2.77013   2.78342
 Alpha virt. eigenvalues --    2.79090   2.79888   2.80674   2.82109   2.83318
 Alpha virt. eigenvalues --    2.84482   2.86465   2.88136   2.88600   2.91050
 Alpha virt. eigenvalues --    2.92016   2.92695   2.94235   2.95342   2.96720
 Alpha virt. eigenvalues --    2.97776   2.99429   3.01068   3.02675   3.03670
 Alpha virt. eigenvalues --    3.05163   3.07022   3.08898   3.10700   3.11733
 Alpha virt. eigenvalues --    3.13861   3.14677   3.20558   3.21552   3.23594
 Alpha virt. eigenvalues --    3.25574   3.26454   3.29444   3.30581   3.31398
 Alpha virt. eigenvalues --    3.33483   3.35962   3.39319   3.40706   3.47216
 Alpha virt. eigenvalues --    3.51453   3.53629   3.59852   3.60941   3.65066
 Alpha virt. eigenvalues --    3.66919   3.67027   3.68872   3.75592   3.78309
 Alpha virt. eigenvalues --    3.78893   3.83822   3.86366   3.87185   3.90212
 Alpha virt. eigenvalues --    3.91656   3.92170   3.93200   4.01658   4.09850
 Alpha virt. eigenvalues --    4.15449   4.17518   4.19214   4.24046   4.28298
 Alpha virt. eigenvalues --    4.32305   4.37493   4.58058   4.95569   4.97798
 Alpha virt. eigenvalues --    5.12601   5.15370   5.16934   5.23007   5.37536
 Alpha virt. eigenvalues --    5.48644   5.56661   5.82612   5.85833   5.91034
 Alpha virt. eigenvalues --   23.70761  23.90785  24.03263  24.03918  24.05911
 Alpha virt. eigenvalues --   24.06028  24.06507  24.10649  24.17393  24.23484
 Alpha virt. eigenvalues --   24.25798  24.31938  35.66811  50.08843  50.10787
 Alpha virt. eigenvalues --   50.14799
          Condensed to atoms (all electrons):
               1          2          3          4          5          6
     1  C    5.359880   0.387894   0.400056  -0.144265   0.008065   0.276281
     2  H    0.387894   0.518155  -0.032475   0.013358  -0.007307  -0.047393
     3  H    0.400056  -0.032475   0.529582  -0.017151   0.008322  -0.066610
     4  C   -0.144265   0.013358  -0.017151   5.296051   0.401243   0.280988
     5  H    0.008065  -0.007307   0.008322   0.401243   0.552316  -0.035491
     6  N    0.276281  -0.047393  -0.066610   0.280988  -0.035491   6.760211
     7  H    0.400754  -0.022053  -0.044484   0.009676   0.000797  -0.029116
     8  H    0.004582   0.003694  -0.000020   0.396510  -0.035251  -0.070061
     9  H   -0.022502   0.004148   0.000773   0.413339  -0.057869  -0.051446
    10  C   -0.409240  -0.000014   0.079134  -0.137564  -0.061778   0.146211
    11  H    0.002395  -0.001357  -0.002104  -0.024391   0.003943  -0.062704
    12  C    0.683185   0.021458  -0.099992  -0.203560   0.036088  -0.200244
    13  C   -0.388626  -0.017879   0.057159   0.007677  -0.000304  -0.021881
    14  H    0.050108   0.004210  -0.023016  -0.014489   0.000697  -0.029721
    15  O    0.001578   0.000316  -0.000669   0.004918  -0.000181   0.009214
    16  C   -0.162912  -0.001641   0.018147   0.063205  -0.002187  -0.017461
    17  C   -0.058706  -0.005362   0.006615   0.002932   0.000362   0.019979
    18  C    0.025397   0.001966  -0.002738  -0.001195  -0.000157  -0.003933
    19  O   -0.007320  -0.000657   0.001680  -0.001743   0.000033  -0.004284
    20  C    0.002252  -0.001210  -0.003423   0.001003   0.000225   0.006842
    21  C    0.009322   0.000956  -0.001080   0.000815  -0.000156   0.000916
    22  H   -0.001710  -0.000059   0.000237   0.000430  -0.000073   0.000188
    23  H    0.002096   0.001186   0.000470   0.002805   0.000003   0.006312
    24  H   -0.000307  -0.000020   0.000046   0.000031   0.000001   0.000043
    25  C   -0.002430  -0.000245   0.000112  -0.000221  -0.000055  -0.000599
    26  H   -0.000077  -0.000008   0.000022   0.000007   0.000000  -0.000034
    27  O   -0.000023  -0.000001   0.000006  -0.000001   0.000000   0.000000
    28  C   -0.000031   0.000000   0.000010   0.000013  -0.000001   0.000007
    29  H    0.000001   0.000000   0.000001   0.000000   0.000000   0.000001
    30  H    0.000014   0.000001  -0.000004   0.000000   0.000000   0.000000
    31  H   -0.000003   0.000000   0.000001   0.000000   0.000000   0.000000
               7          8          9         10         11         12
     1  C    0.400754   0.004582  -0.022502  -0.409240   0.002395   0.683185
     2  H   -0.022053   0.003694   0.004148  -0.000014  -0.001357   0.021458
     3  H   -0.044484  -0.000020   0.000773   0.079134  -0.002104  -0.099992
     4  C    0.009676   0.396510   0.413339  -0.137564  -0.024391  -0.203560
     5  H    0.000797  -0.035251  -0.057869  -0.061778   0.003943   0.036088
     6  N   -0.029116  -0.070061  -0.051446   0.146211  -0.062704  -0.200244
     7  H    0.532990  -0.003975  -0.000389  -0.014387   0.001678   0.043167
     8  H   -0.003975   0.521574  -0.015479   0.060913  -0.003524  -0.043421
     9  H   -0.000389  -0.015479   0.555724   0.012707  -0.000784  -0.002146
    10  C   -0.014387   0.060913   0.012707  10.737117   0.371033  -7.528193
    11  H    0.001678  -0.003524  -0.000784   0.371033   0.455983  -0.018696
    12  C    0.043167  -0.043421  -0.002146  -7.528193  -0.018696  27.861001
    13  C   -0.039542   0.017474   0.003344   1.628256   0.065969  -5.779789
    14  H    0.007672  -0.001311  -0.000808  -0.357370   0.005068   1.085763
    15  O   -0.000184   0.000374   0.000096  -0.006409   0.015167  -0.080086
    16  C   -0.035258   0.009396   0.001185   1.570586  -0.001639  -9.158783
    17  C    0.024763  -0.001237   0.000294   0.821969   0.001814  -2.294310
    18  C   -0.010350   0.001315   0.000214  -0.633148  -0.028379   1.182244
    19  O    0.001998   0.000106  -0.000047  -0.025955   0.001808   0.011651
    20  C    0.006691  -0.000745   0.000142  -0.447681  -0.004779   1.027597
    21  C   -0.000638   0.000525  -0.000061   0.238299  -0.006101  -0.072443
    22  H    0.000125   0.000178   0.000018   0.020469  -0.000828  -0.135634
    23  H   -0.005433   0.000188  -0.000106  -0.007204  -0.002220  -0.081978
    24  H    0.000082   0.000003   0.000002  -0.002893  -0.000131  -0.003889
    25  C    0.001223   0.000005   0.000031   0.048353   0.002740   0.060193
    26  H   -0.000039  -0.000001   0.000001   0.000580   0.000077  -0.001126
    27  O    0.000000   0.000001   0.000000   0.000270  -0.000023  -0.005169
    28  C    0.000010   0.000000   0.000000   0.002700   0.000014  -0.014639
    29  H   -0.000003   0.000000   0.000000   0.000165  -0.000002  -0.000772
    30  H    0.000001   0.000000   0.000000  -0.000049  -0.000007   0.001734
    31  H    0.000001   0.000000   0.000000  -0.000048   0.000002  -0.000349
              13         14         15         16         17         18
     1  C   -0.388626   0.050108   0.001578  -0.162912  -0.058706   0.025397
     2  H   -0.017879   0.004210   0.000316  -0.001641  -0.005362   0.001966
     3  H    0.057159  -0.023016  -0.000669   0.018147   0.006615  -0.002738
     4  C    0.007677  -0.014489   0.004918   0.063205   0.002932  -0.001195
     5  H   -0.000304   0.000697  -0.000181  -0.002187   0.000362  -0.000157
     6  N   -0.021881  -0.029721   0.009214  -0.017461   0.019979  -0.003933
     7  H   -0.039542   0.007672  -0.000184  -0.035258   0.024763  -0.010350
     8  H    0.017474  -0.001311   0.000374   0.009396  -0.001237   0.001315
     9  H    0.003344  -0.000808   0.000096   0.001185   0.000294   0.000214
    10  C    1.628256  -0.357370  -0.006409   1.570586   0.821969  -0.633148
    11  H    0.065969   0.005068   0.015167  -0.001639   0.001814  -0.028379
    12  C   -5.779789   1.085763  -0.080086  -9.158783  -2.294310   1.182244
    13  C   13.730395  -0.195281   0.644915  -0.941126   1.227078  -3.336309
    14  H   -0.195281   0.575233  -0.000336  -0.163014  -0.261005   0.088229
    15  O    0.644915  -0.000336   8.114865  -0.473612  -0.134119   0.207059
    16  C   -0.941126  -0.163014  -0.473612  20.905976  -2.156750  -0.067403
    17  C    1.227078  -0.261005  -0.134119  -2.156750  19.421092  -5.855417
    18  C   -3.336309   0.088229   0.207059  -0.067403  -5.855417  16.369853
    19  O    0.098334   0.002042  -0.002188   0.039440   0.361843  -0.007153
    20  C   -1.464839   0.062455   0.056283  -1.552802  -3.583502   3.493518
    21  C    0.677927  -0.004409  -0.012753  -3.501243   0.044594  -0.254127
    22  H   -0.118588  -0.006711  -0.010860   0.167442   0.152828   0.444310
    23  H   -0.082842  -0.013954  -0.002864  -0.050310   0.073442   0.029925
    24  H   -0.040476  -0.001465   0.000149  -0.104648  -0.113221   0.082432
    25  C    0.956121   0.003964   0.003500  -0.229357  -0.793556  -5.009202
    26  H    0.014924   0.000346   0.000391   0.123473  -0.047126  -0.138609
    27  O    0.015364  -0.000351  -0.000010  -0.076279   0.054896  -0.392688
    28  C   -0.016027  -0.000957  -0.001106  -0.028382   0.054142   0.136727
    29  H   -0.003032  -0.000017  -0.000092  -0.021992   0.022600  -0.023883
    30  H    0.005294   0.000088  -0.000012  -0.006586  -0.009817   0.023347
    31  H   -0.001630  -0.000033   0.000002   0.010776  -0.004469   0.022326
              19         20         21         22         23         24
     1  C   -0.007320   0.002252   0.009322  -0.001710   0.002096  -0.000307
     2  H   -0.000657  -0.001210   0.000956  -0.000059   0.001186  -0.000020
     3  H    0.001680  -0.003423  -0.001080   0.000237   0.000470   0.000046
     4  C   -0.001743   0.001003   0.000815   0.000430   0.002805   0.000031
     5  H    0.000033   0.000225  -0.000156  -0.000073   0.000003   0.000001
     6  N   -0.004284   0.006842   0.000916   0.000188   0.006312   0.000043
     7  H    0.001998   0.006691  -0.000638   0.000125  -0.005433   0.000082
     8  H    0.000106  -0.000745   0.000525   0.000178   0.000188   0.000003
     9  H   -0.000047   0.000142  -0.000061   0.000018  -0.000106   0.000002
    10  C   -0.025955  -0.447681   0.238299   0.020469  -0.007204  -0.002893
    11  H    0.001808  -0.004779  -0.006101  -0.000828  -0.002220  -0.000131
    12  C    0.011651   1.027597  -0.072443  -0.135634  -0.081978  -0.003889
    13  C    0.098334  -1.464839   0.677927  -0.118588  -0.082842  -0.040476
    14  H    0.002042   0.062455  -0.004409  -0.006711  -0.013954  -0.001465
    15  O   -0.002188   0.056283  -0.012753  -0.010860  -0.002864   0.000149
    16  C    0.039440  -1.552802  -3.501243   0.167442  -0.050310  -0.104648
    17  C    0.361843  -3.583502   0.044594   0.152828   0.073442  -0.113221
    18  C   -0.007153   3.493518  -0.254127   0.444310   0.029925   0.082432
    19  O    8.013077  -0.397208  -0.029836  -0.000675   0.227023  -0.024649
    20  C   -0.397208  12.889817  -2.714769   0.017782   0.108140   0.497189
    21  C   -0.029836  -2.714769  13.074098  -0.102200   0.027754   0.071664
    22  H   -0.000675   0.017782  -0.102200   0.452135   0.001316   0.003459
    23  H    0.227023   0.108140   0.027754   0.001316   0.450091   0.002543
    24  H   -0.024649   0.497189   0.071664   0.003459   0.002543   0.482962
    25  C   -0.021508  -1.226556  -0.849906  -0.149398  -0.011304  -0.069498
    26  H    0.001023  -0.075857  -0.268867  -0.005801  -0.000764  -0.023469
    27  O    0.000302   0.047298   0.142203  -0.017759   0.000198  -0.000863
    28  C   -0.001167  -0.234683   0.224153   0.009450   0.000201   0.006529
    29  H    0.000102   0.006659  -0.054202   0.000534   0.000186   0.000272
    30  H    0.000062   0.040144  -0.081539  -0.001089  -0.000055   0.000551
    31  H   -0.000055  -0.021342   0.081228   0.000651  -0.000040   0.000425
              25         26         27         28         29         30
     1  C   -0.002430  -0.000077  -0.000023  -0.000031   0.000001   0.000014
     2  H   -0.000245  -0.000008  -0.000001   0.000000   0.000000   0.000001
     3  H    0.000112   0.000022   0.000006   0.000010   0.000001  -0.000004
     4  C   -0.000221   0.000007  -0.000001   0.000013   0.000000   0.000000
     5  H   -0.000055   0.000000   0.000000  -0.000001   0.000000   0.000000
     6  N   -0.000599  -0.000034   0.000000   0.000007   0.000001   0.000000
     7  H    0.001223  -0.000039   0.000000   0.000010  -0.000003   0.000001
     8  H    0.000005  -0.000001   0.000001   0.000000   0.000000   0.000000
     9  H    0.000031   0.000001   0.000000   0.000000   0.000000   0.000000
    10  C    0.048353   0.000580   0.000270   0.002700   0.000165  -0.000049
    11  H    0.002740   0.000077  -0.000023   0.000014  -0.000002  -0.000007
    12  C    0.060193  -0.001126  -0.005169  -0.014639  -0.000772   0.001734
    13  C    0.956121   0.014924   0.015364  -0.016027  -0.003032   0.005294
    14  H    0.003964   0.000346  -0.000351  -0.000957  -0.000017   0.000088
    15  O    0.003500   0.000391  -0.000010  -0.001106  -0.000092  -0.000012
    16  C   -0.229357   0.123473  -0.076279  -0.028382  -0.021992  -0.006586
    17  C   -0.793556  -0.047126   0.054896   0.054142   0.022600  -0.009817
    18  C   -5.009202  -0.138609  -0.392688   0.136727  -0.023883   0.023347
    19  O   -0.021508   0.001023   0.000302  -0.001167   0.000102   0.000062
    20  C   -1.226556  -0.075857   0.047298  -0.234683   0.006659   0.040144
    21  C   -0.849906  -0.268867   0.142203   0.224153  -0.054202  -0.081539
    22  H   -0.149398  -0.005801  -0.017759   0.009450   0.000534  -0.001089
    23  H   -0.011304  -0.000764   0.000198   0.000201   0.000186  -0.000055
    24  H   -0.069498  -0.023469  -0.000863   0.006529   0.000272   0.000551
    25  C   12.245367   0.729940   0.198818  -0.364243   0.045332   0.008595
    26  H    0.729940   0.542030  -0.016229  -0.014734  -0.010971  -0.007868
    27  O    0.198818  -0.016229   8.184240   0.179189  -0.033210  -0.031797
    28  C   -0.364243  -0.014734   0.179189   5.237936   0.407710   0.397760
    29  H    0.045332  -0.010971  -0.033210   0.407710   0.601074  -0.072314
    30  H    0.008595  -0.007868  -0.031797   0.397760  -0.072314   0.600283
    31  H   -0.041718   0.001681  -0.075196   0.399334  -0.023134  -0.024425
              31
     1  C   -0.000003
     2  H    0.000000
     3  H    0.000001
     4  C    0.000000
     5  H    0.000000
     6  N    0.000000
     7  H    0.000001
     8  H    0.000000
     9  H    0.000000
    10  C   -0.000048
    11  H    0.000002
    12  C   -0.000349
    13  C   -0.001630
    14  H   -0.000033
    15  O    0.000002
    16  C    0.010776
    17  C   -0.004469
    18  C    0.022326
    19  O   -0.000055
    20  C   -0.021342
    21  C    0.081228
    22  H    0.000651
    23  H   -0.000040
    24  H    0.000425
    25  C   -0.041718
    26  H    0.001681
    27  O   -0.075196
    28  C    0.399334
    29  H   -0.023134
    30  H   -0.024425
    31  H    0.467824
 Mulliken charges:
               1
     1  C   -0.415709
     2  H    0.180338
     3  H    0.191393
     4  C   -0.350423
     5  H    0.188717
     6  N    0.133786
     7  H    0.174220
     8  H    0.158187
     9  H    0.159620
    10  C   -0.106830
    11  H    0.229976
    12  C   -0.288861
    13  C   -0.702059
    14  H    0.188377
    15  O   -0.333349
    16  C    1.843760
    17  C   -0.972648
    18  C   -0.344171
    19  O   -0.236080
    20  C   -0.534642
    21  C   -0.640125
    22  H    0.279832
    23  H    0.325195
    24  H    0.237145
    25  C    0.465502
    26  H    0.197084
    27  O   -0.173187
    28  C   -0.379913
    29  H    0.158989
    30  H    0.157688
    31  H    0.208188
 Sum of Mulliken charges =   0.00000
 Mulliken charges with hydrogens summed into heavy atoms:
               1
     1  C    0.130243
     4  C    0.156100
     6  N    0.133786
    10  C    0.123146
    12  C   -0.100484
    13  C   -0.702059
    15  O   -0.333349
    16  C    1.843760
    17  C   -0.972648
    18  C   -0.064338
    19  O    0.089115
    20  C   -0.297497
    21  C   -0.640125
    25  C    0.662585
    27  O   -0.173187
    28  C    0.144952
 Electronic spatial extent (au):  <R**2>=           5554.3292
 Charge=              0.0000 electrons
 Dipole moment (field-independent basis, Debye):
    X=             -4.3386    Y=              2.4633    Z=              2.6028  Tot=              5.6272
 Quadrupole moment (field-independent basis, Debye-Ang):
   XX=            -51.2287   YY=           -102.3679   ZZ=            -98.9625
   XY=              4.7290   XZ=             -2.1956   YZ=             -1.8924
 Traceless Quadrupole moment (field-independent basis, Debye-Ang):
   XX=             32.9577   YY=            -18.1815   ZZ=            -14.7761
   XY=              4.7290   XZ=             -2.1956   YZ=             -1.8924
 Octapole moment (field-independent basis, Debye-Ang**2):
  XXX=            -65.1521  YYY=              1.2925  ZZZ=              2.6672  XYY=            -10.8503
  XXY=              0.6522  XXZ=             30.5058  XZZ=             -8.7046  YZZ=              3.8171
  YYZ=              9.5041  XYZ=             -2.8834
 Hexadecapole moment (field-independent basis, Debye-Ang**3):
 XXXX=          -4757.3615 YYYY=           -934.3436 ZZZZ=           -303.9019 XXXY=             69.4505
 XXXZ=             -0.5358 YYYX=              6.7736 YYYZ=             -6.4202 ZZZX=              2.1564
 ZZZY=             -8.0237 XXYY=          -1115.7928 XXZZ=          -1075.1501 YYZZ=           -215.1064
 XXYZ=             21.0294 YYXZ=             -0.9044 ZZXY=            -12.4600
 N-N= 1.046998010497D+03 E-N=-3.836461974664D+03  KE= 7.433936044125D+02
 Calling FoFJK, ICntrl=  10005127 FMM=F ISym2X=0 I1Cent= 0 IOpClX= 0 NMat=1 NMatS=1 NMatT=0.
 ***** Axes restored to original set *****
 -------------------------------------------------------------------
 Center     Atomic                   Forces (Hartrees/Bohr)
 Number     Number              X              Y              Z
 -------------------------------------------------------------------
      1        6          -0.000067624    0.000022907    0.000083561
      2        1           0.000022536    0.000020313    0.000020175
      3        1          -0.000051566   -0.000122155    0.000005522
      4        6           0.000120071   -0.000159678   -0.000245147
      5        1          -0.000018789   -0.000090876    0.000148183
      6        7          -0.000582133   -0.000042058   -0.000093635
      7        1           0.000097534    0.000020578    0.000032762
      8        1          -0.000045971    0.000156910   -0.000034221
      9        1          -0.000024063    0.000068213   -0.000066606
     10        6           0.000168837   -0.000087323    0.000221660
     11        1           0.000097520    0.000108062   -0.000006871
     12        6           0.000186907   -0.000067279    0.000213173
     13        6          -0.001539303   -0.000484621   -0.000797390
     14        1          -0.000074821    0.000050651    0.000012451
     15        8           0.000171339    0.000340668   -0.000191528
     16        6          -0.004331265   -0.001607953    0.002909540
     17        6          -0.001594549   -0.000070510    0.001180754
     18        6          -0.004019024    0.005046297   -0.007605563
     19        8           0.003035626   -0.000679222    0.001073373
     20        6           0.004251920    0.002091343   -0.003040489
     21        6          -0.041264376    0.001280541   -0.003721479
     22        1          -0.002359631    0.000059442    0.000375008
     23        1          -0.000298996   -0.000497287    0.000385072
     24        1          -0.000708311    0.000042407   -0.000335829
     25        6          -0.002196320   -0.000573015    0.001315850
     26        1           0.002977919   -0.000480971    0.000641137
     27        8           0.038927060   -0.005767585    0.009532444
     28        6           0.007850292    0.000332010   -0.000503651
     29        1          -0.000257595    0.000763731   -0.000735130
     30        1          -0.000233899    0.000362257   -0.000873609
     31        1           0.001760675   -0.000035795    0.000100481
 -------------------------------------------------------------------
 Cartesian Forces:  Max     0.041264376 RMS     0.006245908

 GradGradGradGradGradGradGradGradGradGradGradGradGradGradGradGradGradGrad
 Berny optimization.
 FormGI is forming the generalized inverse of G from B-inverse, IUseBI=4.
 Internal  Forces:  Max     0.046167431 RMS     0.004738274
 Search for a local minimum.
 Step number   1 out of a maximum of  150
 All quantities printed in internal units (Hartrees-Bohrs-Radians)
 Mixed Optimization -- RFO/linear search
 Second derivative matrix not updated -- first step.
 ITU=  0
     Eigenvalues ---    0.01039   0.01100   0.01163   0.01218   0.01453
     Eigenvalues ---    0.01611   0.01750   0.01781   0.01950   0.02005
     Eigenvalues ---    0.02037   0.02095   0.02109   0.02160   0.02199
     Eigenvalues ---    0.02212   0.02222   0.02242   0.02244   0.02260
     Eigenvalues ---    0.02282   0.02404   0.07310   0.07334   0.07641
     Eigenvalues ---    0.07676   0.10007   0.10623   0.15977   0.15991
     Eigenvalues ---    0.15992   0.15994   0.15998   0.16000   0.16000
     Eigenvalues ---    0.16000   0.16000   0.16000   0.16000   0.16000
     Eigenvalues ---    0.16000   0.16000   0.16000   0.22002   0.22007
     Eigenvalues ---    0.22054   0.22360   0.22959   0.23479   0.24576
     Eigenvalues ---    0.24981   0.24982   0.24999   0.25000   0.25000
     Eigenvalues ---    0.25000   0.33599   0.33696   0.33934   0.33934
     Eigenvalues ---    0.34490   0.34551   0.34660   0.34695   0.34744
     Eigenvalues ---    0.35510   0.35545   0.35564   0.35618   0.35640
     Eigenvalues ---    0.36242   0.38334   0.38940   0.39585   0.41266
     Eigenvalues ---    0.42376   0.42754   0.43926   0.45334   0.46255
     Eigenvalues ---    0.47449   0.48024   0.49806   0.51067   0.53889
     Eigenvalues ---    0.54605   0.64867
 RFO step:  Lambda=-9.05190046D-03 EMin= 1.03933499D-02
 Linear search not attempted -- first point.
 Iteration  1 RMS(Cart)=  0.05346326 RMS(Int)=  0.00091138
 Iteration  2 RMS(Cart)=  0.00164220 RMS(Int)=  0.00005510
 Iteration  3 RMS(Cart)=  0.00000333 RMS(Int)=  0.00005508
 Iteration  4 RMS(Cart)=  0.00000000 RMS(Int)=  0.00005508
 Variable       Old X    -DE/DX   Delta X   Delta X   Delta X     New X
                                 (Linear)    (Quad)   (Total)
    R1        2.06092   0.00003   0.00000   0.00008   0.00008   2.06100
    R2        2.08011  -0.00005   0.00000  -0.00014  -0.00014   2.07997
    R3        2.73020   0.00015   0.00000   0.00038   0.00038   2.73058
    R4        2.06511  -0.00004   0.00000  -0.00010  -0.00010   2.06501
    R5        2.07846  -0.00009   0.00000  -0.00027  -0.00027   2.07819
    R6        2.73882   0.00009   0.00000   0.00023   0.00023   2.73905
    R7        2.06230  -0.00001   0.00000  -0.00003  -0.00003   2.06227
    R8        2.06410  -0.00005   0.00000  -0.00013  -0.00013   2.06398
    R9        2.58804  -0.00056   0.00000  -0.00108  -0.00108   2.58696
   R10        2.04799   0.00000   0.00000   0.00001   0.00001   2.04800
   R11        2.60061  -0.00031   0.00000  -0.00061  -0.00061   2.60000
   R12        2.66543  -0.00002   0.00000  -0.00004  -0.00004   2.66540
   R13        2.04648   0.00003   0.00000   0.00007   0.00007   2.04655
   R14        2.47284   0.00020   0.00000   0.00030   0.00030   2.47315
   R15        2.77005  -0.00111   0.00000  -0.00300  -0.00300   2.76705
   R16        2.66973   0.00012   0.00000   0.00011   0.00011   2.66983
   R17        2.65544  -0.00140   0.00000  -0.00328  -0.00329   2.65215
   R18        2.56133   0.00331   0.00000   0.00605   0.00605   2.56738
   R19        2.62418  -0.00268   0.00000  -0.00547  -0.00548   2.61870
   R20        2.61616  -0.00531   0.00000  -0.01085  -0.01084   2.60532
   R21        2.04683  -0.00025   0.00000  -0.00070  -0.00070   2.04613
   R22        1.82185  -0.00058   0.00000  -0.00104  -0.00104   1.82081
   R23        2.04768  -0.00032   0.00000  -0.00089  -0.00089   2.04680
   R24        2.62314   0.00120   0.00000   0.00268   0.00268   2.62582
   R25        2.63001   0.00105   0.00000   0.00234   0.00235   2.63236
   R26        2.72121  -0.04617   0.00000  -0.11402  -0.11402   2.60719
   R27        2.04855  -0.00213   0.00000  -0.00584  -0.00584   2.04271
   R28        2.67975  -0.00904   0.00000  -0.02070  -0.02070   2.65904
   R29        2.07441  -0.00076   0.00000  -0.00219  -0.00219   2.07223
   R30        2.07441  -0.00069   0.00000  -0.00198  -0.00198   2.07243
   R31        2.06172  -0.00138   0.00000  -0.00388  -0.00388   2.05784
    A1        1.89568   0.00002   0.00000   0.00020   0.00020   1.89588
    A2        1.90605   0.00002   0.00000   0.00016   0.00016   1.90621
    A3        1.88473  -0.00006   0.00000  -0.00040  -0.00040   1.88433
    A4        1.95950  -0.00001   0.00000  -0.00004  -0.00004   1.95946
    A5        1.89212  -0.00005   0.00000  -0.00035  -0.00035   1.89177
    A6        1.92409   0.00008   0.00000   0.00041   0.00041   1.92450
    A7        1.95998  -0.00024   0.00000  -0.00169  -0.00169   1.95829
    A8        1.89100   0.00000   0.00000  -0.00013  -0.00013   1.89087
    A9        1.89591  -0.00002   0.00000  -0.00044  -0.00044   1.89548
   A10        1.91294   0.00015   0.00000   0.00108   0.00108   1.91403
   A11        1.91567   0.00013   0.00000   0.00084   0.00084   1.91651
   A12        1.88675  -0.00003   0.00000   0.00038   0.00038   1.88713
   A13        2.02932   0.00013   0.00000   0.00043   0.00043   2.02975
   A14        2.07760   0.00010   0.00000   0.00035   0.00035   2.07795
   A15        2.05614  -0.00024   0.00000  -0.00114  -0.00114   2.05499
   A16        1.99593  -0.00011   0.00000  -0.00066  -0.00067   1.99527
   A17        2.19523  -0.00004   0.00000  -0.00013  -0.00014   2.19510
   A18        2.09136   0.00015   0.00000   0.00093   0.00093   2.09228
   A19        2.14031   0.00006   0.00000   0.00023   0.00023   2.14054
   A20        2.11679   0.00002   0.00000   0.00007   0.00007   2.11686
   A21        2.02372  -0.00009   0.00000  -0.00052  -0.00053   2.02319
   A22        2.09449   0.00015   0.00000   0.00051   0.00050   2.09499
   A23        2.19393  -0.00100   0.00000  -0.00395  -0.00396   2.18997
   A24        1.99354   0.00084   0.00000   0.00317   0.00316   1.99670
   A25        2.11872  -0.00048   0.00000  -0.00167  -0.00167   2.11705
   A26        2.09553  -0.00232   0.00000  -0.00879  -0.00878   2.08675
   A27        2.06836   0.00281   0.00000   0.01054   0.01052   2.07888
   A28        2.14199   0.00152   0.00000   0.00580   0.00580   2.14780
   A29        2.09247  -0.00214   0.00000  -0.00812  -0.00813   2.08433
   A30        2.04867   0.00062   0.00000   0.00231   0.00232   2.05099
   A31        2.11288  -0.00250   0.00000  -0.01109  -0.01109   2.10178
   A32        2.06945   0.00365   0.00000   0.01971   0.01971   2.08916
   A33        2.10035  -0.00116   0.00000  -0.00873  -0.00873   2.09162
   A34        1.90212   0.00052   0.00000   0.00306   0.00306   1.90518
   A35        2.06234  -0.00005   0.00000   0.00045   0.00045   2.06279
   A36        2.10224   0.00154   0.00000   0.00763   0.00763   2.10987
   A37        2.11816  -0.00149   0.00000  -0.00810  -0.00810   2.11006
   A38        2.08735   0.00340   0.00000   0.01364   0.01365   2.10100
   A39        2.09792  -0.02108   0.00000  -0.08166  -0.08167   2.01624
   A40        2.09792   0.01769   0.00000   0.06801   0.06799   2.16591
   A41        2.10067  -0.00309   0.00000  -0.01234  -0.01232   2.08835
   A42        2.08474  -0.00073   0.00000  -0.00726  -0.00727   2.07748
   A43        2.09765   0.00382   0.00000   0.01963   0.01962   2.11727
   A44        2.06284  -0.00437   0.00000  -0.01686  -0.01686   2.04599
   A45        1.94999   0.00041   0.00000   0.00340   0.00337   1.95336
   A46        1.94999   0.00044   0.00000   0.00363   0.00360   1.95360
   A47        1.85102  -0.00212   0.00000  -0.01442  -0.01443   1.83659
   A48        1.90154   0.00089   0.00000   0.00860   0.00856   1.91010
   A49        1.90501   0.00013   0.00000  -0.00114  -0.00116   1.90386
   A50        1.90501   0.00016   0.00000  -0.00087  -0.00088   1.90413
    D1       -0.63322   0.00001   0.00000   0.00274   0.00274  -0.63048
    D2        3.02583   0.00010   0.00000   0.00380   0.00380   3.02963
    D3        1.47038   0.00004   0.00000   0.00307   0.00307   1.47346
    D4       -1.15376   0.00013   0.00000   0.00413   0.00413  -1.14962
    D5       -2.70127   0.00002   0.00000   0.00289   0.00289  -2.69838
    D6        0.95778   0.00011   0.00000   0.00395   0.00395   0.96172
    D7       -1.19047   0.00007   0.00000   0.00377   0.00377  -1.18670
    D8        1.44023   0.00009   0.00000   0.00317   0.00317   1.44340
    D9        2.99000   0.00012   0.00000   0.00430   0.00430   2.99430
   D10       -0.66249   0.00013   0.00000   0.00371   0.00371  -0.65878
   D11        0.92035  -0.00002   0.00000   0.00267   0.00267   0.92302
   D12       -2.73214   0.00000   0.00000   0.00208   0.00208  -2.73006
   D13        3.06102   0.00005   0.00000   0.00113   0.00113   3.06215
   D14       -0.12002   0.00017   0.00000   0.00502   0.00502  -0.11501
   D15        0.44474   0.00003   0.00000   0.00174   0.00174   0.44648
   D16       -2.73630   0.00015   0.00000   0.00562   0.00562  -2.73068
   D17       -3.12232  -0.00011   0.00000  -0.00340  -0.00341  -3.12573
   D18        0.09611   0.00001   0.00000   0.00031   0.00031   0.09643
   D19       -0.02216   0.00002   0.00000   0.00064   0.00064  -0.02151
   D20       -3.08691   0.00014   0.00000   0.00436   0.00436  -3.08254
   D21       -0.08581   0.00004   0.00000   0.00072   0.00072  -0.08508
   D22        3.11230   0.00019   0.00000   0.00697   0.00697   3.11927
   D23        2.98276  -0.00007   0.00000  -0.00279  -0.00279   2.97997
   D24       -0.10232   0.00008   0.00000   0.00346   0.00346  -0.09886
[...]
 Alpha virt. eigenvalues --    2.21506   2.22451   2.23098   2.25165   2.27077
 Alpha virt. eigenvalues --    2.29136   2.30421   2.31847   2.36803   2.38481
 Alpha virt. eigenvalues --    2.41935   2.43318   2.44589   2.46086   2.50294
 Alpha virt. eigenvalues --    2.51360   2.53145   2.54588   2.55905   2.56811
 Alpha virt. eigenvalues --    2.57970   2.58399   2.59972   2.61791   2.62704
 Alpha virt. eigenvalues --    2.65760   2.66420   2.67941   2.70485   2.71369
 Alpha virt. eigenvalues --    2.72244   2.73413   2.75480   2.77176   2.78373
 Alpha virt. eigenvalues --    2.79765   2.80188   2.80698   2.81779   2.82813
 Alpha virt. eigenvalues --    2.84532   2.86926   2.88387   2.88786   2.90952
 Alpha virt. eigenvalues --    2.91834   2.92605   2.94061   2.95961   2.96754
 Alpha virt. eigenvalues --    2.98230   3.00640   3.01131   3.03020   3.04202
 Alpha virt. eigenvalues --    3.05952   3.07969   3.11162   3.12419   3.14099
 Alpha virt. eigenvalues --    3.15091   3.16276   3.20720   3.21862   3.23690
 Alpha virt. eigenvalues --    3.26028   3.27048   3.30078   3.31442   3.33919
 Alpha virt. eigenvalues --    3.35469   3.36001   3.39574   3.44614   3.49315
 Alpha virt. eigenvalues --    3.51367   3.54276   3.60484   3.61466   3.64974
 Alpha virt. eigenvalues --    3.67232   3.67823   3.69213   3.76255   3.78753
 Alpha virt. eigenvalues --    3.79235   3.84108   3.86379   3.87656   3.90535
 Alpha virt. eigenvalues --    3.92029   3.93365   3.94036   4.01214   4.10323
 Alpha virt. eigenvalues --    4.15867   4.18776   4.21967   4.25070   4.28868
 Alpha virt. eigenvalues --    4.33713   4.38170   4.59957   4.96004   4.98182
 Alpha virt. eigenvalues --    5.13023   5.15797   5.16681   5.23006   5.38036
 Alpha virt. eigenvalues --    5.53111   5.56545   5.84335   5.88847   5.93969
 Alpha virt. eigenvalues --   23.72708  23.91732  24.03591  24.04767  24.06220
 Alpha virt. eigenvalues --   24.06365  24.06827  24.10928  24.18780  24.23663
 Alpha virt. eigenvalues --   24.26344  24.31956  35.67350  50.09473  50.11944
 Alpha virt. eigenvalues --   50.14976
          Condensed to atoms (all electrons):
               1          2          3          4          5          6
     1  C    5.348693   0.385670   0.398939  -0.140794   0.009383   0.275359
     2  H    0.385670   0.517265  -0.031551   0.013769  -0.007960  -0.048282
     3  H    0.398939  -0.031551   0.534654  -0.016007   0.007605  -0.067667
     4  C   -0.140794   0.013769  -0.016007   5.291435   0.400104   0.278394
     5  H    0.009383  -0.007960   0.007605   0.400104   0.553948  -0.036507
     6  N    0.275359  -0.048282  -0.067667   0.278394  -0.036507   6.766509
     7  H    0.403115  -0.022084  -0.045494   0.009650   0.001101  -0.028469
     8  H    0.002995   0.003575   0.000272   0.398698  -0.035856  -0.071540
     9  H   -0.022772   0.004098   0.001173   0.413543  -0.057389  -0.050927
    10  C   -0.408001   0.000083   0.091134  -0.141099  -0.064958   0.126718
    11  H    0.002186  -0.001286  -0.002254  -0.024970   0.004404  -0.063099
    12  C    0.657030   0.020401  -0.102443  -0.175256   0.039388  -0.181645
    13  C   -0.350330  -0.013664   0.049905  -0.009240  -0.000248  -0.022675
    14  H    0.054805   0.004829  -0.027953  -0.016444   0.001092  -0.027842
    15  O    0.001202   0.000316  -0.000682   0.005062  -0.000125   0.009685
    16  C   -0.157427  -0.000413   0.017338   0.064163  -0.002301  -0.014500
    17  C   -0.062544  -0.006298   0.008267   0.003566   0.000486   0.017556
    18  C    0.020150   0.001789  -0.002405  -0.003322  -0.000183  -0.003974
    19  O   -0.005390  -0.000442   0.001180  -0.001760   0.000032  -0.003872
    20  C   -0.006033  -0.001932  -0.002193   0.002099   0.000260   0.006211
    21  C    0.012023   0.001061  -0.002006  -0.000502  -0.000109   0.001131
    22  H   -0.001822  -0.000075   0.000245   0.000420  -0.000071   0.000150
    23  H    0.001459   0.001027   0.000382   0.002305  -0.000026   0.005190
    24  H   -0.000281  -0.000019   0.000033   0.000044   0.000001   0.000048
    25  C   -0.003545  -0.000318   0.000377  -0.000507  -0.000065  -0.000745
    26  H   -0.000117  -0.000009   0.000038   0.000006  -0.000001  -0.000035
    27  O   -0.000033  -0.000001   0.000009  -0.000001  -0.000001   0.000000
    28  C   -0.000026   0.000000   0.000006   0.000014  -0.000001   0.000009
    29  H    0.000003   0.000000   0.000000   0.000000   0.000000   0.000001
    30  H    0.000014   0.000001  -0.000004   0.000000   0.000000   0.000000
    31  H   -0.000004   0.000000   0.000000   0.000000   0.000000   0.000000
               7          8          9         10         11         12
     1  C    0.403115   0.002995  -0.022772  -0.408001   0.002186   0.657030
     2  H   -0.022084   0.003575   0.004098   0.000083  -0.001286   0.020401
     3  H   -0.045494   0.000272   0.001173   0.091134  -0.002254  -0.102443
     4  C    0.009650   0.398698   0.413543  -0.141099  -0.024970  -0.175256
     5  H    0.001101  -0.035856  -0.057389  -0.064958   0.004404   0.039388
     6  N   -0.028469  -0.071540  -0.050927   0.126718  -0.063099  -0.181645
     7  H    0.530889  -0.003981  -0.000544  -0.016636   0.001734   0.034661
     8  H   -0.003981   0.524343  -0.015603   0.065196  -0.004085  -0.046454
     9  H   -0.000544  -0.015603   0.554905   0.013419  -0.000763  -0.002447
    10  C   -0.016636   0.065196   0.013419  11.165410   0.386093  -7.710331
    11  H    0.001734  -0.004085  -0.000763   0.386093   0.457825  -0.049979
    12  C    0.034661  -0.046454  -0.002447  -7.710331  -0.049979  26.736558
    13  C   -0.034247   0.017987   0.003342   1.450787   0.081597  -4.788986
    14  H    0.008092  -0.001647  -0.001091  -0.386691   0.005191   1.059368
    15  O   -0.000344   0.000324   0.000062  -0.017822   0.014323  -0.098272
    16  C   -0.031173   0.009430   0.000855   1.606763   0.001082  -8.776160
    17  C    0.023024  -0.001150   0.000414   0.888047   0.004694  -2.098242
    18  C   -0.009296   0.001520   0.000185  -0.665450  -0.031108   0.904641
    19  O    0.002392   0.000113  -0.000051  -0.024824   0.001487  -0.011571
    20  C    0.005054  -0.000778   0.000180  -0.474410  -0.004947   0.729025
    21  C   -0.000474   0.000479  -0.000090   0.166299  -0.007425   0.216316
    22  H    0.000163   0.000192   0.000020   0.020559  -0.000844  -0.136062
    23  H   -0.004614   0.000148  -0.000085  -0.022551  -0.001871  -0.053004
    24  H    0.000024   0.000002   0.000002  -0.003191  -0.000135  -0.005003
    25  C    0.001553   0.000045   0.000034   0.044645   0.002573   0.053588
    26  H   -0.000018   0.000000   0.000001   0.000942   0.000070  -0.002404
    27  O    0.000004   0.000002   0.000000   0.000449  -0.000038  -0.006858
    28  C    0.000010   0.000000   0.000000   0.002446   0.000005  -0.015558
    29  H   -0.000003   0.000000   0.000000   0.000134  -0.000005  -0.000605
    30  H    0.000001   0.000000   0.000000  -0.000073  -0.000008   0.001784
    31  H    0.000001   0.000000   0.000000  -0.000078   0.000004  -0.000323
              13         14         15         16         17         18
     1  C   -0.350330   0.054805   0.001202  -0.157427  -0.062544   0.020150
     2  H   -0.013664   0.004829   0.000316  -0.000413  -0.006298   0.001789
     3  H    0.049905  -0.027953  -0.000682   0.017338   0.008267  -0.002405
     4  C   -0.009240  -0.016444   0.005062   0.064163   0.003566  -0.003322
     5  H   -0.000248   0.001092  -0.000125  -0.002301   0.000486  -0.000183
     6  N   -0.022675  -0.027842   0.009685  -0.014500   0.017556  -0.003974
     7  H   -0.034247   0.008092  -0.000344  -0.031173   0.023024  -0.009296
     8  H    0.017987  -0.001647   0.000324   0.009430  -0.001150   0.001520
     9  H    0.003342  -0.001091   0.000062   0.000855   0.000414   0.000185
    10  C    1.450787  -0.386691  -0.017822   1.606763   0.888047  -0.665450
    11  H    0.081597   0.005191   0.014323   0.001082   0.004694  -0.031108
    12  C   -4.788986   1.059368  -0.098272  -8.776160  -2.098242   0.904641
    13  C   13.254801  -0.144457   0.658493  -1.539193   1.130635  -3.250958
    14  H   -0.144457   0.599989  -0.000259  -0.181833  -0.257243   0.079762
    15  O    0.658493  -0.000259   8.125259  -0.510712  -0.132901   0.210142
    16  C   -1.539193  -0.181833  -0.510712  21.590161  -2.222693  -0.309093
    17  C    1.130635  -0.257243  -0.132901  -2.222693  19.427589  -5.941939
    18  C   -3.250958   0.079762   0.210142  -0.309093  -5.941939  16.586307
    19  O    0.100912   0.007657  -0.002757  -0.004660   0.412383  -0.017380
    20  C   -1.393133   0.053049   0.052856  -1.174493  -4.210745   4.075672
    21  C    0.850210   0.019844   0.026427  -4.228585   0.173173  -0.909705
    22  H   -0.134800  -0.006758  -0.009462   0.144626   0.142731   0.455976
    23  H   -0.073089  -0.011792  -0.001839  -0.050550   0.063248   0.023100
    24  H   -0.037983  -0.000717   0.000103  -0.083424  -0.105793   0.079508
    25  C    0.946924  -0.006142   0.005874  -0.046332  -0.292912  -4.730428
    26  H    0.012548  -0.000362   0.000346   0.121774  -0.037903  -0.108795
    27  O    0.013897  -0.000550  -0.000192  -0.045576   0.060203  -0.281610
    28  C   -0.020531  -0.000841  -0.001290  -0.030922   0.059041   0.141744
    29  H   -0.003446   0.000005  -0.000090  -0.022585   0.017057  -0.006271
    30  H    0.006210   0.000130  -0.000015  -0.008665  -0.011579   0.042690
    31  H   -0.001786  -0.000029  -0.000004   0.010340  -0.004229  -0.004759
              19         20         21         22         23         24
     1  C   -0.005390  -0.006033   0.012023  -0.001822   0.001459  -0.000281
     2  H   -0.000442  -0.001932   0.001061  -0.000075   0.001027  -0.000019
     3  H    0.001180  -0.002193  -0.002006   0.000245   0.000382   0.000033
     4  C   -0.001760   0.002099  -0.000502   0.000420   0.002305   0.000044
     5  H    0.000032   0.000260  -0.000109  -0.000071  -0.000026   0.000001
     6  N   -0.003872   0.006211   0.001131   0.000150   0.005190   0.000048
     7  H    0.002392   0.005054  -0.000474   0.000163  -0.004614   0.000024
     8  H    0.000113  -0.000778   0.000479   0.000192   0.000148   0.000002
     9  H   -0.000051   0.000180  -0.000090   0.000020  -0.000085   0.000002
    10  C   -0.024824  -0.474410   0.166299   0.020559  -0.022551  -0.003191
    11  H    0.001487  -0.004947  -0.007425  -0.000844  -0.001871  -0.000135
    12  C   -0.011571   0.729025   0.216316  -0.136062  -0.053004  -0.005003
    13  C    0.100912  -1.393133   0.850210  -0.134800  -0.073089  -0.037983
    14  H    0.007657   0.053049   0.019844  -0.006758  -0.011792  -0.000717
    15  O   -0.002757   0.052856   0.026427  -0.009462  -0.001839   0.000103
    16  C   -0.004660  -1.174493  -4.228585   0.144626  -0.050550  -0.083424
    17  C    0.412383  -4.210745   0.173173   0.142731   0.063248  -0.105793
    18  C   -0.017380   4.075672  -0.909705   0.455976   0.023100   0.079508
    19  O    8.022025  -0.393302  -0.031513  -0.000469   0.225891  -0.024954
    20  C   -0.393302  13.248447  -2.435642   0.014042   0.120489   0.504453
    21  C   -0.031513  -2.435642  12.744343  -0.071706   0.021164   0.042474
    22  H   -0.000469   0.014042  -0.071706   0.451026   0.001194   0.003123
    23  H    0.225891   0.120489   0.021164   0.001194   0.452326   0.003198
    24  H   -0.024954   0.504453   0.042474   0.003123   0.003198   0.483491
    25  C   -0.006293  -1.949953   0.064966  -0.132435  -0.016444  -0.074230
    26  H    0.001061  -0.118794  -0.178623  -0.005038  -0.000834  -0.021161
    27  O    0.000373   0.051872   0.026103  -0.019109   0.000181  -0.000486
    28  C   -0.001132  -0.228751   0.209985   0.008675   0.000305   0.005326
    29  H    0.000099   0.008522  -0.039892   0.000330   0.000164   0.000444
    30  H    0.000056   0.039467  -0.058814  -0.001202  -0.000055   0.000799
    31  H   -0.000048  -0.017245   0.067232   0.000609  -0.000033   0.000228
              25         26         27         28         29         30
     1  C   -0.003545  -0.000117  -0.000033  -0.000026   0.000003   0.000014
     2  H   -0.000318  -0.000009  -0.000001   0.000000   0.000000   0.000001
     3  H    0.000377   0.000038   0.000009   0.000006   0.000000  -0.000004
     4  C   -0.000507   0.000006  -0.000001   0.000014   0.000000   0.000000
     5  H   -0.000065  -0.000001  -0.000001  -0.000001   0.000000   0.000000
     6  N   -0.000745  -0.000035   0.000000   0.000009   0.000001   0.000000
     7  H    0.001553  -0.000018   0.000004   0.000010  -0.000003   0.000001
     8  H    0.000045   0.000000   0.000002   0.000000   0.000000   0.000000
     9  H    0.000034   0.000001   0.000000   0.000000   0.000000   0.000000
    10  C    0.044645   0.000942   0.000449   0.002446   0.000134  -0.000073
    11  H    0.002573   0.000070  -0.000038   0.000005  -0.000005  -0.000008
    12  C    0.053588  -0.002404  -0.006858  -0.015558  -0.000605   0.001784
    13  C    0.946924   0.012548   0.013897  -0.020531  -0.003446   0.006210
    14  H   -0.006142  -0.000362  -0.000550  -0.000841   0.000005   0.000130
    15  O    0.005874   0.000346  -0.000192  -0.001290  -0.000090  -0.000015
    16  C   -0.046332   0.121774  -0.045576  -0.030922  -0.022585  -0.008665
    17  C   -0.292912  -0.037903   0.060203   0.059041   0.017057  -0.011579
    18  C   -4.730428  -0.108795  -0.281610   0.141744  -0.006271   0.042690
    19  O   -0.006293   0.001061   0.000373  -0.001132   0.000099   0.000056
    20  C   -1.949953  -0.118794   0.051872  -0.228751   0.008522   0.039467
    21  C    0.064966  -0.178623   0.026103   0.209985  -0.039892  -0.058814
    22  H   -0.132435  -0.005038  -0.019109   0.008675   0.000330  -0.001202
    23  H   -0.016444  -0.000834   0.000181   0.000305   0.000164  -0.000055
    24  H   -0.074230  -0.021161  -0.000486   0.005326   0.000444   0.000799
    25  C   11.300100   0.658755   0.119318  -0.375342   0.020212  -0.026367
    26  H    0.658755   0.523832  -0.017468  -0.014451  -0.010929  -0.009221
    27  O    0.119318  -0.017468   8.190476   0.183962  -0.032605  -0.031607
    28  C   -0.375342  -0.014451   0.183962   5.252514   0.408530   0.397584
    29  H    0.020212  -0.010929  -0.032605   0.408530   0.588022  -0.069141
    30  H   -0.026367  -0.009221  -0.031607   0.397584  -0.069141   0.589117
    31  H   -0.004793   0.003162  -0.076204   0.399803  -0.022247  -0.023968
              31
     1  C   -0.000004
     2  H    0.000000
     3  H    0.000000
     4  C    0.000000
     5  H    0.000000
     6  N    0.000000
     7  H    0.000001
     8  H    0.000000
     9  H    0.000000
    10  C   -0.000078
    11  H    0.000004
    12  C   -0.000323
    13  C   -0.001786
    14  H   -0.000029
    15  O   -0.000004
    16  C    0.010340
    17  C   -0.004229
    18  C   -0.004759
    19  O   -0.000048
    20  C   -0.017245
    21  C    0.067232
    22  H    0.000609
    23  H   -0.000033
    24  H    0.000228
    25  C   -0.004793
    26  H    0.003162
    27  O   -0.076204
    28  C    0.399803
    29  H   -0.022247
    30  H   -0.023968
    31  H    0.469197
 Mulliken charges:
               1
     1  C   -0.413905
     2  H    0.180453
     3  H    0.189101
     4  C   -0.353372
     5  H    0.187999
     6  N    0.134817
     7  H    0.175906
     8  H    0.155773
     9  H    0.159528
    10  C   -0.093010
    11  H    0.229550
    12  C   -0.191158
    13  C   -0.759482
    14  H    0.178842
    15  O   -0.333707
    16  C    1.874761
    17  C   -1.045943
    18  C   -0.346510
    19  O   -0.245241
    20  C   -0.499347
    21  C   -0.678145
    22  H    0.275774
    23  H    0.315017
    24  H    0.234077
    25  C    0.447882
    26  H    0.203628
    27  O   -0.134510
    28  C   -0.381115
    29  H    0.164297
    30  H    0.162865
    31  H    0.205175
 Sum of Mulliken charges =   0.00000
 Mulliken charges with hydrogens summed into heavy atoms:
               1
     1  C    0.131554
     4  C    0.149928
     6  N    0.134817
    10  C    0.136540
    12  C   -0.012317
    13  C   -0.759482
    15  O   -0.333707
    16  C    1.874761
    17  C   -1.045943
    18  C   -0.070736
    19  O    0.069776
    20  C   -0.265270
    21  C   -0.678145
    25  C    0.651511
    27  O   -0.134510
    28  C    0.151223
 Electronic spatial extent (au):  <R**2>=           5498.5576
 Charge=              0.0000 electrons
 Dipole moment (field-independent basis, Debye):
    X=             -3.5708    Y=              2.1624    Z=              2.3613  Tot=              4.7961
 Quadrupole moment (field-independent basis, Debye-Ang):
   XX=            -49.5182   YY=           -102.2892   ZZ=            -98.3802
   XY=              3.0593   XZ=             -1.5275   YZ=             -2.1943
 Traceless Quadrupole moment (field-independent basis, Debye-Ang):
   XX=             33.8776   YY=            -18.8933   ZZ=            -14.9843
   XY=              3.0593   XZ=             -1.5275   YZ=             -2.1943
 Octapole moment (field-independent basis, Debye-Ang**2):
  XXX=            -48.2166  YYY=             -0.6250  ZZZ=              1.8003  XYY=             -8.2776
  XXY=             -7.4995  XXZ=             30.4579  XZZ=             -7.2898  YZZ=              2.7737
  YYZ=              8.7466  XYZ=             -3.1536
 Hexadecapole moment (field-independent basis, Debye-Ang**3):
 XXXX=          -4679.7670 YYYY=           -968.7304 ZZZZ=           -275.3556 XXXY=             33.7931
 XXXZ=              1.1243 YYYX=              0.6901 YYYZ=             -7.5539 ZZZX=              3.1779
 ZZZY=             -8.2573 XXYY=          -1090.7591 XXZZ=          -1061.1187 YYZZ=           -213.2933
 XXYZ=             16.4439 YYXZ=              3.3428 ZZXY=            -13.7140
 N-N= 1.050991329195D+03 E-N=-3.844694994761D+03  KE= 7.435762904266D+02
 1\1\GINC-NXN32\FOpt\RwB97XD TD-FC\6-311++G(d,p)\C12H15N1O3\BTX008\23-A
 ug-2017\0\\# wb97xd 6-311++g** opt td=(nstates=1,root=1)\\restarted op
 timization\\0,1\C,0.2947161654,-0.4795003686,8.6593277343\H,1.31801426
 77,-0.2478013594,8.9566334982\H,-0.3689306277,0.3136607294,9.035754469
 1\C,1.1105387287,0.2650470694,6.4610793599\H,0.8213781798,1.3225389802
 ,6.5464616278\N,0.2349593962,-0.6051434528,7.2208881893\H,0.0096492612
 ,-1.4216452053,9.1343288946\H,1.080685967,-0.0149525847,5.4068712396\H
 ,2.1387325134,0.1552651816,6.8128976406\C,-0.9381253689,-0.9995243741,
 6.6376295529\H,-0.9243927303,-0.9897561572,5.5538648729\C,-2.062429241
 1,-1.4264942732,7.3034652862\C,-3.2385314118,-1.8236457147,6.6262841\H
 ,-2.1209568924,-1.3990581347,8.383965742\O,-3.299068971,-1.6720152142,
 5.3269392744\C,-4.4680490105,-2.2987205416,7.2545121424\C,-4.447510900
 4,-3.1235242936,8.4043643408\C,-5.7042965787,-1.9686106103,6.683902355
 8\O,-3.2945395709,-3.5737197745,8.9750162633\C,-5.6412567559,-3.512692
 0822,8.9789190993\C,-6.8977515438,-2.3802707633,7.2665828598\H,-5.7462
 047389,-1.3482093575,5.7981786697\H,-2.5727963463,-3.4691375208,8.3466
 580958\H,-5.6039705745,-4.1418305608,9.8603424809\C,-6.8684234032,-3.1
 436806165,8.4291837943\H,-7.7778604935,-3.4754277854,8.912011788\O,-8.
 0332827358,-1.9780412671,6.6322738799\C,-9.27071232,-2.3719701998,7.17
 74625862\H,-9.3725221481,-3.46344839,7.1974055245\H,-9.4083525487,-1.9
 762884275,8.1908108833\H,-10.0346565621,-1.9535360299,6.5239985121\\Ve
 rsion=ES64L-G09RevD.01\State=1-A\HF=-746.6420919\RMSD=3.433e-09\RMSF=7
 .821e-06\Dipole=0.8312707,0.5481327,0.536077\PG=C01 [X(C12H15N1O3)]\\@


 ADVERTISING--  HE WHO HAS SOMETHING TO SELL AND GOES AND WHISPERS
                IN A WELL, IS NOT SO APT TO GET THE DOLLARS AS HE
                WHO CLIMBS A TREE AND HOLLERS.

                   -- FROM THE BACK OF A SUGAR PACKET
 Job cpu time:       1 days  5 hours 11 minutes 29.9 seconds.
 File lengths (MBytes):  RWF=    206 Int=      0 D2E=      0 Chk=     29 Scr=      1
 Normal termination of Gaussian 09 at Wed Aug 23 22:00:21 2017.
