
     Program PWSCF v.6.1 (svn rev. 13369) starts on 10Oct2017 at 16:38:40 

     This program is part of the open-source Quantum ESPRESSO suite
     for quantum simulation of materials; please cite
         "P. Giannozzi et al., J. Phys.:Condens. Matter 21 395502 (2009);
          URL http://www.quantum-espresso.org", 
     in publications or presentations arising from this work. More details at
     http://www.quantum-espresso.org/quote

     Parallel version (MPI), running on     1 processors
     Waiting for input...
     Reading input from standard input

     Current dimensions of program PWSCF are:
     Max number of different atomic species (ntypx) = 10
     Max number of k-points (npk) =  40000
     Max angular momentum in pseudopotentials (lmaxx) =  3
     Message from routine iosys:
     london is obsolete, use "vdw_corr='grimme-d2'" instead

     IMPORTANT: XC functional enforced from input :
     Exchange-correlation      = PBE ( 1  4  3  4 0 0)
     Any further DFT definition will be discarded
     Please, verify this is what you really want

               file C.pbe-rrkjus.UPF: wavefunction(s)  2S 2P renormalized
               file H.pbe-rrkjus.UPF: wavefunction(s)  1S renormalized
               file O.pbe-rrkjus.UPF: wavefunction(s)  2S renormalized
               file N.pbe-rrkjus.UPF: wavefunction(s)  2S renormalized

     -------------------------------------
     Parameters for Dispersion Correction:
     -------------------------------------
       atom      VdW radius       C_6     

        C          2.744         60.710
        H          1.892          4.857
        O          2.536         24.284
        N          2.640         42.670

     Subspace diagonalization in iterative solution of the eigenvalue problem:
     a serial algorithm will be used

 
     G-vector sticks info
     --------------------
     sticks:   dense  smooth     PW     G-vecs:    dense   smooth      PW
     Sum        3227    3227    911               152537   152537   22677
 


     bravais-lattice index     =            0
     lattice parameter (alat)  =      16.9391  a.u.
     unit-cell volume          =    6867.9197 (a.u.)^3
     number of atoms/cell      =          108
     number of atomic types    =            4
     number of electrons       =       296.00
     number of Kohn-Sham states=          148
     kinetic-energy cutoff     =      30.0000  Ry
     charge density cutoff     =     120.0000  Ry
     convergence threshold     =      1.0E-07
     mixing beta               =       0.7000
     number of iterations used =            8  plain     mixing
     Exchange-correlation      = PBE ( 1  4  3  4 0 0)
     nstep                     =           50


     celldm(1)=  16.939128  celldm(2)=   0.000000  celldm(3)=   0.000000
     celldm(4)=   0.000000  celldm(5)=   0.000000  celldm(6)=   0.000000

     crystal axes: (cart. coord. in units of alat)
               a(1) = (   1.000000   0.000000   0.000000 )  
               a(2) = (   0.000000   1.173609   0.000000 )  
               a(3) = (  -0.432282   0.000000   1.204006 )  

     reciprocal axes: (cart. coord. in units 2 pi/alat)
               b(1) = (  1.000000  0.000000  0.359037 )  
               b(2) = (  0.000000  0.852072  0.000000 )  
               b(3) = (  0.000000  0.000000  0.830561 )  


     PseudoPot. # 1 for C  read from file:
     /data/home/btx156/espresso/pseudo/C.pbe-rrkjus.UPF
     MD5 check sum: 00fb224312de0c5b6853bd333518df6f
     Pseudo is Ultrasoft, Zval =  4.0
     Generated by new atomic code, or converted to UPF format
     Using radial grid of  627 points,  4 beta functions with: 
                l(1) =   0
                l(2) =   0
                l(3) =   1
                l(4) =   1
     Q(r) pseudized with 0 coefficients 


     PseudoPot. # 2 for H  read from file:
     /data/home/btx156/espresso/pseudo/H.pbe-rrkjus.UPF
     MD5 check sum: 7cc9d459525c9a0585f487a71c3c9563
     Pseudo is Ultrasoft, Zval =  1.0
     Generated by new atomic code, or converted to UPF format
     Using radial grid of 1061 points,  2 beta functions with: 
                l(1) =   0
                l(2) =   0
     Q(r) pseudized with 0 coefficients 


     PseudoPot. # 3 for O  read from file:
     /data/home/btx156/espresso/pseudo/O.pbe-rrkjus.UPF
     MD5 check sum: 390ba29e75625707450f3bd3f0eb6be9
     Pseudo is Ultrasoft, Zval =  6.0
     Generated by new atomic code, or converted to UPF format
     Using radial grid of 1269 points,  4 beta functions with: 
                l(1) =   0
                l(2) =   0
                l(3) =   1
                l(4) =   1
     Q(r) pseudized with 0 coefficients 


     PseudoPot. # 4 for N  read from file:
     /data/home/btx156/espresso/pseudo/N.pbe-rrkjus.UPF
     MD5 check sum: 0c3fbe5807a93f9ba59d5a7019aa238b
     Pseudo is Ultrasoft, Zval =  5.0
     Generated by new atomic code, or converted to UPF format
     Using radial grid of 1257 points,  4 beta functions with: 
                l(1) =   0
                l(2) =   0
                l(3) =   1
                l(4) =   1
     Q(r) pseudized with 0 coefficients 


     atomic species   valence    mass     pseudopotential
        C              4.00    12.00000     C ( 1.00)
        H              1.00     1.00790     H ( 1.00)
        O              6.00    15.99940     O ( 1.00)
        N              5.00    14.00670     N ( 1.00)

      2 Sym. Ops., with inversion, found



   Cartesian axes

     site n.     atom                  positions (alat units)
         1           C   tau(   1) = (   0.0613037   0.2701281   0.3967612  )
         2           C   tau(   2) = (   0.5064141   0.9034812   0.8072443  )
         3           C   tau(   3) = (   0.2225757   0.8582196   0.2022712  )
         4           C   tau(   4) = (   0.3451421   0.3153897   1.0017344  )
         5           C   tau(   5) = (  -0.0835531   0.2325498   0.4669536  )
         6           C   tau(   6) = (   0.6512708   0.9410596   0.7370518  )
         7           C   tau(   7) = (   0.3676998   0.8210808   0.1315923  )
         8           C   tau(   8) = (   0.2000180   0.3525287   1.0724132  )
         9           C   tau(   9) = (   0.1601026   0.3699936   0.4723715  )
        10           C   tau(  10) = (   0.4076152   0.8036158   0.7316340  )
        11           C   tau(  11) = (   0.1225237   0.9575818   0.1275852  )
        12           C   tau(  12) = (   0.4451940   0.2160275   1.0764204  )
        13           C   tau(  13) = (   0.8089381   0.1441649   0.3900644  )
        14           C   tau(  14) = (  -0.2412203   1.0294444   0.8139411  )
        15           C   tau(  15) = (   0.4756681   0.7327065   0.2079397  )
        16           C   tau(  16) = (   0.0920497   0.4409028   0.9960658  )
        17           C   tau(  17) = (   0.1082676   0.2107187   0.2588936  )
        18           C   tau(  18) = (   0.4594502   0.9628906   0.9451119  )
        19           C   tau(  19) = (   0.1761870   0.7978123   0.3396262  )
        20           C   tau(  20) = (   0.3915307   0.3757970   0.8643793  )
        21           C   tau(  21) = (   0.2987902   0.4063725   0.4093640  )
        22           C   tau(  22) = (   0.2689276   0.7672368   0.7946415  )
        23           C   tau(  23) = (  -0.0163962   0.9930572   0.1910279  )
        24           C   tau(  24) = (   0.5841140   0.1805522   1.0129777  )
        25           C   tau(  25) = (   0.6763467   0.1044878   0.4582063  )
        26           C   tau(  26) = (  -0.1086289   1.0691215   0.7457992  )
        27           C   tau(  27) = (   0.6082600   0.6934212   0.1394517  )
        28           C   tau(  28) = (  -0.0405423   0.4801881   1.0645538  )
        29           C   tau(  29) = (   0.3412222   0.3446873   0.2737886  )
        30           C   tau(  30) = (   0.2264956   0.8289221   0.9302170  )
        31           C   tau(  31) = (  -0.0584468   0.9300941   0.3261417  )
        32           C   tau(  32) = (   0.6261646   0.2435152   0.8778639  )
        33           C   tau(  33) = (   0.5656515   1.1549126   0.2418883  )
        34           C   tau(  34) = (   0.0020663   0.0186967   0.9621172  )
        35           C   tau(  35) = (   0.7191135   0.5679604   0.3545741  )
        36           C   tau(  36) = (  -0.1513957   0.6056489   0.8494314  )
        37           C   tau(  37) = (   0.2460880   0.2464220   0.1979032  )
        38           C   tau(  38) = (   0.3216298   0.9271874   1.0061024  )
        39           C   tau(  39) = (   0.0379840   0.8320270   0.4007726  )
        40           C   tau(  40) = (   0.5297338   0.3415824   0.8032330  )
        41           C   tau(  41) = (   0.4314914   1.1630312   0.4828697  )
        42           C   tau(  42) = (   0.1362264   0.0105782   0.7211359  )
        43           C   tau(  43) = (   0.8528299   0.5781927   0.1138786  )
        44           C   tau(  44) = (  -0.2851121   0.5954167   1.0901269  )
        45           O   tau(  45) = (  -0.1085369   0.2843835   0.5991295  )
        46           O   tau(  46) = (   0.6762553   0.8892260   0.6048761  )
        47           O   tau(  47) = (   0.3923579   0.8727027  -0.0004960  )
        48           O   tau(  48) = (   0.1753595   0.3009067   1.2045015  )
        49           O   tau(  49) = (   0.1221003   0.4308719   0.6045453  )
        50           O   tau(  50) = (   0.4456175   0.7427374   0.5994602  )
        51           O   tau(  51) = (  -0.2722062   1.0181363   1.1989493  )
        52           O   tau(  52) = (   0.8399239   0.1554730   0.0050563  )
        53           H   tau(  53) = (   0.0189587   0.3786400   0.6270424  )
        54           H   tau(  54) = (   0.5487591   0.7949694   0.5769631  )
        55           H   tau(  55) = (  -0.1695319   0.9660034   1.1757696  )
        56           H   tau(  56) = (   0.7372497   0.2076060   0.0282360  )
        57           H   tau(  57) = (   0.8320315   0.1084603   0.2767650  )
        58           H   tau(  58) = (  -0.2643137   1.0651491   0.9272405  )
        59           H   tau(  59) = (   0.4528383   0.6966164   0.3212030  )
        60           H   tau(  60) = (   0.1148795   0.4769929   0.8828025  )
        61           H   tau(  61) = (   0.0357424   0.1348490   0.1981046  )
        62           H   tau(  62) = (   0.5319754   1.0387603   1.0059009  )
        63           H   tau(  63) = (   0.2492865   0.7224862   0.4003641  )
        64           H   tau(  64) = (   0.3184313   0.4511231   0.8036414  )
        65           H   tau(  65) = (   0.3702055   0.4841326   0.4699199  )
        66           H   tau(  66) = (   0.1975123   0.6894767   0.7340856  )
        67           H   tau(  67) = (   0.9117524   1.0707812   0.1309500  )
        68           H   tau(  68) = (  -0.3440347   0.1028281   1.0730555  )
        69           H   tau(  69) = (   0.6588956   0.1370191   0.5742684  )
        70           H   tau(  70) = (  -0.0911778   1.0365902   0.6297371  )
        71           H   tau(  71) = (   0.6257977   0.7267062   0.0236301  )
        72           H   tau(  72) = (  -0.0580800   0.4469032   1.1803754  )
        73           H   tau(  73) = (   0.4493539   0.3720022   0.2249095  )
        74           H   tau(  74) = (   0.1183639   0.8016072   0.9790960  )
        75           H   tau(  75) = (   0.8335095   0.9564631   0.3758523  )
        76           H   tau(  76) = (  -0.2657917   0.2171462   0.8281532  )
        77           H   tau(  77) = (   0.6093469   0.0706945   0.1709500  )
        78           H   tau(  78) = (  -0.0416291   1.1029148   1.0330555  )
        79           H   tau(  79) = (   0.6750517   0.6564578   0.4265323  )
        80           H   tau(  80) = (  -0.1073339   0.5171515   0.7774732  )
        81           H   tau(  81) = (   0.4514883   1.1293962   0.2065546  )
        82           H   tau(  82) = (   0.1162295   0.0442131   0.9974509  )
        83           H   tau(  83) = (   0.8334448   0.5425513   0.3894732  )
        84           H   tau(  84) = (  -0.2657270   0.6310581   0.8145323  )
        85           H   tau(  85) = (   0.6342298   1.0539542   0.2278663  )
        86           H   tau(  86) = (  -0.0665119   0.1196551   0.9761392  )
        87           H   tau(  87) = (   0.6510541   0.4665226   0.3678327  )
        88           H   tau(  88) = (  -0.0833363   0.7070868   0.8361728  )
        89           H   tau(  89) = (   0.2806297   0.1979640   0.0918913  )
        90           H   tau(  90) = (   0.2870881   0.9756453   1.1121143  )
        91           H   tau(  91) = (   0.0041405   0.7823873   0.5064890  )
        92           H   tau(  92) = (   0.5635773   0.3912221   0.6975165  )
        93           H   tau(  93) = (   0.4439151   0.0295128   0.5976751  )
        94           H   tau(  94) = (   0.1238027   1.1440965   0.6063304  )
        95           H   tau(  95) = (   0.8402988   0.6182799  -0.0008877  )
        96           H   tau(  96) = (  -0.2725810   0.5553294   1.2048932  )
        97           H   tau(  97) = (   0.4169637   1.0411335   0.4841555  )
        98           H   tau(  98) = (   0.1507541   0.1324759   0.7198500  )
        99           H   tau(  99) = (   0.8677845   0.4563233   0.1126603  )
       100           H   tau( 100) = (  -0.3000667   0.7172861   1.0913452  )
       101           H   tau( 101) = (   0.3325025   0.0412425   0.4317404  )
       102           H   tau( 102) = (   0.2352153   1.1323668   0.7722651  )
       103           H   tau( 103) = (  -0.0483398   0.6301790   0.1651506  )
       104           H   tau( 104) = (   0.6160576   0.5434304   1.0388549  )
       105           N   tau( 105) = (   0.5636218   0.0289394   0.3970661  )
       106           N   tau( 106) = (   0.0040959   1.1446700   0.8069394  )
       107           N   tau( 107) = (   0.7208045   0.6171440   0.1998892  )
       108           N   tau( 108) = (  -0.1530867   0.5564653   1.0041164  )

     number of k points=   112

     Number of k-points >= 100: set verbosity='high' to print them.

     Dense  grid:   152537 G-vectors     FFT dimensions: (  60,  72,  75)

     Estimated max dynamical RAM per process >    5470.19MB

     Initial potential from superposition of free atoms

     starting charge  290.99502, renormalised to  296.00000
     Starting wfc are  276 randomized atomic wfcs

     total cpu time spent up to now is      461.1 secs

     per-process dynamical memory:  1090.9 Mb

     Self-consistent Calculation

     iteration #  1     ecut=    30.00 Ry     beta=0.70
     Davidson diagonalization with overlap
     ethr =  1.00E-02,  avg # of iterations =  2.0

     total cpu time spent up to now is     1378.2 secs

     total energy              =    -892.33466270 Ry
     Harris-Foulkes estimate   =    -904.59279981 Ry
     estimated scf accuracy    <      18.95257994 Ry

     iteration #  2     ecut=    30.00 Ry     beta=0.70
     Davidson diagonalization with overlap
     ethr =  6.40E-03,  avg # of iterations =  4.0

     total cpu time spent up to now is     2377.3 secs

     total energy              =    -893.39651631 Ry
     Harris-Foulkes estimate   =    -900.68893111 Ry
     estimated scf accuracy    <      13.45655591 Ry

     iteration #  3     ecut=    30.00 Ry     beta=0.70
     Davidson diagonalization with overlap
     ethr =  4.55E-03,  avg # of iterations =  4.0

     total cpu time spent up to now is     3331.6 secs

     total energy              =    -896.72523754 Ry
     Harris-Foulkes estimate   =    -898.21127167 Ry
     estimated scf accuracy    <       3.18881345 Ry

     iteration #  4     ecut=    30.00 Ry     beta=0.70
     Davidson diagonalization with overlap
     ethr =  1.08E-03,  avg # of iterations =  4.0

     total cpu time spent up to now is     4265.1 secs

     total energy              =    -897.34648181 Ry
     Harris-Foulkes estimate   =    -897.55171826 Ry
     estimated scf accuracy    <       0.43069983 Ry

     iteration #  5     ecut=    30.00 Ry     beta=0.70
     Davidson diagonalization with overlap
     ethr =  1.46E-04,  avg # of iterations =  4.0

     total cpu time spent up to now is     5225.0 secs

     total energy              =    -897.43536731 Ry
     Harris-Foulkes estimate   =    -897.45493098 Ry
     estimated scf accuracy    <       0.03990412 Ry

     iteration #  6     ecut=    30.00 Ry     beta=0.70
     Davidson diagonalization with overlap
     ethr =  1.35E-05,  avg # of iterations =  4.0

     total cpu time spent up to now is     6179.3 secs

     total energy              =    -897.44530107 Ry
     Harris-Foulkes estimate   =    -897.44806578 Ry
     estimated scf accuracy    <       0.00640250 Ry

     iteration #  7     ecut=    30.00 Ry     beta=0.70
     Davidson diagonalization with overlap
     ethr =  2.16E-06,  avg # of iterations =  4.0

     total cpu time spent up to now is     7110.6 secs

     total energy              =    -897.44652521 Ry
     Harris-Foulkes estimate   =    -897.44702684 Ry
     estimated scf accuracy    <       0.00109751 Ry

     iteration #  8     ecut=    30.00 Ry     beta=0.70
     Davidson diagonalization with overlap
     ethr =  3.71E-07,  avg # of iterations =  4.0

     total cpu time spent up to now is     8070.0 secs

     total energy              =    -897.44675392 Ry
     Harris-Foulkes estimate   =    -897.44690465 Ry
     estimated scf accuracy    <       0.00035098 Ry

     iteration #  9     ecut=    30.00 Ry     beta=0.70
     Davidson diagonalization with overlap
     ethr =  1.19E-07,  avg # of iterations =  4.0

     total cpu time spent up to now is     8955.4 secs

     total energy              =    -897.44682479 Ry
     Harris-Foulkes estimate   =    -897.44685917 Ry
     estimated scf accuracy    <       0.00008485 Ry

     iteration # 10     ecut=    30.00 Ry     beta=0.70
     Davidson diagonalization with overlap
     ethr =  2.87E-08,  avg # of iterations =  4.0

     total cpu time spent up to now is     9800.0 secs

     total energy              =    -897.44684048 Ry
     Harris-Foulkes estimate   =    -897.44684319 Ry
     estimated scf accuracy    <       0.00000588 Ry

     iteration # 11     ecut=    30.00 Ry     beta=0.70
     Davidson diagonalization with overlap
     ethr =  1.99E-09,  avg # of iterations =  3.7

     total cpu time spent up to now is    10764.9 secs

     total energy              =    -897.44684206 Ry
     Harris-Foulkes estimate   =    -897.44684236 Ry
     estimated scf accuracy    <       0.00000077 Ry

     iteration # 12     ecut=    30.00 Ry     beta=0.70
     Davidson diagonalization with overlap
     ethr =  2.59E-10,  avg # of iterations =  4.0

     total cpu time spent up to now is    11722.3 secs

     total energy              =    -897.44684223 Ry
     Harris-Foulkes estimate   =    -897.44684227 Ry
     estimated scf accuracy    <       0.00000011 Ry

     iteration # 13     ecut=    30.00 Ry     beta=0.70
     Davidson diagonalization with overlap
     ethr =  3.68E-11,  avg # of iterations =  4.0

     total cpu time spent up to now is    12668.2 secs

     End of self-consistent calculation

     Number of k-points >= 100: set verbosity='high' to print the bands.

     highest occupied level (ev):     0.9792

!    total energy              =    -897.44684224 Ry
     Harris-Foulkes estimate   =    -897.44684226 Ry
     estimated scf accuracy    <       0.00000002 Ry

     The total energy is the sum of the following terms:

     one-electron contribution =    -719.21649259 Ry
     hartree contribution      =     459.56173773 Ry
     xc contribution           =    -267.28045808 Ry
     ewald contribution        =    -370.05272634 Ry
     Dispersion Correction     =      -0.45890297 Ry

     convergence has been achieved in  13 iterations

     Forces acting on atoms (cartesian axes, Ry/au):

     atom    1 type  1   force =     0.00031364   -0.00022850   -0.00010553
     atom    2 type  1   force =    -0.00031364    0.00022850    0.00010553
     atom    3 type  1   force =    -0.00018446   -0.00047459    0.00054296
     atom    4 type  1   force =     0.00018446    0.00047459   -0.00054296
     atom    5 type  1   force =     0.00031064    0.00060428    0.00050422
     atom    6 type  1   force =    -0.00031064   -0.00060428   -0.00050422
     atom    7 type  1   force =    -0.00018855    0.00067239   -0.00059185
     atom    8 type  1   force =     0.00018855   -0.00067239    0.00059185
     atom    9 type  1   force =     0.00054694    0.00003863   -0.00069500
     atom   10 type  1   force =    -0.00054694   -0.00003863    0.00069500
     atom   11 type  1   force =    -0.00016779   -0.00002940    0.00037664
     atom   12 type  1   force =     0.00016779    0.00002940   -0.00037664
     atom   13 type  1   force =     0.00006627   -0.00009430   -0.00026672
     atom   14 type  1   force =    -0.00006627    0.00009430    0.00026672
     atom   15 type  1   force =     0.00009029   -0.00024730    0.00050974
     atom   16 type  1   force =    -0.00009029    0.00024730   -0.00050974
     atom   17 type  1   force =     0.00018093   -0.00008074   -0.00026791
     atom   18 type  1   force =    -0.00018093    0.00008074    0.00026791
     atom   19 type  1   force =     0.00003804    0.00017497   -0.00007167
     atom   20 type  1   force =    -0.00003804   -0.00017497    0.00007167
     atom   21 type  1   force =     0.00001769   -0.00008195    0.00007337
     atom   22 type  1   force =    -0.00001769    0.00008195   -0.00007337
     atom   23 type  1   force =     0.00022572    0.00008191   -0.00030449
     atom   24 type  1   force =    -0.00022572   -0.00008191    0.00030449
     atom   25 type  1   force =    -0.00001221    0.00000637    0.00002214
     atom   26 type  1   force =     0.00001221   -0.00000637   -0.00002214
     atom   27 type  1   force =    -0.00008581    0.00023573   -0.00003805
     atom   28 type  1   force =     0.00008581   -0.00023573    0.00003805
     atom   29 type  1   force =     0.00005531    0.00040212    0.00033530
     atom   30 type  1   force =    -0.00005531   -0.00040212   -0.00033530
     atom   31 type  1   force =     0.00023658    0.00053494   -0.00053006
     atom   32 type  1   force =    -0.00023658   -0.00053494    0.00053006
     atom   33 type  1   force =    -0.00022586   -0.00030589   -0.00038810
     atom   34 type  1   force =     0.00022586    0.00030589    0.00038810
     atom   35 type  1   force =     0.00031607   -0.00013579    0.00019866
     atom   36 type  1   force =    -0.00031607    0.00013579   -0.00019866
     atom   37 type  1   force =     0.00039159   -0.00000202   -0.00016069
     atom   38 type  1   force =    -0.00039159    0.00000202    0.00016069
     atom   39 type  1   force =     0.00003807   -0.00030693    0.00048168
     atom   40 type  1   force =    -0.00003807    0.00030693   -0.00048168
     atom   41 type  1   force =     0.00022050    0.00005135    0.00031621
     atom   42 type  1   force =    -0.00022050   -0.00005135   -0.00031621
     atom   43 type  1   force =    -0.00015235    0.00025676   -0.00045738
     atom   44 type  1   force =     0.00015235   -0.00025676    0.00045738
     atom   45 type  3   force =     0.00012986    0.00015256    0.00013925
     atom   46 type  3   force =    -0.00012986   -0.00015256   -0.00013925
     atom   47 type  3   force =    -0.00011734    0.00014431    0.00010420
     atom   48 type  3   force =     0.00011734   -0.00014431   -0.00010420
     atom   49 type  3   force =    -0.00006317   -0.00028813   -0.00052482
     atom   50 type  3   force =     0.00006317    0.00028813    0.00052482
     atom   51 type  3   force =     0.00032673   -0.00023802    0.00044721
     atom   52 type  3   force =    -0.00032673    0.00023802   -0.00044721
     atom   53 type  2   force =     0.00011857   -0.00026613   -0.00006343
     atom   54 type  2   force =    -0.00011857    0.00026613    0.00006343
     atom   55 type  2   force =     0.00059397    0.00014262    0.00056033
     atom   56 type  2   force =    -0.00059397   -0.00014262   -0.00056033
     atom   57 type  2   force =     0.00016659    0.00025720   -0.00021009
     atom   58 type  2   force =    -0.00016659   -0.00025720    0.00021009
     atom   59 type  2   force =     0.00012685    0.00004084    0.00042936
     atom   60 type  2   force =    -0.00012685   -0.00004084   -0.00042936
     atom   61 type  2   force =    -0.00004937   -0.00012267   -0.00001581
     atom   62 type  2   force =     0.00004937    0.00012267    0.00001581
     atom   63 type  2   force =     0.00025718   -0.00067597    0.00022428
     atom   64 type  2   force =    -0.00025718    0.00067597   -0.00022428
     atom   65 type  2   force =     0.00030083   -0.00039235    0.00000792
     atom   66 type  2   force =    -0.00030083    0.00039235   -0.00000792
     atom   67 type  2   force =    -0.00007277   -0.00047605   -0.00016318
     atom   68 type  2   force =     0.00007277    0.00047605    0.00016318
     atom   69 type  2   force =     0.00036245    0.00027086    0.00037749
     atom   70 type  2   force =    -0.00036245   -0.00027086   -0.00037749
     atom   71 type  2   force =    -0.00056881    0.00022534   -0.00030420
     atom   72 type  2   force =     0.00056881   -0.00022534    0.00030420
     atom   73 type  2   force =    -0.00047219   -0.00006123   -0.00026464
     atom   74 type  2   force =     0.00047219    0.00006123    0.00026464
     atom   75 type  2   force =     0.00097279   -0.00023684   -0.00025872
     atom   76 type  2   force =    -0.00097279    0.00023684    0.00025872
     atom   77 type  2   force =     0.00000632    0.00022653   -0.00022467
     atom   78 type  2   force =    -0.00000632   -0.00022653    0.00022467
     atom   79 type  2   force =    -0.00015513    0.00018535    0.00021819
     atom   80 type  2   force =     0.00015513   -0.00018535   -0.00021819
     atom   81 type  2   force =    -0.00016547   -0.00019584    0.00032275
     atom   82 type  2   force =     0.00016547    0.00019584   -0.00032275
     atom   83 type  2   force =     0.00015249    0.00001829   -0.00020187
     atom   84 type  2   force =    -0.00015249   -0.00001829    0.00020187
     atom   85 type  2   force =    -0.00001734   -0.00012446   -0.00027339
     atom   86 type  2   force =     0.00001734    0.00012446    0.00027339
     atom   87 type  2   force =    -0.00001854    0.00013054   -0.00011786
     atom   88 type  2   force =     0.00001854   -0.00013054    0.00011786
     atom   89 type  2   force =    -0.00025637    0.00009512    0.00019876
     atom   90 type  2   force =     0.00025637   -0.00009512   -0.00019876
     atom   91 type  2   force =     0.00033163    0.00030728   -0.00019774
     atom   92 type  2   force =    -0.00033163   -0.00030728    0.00019774
     atom   93 type  2   force =    -0.00014049   -0.00021612    0.00020762
     atom   94 type  2   force =     0.00014049    0.00021612   -0.00020762
     atom   95 type  2   force =    -0.00000143   -0.00002317   -0.00022332
     atom   96 type  2   force =     0.00000143    0.00002317    0.00022332
     atom   97 type  2   force =    -0.00002173    0.00021738    0.00010711
     atom   98 type  2   force =     0.00002173   -0.00021738   -0.00010711
     atom   99 type  2   force =    -0.00010327    0.00049080   -0.00030315
     atom  100 type  2   force =     0.00010327   -0.00049080    0.00030315
     atom  101 type  2   force =     0.00016920   -0.00022622    0.00004965
     atom  102 type  2   force =    -0.00016920    0.00022622   -0.00004965
     atom  103 type  2   force =    -0.00005810   -0.00010880   -0.00036942
     atom  104 type  2   force =     0.00005810    0.00010880    0.00036942
     atom  105 type  4   force =     0.00017857   -0.00014373    0.00009554
     atom  106 type  4   force =    -0.00017857    0.00014373   -0.00009554
     atom  107 type  4   force =     0.00007977    0.00020053   -0.00001018
     atom  108 type  4   force =    -0.00007977   -0.00020053    0.00001018

     Total force =     0.005171     Total SCF correction =     0.000287

     BFGS Geometry Optimization

     bfgs converged in   1 scf cycles and   0 bfgs steps
     (criteria: energy <  1.0E-04 Ry, force <  1.0E-03 Ry/Bohr)

     End of BFGS Geometry Optimization

     Final energy   =    -897.4468422445 Ry
Begin final coordinates

ATOMIC_POSITIONS (angstrom)
C        0.549514072   2.421374300   3.556488556
C        4.539395309   8.098625306   7.235976713
C        1.995123976   7.692909531   1.813118329
C        3.093784921   2.827090184   8.979347371
C       -0.748953055   2.084530153   4.185679295
C        5.837861878   8.435470498   6.606785186
C        3.295987872   7.360003999   1.179567445
C        1.792921157   3.159996564   9.612898236
C        1.435127685   3.316548346   4.234244054
C        3.653781311   7.203451509   6.558221175
C        1.098278396   8.583572493   1.143648551
C        3.990630383   1.936427193   9.648817413
C        7.251159317   1.292265353   3.496459829
C       -2.162250183   9.227734282   7.296005362
C        4.263793700   6.567835059   1.863929872
C        0.825115144   3.952164761   8.928535319
C        0.970488976   1.888840398   2.320670809
C        4.118420029   8.631159433   8.471794366
C        1.579305449   7.151430100   3.044341741
C        3.509603411   3.368569674   7.748123897
C        2.678295717   3.642642044   3.669456995
C        2.410613303   6.877357815   7.123008242
C       -0.146972007   8.901566500   1.712336134
C        5.235880891   1.618433562   9.080129731
C        6.062637098   0.936608152   4.107269838
C       -0.973728107   9.583391721   6.685195120
C        5.452321670   6.215689493   1.250017266
C       -0.363412782   4.304310462   9.542447915
C        3.058647993   3.089707882   2.454185946
C        2.030261315   7.430292042   8.338279347
C       -0.523905642   8.337177928   2.923469041
C        5.612814294   2.182821823   7.868996545
C        5.070386785  10.352406118   2.168238758
C        0.018522303   0.167593817   8.624226233
C        6.445990140   5.091083700   3.178331724
C       -1.357081047   5.428916303   7.614133350
C        2.205883415   2.208877393   1.773964591
C        2.883025587   8.311122744   9.018500850
C        0.340480734   7.458123752   3.592445250
C        4.748428287   3.061876449   7.200020463
C        3.867803013  10.425179369   4.328347219
C        1.221106058   0.094820593   6.464117963
C        7.644597258   5.182803959   1.020785270
C       -2.555688266   5.337196038   9.771679755
O       -0.972903437   2.549156506   5.370477269
O        6.061817752   7.970844084   5.421988369
O        3.517018292   7.822732614  -0.004446000
O        1.571887794   2.697267362  10.796910898
O        1.094482805   3.862249908   5.419023583
O        3.994426103   6.657749864   5.373441695
O       -2.440001948   9.126370458  10.747142584
O        7.528910428   1.393629389   0.045323519
H        0.169941586   3.394053387   5.620683299
H        4.918967482   7.125947124   5.171782502
H       -1.519650433   8.659061474  10.539363878
H        6.608558937   1.860938778   0.253101860
H        7.458164154   0.972216259   2.480866388
H       -2.369254956   9.547783673   8.311598699
H        4.059151831   6.244330595   2.879199549
H        1.029757307   4.275669292   7.913265749
H        0.320387428   1.208759676   1.775770016
H        4.768521602   9.311240187   9.016695171
H        2.234554546   6.476222313   3.588784189
H        2.854354535   4.043777674   7.203681399
H        3.318448619   4.339668349   4.212268353
H        1.770460508   6.180331411   6.580196848
H        8.172766910   9.598269321   1.173809861
H       -3.083857972   0.921730527   9.618655670
H        5.906208936   1.228211951   5.147627288
H       -0.817299717   9.291787980   5.644837668
H        5.609526031   6.514049142   0.211815247
H       -0.520617240   4.005950856  10.580649940
H        4.027918910   3.334553184   2.016044194
H        1.060990325   7.185446798   8.776420907
H        7.471412595   8.573544642   3.369065174
H       -2.382503865   1.946455351   7.423400428
H        5.462063882   0.633691703   1.532361864
H       -0.373154787   9.886308289   9.260103205
H        6.051028603   5.884356819   3.823350709
H       -0.962119508   4.635643200   6.969114335
H        4.047050825  10.123682585   1.851514446
H        1.041858258   0.396317353   8.940950572
H        7.470832773   4.863321278   3.491160175
H       -2.381923624   5.656678772   7.301304769
H        5.685108987   9.447435276   2.042547861
H       -0.596199743   1.072564729   8.749917261
H        5.835918911   4.181815081   3.297179141
H       -0.747009719   6.338184877   7.495286019
H        2.515508791   1.774510058   0.823695150
H        2.573400127   8.745489977   9.968770332
H        0.037114536   7.013163179   4.540066596
H        5.051794436   3.506836797   6.252398968
H        3.979166279   0.264547122   5.357440005
H        1.109743070  10.255452849   5.435025148
H        7.532271069   5.542138068  -0.007956813
H       -2.443362018   4.977861965  10.800421845
H        3.737579118   9.332512771   4.339873226
H        1.351330031   1.187487179   6.452591883
H        7.778647262   4.090390784   1.009864843
H       -2.689738273   6.429609207   9.782600171
H        2.980486267   0.369689750   3.870035045
H        2.108422799  10.150310337   6.922430271
H       -0.433307989   5.648798673   1.480377021
H        5.522216942   4.871201334   9.312088089
N        5.052193609   0.259406655   3.559221547
N        0.036715271  10.260593372   7.233243401
N        6.461147693   5.531955923   1.791766516
N       -1.372238621   4.988044202   9.000698587
End final coordinates



     Writing output data file 2hp_1_666.save
 
     init_run     :    454.37s CPU    460.27s WALL (       1 calls)
     electrons    :  12044.79s CPU  12207.31s WALL (       1 calls)
     forces       :    157.75s CPU    158.00s WALL (       1 calls)

     Called by init_run:
     wfcinit      :    450.63s CPU    456.01s WALL (       1 calls)
     potinit      :      1.43s CPU      1.44s WALL (       1 calls)

     Called by electrons:
     c_bands      :  10881.64s CPU  11040.83s WALL (      13 calls)
     sum_band     :   1151.91s CPU   1153.78s WALL (      13 calls)
     v_of_rho     :      1.84s CPU      1.85s WALL (      14 calls)
     newd         :      3.65s CPU      5.12s WALL (      14 calls)
     mix_rho      :      0.44s CPU      0.48s WALL (      13 calls)

     Called by c_bands:
     init_us_2    :    130.11s CPU    130.17s WALL (    3136 calls)
     cegterg      :  10444.21s CPU  10602.91s WALL (    1456 calls)

     Called by sum_band:
     sum_band:bec :      0.70s CPU      0.69s WALL (    1456 calls)
     addusdens    :      4.02s CPU      5.32s WALL (      13 calls)

     Called by *egterg:
     h_psi        :   6335.24s CPU   6340.63s WALL (    7135 calls)
     s_psi        :   1427.47s CPU   1427.49s WALL (    7135 calls)
     g_psi        :     52.55s CPU     52.56s WALL (    5567 calls)
     cdiaghg      :    367.24s CPU    367.62s WALL (    7023 calls)

     Called by h_psi:
     h_psi:pot    :   6268.35s CPU   6271.88s WALL (    7135 calls)
     h_psi:calbec :   1293.87s CPU   1294.13s WALL (    7135 calls)
     vloc_psi     :   3547.96s CPU   3551.17s WALL (    7135 calls)
     add_vuspsi   :   1426.51s CPU   1426.55s WALL (    7135 calls)

     General routines
     calbec       :   1837.65s CPU   1837.91s WALL (    9039 calls)
     fft          :      0.64s CPU      0.94s WALL (     183 calls)
     fftw         :   3626.43s CPU   3629.54s WALL ( 1518692 calls)
     davcio       :      0.14s CPU      3.88s WALL (     112 calls)
 
     Parallel routines
     fft_scatter  :    396.99s CPU    397.55s WALL ( 1518875 calls)
 
     PWSCF        :     3h30m CPU        3h33m WALL

 
   This run was terminated on:  20:12:32  10Oct2017            

=------------------------------------------------------------------------------=
   JOB DONE.
=------------------------------------------------------------------------------=
