
     Program PWSCF v.6.1 (svn rev. 13369) starts on  4Oct2017 at 17:59:56 

     This program is part of the open-source Quantum ESPRESSO suite
     for quantum simulation of materials; please cite
         "P. Giannozzi et al., J. Phys.:Condens. Matter 21 395502 (2009);
          URL http://www.quantum-espresso.org", 
     in publications or presentations arising from this work. More details at
     http://www.quantum-espresso.org/quote

     Parallel version (MPI), running on     1 processors
     Waiting for input...
     Reading input from standard input

     Current dimensions of program PWSCF are:
     Max number of different atomic species (ntypx) = 10
     Max number of k-points (npk) =  40000
     Max angular momentum in pseudopotentials (lmaxx) =  3
     Message from routine iosys:
     london is obsolete, use "vdw_corr='grimme-d2'" instead

     IMPORTANT: XC functional enforced from input :
     Exchange-correlation      = PBE ( 1  4  3  4 0 0)
     Any further DFT definition will be discarded
     Please, verify this is what you really want

               file C.pbe-rrkjus.UPF: wavefunction(s)  2S 2P renormalized
               file H.pbe-rrkjus.UPF: wavefunction(s)  1S renormalized
               file O.pbe-rrkjus.UPF: wavefunction(s)  2S renormalized
               file N.pbe-rrkjus.UPF: wavefunction(s)  2S renormalized

     -------------------------------------
     Parameters for Dispersion Correction:
     -------------------------------------
       atom      VdW radius       C_6     

        C          2.744         60.710
        H          1.892          4.857
        O          2.536         24.284
        N          2.640         42.670

     Subspace diagonalization in iterative solution of the eigenvalue problem:
     a serial algorithm will be used

 
     G-vector sticks info
     --------------------
     sticks:   dense  smooth     PW     G-vecs:    dense   smooth      PW
     Sum        3227    3227    803               152537   152537   19075
 


     bravais-lattice index     =            0
     lattice parameter (alat)  =      16.9391  a.u.
     unit-cell volume          =    6867.9197 (a.u.)^3
     number of atoms/cell      =          108
     number of atomic types    =            4
     number of electrons       =       296.00
     number of Kohn-Sham states=          148
     kinetic-energy cutoff     =      30.0000  Ry
     charge density cutoff     =     120.0000  Ry
     convergence threshold     =      1.0E-07
     mixing beta               =       0.7000
     number of iterations used =            8  plain     mixing
     Exchange-correlation      = PBE ( 1  4  3  4 0 0)
     nstep                     =           50


     celldm(1)=  16.939128  celldm(2)=   0.000000  celldm(3)=   0.000000
     celldm(4)=   0.000000  celldm(5)=   0.000000  celldm(6)=   0.000000

     crystal axes: (cart. coord. in units of alat)
               a(1) = (   1.000000   0.000000   0.000000 )  
               a(2) = (   0.000000   1.173609   0.000000 )  
               a(3) = (  -0.432282   0.000000   1.204006 )  

     reciprocal axes: (cart. coord. in units 2 pi/alat)
               b(1) = (  1.000000  0.000000  0.359037 )  
               b(2) = (  0.000000  0.852072  0.000000 )  
               b(3) = (  0.000000  0.000000  0.830561 )  


     PseudoPot. # 1 for C  read from file:
     /data/home/btx156/espresso/pseudo/C.pbe-rrkjus.UPF
     MD5 check sum: 00fb224312de0c5b6853bd333518df6f
     Pseudo is Ultrasoft, Zval =  4.0
     Generated by new atomic code, or converted to UPF format
     Using radial grid of  627 points,  4 beta functions with: 
                l(1) =   0
                l(2) =   0
                l(3) =   1
                l(4) =   1
     Q(r) pseudized with 0 coefficients 


     PseudoPot. # 2 for H  read from file:
     /data/home/btx156/espresso/pseudo/H.pbe-rrkjus.UPF
     MD5 check sum: 7cc9d459525c9a0585f487a71c3c9563
     Pseudo is Ultrasoft, Zval =  1.0
     Generated by new atomic code, or converted to UPF format
     Using radial grid of 1061 points,  2 beta functions with: 
                l(1) =   0
                l(2) =   0
     Q(r) pseudized with 0 coefficients 


     PseudoPot. # 3 for O  read from file:
     /data/home/btx156/espresso/pseudo/O.pbe-rrkjus.UPF
     MD5 check sum: 390ba29e75625707450f3bd3f0eb6be9
     Pseudo is Ultrasoft, Zval =  6.0
     Generated by new atomic code, or converted to UPF format
     Using radial grid of 1269 points,  4 beta functions with: 
                l(1) =   0
                l(2) =   0
                l(3) =   1
                l(4) =   1
     Q(r) pseudized with 0 coefficients 


     PseudoPot. # 4 for N  read from file:
     /data/home/btx156/espresso/pseudo/N.pbe-rrkjus.UPF
     MD5 check sum: 0c3fbe5807a93f9ba59d5a7019aa238b
     Pseudo is Ultrasoft, Zval =  5.0
     Generated by new atomic code, or converted to UPF format
     Using radial grid of 1257 points,  4 beta functions with: 
                l(1) =   0
                l(2) =   0
                l(3) =   1
                l(4) =   1
     Q(r) pseudized with 0 coefficients 


     atomic species   valence    mass     pseudopotential
        C              4.00    12.00000     C ( 1.00)
        H              1.00     1.00790     H ( 1.00)
        O              6.00    15.99940     O ( 1.00)
        N              5.00    14.00670     N ( 1.00)

      2 Sym. Ops., with inversion, found



   Cartesian axes

     site n.     atom                  positions (alat units)
         1           C   tau(   1) = (   0.0581442   0.2704524   0.3982087  )
         2           C   tau(   2) = (   0.5095736   0.9031570   0.8057968  )
         3           C   tau(   3) = (   0.2257032   0.8572673   0.2038109  )
         4           C   tau(   4) = (   0.3420146   0.3163420   1.0001946  )
         5           C   tau(   5) = (  -0.0882879   0.2341486   0.4685292  )
         6           C   tau(   6) = (   0.6560057   0.9394609   0.7354762  )
         7           C   tau(   7) = (   0.3721351   0.8209534   0.1334721  )
         8           C   tau(   8) = (   0.1955827   0.3526560   1.0705335  )
         9           C   tau(   9) = (   0.1585774   0.3698550   0.4750031  )
        10           C   tau(  10) = (   0.4091404   0.8037544   0.7290024  )
        11           C   tau(  11) = (   0.1252332   0.9566326   0.1270183  )
        12           C   tau(  12) = (   0.4424845   0.2169768   1.0769873  )
        13           C   tau(  13) = (   0.8047532   0.1443040   0.3894468  )
        14           C   tau(  14) = (  -0.2370354   1.0293053   0.8145587  )
        15           C   tau(  15) = (   0.4791010   0.7311201   0.2125596  )
        16           C   tau(  16) = (   0.0886168   0.4424892   0.9914459  )
        17           C   tau(  17) = (   0.1051528   0.2107790   0.2583677  )
        18           C   tau(  18) = (   0.4625650   0.9628304   0.9456379  )
        19           C   tau(  19) = (   0.1786776   0.7975840   0.3436413  )
        20           C   tau(  20) = (   0.3890402   0.3760253   0.8603643  )
        21           C   tau(  21) = (   0.3006429   0.4036806   0.4134610  )
        22           C   tau(  22) = (   0.2670749   0.7699288   0.7905445  )
        23           C   tau(  23) = (  -0.0168370   0.9904624   0.1885438  )
        24           C   tau(  24) = (   0.5845548   0.1831469   1.0154618  )
        25           C   tau(  25) = (   0.6711278   0.1036118   0.4586769  )
        26           C   tau(  26) = (  -0.1034100   1.0699975   0.7453286  )
        27           C   tau(  27) = (   0.6127216   0.6904201   0.1433212  )
        28           C   tau(  28) = (  -0.0450038   0.4831892   1.0606843  )
        29           C   tau(  29) = (   0.3425384   0.3435090   0.2749285  )
        30           C   tau(  30) = (   0.2251794   0.8301004   0.9290770  )
        31           C   tau(  31) = (  -0.0587532   0.9302852   0.3270649  )
        32           C   tau(  32) = (   0.6264709   0.2433242   0.8769407  )
        33           C   tau(  33) = (   0.5616263   1.1525089   0.2403002  )
        34           C   tau(  34) = (   0.0060915   0.0211004   0.9637053  )
        35           C   tau(  35) = (   0.7222039   0.5656991   0.3616926  )
        36           C   tau(  36) = (  -0.1544861   0.6079103   0.8423130  )
        37           C   tau(  37) = (   0.2442747   0.2476025   0.1962677  )
        38           C   tau(  38) = (   0.3234431   0.9260069   1.0077378  )
        39           C   tau(  39) = (   0.0395396   0.8344011   0.4057188  )
        40           C   tau(  40) = (   0.5281782   0.3392083   0.7982867  )
        41           C   tau(  41) = (   0.4243462   1.1625386   0.4832044  )
        42           C   tau(  42) = (   0.1433716   0.0110707   0.7208011  )
        43           C   tau(  43) = (   0.8595063   0.5757377   0.1188117  )
        44           C   tau(  44) = (  -0.2917885   0.5978716   1.0851938  )
        45           O   tau(  45) = (  -0.1157834   0.2870103   0.6012705  )
        46           O   tau(  46) = (   0.6835018   0.8865992   0.6027350  )
        47           O   tau(  47) = (   0.3996126   0.8738272   0.0007347  )
        48           O   tau(  48) = (   0.1681048   0.2997822   1.2032708  )
        49           O   tau(  49) = (   0.1183644   0.4330774   0.6068480  )
        50           O   tau(  50) = (   0.4493534   0.7405319   0.5971575  )
        51           O   tau(  51) = (  -0.2668776   1.0198592   1.1991712  )
        52           O   tau(  52) = (   0.8345954   0.1537501   0.0048344  )
        53           H   tau(  53) = (   0.0137984   0.3820448   0.6276125  )
        54           H   tau(  54) = (   0.5539194   0.7915646   0.5763931  )
        55           H   tau(  55) = (  -0.1623370   0.9688534   1.1783526  )
        56           H   tau(  56) = (   0.7300548   0.2047560   0.0256530  )
        57           H   tau(  57) = (   0.8291050   0.1099109   0.2746878  )
        58           H   tau(  58) = (  -0.2613872   1.0636984   0.9293177  )
        59           H   tau(  59) = (   0.4547392   0.6967208   0.3273152  )
        60           H   tau(  60) = (   0.1129786   0.4768886   0.8766903  )
        61           H   tau(  61) = (   0.0310070   0.1359771   0.1960852  )
        62           H   tau(  62) = (   0.5367108   1.0376323   1.0079203  )
        63           H   tau(  63) = (   0.2528275   0.7227930   0.4059360  )
        64           H   tau(  64) = (   0.3148903   0.4508164   0.7980696  )
        65           H   tau(  65) = (   0.3750243   0.4776439   0.4773392  )
        66           H   tau(  66) = (   0.1926935   0.6959654   0.7266663  )
        67           H   tau(  67) = (   0.9088049   1.0644362   0.1246498  )
        68           H   tau(  68) = (  -0.3410871   0.1091731   1.0793558  )
        69           H   tau(  69) = (   0.6536103   0.1369233   0.5758254  )
        70           H   tau(  70) = (  -0.0858925   1.0366861   0.6281801  )
        71           H   tau(  71) = (   0.6302373   0.7237308   0.0261728  )
        72           H   tau(  72) = (  -0.0625195   0.4498786   1.1778327  )
        73           H   tau(  73) = (   0.4516234   0.3710144   0.2250148  )
        74           H   tau(  74) = (   0.1160944   0.8025950   0.9789907  )
        75           H   tau(  75) = (   0.8321751   0.9578100   0.3769904  )
        76           H   tau(  76) = (  -0.2644573   0.2157994   0.8270151  )
        77           H   tau(  77) = (   0.6064982   0.0704752   0.1704111  )
        78           H   tau(  78) = (  -0.0387804   1.1031342   1.0335944  )
        79           H   tau(  79) = (   0.6773388   0.6572772   0.4315811  )
        80           H   tau(  80) = (  -0.1096210   0.5163322   0.7724244  )
        81           H   tau(  81) = (   0.4465842   1.1276271   0.2026988  )
        82           H   tau(  82) = (   0.1211336   0.0459822   1.0013067  )
        83           H   tau(  83) = (   0.8372464   0.5408173   0.3992965  )
        84           H   tau(  84) = (  -0.2695286   0.6327920   0.8047090  )
        85           H   tau(  85) = (   0.6308476   1.0501953   0.2266401  )
        86           H   tau(  86) = (  -0.0631298   0.1234141   0.9773654  )
        87           H   tau(  87) = (   0.6529792   0.4633891   0.3753487  )
        88           H   tau(  88) = (  -0.0852614   0.7102202   0.8286568  )
        89           H   tau(  89) = (   0.2778241   0.2013974   0.0875894  )
        90           H   tau(  90) = (   0.2898937   0.9722120   1.1164161  )
        91           H   tau(  91) = (   0.0060047   0.7881991   0.5144015  )
        92           H   tau(  92) = (   0.5617131   0.3854103   0.6896041  )
        93           H   tau(  93) = (   0.4380959   0.0316615   0.5983641  )
        94           H   tau(  94) = (   0.1296219   1.1419479   0.6056414  )
        95           H   tau(  95) = (   0.8457798   0.6184736   0.0036503  )
        96           H   tau(  96) = (  -0.2780620   0.5551358   1.2003552  )
        97           H   tau(  97) = (   0.4077363   1.0392147   0.4860590  )
        98           H   tau(  98) = (   0.1599815   0.1343947   0.7179465  )
        99           H   tau(  99) = (   0.8761122   0.4524127   0.1159496  )
       100           H   tau( 100) = (  -0.3083944   0.7211966   1.0880559  )
       101           H   tau( 101) = (   0.3252843   0.0437793   0.4313308  )
       102           H   tau( 102) = (   0.2424335   1.1298301   0.7726747  )
       103           H   tau( 103) = (  -0.0414356   0.6305724   0.1707209  )
       104           H   tau( 104) = (   0.6091534   0.5430369   1.0332846  )
       105           N   tau( 105) = (   0.5575382   0.0268234   0.3967905  )
       106           N   tau( 106) = (   0.0101796   1.1467859   0.8072150  )
       107           N   tau( 107) = (   0.7263018   0.6136236   0.2052022  )
       108           N   tau( 108) = (  -0.1585840   0.5599858   0.9988033  )

     number of k points=     1
                       cart. coord. in units 2pi/alat
        k(    1) = (   0.0000000   0.0000000   0.0000000), wk =   2.0000000

     Dense  grid:   152537 G-vectors     FFT dimensions: (  60,  72,  75)

     Estimated max dynamical RAM per process >     650.11MB

     Initial potential from superposition of free atoms

     starting charge  290.99502, renormalised to  296.00000
     Starting wfc are  276 randomized atomic wfcs

     total cpu time spent up to now is       23.7 secs

     per-process dynamical memory:   413.3 Mb

     Self-consistent Calculation

     iteration #  1     ecut=    30.00 Ry     beta=0.70
     Davidson diagonalization with overlap
     ethr =  1.00E-02,  avg # of iterations =  2.0

     total cpu time spent up to now is       66.3 secs

     total energy              =    -892.37868332 Ry
     Harris-Foulkes estimate   =    -904.25385114 Ry
     estimated scf accuracy    <      18.35692905 Ry

     iteration #  2     ecut=    30.00 Ry     beta=0.70
     Davidson diagonalization with overlap
     ethr =  6.20E-03,  avg # of iterations =  4.0

     total cpu time spent up to now is      100.9 secs

     total energy              =    -893.35023790 Ry
     Harris-Foulkes estimate   =    -900.74036373 Ry
     estimated scf accuracy    <      13.80576063 Ry

     iteration #  3     ecut=    30.00 Ry     beta=0.70
     Davidson diagonalization with overlap
     ethr =  4.66E-03,  avg # of iterations =  4.0

     total cpu time spent up to now is      131.8 secs

     total energy              =    -896.71487343 Ry
     Harris-Foulkes estimate   =    -898.14065192 Ry
     estimated scf accuracy    <       3.05767289 Ry

     iteration #  4     ecut=    30.00 Ry     beta=0.70
     Davidson diagonalization with overlap
     ethr =  1.03E-03,  avg # of iterations =  4.0

     total cpu time spent up to now is      161.5 secs

     total energy              =    -897.31652161 Ry
     Harris-Foulkes estimate   =    -897.53413518 Ry
     estimated scf accuracy    <       0.46244283 Ry

     iteration #  5     ecut=    30.00 Ry     beta=0.70
     Davidson diagonalization with overlap
     ethr =  1.56E-04,  avg # of iterations =  4.0

     total cpu time spent up to now is      191.6 secs

     total energy              =    -897.41102935 Ry
     Harris-Foulkes estimate   =    -897.43213017 Ry
     estimated scf accuracy    <       0.04375352 Ry

     iteration #  6     ecut=    30.00 Ry     beta=0.70
     Davidson diagonalization with overlap
     ethr =  1.48E-05,  avg # of iterations =  4.0

     total cpu time spent up to now is      221.9 secs

     total energy              =    -897.42191623 Ry
     Harris-Foulkes estimate   =    -897.42452065 Ry
     estimated scf accuracy    <       0.00613688 Ry

     iteration #  7     ecut=    30.00 Ry     beta=0.70
     Davidson diagonalization with overlap
     ethr =  2.07E-06,  avg # of iterations =  4.0

     total cpu time spent up to now is      251.9 secs

     total energy              =    -897.42313357 Ry
     Harris-Foulkes estimate   =    -897.42355622 Ry
     estimated scf accuracy    <       0.00095294 Ry

     iteration #  8     ecut=    30.00 Ry     beta=0.70
     Davidson diagonalization with overlap
     ethr =  3.22E-07,  avg # of iterations =  3.0

     total cpu time spent up to now is      281.9 secs

     total energy              =    -897.42335551 Ry
     Harris-Foulkes estimate   =    -897.42343263 Ry
     estimated scf accuracy    <       0.00018094 Ry

     iteration #  9     ecut=    30.00 Ry     beta=0.70
     Davidson diagonalization with overlap
     ethr =  6.11E-08,  avg # of iterations =  4.0

     total cpu time spent up to now is      310.5 secs

     total energy              =    -897.42339336 Ry
     Harris-Foulkes estimate   =    -897.42340829 Ry
     estimated scf accuracy    <       0.00003423 Ry

     iteration # 10     ecut=    30.00 Ry     beta=0.70
     Davidson diagonalization with overlap
     ethr =  1.16E-08,  avg # of iterations =  3.0

     total cpu time spent up to now is      338.8 secs

     total energy              =    -897.42340017 Ry
     Harris-Foulkes estimate   =    -897.42340067 Ry
     estimated scf accuracy    <       0.00000115 Ry

     iteration # 11     ecut=    30.00 Ry     beta=0.70
     Davidson diagonalization with overlap
     ethr =  3.88E-10,  avg # of iterations =  4.0

     total cpu time spent up to now is      371.6 secs

     total energy              =    -897.42340053 Ry
     Harris-Foulkes estimate   =    -897.42340066 Ry
     estimated scf accuracy    <       0.00000033 Ry

     iteration # 12     ecut=    30.00 Ry     beta=0.70
     Davidson diagonalization with overlap
     ethr =  1.13E-10,  avg # of iterations =  4.0

     total cpu time spent up to now is      400.6 secs

     End of self-consistent calculation

          k = 0.0000 0.0000 0.0000 ( 19075 PWs)   bands (ev):

   -20.1499 -20.1455 -20.1439 -20.1406 -18.9691 -18.9669 -18.9626 -18.9591
   -18.1515 -18.1514 -18.1511 -18.1487 -14.9059 -14.8883 -14.8789 -14.8712
   -13.3546 -13.3230 -13.2995 -13.2710 -12.6177 -12.5907 -12.5791 -12.5535
   -12.0834 -12.0795 -12.0259 -12.0120 -11.9958 -11.9662 -11.9587 -11.9524
   -11.0907 -11.0529 -11.0411 -10.9859  -9.5982  -9.5692  -9.5205  -9.5055
    -8.7974  -8.6431  -8.6297  -8.5987  -8.4507  -8.3448  -8.3231  -8.2752
    -7.4580  -7.4469  -7.4014  -7.3759  -6.9275  -6.8760  -6.8606  -6.6567
    -6.4068  -6.3424  -6.3317  -6.2787  -6.1739  -6.0190  -5.9999  -5.9494
    -5.8727  -5.8629  -5.8334  -5.6647  -5.6100  -5.6048  -5.5635  -5.5240
    -5.2469  -5.1481  -5.1028  -5.0849  -4.7283  -4.5102  -4.5101  -4.5096
    -4.4999  -4.4831  -4.3925  -4.3436  -4.2986  -4.2205  -4.2125  -4.1231
    -4.1081  -4.0824  -4.0466  -4.0383  -3.9454  -3.8836  -3.8122  -3.8028
    -3.6988  -3.6626  -3.6531  -3.6226  -3.3760  -3.3430  -3.3243  -3.2785
    -3.2659  -3.2262  -3.2253  -3.1320  -3.0645  -3.0279  -3.0147  -2.9625
    -2.9290  -2.9198  -2.8871  -2.8728  -2.7329  -2.7005  -2.6802  -2.6726
    -2.1831  -2.1016  -2.0626  -2.0340  -2.0118  -1.9045  -1.8925  -1.8402
    -1.7760  -1.7204  -1.6674  -1.6488  -0.4448  -0.4121  -0.2749  -0.2698
     0.0264   0.0682   0.1169   0.1654   0.4375   0.4525   0.4671   0.4923
     0.8077   0.8243   0.9518   0.9814

     highest occupied level (ev):     0.9814

!    total energy              =    -897.42340058 Ry
     Harris-Foulkes estimate   =    -897.42340063 Ry
     estimated scf accuracy    <       0.00000006 Ry

     The total energy is the sum of the following terms:

     one-electron contribution =    -690.60038693 Ry
     hartree contribution      =     445.35077322 Ry
     xc contribution           =    -266.08532615 Ry
     ewald contribution        =    -385.62406942 Ry
     Dispersion Correction     =      -0.46439130 Ry

     convergence has been achieved in  12 iterations

     Forces acting on atoms (cartesian axes, Ry/au):

     atom    1 type  1   force =     0.00656448    0.00048309   -0.00315489
     atom    2 type  1   force =    -0.00656448   -0.00048309    0.00315489
     atom    3 type  1   force =    -0.00812495    0.00036111    0.00520667
     atom    4 type  1   force =     0.00812495   -0.00036111   -0.00520667
     atom    5 type  1   force =    -0.00433504   -0.00210627    0.00180447
     atom    6 type  1   force =     0.00433504    0.00210627   -0.00180447
     atom    7 type  1   force =     0.00531206   -0.00200891   -0.00380999
     atom    8 type  1   force =    -0.00531206    0.00200891    0.00380999
     atom    9 type  1   force =     0.00798991    0.00065989   -0.00525397
     atom   10 type  1   force =    -0.00798991   -0.00065989    0.00525397
     atom   11 type  1   force =    -0.00932048    0.00101555    0.00701461
     atom   12 type  1   force =     0.00932048   -0.00101555   -0.00701461
     atom   13 type  1   force =    -0.00808821    0.00179446    0.01356375
     atom   14 type  1   force =     0.00808821   -0.00179446   -0.01356375
     atom   15 type  1   force =     0.00706491    0.00208959   -0.01516747
     atom   16 type  1   force =    -0.00706491   -0.00208959    0.01516747
     atom   17 type  1   force =     0.01246509    0.01030802    0.00409133
     atom   18 type  1   force =    -0.01246509   -0.01030802   -0.00409133
     atom   19 type  1   force =    -0.01020643    0.01016738   -0.00718854
     atom   20 type  1   force =     0.01020643   -0.01016738    0.00718854
     atom   21 type  1   force =    -0.00961294   -0.00885375   -0.00627355
     atom   22 type  1   force =     0.00961294    0.00885375    0.00627355
     atom   23 type  1   force =     0.00780069   -0.00903791    0.00942132
     atom   24 type  1   force =    -0.00780069    0.00903791   -0.00942132
     atom   25 type  1   force =     0.00188098   -0.00287113   -0.01137008
     atom   26 type  1   force =    -0.00188098    0.00287113    0.01137008
     atom   27 type  1   force =    -0.00107327   -0.00354108    0.01170409
     atom   28 type  1   force =     0.00107327    0.00354108   -0.01170409
     atom   29 type  1   force =    -0.01275742   -0.00180163    0.00600365
     atom   30 type  1   force =     0.01275742    0.00180163   -0.00600365
     atom   31 type  1   force =     0.01100614   -0.00130719   -0.00690631
     atom   32 type  1   force =    -0.01100614    0.00130719    0.00690631
     atom   33 type  1   force =    -0.00009883    0.00205443   -0.00210399
     atom   34 type  1   force =     0.00009883   -0.00205443    0.00210399
     atom   35 type  1   force =     0.00119526    0.00104536    0.00121122
     atom   36 type  1   force =    -0.00119526   -0.00104536   -0.00121122
     atom   37 type  1   force =    -0.00262535    0.00432490    0.01367634
     atom   38 type  1   force =     0.00262535   -0.00432490   -0.01367634
     atom   39 type  1   force =     0.00437022    0.00422418   -0.01683416
     atom   40 type  1   force =    -0.00437022   -0.00422418    0.01683416
     atom   41 type  1   force =    -0.00078159    0.00076149    0.00049607
     atom   42 type  1   force =     0.00078159   -0.00076149   -0.00049607
     atom   43 type  1   force =     0.00183623    0.00147054   -0.00216261
     atom   44 type  1   force =    -0.00183623   -0.00147054    0.00216261
     atom   45 type  3   force =     0.01047851   -0.00890507   -0.02620029
     atom   46 type  3   force =    -0.01047851    0.00890507    0.02620029
     atom   47 type  3   force =    -0.01128628   -0.00989325    0.02947083
     atom   48 type  3   force =     0.01128628    0.00989325   -0.02947083
     atom   49 type  3   force =    -0.00033729   -0.01527157   -0.01840688
     atom   50 type  3   force =     0.00033729    0.01527157    0.01840688
     atom   51 type  3   force =     0.00057697   -0.01484106    0.01397286
     atom   52 type  3   force =    -0.00057697    0.01484106   -0.01397286
     atom   53 type  2   force =     0.00373671   -0.00050204    0.00018573
     atom   54 type  2   force =    -0.00373671    0.00050204   -0.00018573
     atom   55 type  2   force =    -0.00369886   -0.00048447   -0.00013844
     atom   56 type  2   force =     0.00369886    0.00048447    0.00013844
     atom   57 type  2   force =    -0.00400011    0.00272291    0.01419323
     atom   58 type  2   force =     0.00400011   -0.00272291   -0.01419323
     atom   59 type  2   force =     0.00402363    0.00269591   -0.01423267
     atom   60 type  2   force =    -0.00402363   -0.00269591    0.01423267
     atom   61 type  2   force =     0.00829657    0.00718577    0.00653625
     atom   62 type  2   force =    -0.00829657   -0.00718577   -0.00653625
     atom   63 type  2   force =    -0.00831592    0.00719335   -0.00653312
     atom   64 type  2   force =     0.00831592   -0.00719335    0.00653312
     atom   65 type  2   force =    -0.00864813   -0.00586925   -0.00792436
     atom   66 type  2   force =     0.00864813    0.00586925    0.00792436
     atom   67 type  2   force =     0.00863455   -0.00588816    0.00795536
     atom   68 type  2   force =    -0.00863455    0.00588816   -0.00795536
     atom   69 type  2   force =     0.00184237   -0.00429381   -0.01354537
     atom   70 type  2   force =    -0.00184237    0.00429381    0.01354537
     atom   71 type  2   force =    -0.00185387   -0.00429050    0.01356605
     atom   72 type  2   force =     0.00185387    0.00429050   -0.01356605
     atom   73 type  2   force =    -0.01330945   -0.00422566    0.00702473
     atom   74 type  2   force =     0.01330945    0.00422566   -0.00702473
     atom   75 type  2   force =     0.01334703   -0.00428244   -0.00703430
     atom   76 type  2   force =    -0.01334703    0.00428244    0.00703430
     atom   77 type  2   force =    -0.00505605   -0.01326106    0.00805208
     atom   78 type  2   force =     0.00505605    0.01326106   -0.00805208
     atom   79 type  2   force =     0.00505320   -0.01327424   -0.00806652
     atom   80 type  2   force =    -0.00505320    0.01327424    0.00806652
     atom   81 type  2   force =     0.01348901    0.00219135    0.00603943
     atom   82 type  2   force =    -0.01348901   -0.00219135   -0.00603943
     atom   83 type  2   force =    -0.01351504    0.00218859   -0.00604628
     atom   84 type  2   force =     0.01351504   -0.00218859    0.00604628
     atom   85 type  2   force =    -0.00825120    0.01336447    0.00207723
     atom   86 type  2   force =     0.00825120   -0.01336447   -0.00207723
     atom   87 type  2   force =     0.00824512    0.01336482   -0.00208823
     atom   88 type  2   force =    -0.00824512   -0.01336482    0.00208823
     atom   89 type  2   force =    -0.00383275    0.00455126    0.01303771
     atom   90 type  2   force =     0.00383275   -0.00455126   -0.01303771
     atom   91 type  2   force =     0.00381712    0.00454020   -0.01306756
     atom   92 type  2   force =    -0.00381712   -0.00454020    0.01306756
     atom   93 type  2   force =    -0.00208281   -0.00728137   -0.01281276
     atom   94 type  2   force =     0.00208281    0.00728137    0.01281276
     atom   95 type  2   force =     0.00208429   -0.00727231    0.01282743
     atom   96 type  2   force =    -0.00208429    0.00727231   -0.01282743
     atom   97 type  2   force =     0.00218657    0.01880531   -0.00134757
     atom   98 type  2   force =    -0.00218657   -0.01880531    0.00134757
     atom   99 type  2   force =    -0.00219604    0.01884013    0.00134267
     atom  100 type  2   force =     0.00219604   -0.01884013   -0.00134267
     atom  101 type  2   force =     0.01121184   -0.00942977    0.00631910
     atom  102 type  2   force =    -0.01121184    0.00942977   -0.00631910
     atom  103 type  2   force =    -0.01124812   -0.00943376   -0.00637144
     atom  104 type  2   force =     0.01124812    0.00943376    0.00637144
     atom  105 type  4   force =     0.01251859    0.01016031    0.00319174
     atom  106 type  4   force =    -0.01251859   -0.01016031   -0.00319174
     atom  107 type  4   force =    -0.01215071    0.01030436   -0.00617095
     atom  108 type  4   force =     0.01215071   -0.01030436    0.00617095

     Total force =     0.157016     Total SCF correction =     0.000560

     BFGS Geometry Optimization

     number of scf cycles    =   1
     number of bfgs steps    =   0

     energy   new            =    -897.4234005776 Ry

     new trust radius        =       0.0330724392 bohr
     new conv_thr            =       0.0000001000 Ry


ATOMIC_POSITIONS (angstrom)
C        0.524667038   2.424536535   3.567794267
C        4.564242342   8.095463071   7.224671003
C        2.018858469   7.684564272   1.829675768
C        3.070050429   2.835435443   8.962789932
C       -0.793689417   2.097746307   4.200757341
C        5.882598240   8.422254344   6.591707139
C        3.338555434   7.357799113   1.194400690
C        1.750353595   3.162201451   9.598064990
C        1.425683819   3.315655291   4.255052880
C        3.663225177   7.204344565   6.537412349
C        1.117633505   8.575600787   1.142278706
C        3.971275274   1.944398899   9.650187257
C        7.209366919   1.294462070   3.498101090
C       -2.120457785   9.225537564   7.294364100
C        4.298304410   6.554720727   1.897315969
C        0.790604434   3.965279093   8.895149222
C        0.949165241   1.894835329   2.318121111
C        4.139743764   8.625164503   8.474344065
C        1.596229018   7.154764141   3.076528190
C        3.492679842   3.365235633   7.715937449
C        2.689816135   3.613826750   3.702862430
C        2.399092885   6.906173109   7.089602808
C       -0.146795561   8.873524991   1.695054335
C        5.235704445   1.646475071   9.097411531
C        6.016851059   0.927236197   4.105471388
C       -0.927942069   9.592763676   6.686993570
C        5.491746007   6.186914280   1.290896275
C       -0.402837118   4.333085675   9.501568906
C        3.063694968   3.078192586   2.467581434
C        2.025214340   7.441807338   8.324883859
C       -0.520827369   8.338198719   2.928089646
C        5.609736021   2.181801033   7.864375940
C        5.034254108  10.331946894   2.152890021
C        0.054654980   0.188053042   8.639574970
C        6.474324534   5.071366657   3.242780783
C       -1.385415440   5.448633347   7.549684291
C        2.188240006   2.221747731   1.766542144
C        2.900668996   8.298252407   9.025923297
C        0.356737358   7.481640373   3.627874429
C        4.732171663   3.038359828   7.164591284
C        3.803340788  10.421167193   4.331610590
C        1.285568283   0.098832769   6.460854591
C        7.705414534   5.161576214   1.063860200
C       -2.616505542   5.358423783   9.728604825
O       -1.032314491   2.567990287   5.375804553
O        6.121228806   7.952010302   5.416661084
O        3.576075448   7.827577072   0.022180607
O        1.512830637   2.692422904  10.770284291
O        1.060816067   3.873937830   5.429923711
O        4.028092841   6.646061941   5.362541567
O       -2.391932659   9.133960654  10.756525424
O        7.480841140   1.386039194   0.035940679
H        0.125663428   3.424307784   5.625891452
H        4.963245640   7.095692728   5.166574349
H       -1.457114155   8.684352300  10.562444411
H        6.546022659   1.835647952   0.230021328
H        7.429814686   0.986660617   2.469757003
H       -2.340905488   9.533339315   8.322708084
H        4.078320449   6.246692411   2.926456798
H        1.010588688   4.273307476   7.866008500
H        0.282330905   1.222673737   1.761127180
H        4.806578124   9.297326126   9.031338008
H        2.261894697   6.482778457   3.635271738
H        2.827014384   4.037221530   7.157193850
H        3.357066637   4.278399016   4.274580060
H        1.731842490   6.241600744   6.517885142
H        8.150915089   9.538277833   1.121545556
H       -3.062006152   0.981722016   9.670919975
H        5.859807635   1.225080875   5.154415963
H       -0.770898416   9.294919056   5.638048994
H        5.648340427   6.485107865   0.241786596
H       -0.559431636   4.034892133  10.550678591
H        4.041219230   3.323462525   2.020705343
H        1.047690005   7.196537457   8.771759759
H        7.466514297   8.583351100   3.375544638
H       -2.377605566   1.936648893   7.416920964
H        5.433852971   0.624708099   1.531791776
H       -0.344943876   9.895291893   9.260673293
H        6.074204253   5.884677104   3.864338578
H       -0.985295159   4.635322915   6.928126467
H        4.010229670  10.108984217   1.820147686
H        1.078679413   0.411015721   8.972317332
H        7.497758128   4.848936852   3.576014806
H       -2.408848979   5.671063198   7.216450139
H        5.650425807   9.420813202   2.032655925
H       -0.561516564   1.099186803   8.759809197
H        5.857538654   4.160799984   3.363446068
H       -0.768629462   6.359199974   7.429019093
H        2.488331754   1.807694247   0.792033266
H        2.600577163   8.712305788  10.000432216
H        0.055844647   7.067661917   4.604077016
H        5.033064325   3.452338058   6.188388548
H        3.925902313   0.279953980   5.356836375
H        1.163007036  10.240045991   5.435628778
H        7.582504158   5.540025204   0.039508685
H       -2.493595107   4.979974829  10.752956348
H        3.656024170   9.325264153   4.356222666
H        1.432884979   1.194735797   6.436242443
H        7.852132828   4.065307085   1.040059839
H       -2.763223840   6.454692907   9.752405175
H        2.921716431   0.387438855   3.869707068
H        2.167192635  10.132561232   6.922758249
H       -0.377372950   5.647333184   1.526936827
H        5.466281903   4.872666823   9.265528284
N        5.004285616   0.245816360   3.558439510
N        0.084623264  10.274183668   7.234025439
N        6.503994595   5.505852234   1.836125753
N       -1.415085523   5.014147891   8.956339350



     Writing output data file 2HP-1.save
     charge density from previous step

     total cpu time spent up to now is      426.7 secs

     per-process dynamical memory:   436.7 Mb

     Self-consistent Calculation

     iteration #  1     ecut=    30.00 Ry     beta=0.70
     Davidson diagonalization with overlap
     ethr =  1.00E-06,  avg # of iterations =  6.0

     total cpu time spent up to now is      493.8 secs

     total energy              =    -897.27996617 Ry
     Harris-Foulkes estimate   =    -897.59153489 Ry
     estimated scf accuracy    <       0.40386297 Ry

     iteration #  2     ecut=    30.00 Ry     beta=0.70
     Davidson diagonalization with overlap
     ethr =  1.36E-04,  avg # of iterations =  3.0

     total cpu time spent up to now is      524.9 secs

     total energy              =    -897.36184768 Ry
     Harris-Foulkes estimate   =    -897.52535251 Ry
     estimated scf accuracy    <       0.30428241 Ry

     iteration #  3     ecut=    30.00 Ry     beta=0.70
     Davidson diagonalization with overlap
     ethr =  1.03E-04,  avg # of iterations =  3.0

     total cpu time spent up to now is      553.7 secs

     total energy              =    -897.43249439 Ry
     Harris-Foulkes estimate   =    -897.44410158 Ry
     estimated scf accuracy    <       0.02312215 Ry

     iteration #  4     ecut=    30.00 Ry     beta=0.70
     Davidson diagonalization with overlap
     ethr =  7.81E-06,  avg # of iterations =  3.0

     total cpu time spent up to now is      582.8 secs

     total energy              =    -897.43811622 Ry
     Harris-Foulkes estimate   =    -897.43936092 Ry
     estimated scf accuracy    <       0.00258966 Ry

     iteration #  5     ecut=    30.00 Ry     beta=0.70
     Davidson diagonalization with overlap
     ethr =  8.75E-07,  avg # of iterations =  4.0

     total cpu time spent up to now is      612.0 secs

     total energy              =    -897.43868625 Ry
     Harris-Foulkes estimate   =    -897.43885447 Ry
     estimated scf accuracy    <       0.00037122 Ry

     iteration #  6     ecut=    30.00 Ry     beta=0.70
     Davidson diagonalization with overlap
     ethr =  1.25E-07,  avg # of iterations =  4.0

     total cpu time spent up to now is      641.6 secs

     total energy              =    -897.43876297 Ry
     Harris-Foulkes estimate   =    -897.43877957 Ry
     estimated scf accuracy    <       0.00003753 Ry

     iteration #  7     ecut=    30.00 Ry     beta=0.70
     Davidson diagonalization with overlap
     ethr =  1.27E-08,  avg # of iterations =  4.0

     total cpu time spent up to now is      671.9 secs

     total energy              =    -897.43877232 Ry
     Harris-Foulkes estimate   =    -897.43877657 Ry
     estimated scf accuracy    <       0.00001113 Ry

     iteration #  8     ecut=    30.00 Ry     beta=0.70
     Davidson diagonalization with overlap
     ethr =  3.76E-09,  avg # of iterations =  4.0

     total cpu time spent up to now is      701.1 secs

     total energy              =    -897.43877435 Ry
     Harris-Foulkes estimate   =    -897.43877508 Ry
     estimated scf accuracy    <       0.00000162 Ry

     iteration #  9     ecut=    30.00 Ry     beta=0.70
     Davidson diagonalization with overlap
     ethr =  5.46E-10,  avg # of iterations =  4.0

     total cpu time spent up to now is      730.1 secs

     total energy              =    -897.43877471 Ry
     Harris-Foulkes estimate   =    -897.43877484 Ry
     estimated scf accuracy    <       0.00000032 Ry

     iteration # 10     ecut=    30.00 Ry     beta=0.70
     Davidson diagonalization with overlap
     ethr =  1.08E-10,  avg # of iterations =  4.0

     total cpu time spent up to now is      757.6 secs

     End of self-consistent calculation

          k = 0.0000 0.0000 0.0000 ( 19075 PWs)   bands (ev):

   -20.2559 -20.2507 -20.2413 -20.2365 -19.1704 -19.1642 -19.1504 -19.1441
   -18.1893 -18.1872 -18.1845 -18.1818 -14.9654 -14.9504 -14.9381 -14.9326
   -13.3768 -13.3425 -13.3233 -13.2931 -12.6318 -12.6133 -12.6001 -12.5738
   -12.1183 -12.1154 -12.0554 -12.0478 -12.0288 -12.0016 -11.9913 -11.9875
   -11.1538 -11.1134 -11.0986 -11.0466  -9.6182  -9.5897  -9.5421  -9.5306
    -8.7986  -8.6396  -8.6302  -8.5968  -8.4999  -8.3993  -8.3816  -8.3363
    -7.4850  -7.4702  -7.4295  -7.4006  -6.9646  -6.9096  -6.8975  -6.6882
    -6.4491  -6.3916  -6.3651  -6.3158  -6.1990  -6.0558  -6.0288  -5.9855
    -5.8977  -5.8627  -5.8406  -5.6816  -5.6440  -5.6313  -5.5949  -5.5528
    -5.2763  -5.1825  -5.1235  -5.1007  -4.7770  -4.5543  -4.5409  -4.5264
    -4.5215  -4.4952  -4.4007  -4.3892  -4.3160  -4.2553  -4.2427  -4.1721
    -4.1615  -4.0928  -4.0730  -4.0683  -4.0099  -3.9465  -3.8685  -3.8613
    -3.7611  -3.7337  -3.7312  -3.6820  -3.4118  -3.3694  -3.3545  -3.3385
    -3.3197  -3.2557  -3.2442  -3.1389  -3.0674  -3.0608  -3.0566  -2.9866
    -2.9318  -2.9050  -2.8742  -2.8585  -2.7593  -2.7058  -2.6958  -2.6935
    -2.1538  -2.1040  -2.0903  -2.0878  -2.0287  -1.9164  -1.8725  -1.8571
    -1.8458  -1.7605  -1.7420  -1.7179  -0.4586  -0.4262  -0.2865  -0.2796
     0.0343   0.0772   0.1244   0.1735   0.4410   0.4526   0.4729   0.4918
     0.8105   0.8282   0.9544   0.9797

     highest occupied level (ev):     0.9797

!    total energy              =    -897.43877475 Ry
     Harris-Foulkes estimate   =    -897.43877479 Ry
     estimated scf accuracy    <       0.00000005 Ry

     The total energy is the sum of the following terms:

     one-electron contribution =    -699.50303235 Ry
     hartree contribution      =     449.73279833 Ry
     xc contribution           =    -266.54803354 Ry
     ewald contribution        =    -380.65870830 Ry
     Dispersion Correction     =      -0.46179888 Ry

     convergence has been achieved in  10 iterations

     Forces acting on atoms (cartesian axes, Ry/au):

     atom    1 type  1   force =     0.00288130    0.00009483   -0.00168303
     atom    2 type  1   force =    -0.00288130   -0.00009483    0.00168303
     atom    3 type  1   force =    -0.00210999    0.00145019   -0.00068504
     atom    4 type  1   force =     0.00210999   -0.00145019    0.00068504
     atom    5 type  1   force =     0.00666304   -0.00667299   -0.01780826
     atom    6 type  1   force =    -0.00666304    0.00667299    0.01780826
     atom    7 type  1   force =    -0.00796954   -0.00774140    0.02035303
     atom    8 type  1   force =     0.00796954    0.00774140   -0.02035303
     atom    9 type  1   force =    -0.00606462   -0.00917058   -0.00856769
     atom   10 type  1   force =     0.00606462    0.00917058    0.00856769
     atom   11 type  1   force =     0.00519232   -0.00783936    0.00802495
     atom   12 type  1   force =    -0.00519232    0.00783936   -0.00802495
     atom   13 type  1   force =     0.00272899    0.00047489   -0.00231952
     atom   14 type  1   force =    -0.00272899   -0.00047489    0.00231952
     atom   15 type  1   force =    -0.00291125   -0.00035298    0.00276706
     atom   16 type  1   force =     0.00291125    0.00035298   -0.00276706
     atom   17 type  1   force =    -0.00450145    0.00111416    0.00478392
     atom   18 type  1   force =     0.00450145   -0.00111416   -0.00478392
     atom   19 type  1   force =     0.00456648    0.00039983   -0.00474325
     atom   20 type  1   force =    -0.00456648   -0.00039983    0.00474325
     atom   21 type  1   force =     0.00062381    0.00121737    0.00172037
     atom   22 type  1   force =    -0.00062381   -0.00121737   -0.00172037
     atom   23 type  1   force =    -0.00096503    0.00295158   -0.00330073
     atom   24 type  1   force =     0.00096503   -0.00295158    0.00330073
     atom   25 type  1   force =     0.00296779    0.00409749    0.00575667
     atom   26 type  1   force =    -0.00296779   -0.00409749   -0.00575667
     atom   27 type  1   force =    -0.00343042    0.00457667   -0.00750902
     atom   28 type  1   force =     0.00343042   -0.00457667    0.00750902
     atom   29 type  1   force =    -0.00358459   -0.00101476    0.00035381
     atom   30 type  1   force =     0.00358459    0.00101476   -0.00035381
     atom   31 type  1   force =     0.00278749   -0.00246430    0.00129586
     atom   32 type  1   force =    -0.00278749    0.00246430   -0.00129586
     atom   33 type  1   force =     0.00148959    0.00298928    0.00973506
     atom   34 type  1   force =    -0.00148959   -0.00298928   -0.00973506
     atom   35 type  1   force =    -0.00149229    0.00325930   -0.01079695
     atom   36 type  1   force =     0.00149229   -0.00325930    0.01079695
     atom   37 type  1   force =     0.00418809    0.00157288    0.00129346
     atom   38 type  1   force =    -0.00418809   -0.00157288   -0.00129346
     atom   39 type  1   force =    -0.00474646    0.00078030   -0.00186379
     atom   40 type  1   force =     0.00474646   -0.00078030    0.00186379
     atom   41 type  1   force =     0.01101624    0.00562844   -0.00478780
     atom   42 type  1   force =    -0.01101624   -0.00562844    0.00478780
     atom   43 type  1   force =    -0.01031823    0.00546384    0.00396756
     atom   44 type  1   force =     0.01031823   -0.00546384   -0.00396756
     atom   45 type  3   force =     0.00257365    0.00146090    0.00238866
     atom   46 type  3   force =    -0.00257365   -0.00146090   -0.00238866
     atom   47 type  3   force =    -0.00262709    0.00266826   -0.00199305
     atom   48 type  3   force =     0.00262709   -0.00266826    0.00199305
     atom   49 type  3   force =     0.00092584   -0.00390256   -0.00484888
     atom   50 type  3   force =    -0.00092584    0.00390256    0.00484888
     atom   51 type  3   force =    -0.00222900   -0.00485079    0.00456595
     atom   52 type  3   force =     0.00222900    0.00485079   -0.00456595
     atom   53 type  2   force =     0.00462820   -0.00183566   -0.00292493
     atom   54 type  2   force =    -0.00462820    0.00183566    0.00292493
     atom   55 type  2   force =    -0.00489711   -0.00167451    0.00282780
     atom   56 type  2   force =     0.00489711    0.00167451   -0.00282780
     atom   57 type  2   force =    -0.00345913    0.00263382    0.01325545
     atom   58 type  2   force =     0.00345913   -0.00263382   -0.01325545
     atom   59 type  2   force =     0.00344782    0.00290890   -0.01414145
     atom   60 type  2   force =    -0.00344782   -0.00290890    0.01414145
     atom   61 type  2   force =     0.00942891    0.00815621    0.00677674
     atom   62 type  2   force =    -0.00942891   -0.00815621   -0.00677674
     atom   63 type  2   force =    -0.00925438    0.00819952   -0.00709973
     atom   64 type  2   force =     0.00925438   -0.00819952    0.00709973
     atom   65 type  2   force =    -0.00877553   -0.00630372   -0.00832965
     atom   66 type  2   force =     0.00877553    0.00630372    0.00832965
     atom   67 type  2   force =     0.00875137   -0.00647389    0.00872269
     atom   68 type  2   force =    -0.00875137    0.00647389   -0.00872269
     atom   69 type  2   force =     0.00134431   -0.00360149   -0.01093381
     atom   70 type  2   force =    -0.00134431    0.00360149    0.01093381
     atom   71 type  2   force =    -0.00135296   -0.00362960    0.01103184
     atom   72 type  2   force =     0.00135296    0.00362960   -0.01103184
     atom   73 type  2   force =    -0.01239633   -0.00361123    0.00681762
     atom   74 type  2   force =     0.01239633    0.00361123   -0.00681762
     atom   75 type  2   force =     0.01170231   -0.00361980   -0.00639497
     atom   76 type  2   force =    -0.01170231    0.00361980    0.00639497
     atom   77 type  2   force =    -0.00080851   -0.00443289    0.00097990
     atom   78 type  2   force =     0.00080851    0.00443289   -0.00097990
     atom   79 type  2   force =     0.00123910   -0.00509018   -0.00168190
     atom   80 type  2   force =    -0.00123910    0.00509018    0.00168190
     atom   81 type  2   force =     0.00447748    0.00089939    0.00392915
     atom   82 type  2   force =    -0.00447748   -0.00089939   -0.00392915
     atom   83 type  2   force =    -0.00392561    0.00072525   -0.00395490
     atom   84 type  2   force =     0.00392561   -0.00072525    0.00395490
     atom   85 type  2   force =    -0.00334036    0.00640411    0.00128574
     atom   86 type  2   force =     0.00334036   -0.00640411   -0.00128574
     atom   87 type  2   force =     0.00342320    0.00631418   -0.00149284
     atom   88 type  2   force =    -0.00342320   -0.00631418    0.00149284
     atom   89 type  2   force =    -0.00358409    0.00456978    0.01288471
     atom   90 type  2   force =     0.00358409   -0.00456978   -0.01288471
     atom   91 type  2   force =     0.00431789    0.00514606   -0.01469486
     atom   92 type  2   force =    -0.00431789   -0.00514606    0.01469486
     atom   93 type  2   force =    -0.00112666   -0.00367703   -0.00374364
     atom   94 type  2   force =     0.00112666    0.00367703    0.00374364
     atom   95 type  2   force =     0.00127181   -0.00334141    0.00270868
     atom   96 type  2   force =    -0.00127181    0.00334141   -0.00270868
     atom   97 type  2   force =     0.00188170    0.00799549   -0.00166092
     atom   98 type  2   force =    -0.00188170   -0.00799549    0.00166092
     atom   99 type  2   force =    -0.00180572    0.00833568    0.00149878
     atom  100 type  2   force =     0.00180572   -0.00833568   -0.00149878
     atom  101 type  2   force =     0.00455020   -0.00452180    0.00190563
     atom  102 type  2   force =    -0.00455020    0.00452180   -0.00190563
     atom  103 type  2   force =    -0.00436648   -0.00434742   -0.00198434
     atom  104 type  2   force =     0.00436648    0.00434742    0.00198434
     atom  105 type  4   force =    -0.00747650   -0.00422028   -0.00749223
     atom  106 type  4   force =     0.00747650    0.00422028    0.00749223
     atom  107 type  4   force =     0.00853538   -0.00522442    0.00734848
     atom  108 type  4   force =    -0.00853538    0.00522442   -0.00734848

     Total force =     0.105435     Total SCF correction =     0.000479

     number of scf cycles    =   2
     number of bfgs steps    =   1

     energy   old            =    -897.4234005776 Ry
     energy   new            =    -897.4387747496 Ry

     CASE: energy  _new < energy  _old

     new trust radius        =       0.0310261608 bohr
     new conv_thr            =       0.0000000204 Ry


ATOMIC_POSITIONS (angstrom)
C        0.529037841   2.424776591   3.565486009
C        4.559871539   8.095223016   7.226979261
C        2.014462437   7.685703935   1.831074645
C        3.074446461   2.834295780   8.961391055
C       -0.790612609   2.092342001   4.189009953
C        5.879521432   8.427658650   6.603454527
C        3.334921076   7.351686086   1.207197136
C        1.753987953   3.168314477   9.585268545
C        1.424340324   3.309508796   4.247195539
C        3.664568672   7.210491060   6.545269690
C        1.117890371   8.570509171   1.150392504
C        3.971018408   1.949490515   9.642073460
C        7.208352847   1.295439149   3.501372859
C       -2.119443712   9.224560485   7.291092331
C        4.298822935   6.555227796   1.893777999
C        0.790085908   3.964772024   8.898687193
C        0.950522221   1.899324582   2.322925469
C        4.138386784   8.620675250   8.469539707
C        1.595731024   7.158705431   3.070636338
C        3.493177836   3.361294343   7.721829300
C        2.686787207   3.611484547   3.701799954
C        2.402121812   6.908515312   7.090665284
C       -0.144657071   8.872323738   1.696150652
C        5.233565955   1.647676324   9.096315214
C        6.019594777   0.929054358   4.105382740
C       -0.930685786   9.590945515   6.687082219
C        5.488971213   6.188824670   1.289885328
C       -0.400062325   4.331175285   9.502579853
C        3.056603460   3.076837081   2.469990649
C        2.032305848   7.443162843   8.322474644
C       -0.514921696   8.336012230   2.926503682
C        5.603830348   2.183987522   7.865961904
C        5.035255499  10.334768059   2.158909228
C        0.053653589   0.185231876   8.633555763
C        6.473716267   5.074012268   3.235700689
C       -1.384807174   5.445987735   7.556764385
C        2.190209783   2.224400820   1.772369701
C        2.898699219   8.295599318   9.020095740
C        0.355007478   7.483705414   3.620512175
C        4.733901543   3.036294787   7.171953538
C        3.810728317  10.425359846   4.328456211
C        1.278180754   0.094640116   6.464008971
C        7.698892881   5.165909726   1.065843162
C       -2.609983889   5.354090271   9.726621863
O       -1.026747772   2.565799134   5.368028418
O        6.115662087   7.954201456   5.424437219
O        3.570180514   7.825870430   0.031410408
O        1.518725571   2.694129546  10.761054490
O        1.061339088   3.865719208   5.419916752
O        4.027569820   6.654280564   5.372548526
O       -2.393276551   9.125237003  10.764738001
O        7.482185031   1.394762844   0.027728102
H        0.130231623   3.422848993   5.623922135
H        4.958677445   7.097151518   5.168543666
H       -1.461855912   8.683012030  10.564363148
H        6.550764415   1.836988222   0.228102590
H        7.425965464   0.989475158   2.484098286
H       -2.337056266   9.530524773   8.308366801
H        4.082170271   6.249688724   2.911484501
H        1.006738867   4.270311163   7.880980796
H        0.291883935   1.230940572   1.768199683
H        4.797025094   9.289059291   9.024265505
H        2.252456200   6.491078177   3.627975512
H        2.836452881   4.028921810   7.164490075
H        3.347841812   4.271896111   4.265926389
H        1.741067316   6.248103649   6.526538812
H        8.160118200   9.531649649   1.130484012
H       -3.071209262   0.988350200   9.661981519
H        5.861407238   1.221026739   5.141924325
H       -0.772498019   9.298973192   5.650540632
H        5.646730659   6.481035357   0.254353935
H       -0.557821867   4.038964641  10.538111252
H        4.027794429   3.319426157   2.027982287
H        1.061114806   7.200573824   8.764482814
H        7.479469487   8.579288313   3.368558483
H       -2.390560757   1.940711680   7.423907119
H        5.431468602   0.616844588   1.535374830
H       -0.342559506   9.903155404   9.257090239
H        6.076887355   5.876351270   3.860261616
H       -0.987978261   4.643648750   6.932203428
H        4.018206340  10.110399802   1.825058814
H        1.070702744   0.409600136   8.967406204
H        7.490156273   4.850230217   3.571083286
H       -2.401247124   5.669769833   7.221381659
H        5.645127752   9.430086260   2.034299364
H       -0.556218509   1.089913745   8.758165758
H        5.862892186   4.170010557   3.361654493
H       -0.773982994   6.349989401   7.430810667
H        2.484455839   1.812515220   0.805700165
H        2.604453079   8.707484816   9.986765317
H        0.060225781   7.072880094   4.589139209
H        5.028683191   3.447119882   6.203326355
H        3.924367611   0.274770949   5.349614207
H        1.164541738  10.245229022   5.442850946
H        7.584140442   5.535079077   0.046015636
H       -2.495231391   4.984920956  10.746449397
H        3.658121887   9.337605214   4.354580909
H        1.430787261   1.182394737   6.437884200
H        7.850084597   4.077897514   1.041586948
H       -2.761175608   6.442102477   9.750878066
H        2.928923343   0.380893730   3.873310245
H        2.159985724  10.139106357   6.919155072
H       -0.384465036   5.640908016   1.523259995
H        5.473373988   4.879091991   9.269205115
N        5.003590750   0.246538746   3.554373560
N        0.085318130  10.273461281   7.238091388
N        6.505559152   5.505927473   1.839018331
N       -1.416650080   5.014072652   8.953446773



     Writing output data file 2HP-1.save
     charge density from previous step

     total cpu time spent up to now is      784.0 secs

     per-process dynamical memory:   436.7 Mb

     Self-consistent Calculation

     iteration #  1     ecut=    30.00 Ry     beta=0.70
     Davidson diagonalization with overlap
     ethr =  1.00E-06,  avg # of iterations =  7.0

     total cpu time spent up to now is      852.0 secs

     total energy              =    -897.26230113 Ry
     Harris-Foulkes estimate   =    -897.57711518 Ry
     estimated scf accuracy    <       0.40072812 Ry

     iteration #  2     ecut=    30.00 Ry     beta=0.70
     Davidson diagonalization with overlap
     ethr =  1.35E-04,  avg # of iterations =  4.0

     total cpu time spent up to now is      885.6 secs

     total energy              =    -897.33069785 Ry
     Harris-Foulkes estimate   =    -897.59123346 Ry
     estimated scf accuracy    <       0.54129282 Ry

     iteration #  3     ecut=    30.00 Ry     beta=0.70
     Davidson diagonalization with overlap
     ethr =  1.35E-04,  avg # of iterations =  3.0

     total cpu time spent up to now is      914.8 secs

     total energy              =    -897.44239846 Ry
     Harris-Foulkes estimate   =    -897.45177343 Ry
     estimated scf accuracy    <       0.01840833 Ry

     iteration #  4     ecut=    30.00 Ry     beta=0.70
     Davidson diagonalization with overlap
     ethr =  6.22E-06,  avg # of iterations =  4.0

     total cpu time spent up to now is      945.5 secs

     total energy              =    -897.44717370 Ry
     Harris-Foulkes estimate   =    -897.44860272 Ry
     estimated scf accuracy    <       0.00305124 Ry

     iteration #  5     ecut=    30.00 Ry     beta=0.70
     Davidson diagonalization with overlap
     ethr =  1.03E-06,  avg # of iterations =  4.0

     total cpu time spent up to now is      974.8 secs

     total energy              =    -897.44785316 Ry
     Harris-Foulkes estimate   =    -897.44806148 Ry
     estimated scf accuracy    <       0.00047743 Ry

     iteration #  6     ecut=    30.00 Ry     beta=0.70
     Davidson diagonalization with overlap
     ethr =  1.61E-07,  avg # of iterations =  4.0

     total cpu time spent up to now is     1003.1 secs

     total energy              =    -897.44794694 Ry
     Harris-Foulkes estimate   =    -897.44796382 Ry
     estimated scf accuracy    <       0.00003577 Ry

     iteration #  7     ecut=    30.00 Ry     beta=0.70
     Davidson diagonalization with overlap
     ethr =  1.21E-08,  avg # of iterations =  4.0

     total cpu time spent up to now is     1035.8 secs

     total energy              =    -897.44795596 Ry
     Harris-Foulkes estimate   =    -897.44796209 Ry
     estimated scf accuracy    <       0.00001541 Ry

     iteration #  8     ecut=    30.00 Ry     beta=0.70
     Davidson diagonalization with overlap
     ethr =  5.21E-09,  avg # of iterations =  4.0

     total cpu time spent up to now is     1068.8 secs

     total energy              =    -897.44795883 Ry
     Harris-Foulkes estimate   =    -897.44796019 Ry
     estimated scf accuracy    <       0.00000332 Ry

     iteration #  9     ecut=    30.00 Ry     beta=0.70
     Davidson diagonalization with overlap
     ethr =  1.12E-09,  avg # of iterations =  4.0

     total cpu time spent up to now is     1096.6 secs

     total energy              =    -897.44795948 Ry
     Harris-Foulkes estimate   =    -897.44795958 Ry
     estimated scf accuracy    <       0.00000020 Ry

     iteration # 10     ecut=    30.00 Ry     beta=0.70
     Davidson diagonalization with overlap
     ethr =  6.70E-11,  avg # of iterations =  4.0

     total cpu time spent up to now is     1129.4 secs

     total energy              =    -897.44795953 Ry
     Harris-Foulkes estimate   =    -897.44795956 Ry
     estimated scf accuracy    <       0.00000006 Ry

     iteration # 11     ecut=    30.00 Ry     beta=0.70
     Davidson diagonalization with overlap
     ethr =  2.05E-11,  avg # of iterations =  4.0

     total cpu time spent up to now is     1158.6 secs

     End of self-consistent calculation

          k = 0.0000 0.0000 0.0000 ( 19075 PWs)   bands (ev):

   -20.2698 -20.2648 -20.2417 -20.2369 -19.1147 -19.1082 -19.0996 -19.0929
   -18.2380 -18.2374 -18.2374 -18.2347 -15.0420 -15.0274 -15.0161 -15.0103
   -13.4476 -13.4127 -13.3960 -13.3656 -12.6955 -12.6759 -12.6661 -12.6386
   -12.2002 -12.1981 -12.1199 -12.1163 -12.0651 -12.0591 -12.0378 -12.0223
   -11.2067 -11.1685 -11.1550 -11.1019  -9.6457  -9.6159  -9.5710  -9.5597
    -8.8731  -8.7185  -8.7082  -8.6717  -8.5532  -8.4539  -8.4377  -8.4003
    -7.5583  -7.5494  -7.5068  -7.4839  -7.0380  -6.9755  -6.9701  -6.7568
    -6.4782  -6.4353  -6.3877  -6.3368  -6.2571  -6.1191  -6.1007  -6.0636
    -5.9290  -5.9036  -5.8784  -5.7348  -5.6982  -5.6787  -5.6490  -5.6019
    -5.3077  -5.2197  -5.1704  -5.1477  -4.8215  -4.6202  -4.5735  -4.5710
    -4.5596  -4.5488  -4.4357  -4.4133  -4.3474  -4.2946  -4.2898  -4.2027
    -4.1887  -4.1207  -4.1055  -4.0980  -4.0356  -3.9657  -3.9006  -3.8936
    -3.7886  -3.7586  -3.7540  -3.7223  -3.4449  -3.4114  -3.3788  -3.3607
    -3.3540  -3.2792  -3.2456  -3.1378  -3.1026  -3.0868  -3.0827  -3.0058
    -2.9498  -2.9429  -2.9167  -2.8978  -2.7440  -2.6925  -2.6853  -2.6844
    -2.1772  -2.1252  -2.1110  -2.1040  -2.0546  -1.9178  -1.9038  -1.8749
    -1.8416  -1.7609  -1.7380  -1.7158  -0.4791  -0.4465  -0.3122  -0.3036
     0.0648   0.1049   0.1506   0.1968   0.4424   0.4519   0.4733   0.4873
     0.7921   0.8074   0.9264   0.9529

     highest occupied level (ev):     0.9529

!    total energy              =    -897.44795954 Ry
     Harris-Foulkes estimate   =    -897.44795955 Ry
     estimated scf accuracy    <          3.8E-09 Ry

     The total energy is the sum of the following terms:

     one-electron contribution =    -708.56599149 Ry
     hartree contribution      =     454.22261266 Ry
     xc contribution           =    -267.06492672 Ry
     ewald contribution        =    -375.58114978 Ry
     Dispersion Correction     =      -0.45850422 Ry

     convergence has been achieved in  11 iterations

     Forces acting on atoms (cartesian axes, Ry/au):

     atom    1 type  1   force =    -0.00799032   -0.00631883   -0.00373194
     atom    2 type  1   force =     0.00799032    0.00631883    0.00373194
     atom    3 type  1   force =     0.00835714   -0.00568150    0.00286492
     atom    4 type  1   force =    -0.00835714    0.00568150   -0.00286492
     atom    5 type  1   force =     0.00957612    0.00451423    0.00195581
     atom    6 type  1   force =    -0.00957612   -0.00451423   -0.00195581
     atom    7 type  1   force =    -0.01029876    0.00544071   -0.00182609
     atom    8 type  1   force =     0.01029876   -0.00544071    0.00182609
     atom    9 type  1   force =    -0.00269221   -0.00249958    0.00015443
     atom   10 type  1   force =     0.00269221    0.00249958   -0.00015443
     atom   11 type  1   force =     0.00286336   -0.00098677   -0.00296732
     atom   12 type  1   force =    -0.00286336    0.00098677    0.00296732
     atom   13 type  1   force =     0.00309223   -0.00026524   -0.00261830
     atom   14 type  1   force =    -0.00309223    0.00026524    0.00261830
     atom   15 type  1   force =    -0.00206270   -0.00154060    0.00291292
     atom   16 type  1   force =     0.00206270    0.00154060   -0.00291292
     atom   17 type  1   force =     0.00348401    0.00068893   -0.00106197
     atom   18 type  1   force =    -0.00348401   -0.00068893    0.00106197
     atom   19 type  1   force =    -0.00488007    0.00131504    0.00039287
     atom   20 type  1   force =     0.00488007   -0.00131504   -0.00039287
     atom   21 type  1   force =    -0.00559551   -0.00365658   -0.00228989
     atom   22 type  1   force =     0.00559551    0.00365658    0.00228989
     atom   23 type  1   force =     0.00611675   -0.00387239    0.00283940
     atom   24 type  1   force =    -0.00611675    0.00387239   -0.00283940
     atom   25 type  1   force =    -0.00553552   -0.00424662   -0.00704037
     atom   26 type  1   force =     0.00553552    0.00424662    0.00704037
     atom   27 type  1   force =     0.00561541   -0.00486149    0.00764456
     atom   28 type  1   force =    -0.00561541    0.00486149   -0.00764456
     atom   29 type  1   force =     0.00123508    0.00201990    0.00271069
     atom   30 type  1   force =    -0.00123508   -0.00201990   -0.00271069
     atom   31 type  1   force =    -0.00032435    0.00174585   -0.00408111
     atom   32 type  1   force =     0.00032435   -0.00174585    0.00408111
     atom   33 type  1   force =    -0.00136591    0.00164865    0.00717080
     atom   34 type  1   force =     0.00136591   -0.00164865   -0.00717080
     atom   35 type  1   force =     0.00174820    0.00174065   -0.00832129
     atom   36 type  1   force =    -0.00174820   -0.00174065    0.00832129
     atom   37 type  1   force =    -0.00723608   -0.00177295    0.00359611
     atom   38 type  1   force =     0.00723608    0.00177295   -0.00359611
     atom   39 type  1   force =     0.00631996   -0.00309821   -0.00286149
     atom   40 type  1   force =    -0.00631996    0.00309821    0.00286149
     atom   41 type  1   force =     0.00824189    0.00268571   -0.00653475
     atom   42 type  1   force =    -0.00824189   -0.00268571    0.00653475
     atom   43 type  1   force =    -0.00810655    0.00240139    0.00669354
     atom   44 type  1   force =     0.00810655   -0.00240139   -0.00669354
     atom   45 type  3   force =     0.00160028   -0.00145121   -0.00170153
     atom   46 type  3   force =    -0.00160028    0.00145121    0.00170153
     atom   47 type  3   force =    -0.00122954   -0.00026982    0.00177036
     atom   48 type  3   force =     0.00122954    0.00026982   -0.00177036
     atom   49 type  3   force =     0.00387579    0.00382602    0.00224872
     atom   50 type  3   force =    -0.00387579   -0.00382602   -0.00224872
     atom   51 type  3   force =    -0.00623434    0.00314768   -0.00014353
     atom   52 type  3   force =     0.00623434   -0.00314768    0.00014353
     atom   53 type  2   force =     0.00150444   -0.00419608   -0.00417507
     atom   54 type  2   force =    -0.00150444    0.00419608    0.00417507
     atom   55 type  2   force =    -0.00179050   -0.00421229    0.00413857
     atom   56 type  2   force =     0.00179050    0.00421229   -0.00413857
     atom   57 type  2   force =    -0.00095731   -0.00209144   -0.00173316
     atom   58 type  2   force =     0.00095731    0.00209144    0.00173316
     atom   59 type  2   force =     0.00095554   -0.00222072    0.00156384
     atom   60 type  2   force =    -0.00095554    0.00222072   -0.00156384
     atom   61 type  2   force =     0.00216093    0.00166230    0.00148987
     atom   62 type  2   force =    -0.00216093   -0.00166230   -0.00148987
     atom   63 type  2   force =    -0.00161638    0.00143432   -0.00180012
     atom   64 type  2   force =     0.00161638   -0.00143432    0.00180012
     atom   65 type  2   force =    -0.00177699    0.00099350   -0.00134324
     atom   66 type  2   force =     0.00177699   -0.00099350    0.00134324
     atom   67 type  2   force =     0.00064441    0.00192800    0.00094391
     atom   68 type  2   force =    -0.00064441   -0.00192800   -0.00094391
     atom   69 type  2   force =    -0.00106613    0.00086235    0.00462369
     atom   70 type  2   force =     0.00106613   -0.00086235   -0.00462369
     atom   71 type  2   force =     0.00116762    0.00125121   -0.00589711
     atom   72 type  2   force =    -0.00116762   -0.00125121    0.00589711
     atom   73 type  2   force =    -0.00307021   -0.00103656    0.00246288
     atom   74 type  2   force =     0.00307021    0.00103656   -0.00246288
     atom   75 type  2   force =     0.00170885   -0.00115211   -0.00145450
     atom   76 type  2   force =    -0.00170885    0.00115211    0.00145450
     atom   77 type  2   force =     0.00293370    0.00389318   -0.00408982
     atom   78 type  2   force =    -0.00293370   -0.00389318    0.00408982
     atom   79 type  2   force =    -0.00242995    0.00325713    0.00305054
     atom   80 type  2   force =     0.00242995   -0.00325713   -0.00305054
     atom   81 type  2   force =    -0.00279452   -0.00034648    0.00163315
     atom   82 type  2   force =     0.00279452    0.00034648   -0.00163315
     atom   83 type  2   force =     0.00309387   -0.00049858   -0.00189528
     atom   84 type  2   force =    -0.00309387    0.00049858    0.00189528
     atom   85 type  2   force =     0.00275358   -0.00236131    0.00113376
     atom   86 type  2   force =    -0.00275358    0.00236131   -0.00113376
     atom   87 type  2   force =    -0.00250807   -0.00233503   -0.00155024
     atom   88 type  2   force =     0.00250807    0.00233503    0.00155024
     atom   89 type  2   force =     0.00011956    0.00035216    0.00266282
     atom   90 type  2   force =    -0.00011956   -0.00035216   -0.00266282
     atom   91 type  2   force =     0.00070123    0.00061269   -0.00426959
     atom   92 type  2   force =    -0.00070123   -0.00061269    0.00426959
     atom   93 type  2   force =     0.00179829    0.00103312    0.00476344
     atom   94 type  2   force =    -0.00179829   -0.00103312   -0.00476344
     atom   95 type  2   force =    -0.00147405    0.00144629   -0.00621328
     atom   96 type  2   force =     0.00147405   -0.00144629    0.00621328
     atom   97 type  2   force =     0.00201697   -0.00171020   -0.00183638
     atom   98 type  2   force =    -0.00201697    0.00171020    0.00183638
     atom   99 type  2   force =    -0.00165589   -0.00162018    0.00140448
     atom  100 type  2   force =     0.00165589    0.00162018   -0.00140448
     atom  101 type  2   force =    -0.00185169    0.00087565   -0.00234149
     atom  102 type  2   force =     0.00185169   -0.00087565    0.00234149
     atom  103 type  2   force =     0.00229764    0.00112379    0.00210350
     atom  104 type  2   force =    -0.00229764   -0.00112379   -0.00210350
     atom  105 type  4   force =     0.00393656    0.00458497    0.00245487
     atom  106 type  4   force =    -0.00393656   -0.00458497   -0.00245487
     atom  107 type  4   force =    -0.00495672    0.00500735   -0.00257350
     atom  108 type  4   force =     0.00495672   -0.00500735    0.00257350

     Total force =     0.064569     Total SCF correction =     0.000127

     number of scf cycles    =   3
     number of bfgs steps    =   2

     energy   old            =    -897.4387747496 Ry
     energy   new            =    -897.4479595435 Ry

     CASE: energy  _new < energy  _old

     new trust radius        =       0.0139591608 bohr
     new conv_thr            =       0.0000000103 Ry


ATOMIC_POSITIONS (angstrom)
C        0.525769092   2.421551054   3.563092637
C        4.563140288   8.098448553   7.229372633
C        2.017920416   7.682991693   1.832828380
C        3.070988481   2.837008022   8.959637320
C       -0.785015019   2.093587747   4.187630427
C        5.873923843   8.426412903   6.604834053
C        3.328833136   7.353267409   1.208862662
C        1.760075893   3.166733154   9.583603019
C        1.422650494   3.306963023   4.245693254
C        3.666258502   7.213036833   6.546771975
C        1.119451717   8.568960394   1.150484999
C        3.969457061   1.951039292   9.641980965
C        7.209770997   1.295495340   3.500643772
C       -2.120861862   9.224504294   7.291821419
C        4.297840192   6.554527036   1.894610060
C        0.791068651   3.965472784   8.897855131
C        0.952567860   1.900565071   2.323340423
C        4.136341145   8.619434761   8.469124752
C        1.593130542   7.160159253   3.069662423
C        3.495778318   3.359840521   7.722803215
C        2.683300103   3.609139208   3.700415414
C        2.405608917   6.910860651   7.092049824
C       -0.141075896   8.870099014   1.697817919
C        5.229984780   1.649901048   9.094647946
C        6.017279917   0.927232258   4.101749725
C       -0.928370926   9.592767615   6.690715234
C        5.491318886   6.186704699   1.293606883
C       -0.402409997   4.333295257   9.498858297
C        3.055837500   3.077612864   2.471867612
C        2.033071808   7.442387060   8.320597681
C       -0.513920131   8.336475793   2.924086714
C        5.602828783   2.183523959   7.868378872
C        5.034751793  10.336189659   2.163852724
C        0.054157295   0.183810277   8.628612267
C        6.474494826   5.075448656   3.229948150
C       -1.385585733   5.444551348   7.562516924
C        2.186869359   2.224009634   1.775378631
C        2.902039643   8.295990503   9.017086810
C        0.357917268   7.482508542   3.617580652
C        4.730991753   3.037491659   7.174885061
C        3.816501018  10.427600965   4.324428909
C        1.272408053   0.092398997   6.468036272
C        7.693363323   5.168030222   1.069719282
C       -2.604454331   5.351969775   9.722745743
O       -1.024816715   2.564626958   5.365639735
O        6.113731030   7.955373632   5.426825902
O        3.568377039   7.825411412   0.034121067
O        1.520529047   2.694588565  10.758343831
O        1.063453878   3.866073221   5.419099052
O        4.025455031   6.653926551   5.373366226
O       -2.396780508   9.125135811  10.766293809
O        7.485688989   1.394864036   0.026172294
H        0.131928898   3.420380454   5.621358798
H        4.956980170   7.099620058   5.171107003
H       -1.463736743   8.680559132  10.566897165
H        6.552645246   1.839441121   0.225568573
H        7.424698446   0.988956282   2.486075697
H       -2.335789248   9.531043650   8.306389390
H        4.083436429   6.249139905   2.909291248
H        1.005472709   4.270859982   7.883174049
H        0.294921656   1.233461712   1.770390584
H        4.793987373   9.286538151   9.022074604
H        2.249723873   6.493487892   3.625578433
H        2.839185208   4.026512095   7.166887155
H        3.345070643   4.271105434   4.263493956
H        1.743838485   6.248894327   6.528971245
H        8.162298348   9.531317609   1.132767397
H       -3.073389410   0.988682239   9.659698133
H        5.861174976   1.220661423   5.141818244
H       -0.772265757   9.299338508   5.650646713
H        5.647013454   6.480867717   0.253815748
H       -0.558104662   4.039132281  10.538649439
H        4.023512805   3.318080679   2.030717366
H        1.065396430   7.201919303   8.761747735
H        7.482950412   8.577877774   3.366404844
H       -2.394041681   1.942122220   7.426060757
H        5.432517680   0.617299955   1.533962177
H       -0.343608585   9.902700037   9.258502892
H        6.076159928   5.876383252   3.861035609
H       -0.987250834   4.643616767   6.931429435
H        4.018342411  10.110501924   1.826886034
H        1.070566672   0.409498014   8.965578984
H        7.490251507   4.850228727   3.569116164
H       -2.401342358   5.669771324   7.223348780
H        5.645500267   9.430710551   2.035214840
H       -0.556591024   1.089289454   8.757250281
H        5.862658130   4.170635755   3.360493214
H       -0.773748938   6.349364202   7.431971946
H        2.483740716   1.813664751   0.809820732
H        2.605168202   8.706335285   9.982644749
H        0.061468778   7.074245332   4.583928162
H        5.027440194   3.445754643   6.208537402
H        3.924992973   0.274272983   5.350649438
H        1.163916376  10.245726988   5.441815715
H        7.583703672   5.534843245   0.044084025
H       -2.494794621   4.985156788  10.748381007
H        3.659586865   9.339175124   4.353299804
H        1.429322283   1.180824826   6.439165305
H        7.848816733   4.079564638   1.042621053
H       -2.759907745   6.440435353   9.749843961
H        2.929397681   0.380043362   3.872812104
H        2.159511385  10.139956725   6.919653213
H       -0.384684944   5.640210570   1.523620044
H        5.473593896   4.879789437   9.268845067
N        5.005453632   0.249032110   3.554809846
N        0.083455247  10.270967917   7.237655103
N        6.503343584   5.508507689   1.838290431
N       -1.414434512   5.011492436   8.954174673



     Writing output data file 2HP-1.save
     charge density from previous step

     total cpu time spent up to now is     1186.4 secs

     per-process dynamical memory:   436.7 Mb

     Self-consistent Calculation

     iteration #  1     ecut=    30.00 Ry     beta=0.70
     Davidson diagonalization with overlap
     ethr =  1.00E-06,  avg # of iterations =  6.0

     total cpu time spent up to now is     1251.5 secs

     total energy              =    -897.42036412 Ry
     Harris-Foulkes estimate   =    -897.47169892 Ry
     estimated scf accuracy    <       0.06551241 Ry

     iteration #  2     ecut=    30.00 Ry     beta=0.70
     Davidson diagonalization with overlap
     ethr =  2.21E-05,  avg # of iterations =  4.0

     total cpu time spent up to now is     1287.3 secs

     total energy              =    -897.42812943 Ry
     Harris-Foulkes estimate   =    -897.47353823 Ry
     estimated scf accuracy    <       0.09654934 Ry

     iteration #  3     ecut=    30.00 Ry     beta=0.70
     Davidson diagonalization with overlap
     ethr =  2.21E-05,  avg # of iterations =  4.0

     total cpu time spent up to now is     1318.9 secs

     total energy              =    -897.44860287 Ry
     Harris-Foulkes estimate   =    -897.45087019 Ry
     estimated scf accuracy    <       0.00482200 Ry

     iteration #  4     ecut=    30.00 Ry     beta=0.70
     Davidson diagonalization with overlap
     ethr =  1.63E-06,  avg # of iterations =  4.0

     total cpu time spent up to now is     1348.4 secs

     total energy              =    -897.44965453 Ry
     Harris-Foulkes estimate   =    -897.45001937 Ry
     estimated scf accuracy    <       0.00077507 Ry

     iteration #  5     ecut=    30.00 Ry     beta=0.70
     Davidson diagonalization with overlap
     ethr =  2.62E-07,  avg # of iterations =  4.0

     total cpu time spent up to now is     1377.2 secs

     total energy              =    -897.44983656 Ry
     Harris-Foulkes estimate   =    -897.44986936 Ry
     estimated scf accuracy    <       0.00007702 Ry

     iteration #  6     ecut=    30.00 Ry     beta=0.70
     Davidson diagonalization with overlap
     ethr =  2.60E-08,  avg # of iterations =  4.0

     total cpu time spent up to now is     1407.4 secs

     total energy              =    -897.44985295 Ry
     Harris-Foulkes estimate   =    -897.44985520 Ry
     estimated scf accuracy    <       0.00000498 Ry

     iteration #  7     ecut=    30.00 Ry     beta=0.70
     Davidson diagonalization with overlap
     ethr =  1.68E-09,  avg # of iterations =  4.0

     total cpu time spent up to now is     1442.9 secs

     total energy              =    -897.44985409 Ry
     Harris-Foulkes estimate   =    -897.44985535 Ry
     estimated scf accuracy    <       0.00000323 Ry

     iteration #  8     ecut=    30.00 Ry     beta=0.70
     Davidson diagonalization with overlap
     ethr =  1.09E-09,  avg # of iterations =  4.0

     total cpu time spent up to now is     1471.0 secs

     total energy              =    -897.44985473 Ry
     Harris-Foulkes estimate   =    -897.44985485 Ry
     estimated scf accuracy    <       0.00000029 Ry

     iteration #  9     ecut=    30.00 Ry     beta=0.70
     Davidson diagonalization with overlap
     ethr =  9.92E-11,  avg # of iterations =  4.0

     total cpu time spent up to now is     1504.2 secs

     total energy              =    -897.44985480 Ry
     Harris-Foulkes estimate   =    -897.44985482 Ry
     estimated scf accuracy    <       0.00000007 Ry

     iteration # 10     ecut=    30.00 Ry     beta=0.70
     Davidson diagonalization with overlap
     ethr =  2.21E-11,  avg # of iterations =  4.0

     total cpu time spent up to now is     1534.8 secs

     End of self-consistent calculation

          k = 0.0000 0.0000 0.0000 ( 19075 PWs)   bands (ev):

   -20.2687 -20.2634 -20.2621 -20.2575 -19.1314 -19.1247 -19.1092 -19.1022
   -18.3277 -18.3273 -18.3264 -18.3246 -15.0689 -15.0539 -15.0442 -15.0378
   -13.4413 -13.4073 -13.3883 -13.3589 -12.7241 -12.7044 -12.6931 -12.6679
   -12.2123 -12.2079 -12.1349 -12.1291 -12.0785 -12.0729 -12.0507 -12.0362
   -11.2198 -11.1799 -11.1687 -11.1176  -9.6774  -9.6483  -9.6015  -9.5921
    -8.8668  -8.7143  -8.7028  -8.6666  -8.5526  -8.4540  -8.4383  -8.4005
    -7.5707  -7.5620  -7.5196  -7.4922  -7.0501  -6.9884  -6.9806  -6.7744
    -6.4855  -6.4438  -6.3974  -6.3463  -6.2697  -6.1369  -6.1168  -6.0806
    -5.9495  -5.9253  -5.8984  -5.7587  -5.7199  -5.7020  -5.6745  -5.6271
    -5.3178  -5.2323  -5.1842  -5.1581  -4.8201  -4.6169  -4.5833  -4.5802
    -4.5706  -4.5553  -4.4395  -4.4216  -4.3510  -4.3018  -4.2903  -4.2010
    -4.2001  -4.1205  -4.1066  -4.1000  -4.0323  -3.9612  -3.8814  -3.8767
    -3.7964  -3.7652  -3.7519  -3.7174  -3.4270  -3.3981  -3.3591  -3.3531
    -3.3386  -3.2708  -3.2461  -3.1391  -3.0882  -3.0817  -3.0742  -2.9965
    -2.9487  -2.9372  -2.9070  -2.9024  -2.7730  -2.7226  -2.7101  -2.7055
    -2.1648  -2.1377  -2.1184  -2.1117  -2.0642  -1.9216  -1.8896  -1.8753
    -1.8547  -1.7648  -1.7499  -1.7284  -0.4916  -0.4614  -0.3256  -0.3177
     0.0597   0.0998   0.1444   0.1912   0.4396   0.4475   0.4694   0.4848
     0.7998   0.8164   0.9404   0.9668

[...]

     total cpu time spent up to now is    13913.6 secs

     total energy              =    -897.46312255 Ry
     Harris-Foulkes estimate   =    -897.46312310 Ry
     estimated scf accuracy    <       0.00000130 Ry

     iteration #  7     ecut=    30.00 Ry     beta=0.70
     Davidson diagonalization with overlap
     ethr =  4.40E-10,  avg # of iterations =  4.0

     total cpu time spent up to now is    13942.7 secs

     total energy              =    -897.46312282 Ry
     Harris-Foulkes estimate   =    -897.46312286 Ry
     estimated scf accuracy    <       0.00000011 Ry

     iteration #  8     ecut=    30.00 Ry     beta=0.70
     Davidson diagonalization with overlap
     ethr =  3.60E-11,  avg # of iterations =  4.0

     total cpu time spent up to now is    13974.1 secs

     total energy              =    -897.46312284 Ry
     Harris-Foulkes estimate   =    -897.46312285 Ry
     estimated scf accuracy    <       0.00000001 Ry

     iteration #  9     ecut=    30.00 Ry     beta=0.70
     Davidson diagonalization with overlap
     ethr =  4.52E-12,  avg # of iterations =  4.0

     total cpu time spent up to now is    14005.5 secs

     total energy              =    -897.46312284 Ry
     Harris-Foulkes estimate   =    -897.46312284 Ry
     estimated scf accuracy    <          2.7E-09 Ry

     iteration # 10     ecut=    30.00 Ry     beta=0.70
     Davidson diagonalization with overlap
     ethr =  9.03E-13,  avg # of iterations =  4.0

     total cpu time spent up to now is    14036.6 secs

     End of self-consistent calculation

          k = 0.0000 0.0000 0.0000 ( 19075 PWs)   bands (ev):

   -20.2751 -20.2697 -20.2501 -20.2451 -19.1166 -19.1094 -19.0786 -19.0717
   -18.3530 -18.3521 -18.3279 -18.3277 -15.0888 -15.0737 -15.0592 -15.0532
   -13.4914 -13.4607 -13.4387 -13.4159 -12.7469 -12.7233 -12.7212 -12.6815
   -12.2113 -12.1877 -12.1301 -12.1267 -12.0840 -12.0810 -12.0563 -12.0436
   -11.2358 -11.1899 -11.1824 -11.1299  -9.6897  -9.6678  -9.6137  -9.5998
    -8.8743  -8.7108  -8.7023  -8.6788  -8.5300  -8.4265  -8.4059  -8.3717
    -7.5670  -7.5559  -7.5225  -7.4936  -7.0564  -7.0014  -6.9861  -6.7848
    -6.4472  -6.4042  -6.3727  -6.3281  -6.2719  -6.1331  -6.1242  -6.0733
    -5.9628  -5.9361  -5.8988  -5.7521  -5.7363  -5.7223  -5.6994  -5.6426
    -5.3317  -5.2317  -5.1771  -5.1617  -4.8229  -4.5967  -4.5812  -4.5718
    -4.5624  -4.5546  -4.4639  -4.4305  -4.3416  -4.2984  -4.2837  -4.2169
    -4.1806  -4.1350  -4.1092  -4.0970  -4.0269  -3.9668  -3.9003  -3.8854
    -3.7912  -3.7797  -3.7576  -3.7286  -3.4583  -3.4073  -3.3572  -3.3527
    -3.3477  -3.2648  -3.2387  -3.1612  -3.1080  -3.1005  -3.0724  -2.9921
    -2.9719  -2.9496  -2.9349  -2.9076  -2.7697  -2.7260  -2.7096  -2.6943
    -2.1775  -2.1385  -2.1222  -2.1024  -2.0352  -1.9348  -1.9048  -1.8890
    -1.8795  -1.7869  -1.7274  -1.7168  -0.4863  -0.4648  -0.3302  -0.3259
     0.0444   0.0908   0.1423   0.1920   0.4319   0.4426   0.4641   0.4750
     0.7986   0.8041   0.9083   0.9629

     highest occupied level (ev):     0.9629

!    total energy              =    -897.46312284 Ry
     Harris-Foulkes estimate   =    -897.46312284 Ry
     estimated scf accuracy    <          4.0E-10 Ry

     The total energy is the sum of the following terms:

     one-electron contribution =    -716.92783302 Ry
     hartree contribution      =     458.38912013 Ry
     xc contribution           =    -267.27792475 Ry
     ewald contribution        =    -371.18757973 Ry
     Dispersion Correction     =      -0.45890548 Ry

     convergence has been achieved in  10 iterations

     Forces acting on atoms (cartesian axes, Ry/au):

     atom    1 type  1   force =     0.00029703   -0.00046988   -0.00038881
     atom    2 type  1   force =    -0.00029703    0.00046988    0.00038881
     atom    3 type  1   force =    -0.00034710   -0.00011542   -0.00006675
     atom    4 type  1   force =     0.00034710    0.00011542    0.00006675
     atom    5 type  1   force =    -0.00021740    0.00042636   -0.00005664
     atom    6 type  1   force =     0.00021740   -0.00042636    0.00005664
     atom    7 type  1   force =     0.00035482    0.00034670   -0.00013512
     atom    8 type  1   force =    -0.00035482   -0.00034670    0.00013512
     atom    9 type  1   force =     0.00028274   -0.00007824   -0.00057147
     atom   10 type  1   force =    -0.00028274    0.00007824    0.00057147
     atom   11 type  1   force =    -0.00083439   -0.00003985    0.00074490
     atom   12 type  1   force =     0.00083439    0.00003985   -0.00074490
     atom   13 type  1   force =    -0.00020868   -0.00050144   -0.00022752
     atom   14 type  1   force =     0.00020868    0.00050144    0.00022752
     atom   15 type  1   force =     0.00013716   -0.00040315    0.00023640
     atom   16 type  1   force =    -0.00013716    0.00040315   -0.00023640
     atom   17 type  1   force =    -0.00010118    0.00033433    0.00011728
     atom   18 type  1   force =     0.00010118   -0.00033433   -0.00011728
     atom   19 type  1   force =    -0.00053684    0.00029925    0.00022906
     atom   20 type  1   force =     0.00053684   -0.00029925   -0.00022906
     atom   21 type  1   force =     0.00035235   -0.00040887   -0.00071019
     atom   22 type  1   force =    -0.00035235    0.00040887    0.00071019
     atom   23 type  1   force =    -0.00000398   -0.00006530    0.00044646
     atom   24 type  1   force =     0.00000398    0.00006530   -0.00044646
     atom   25 type  1   force =    -0.00030497   -0.00077922   -0.00010757
     atom   26 type  1   force =     0.00030497    0.00077922    0.00010757
     atom   27 type  1   force =     0.00014132   -0.00045861   -0.00010130
     atom   28 type  1   force =    -0.00014132    0.00045861    0.00010130
     atom   29 type  1   force =     0.00008395    0.00011585    0.00000793
     atom   30 type  1   force =    -0.00008395   -0.00011585   -0.00000793
     atom   31 type  1   force =     0.00003229   -0.00019953    0.00019899
     atom   32 type  1   force =    -0.00003229    0.00019953   -0.00019899
     atom   33 type  1   force =    -0.00030992   -0.00013826   -0.00066119
     atom   34 type  1   force =     0.00030992    0.00013826    0.00066119
     atom   35 type  1   force =     0.00061852   -0.00022875    0.00044532
     atom   36 type  1   force =    -0.00061852    0.00022875   -0.00044532
     atom   37 type  1   force =     0.00043112   -0.00002245   -0.00066205
     atom   38 type  1   force =    -0.00043112    0.00002245    0.00066205
     atom   39 type  1   force =    -0.00001676   -0.00002984   -0.00008688
     atom   40 type  1   force =     0.00001676    0.00002984    0.00008688
     atom   41 type  1   force =     0.00006366    0.00083659    0.00016833
     atom   42 type  1   force =    -0.00006366   -0.00083659   -0.00016833
     atom   43 type  1   force =    -0.00008143    0.00072832   -0.00018468
     atom   44 type  1   force =     0.00008143   -0.00072832    0.00018468
     atom   45 type  3   force =    -0.00068229    0.00020429    0.00000165
     atom   46 type  3   force =     0.00068229   -0.00020429   -0.00000165
     atom   47 type  3   force =     0.00015670    0.00016239   -0.00072974
     atom   48 type  3   force =    -0.00015670   -0.00016239    0.00072974
     atom   49 type  3   force =    -0.00010521   -0.00028133   -0.00083060
     atom   50 type  3   force =     0.00010521    0.00028133    0.00083060
     atom   51 type  3   force =    -0.00039875   -0.00060614    0.00031922
     atom   52 type  3   force =     0.00039875    0.00060614   -0.00031922
     atom   53 type  2   force =    -0.00016174    0.00012668    0.00056856
     atom   54 type  2   force =     0.00016174   -0.00012668   -0.00056856
     atom   55 type  2   force =    -0.00009821   -0.00009664   -0.00024299
     atom   56 type  2   force =     0.00009821    0.00009664    0.00024299
     atom   57 type  2   force =    -0.00016327   -0.00059141   -0.00035692
     atom   58 type  2   force =     0.00016327    0.00059141    0.00035692
     atom   59 type  2   force =     0.00028661   -0.00073542    0.00026552
     atom   60 type  2   force =    -0.00028661    0.00073542   -0.00026552
     atom   61 type  2   force =     0.00009183    0.00043278    0.00020603
     atom   62 type  2   force =    -0.00009183   -0.00043278   -0.00020603
     atom   63 type  2   force =    -0.00018328    0.00066078    0.00014307
     atom   64 type  2   force =     0.00018328   -0.00066078   -0.00014307
     atom   65 type  2   force =    -0.00020934    0.00002468   -0.00020320
     atom   66 type  2   force =     0.00020934   -0.00002468    0.00020320
     atom   67 type  2   force =    -0.00006719    0.00041263   -0.00010235
     atom   68 type  2   force =     0.00006719   -0.00041263    0.00010235
     atom   69 type  2   force =     0.00040164   -0.00027250    0.00058075
     atom   70 type  2   force =    -0.00040164    0.00027250   -0.00058075
     atom   71 type  2   force =    -0.00009662   -0.00050437   -0.00016629
     atom   72 type  2   force =     0.00009662    0.00050437    0.00016629
     atom   73 type  2   force =     0.00016776   -0.00032381    0.00035841
     atom   74 type  2   force =    -0.00016776    0.00032381   -0.00035841
     atom   75 type  2   force =     0.00037646    0.00003996   -0.00031364
     atom   76 type  2   force =    -0.00037646   -0.00003996    0.00031364
     atom   77 type  2   force =     0.00028587    0.00027809   -0.00058847
     atom   78 type  2   force =    -0.00028587   -0.00027809    0.00058847
     atom   79 type  2   force =    -0.00016295    0.00023083    0.00048728
     atom   80 type  2   force =     0.00016295   -0.00023083   -0.00048728
     atom   81 type  2   force =    -0.00029803   -0.00045862   -0.00015324
     atom   82 type  2   force =     0.00029803    0.00045862    0.00015324
     atom   83 type  2   force =     0.00037554   -0.00046816   -0.00011727
     atom   84 type  2   force =    -0.00037554    0.00046816    0.00011727
     atom   85 type  2   force =     0.00009823   -0.00028524    0.00081015
     atom   86 type  2   force =    -0.00009823    0.00028524   -0.00081015
     atom   87 type  2   force =     0.00025139   -0.00032034   -0.00031296
     atom   88 type  2   force =    -0.00025139    0.00032034    0.00031296
     atom   89 type  2   force =     0.00004377    0.00008831    0.00009348
     atom   90 type  2   force =    -0.00004377   -0.00008831   -0.00009348
     atom   91 type  2   force =    -0.00025148   -0.00025654    0.00047711
     atom   92 type  2   force =     0.00025148    0.00025654   -0.00047711
     atom   93 type  2   force =     0.00008113    0.00029657    0.00015314
     atom   94 type  2   force =    -0.00008113   -0.00029657   -0.00015314
     atom   95 type  2   force =     0.00009539    0.00022795    0.00005725
     atom   96 type  2   force =    -0.00009539   -0.00022795   -0.00005725
     atom   97 type  2   force =     0.00012518    0.00090139   -0.00014492
     atom   98 type  2   force =    -0.00012518   -0.00090139    0.00014492
     atom   99 type  2   force =     0.00023948    0.00087600    0.00002345
     atom  100 type  2   force =    -0.00023948   -0.00087600   -0.00002345
     atom  101 type  2   force =    -0.00015455   -0.00023728   -0.00009521
     atom  102 type  2   force =     0.00015455    0.00023728    0.00009521
     atom  103 type  2   force =     0.00005801   -0.00012863    0.00028923
     atom  104 type  2   force =    -0.00005801    0.00012863   -0.00028923
     atom  105 type  4   force =    -0.00010662    0.00020201   -0.00010890
     atom  106 type  4   force =     0.00010662   -0.00020201    0.00010890
     atom  107 type  4   force =     0.00048257   -0.00027428    0.00049027
     atom  108 type  4   force =    -0.00048257    0.00027428   -0.00049027

     Total force =     0.006505     Total SCF correction =     0.000042

     bfgs converged in  37 scf cycles and  36 bfgs steps
     (criteria: energy <  1.0E-04 Ry, force <  1.0E-03 Ry/Bohr)

     End of BFGS Geometry Optimization

     Final energy   =    -897.4631228435 Ry
Begin final coordinates

ATOMIC_POSITIONS (angstrom)
C        0.573403031   2.397628256   3.563564532
C        4.515506349   8.122371351   7.228900737
C        1.985930308   7.668211900   1.803307749
C        3.102978590   2.851787815   8.989157951
C       -0.734386907   2.088393692   4.181686358
C        5.823295730   8.431606958   6.610778123
C        3.291206464   7.357954279   1.179696844
C        1.797702566   3.162046285   9.612768836
C        1.460320510   3.298375122   4.236087633
C        3.628588486   7.221624734   6.556377596
C        1.092933359   8.567769071   1.136903981
C        3.995975420   1.952230616   9.655561983
C        7.249967000   1.328918919   3.478166567
C       -2.161057865   9.191080716   7.314298624
C        4.272368762   6.590953752   1.871654109
C        0.816540082   3.929046067   8.920811083
C        0.993982128   1.856979099   2.331186509
C        4.094926877   8.663020732   8.461278666
C        1.568890191   7.120484280   3.031727801
C        3.520018669   3.399515494   7.760737838
C        2.702760778   3.622502166   3.668294810
C        2.386148242   6.897497693   7.124170428
C       -0.152889312   8.882870923   1.704732765
C        5.241798196   1.637129139   9.087733101
C        6.041496274   1.027491202   4.075604106
C       -0.952587283   9.492508671   6.716860852
C        5.476656088   6.291332384   1.263988499
C       -0.387747199   4.228667571   9.528476682
C        3.078937876   3.069576188   2.451455054
C        2.009971432   7.450423736   8.341010239
C       -0.528135954   8.319382602   2.916478490
C        5.617044606   2.200617149   7.875987096
C        5.055944392  10.382553875   2.168771594
C        0.032964696   0.137446061   8.623693397
C        6.467265291   5.125412977   3.164811417
C       -1.378356197   5.394587026   7.627653657
C        2.224567445   2.185045324   1.777367340
C        2.864341557   8.334954814   9.015098101
C        0.335762601   7.439696994   3.585685846
C        4.753146420   3.080303207   7.206779867
C        3.838608975  10.537993999   4.317369516
C        1.250300096  -0.017994037   6.475095665
C        7.677651724   5.282224815   1.011433509
C       -2.588742732   5.237775182   9.781031516
O       -0.958364313   2.552579591   5.367863687
O        6.047278628   7.967420998   5.424601950
O        3.513882388   7.825653882  -0.003807190
O        1.575023697   2.694346094  10.796272089
O        1.112100505   3.854601790   5.412712565
O        3.976808404   6.665397981   5.379752713
O       -2.436603720   9.123971357  10.751090801
O        7.525512200   1.396028490   0.041375302
H        0.185262913   3.383948775   5.613176089
H        4.903646155   7.136051736   5.179289713
H       -1.510630932   8.654546014  10.547589908
H        6.599539435   1.865454238   0.244875830
H        7.459853321   1.004035223   2.464797497
H       -2.370944123   9.515964709   8.327667591
H        4.069415087   6.263919371   2.886186205
H        1.019494051   4.256080516   7.906279092
H        0.347337145   1.167353440   1.793404045
H        4.741571884   9.352646423   8.999061143
H        2.217690110   6.430029080   3.566109405
H        2.871218971   4.089970907   7.226356183
H        3.346086118   4.318110608   4.209261768
H        1.742823010   6.201889152   6.583203434
H        8.163959762   9.575374660   1.165124986
H       -3.075050824   0.944625188   9.627340545
H        5.881529070   1.351503127   5.105883230
H       -0.792619851   9.168496804   5.686581726
H        5.628933334   6.617445815   0.233247071
H       -0.540024543   3.902554183  10.559218115
H        4.041198074   3.320544825   2.002501817
H        1.047711161   7.199455156   8.789963284
H        7.469622271   8.557155455   3.365410658
H       -2.380713540   1.962844539   7.427054944
H        5.454686871   0.627125822   1.494734298
H       -0.365777776   9.892874170   9.297730771
H        6.060367075   5.886886111   3.839413593
H       -0.971457981   4.633113908   6.953051451
H        4.037700432  10.134753308   1.851436587
H        1.051208651   0.385246630   8.941028430
H        7.486348873   4.884099637   3.484444376
H       -2.397439724   5.635900413   7.308020568
H        5.675449428   9.474455020   2.104691005
H       -0.586540184   1.045544985   8.687774116
H        5.852452684   4.213754161   3.224984447
H       -0.763543492   6.306245797   7.567480713
H        2.531046995   1.747501458   0.827788885
H        2.557861922   8.772498577   9.964676597
H        0.033289245   6.995684835   4.533063106
H        5.055619727   3.524315141   6.259402458
H        3.961382888   0.378323702   5.344847211
H        1.127526461  10.141676269   5.447617942
H        7.547963476   5.640979883  -0.015782469
H       -2.459054425   4.879020150  10.808247501
H        3.713044990   9.444162848   4.333274127
H        1.375864158   1.075837102   6.459190982
H        7.802920197   4.188494872   0.997319713
H       -2.714011209   6.331505120   9.795145301
H        2.941601301   0.479046872   3.871412045
H        2.147307765  10.040953215   6.921053272
H       -0.387314557   5.744687398   1.451765404
H        5.476223510   4.775312609   9.340699707
N        5.013589364   0.370931764   3.533365273
N        0.075319515  10.149068264   7.259099675
N        6.506290553   5.634452316   1.800133449
N       -1.417381481   4.885547809   8.992331654
End final coordinates



     Writing output data file 2HP-1.save
 
     init_run     :     21.93s CPU     23.08s WALL (       1 calls)
     electrons    :  12874.62s CPU  13042.07s WALL (      37 calls)
     update_pot   :     27.98s CPU     28.12s WALL (      36 calls)
     forces       :    904.88s CPU    916.41s WALL (      37 calls)

     Called by init_run:
     wfcinit      :     14.64s CPU     15.21s WALL (       1 calls)
     potinit      :      2.93s CPU      2.96s WALL (       1 calls)

     Called by electrons:
     c_bands      :  10545.72s CPU  10611.73s WALL (     389 calls)
     sum_band     :   1430.69s CPU   1482.04s WALL (     389 calls)
     v_of_rho     :    138.95s CPU    139.29s WALL (     426 calls)
     newd         :    301.85s CPU    351.90s WALL (     426 calls)
     mix_rho      :     26.09s CPU     28.35s WALL (     389 calls)

     Called by c_bands:
     init_us_2    :     56.56s CPU     56.79s WALL (     779 calls)
     cegterg      :  10321.45s CPU  10387.04s WALL (     389 calls)

     Called by sum_band:
     sum_band:bec :      0.36s CPU      0.36s WALL (     389 calls)
     addusdens    :    318.90s CPU    367.92s WALL (     389 calls)

     Called by *egterg:
     h_psi        :   5923.46s CPU   5933.37s WALL (    1932 calls)
     s_psi        :   1395.82s CPU   1397.29s WALL (    1932 calls)
     g_psi        :     19.00s CPU     19.03s WALL (    1542 calls)
     cdiaghg      :    338.33s CPU    339.12s WALL (    1895 calls)

     Called by h_psi:
     h_psi:pot    :   5891.72s CPU   5901.53s WALL (    1932 calls)
     h_psi:calbec :   1280.53s CPU   1281.92s WALL (    1932 calls)
     vloc_psi     :   3215.30s CPU   3222.25s WALL (    1932 calls)
     add_vuspsi   :   1395.87s CPU   1397.34s WALL (    1932 calls)

     General routines
     calbec       :   1860.81s CPU   1862.80s WALL (    2469 calls)
     fft          :     71.67s CPU     72.29s WALL (    5539 calls)
     fftw         :   3324.46s CPU   3330.79s WALL (  398180 calls)
     davcio       :      0.01s CPU      0.95s WALL (      37 calls)
 
     Parallel routines
     fft_scatter  :    444.89s CPU    446.34s WALL (  403719 calls)
 
     PWSCF        :     3h51m CPU        3h54m WALL

 
   This run was terminated on:  21:54:18   4Oct2017            

=------------------------------------------------------------------------------=
   JOB DONE.
=------------------------------------------------------------------------------=
