 Entering Gaussian System, Link 0=g09
 Input=2hp_1_666-mega_dimer_1_mon-0.com
 Output=2hp_1_666-mega_dimer_1_mon-0.out
 Initial command:
 /share/apps/gaussian/g09_D01/g09/l1.exe "/tmp/160983.1.all.q/Gau-31490.inp" -scrdir="/tmp/160983.1.all.q/"
 Entering Link 1 = /share/apps/gaussian/g09_D01/g09/l1.exe PID=     31491.
  
 Copyright (c) 1988,1990,1992,1993,1995,1998,2003,2009,2013,
            Gaussian, Inc.  All Rights Reserved.
  
 This is part of the Gaussian(R) 09 program.  It is based on
 the Gaussian(R) 03 system (copyright 2003, Gaussian, Inc.),
 the Gaussian(R) 98 system (copyright 1998, Gaussian, Inc.),
 the Gaussian(R) 94 system (copyright 1995, Gaussian, Inc.),
 the Gaussian 92(TM) system (copyright 1992, Gaussian, Inc.),
 the Gaussian 90(TM) system (copyright 1990, Gaussian, Inc.),
 the Gaussian 88(TM) system (copyright 1988, Gaussian, Inc.),
 the Gaussian 86(TM) system (copyright 1986, Carnegie Mellon
 University), and the Gaussian 82(TM) system (copyright 1983,
 Carnegie Mellon University). Gaussian is a federally registered
 trademark of Gaussian, Inc.
  
 This software contains proprietary and confidential information,
 including trade secrets, belonging to Gaussian, Inc.
  
 This software is provided under written license and may be
 used, copied, transmitted, or stored only in accord with that
 written license.
  
 The following legend is applicable only to US Government
 contracts under FAR:
  
                    RESTRICTED RIGHTS LEGEND
  
 Use, reproduction and disclosure by the US Government is
 subject to restrictions as set forth in subparagraphs (a)
 and (c) of the Commercial Computer Software - Restricted
 Rights clause in FAR 52.227-19.
  
 Gaussian, Inc.
 340 Quinnipiac St., Bldg. 40, Wallingford CT 06492
  
  
 ---------------------------------------------------------------
 Warning -- This program may not be used in any manner that
 competes with the business of Gaussian, Inc. or will provide
 assistance to any competitor of Gaussian, Inc.  The licensee
 of this program is prohibited from giving any competitor of
 Gaussian, Inc. access to this program.  By using this program,
 the user acknowledges that Gaussian, Inc. is engaged in the
 business of creating and licensing software in the field of
 computational chemistry and represents and warrants to the
 licensee that it is not a competitor of Gaussian, Inc. and that
 it will not use this program in any manner prohibited above.
 ---------------------------------------------------------------
  

 Cite this work as:
 Gaussian 09, Revision D.01,
 M. J. Frisch, G. W. Trucks, H. B. Schlegel, G. E. Scuseria, 
 M. A. Robb, J. R. Cheeseman, G. Scalmani, V. Barone, B. Mennucci, 
 G. A. Petersson, H. Nakatsuji, M. Caricato, X. Li, H. P. Hratchian, 
 A. F. Izmaylov, J. Bloino, G. Zheng, J. L. Sonnenberg, M. Hada, 
 M. Ehara, K. Toyota, R. Fukuda, J. Hasegawa, M. Ishida, T. Nakajima, 
 Y. Honda, O. Kitao, H. Nakai, T. Vreven, J. A. Montgomery, Jr., 
 J. E. Peralta, F. Ogliaro, M. Bearpark, J. J. Heyd, E. Brothers, 
 K. N. Kudin, V. N. Staroverov, T. Keith, R. Kobayashi, J. Normand, 
 K. Raghavachari, A. Rendell, J. C. Burant, S. S. Iyengar, J. Tomasi, 
 M. Cossi, N. Rega, J. M. Millam, M. Klene, J. E. Knox, J. B. Cross, 
 V. Bakken, C. Adamo, J. Jaramillo, R. Gomperts, R. E. Stratmann, 
 O. Yazyev, A. J. Austin, R. Cammi, C. Pomelli, J. W. Ochterski, 
 R. L. Martin, K. Morokuma, V. G. Zakrzewski, G. A. Voth, 
 P. Salvador, J. J. Dannenberg, S. Dapprich, A. D. Daniels, 
 O. Farkas, J. B. Foresman, J. V. Ortiz, J. Cioslowski, 
 and D. J. Fox, Gaussian, Inc., Wallingford CT, 2013.
 
 ******************************************
 Gaussian 09:  ES64L-G09RevD.01 24-Apr-2013
                 2-Nov-2017 
 ******************************************
 %chk=2hp_1_666-mega_dimer_1_mon-0.chk
 %nproc=4
 Will use up to    4 processors via shared memory.
 %mem=28GB
 ------------------------------------------
 #p wb97xd 6-311++G** td=(nstates=4) nosymm
 ------------------------------------------
 1/38=1/1;
 2/12=2,15=1,17=6,18=5,40=1/2;
 3/5=4,6=6,7=1111,11=9,16=1,25=1,30=1,74=-58/1,2,8,3;
 4//1;
 5/5=2,38=5/2;
 8/6=1,10=2,108=4/1;
 9/41=4,42=1,70=2/14;
 6/7=2,8=2,9=2,10=2/1;
 99/5=1,9=1/99;
 Leave Link    1 at Thu Nov  2 21:45:22 2017, MaxMem=  3758096384 cpu:         0.4
 (Enter /share/apps/gaussian/g09_D01/g09/l101.exe)
 -----
 Title
 -----
 Symbolic Z-matrix:
 Charge =  0 Multiplicity = 1
 C                    -0.54951  -2.42138  -3.55649 
 C                     0.74895  -2.08453  -4.18568 
 C                    -1.43513  -3.31655  -4.23424 
 C                    -0.97049  -1.88884  -2.32067 
 O                     0.97291  -2.54916  -5.37048 
 C                     1.71264  -1.29227  -3.49646 
 C                    -2.6783   -3.64264  -3.66946 
 O                    -1.09448  -3.86225  -5.41902 
 C                    -2.20588  -2.20888  -1.77397 
 H                    -0.32039  -1.20876  -1.77577 
 H                    -0.16994  -3.39405  -5.62068 
 C                     2.90116  -0.93661  -4.10727 
 H                     1.50564  -0.97222  -2.48087 
 C                    -3.05865  -3.08971  -2.45419 
 H                    -3.31845  -4.33967  -4.21227 
 H                    -2.51551  -1.77451  -0.8237 
 H                     3.05759  -1.22821  -5.14763 
 N                     3.91161  -0.25941  -3.55922 
 H                    -4.02792  -3.33455  -2.01604 
 C                     3.89341   0.16759  -2.16824 
 C                     5.096     0.09482  -4.32835 
 H                     3.50174  -0.63369  -1.53236 
 H                     4.91675   0.39632  -1.85152 
 H                     3.27869   1.07256  -2.04255 
 H                     4.98463  -0.26455  -5.35744 
 H                     5.98331  -0.36969  -3.87004 
 H                     5.22622   1.18749  -4.33987 
 
 NAtoms=     27 NQM=       27 NQMF=       0 NMMI=      0 NMMIF=      0
                NMic=       0 NMicF=      0.
                    Isotopes and Nuclear Properties:
 (Nuclear quadrupole moments (NQMom) in fm**2, nuclear magnetic moments (NMagM)
  in nuclear magnetons)

  Atom         1           2           3           4           5           6           7           8           9          10
 IAtWgt=          12          12          12          12          16          12          12          16          12           1
 AtmWgt=  12.0000000  12.0000000  12.0000000  12.0000000  15.9949146  12.0000000  12.0000000  15.9949146  12.0000000   1.0078250
 NucSpn=           0           0           0           0           0           0           0           0           0           1
 AtZEff=   0.0000000   0.0000000   0.0000000   0.0000000   0.0000000   0.0000000   0.0000000   0.0000000   0.0000000   0.0000000
 NQMom=    0.0000000   0.0000000   0.0000000   0.0000000   0.0000000   0.0000000   0.0000000   0.0000000   0.0000000   0.0000000
 NMagM=    0.0000000   0.0000000   0.0000000   0.0000000   0.0000000   0.0000000   0.0000000   0.0000000   0.0000000   2.7928460
 AtZNuc=   6.0000000   6.0000000   6.0000000   6.0000000   8.0000000   6.0000000   6.0000000   8.0000000   6.0000000   1.0000000

  Atom        11          12          13          14          15          16          17          18          19          20
 IAtWgt=           1          12           1          12           1           1           1          14           1          12
 AtmWgt=   1.0078250  12.0000000   1.0078250  12.0000000   1.0078250   1.0078250   1.0078250  14.0030740   1.0078250  12.0000000
 NucSpn=           1           0           1           0           1           1           1           2           1           0
 AtZEff=   0.0000000   0.0000000   0.0000000   0.0000000   0.0000000   0.0000000   0.0000000   0.0000000   0.0000000   0.0000000
 NQMom=    0.0000000   0.0000000   0.0000000   0.0000000   0.0000000   0.0000000   0.0000000   2.0440000   0.0000000   0.0000000
 NMagM=    2.7928460   0.0000000   2.7928460   0.0000000   2.7928460   2.7928460   2.7928460   0.4037610   2.7928460   0.0000000
 AtZNuc=   1.0000000   6.0000000   1.0000000   6.0000000   1.0000000   1.0000000   1.0000000   7.0000000   1.0000000   6.0000000

  Atom        21          22          23          24          25          26          27
 IAtWgt=          12           1           1           1           1           1           1
 AtmWgt=  12.0000000   1.0078250   1.0078250   1.0078250   1.0078250   1.0078250   1.0078250
 NucSpn=           0           1           1           1           1           1           1
 AtZEff=   0.0000000   0.0000000   0.0000000   0.0000000   0.0000000   0.0000000   0.0000000
 NQMom=    0.0000000   0.0000000   0.0000000   0.0000000   0.0000000   0.0000000   0.0000000
 NMagM=    0.0000000   2.7928460   2.7928460   2.7928460   2.7928460   2.7928460   2.7928460
 AtZNuc=   6.0000000   1.0000000   1.0000000   1.0000000   1.0000000   1.0000000   1.0000000
 Leave Link  101 at Thu Nov  2 21:45:23 2017, MaxMem=  3758096384 cpu:         0.3
 (Enter /share/apps/gaussian/g09_D01/g09/l202.exe)
                          Input orientation:                          
 ---------------------------------------------------------------------
 Center     Atomic      Atomic             Coordinates (Angstroms)
 Number     Number       Type             X           Y           Z
 ---------------------------------------------------------------------
      1          6           0       -0.549514   -2.421375   -3.556489
      2          6           0        0.748952   -2.084530   -4.185680
      3          6           0       -1.435128   -3.316549   -4.234244
      4          6           0       -0.970489   -1.888841   -2.320671
      5          8           0        0.972908   -2.549156   -5.370477
      6          6           0        1.712641   -1.292266   -3.496460
      7          6           0       -2.678296   -3.642643   -3.669457
      8          8           0       -1.094483   -3.862251   -5.419024
      9          6           0       -2.205884   -2.208878   -1.773965
     10          1           0       -0.320388   -1.208760   -1.775770
     11          1           0       -0.169942   -3.394053   -5.620683
     12          6           0        2.901163   -0.936609   -4.107270
     13          1           0        1.505636   -0.972217   -2.480867
     14          6           0       -3.058648   -3.089708   -2.454186
     15          1           0       -3.318449   -4.339669   -4.212269
     16          1           0       -2.515509   -1.774510   -0.823695
     17          1           0        3.057591   -1.228212   -5.147628
     18          7           0        3.911606   -0.259407   -3.559222
     19          1           0       -4.027919   -3.334554   -2.016044
     20          6           0        3.893413    0.167594   -2.168239
     21          6           0        5.095997    0.094821   -4.328347
     22          1           0        3.501736   -0.633692   -1.532362
     23          1           0        4.916749    0.396317   -1.851515
     24          1           0        3.278691    1.072565   -2.042548
     25          1           0        4.984634   -0.264548   -5.357440
     26          1           0        5.983314   -0.369690   -3.870035
     27          1           0        5.226221    1.187487   -4.339873
 ---------------------------------------------------------------------
                    Distance matrix (angstroms):
                    1          2          3          4          5
     1  C    0.000000
     2  C    1.481675   0.000000
     3  C    1.430035   2.508074   0.000000
     4  C    1.409985   2.544215   2.432283   0.000000
     5  O    2.371634   1.292199   2.771021   3.676156   0.000000
     6  C    2.528999   1.425273   3.814511   2.989577   2.374640
     7  C    2.456821   3.800030   1.403848   2.794933   4.173784
     8  O    2.417054   2.842478   1.348159   3.675529   2.449629
     9  C    2.442562   3.816135   2.806060   1.388349   4.812006
    10  H    2.166540   2.778152   3.424838   1.087225   4.048604
    11  H    2.313239   2.149058   1.878541   3.714380   1.443108
    12  C    3.796717   2.440468   4.948096   4.369024   2.813213
    13  H    2.735080   2.171681   4.149496   2.645195   3.334724
    14  C    2.820903   4.301892   2.419893   2.412533   5.005037
    15  H    3.431749   4.650818   2.143398   3.885565   4.791986
    16  H    3.428080   4.696356   3.895761   2.154320   5.782937
    17  H    4.119049   2.643565   5.037851   4.965234   2.477995
    18  N    4.957389   3.704849   6.195913   5.293762   4.142408
    19  H    3.912310   5.393364   3.412228   3.395698   6.072672
    20  C    5.326312   4.362312   6.693353   5.282963   5.115116
    21  C    6.228868   4.864846   7.368982   6.690884   5.007645
    22  H    4.868832   4.089358   6.234622   4.711436   4.979468
    23  H    6.381720   5.382700   7.733635   6.332584   6.050850
    24  H    5.399517   4.578192   6.803524   5.186792   5.432183
    25  H    6.206619   4.756717   7.196501   6.879228   4.616660
    26  H    6.854602   5.517142   7.990614   7.284485   5.666177
    27  H    6.855413   5.547595   8.041832   7.206954   5.754591
                    6          7          8          9         10
     6  C    0.000000
     7  C    4.983425   0.000000
     8  O    4.263921   2.370164   0.000000
     9  C    4.377443   2.423168   4.153951   0.000000
    10  H    2.664762   3.881954   4.573132   2.134323   0.000000
    11  H    3.531848   3.187620   1.055771   4.510758   4.425098
    12  C    1.382811   6.216483   5.123013   5.757162   3.986019
    13  H    1.084763   5.103842   4.872954   3.975478   1.971669
    14  C    5.204069   1.388268   3.639372   1.402059   3.390617
    15  H    5.925446   1.091002   2.574919   3.423945   4.972674
    16  H    5.025285   3.408047   5.243570   1.089751   2.458674
    17  H    2.130575   6.396473   4.924585   6.328308   4.772897
    18  N    2.430264   7.408458   6.442071   6.664178   4.689536
    19  H    6.270295   2.156427   4.523691   2.155356   4.280481
    20  C    2.941280   7.743315   7.189323   6.557781   4.450225
    21  C    3.750086   8.651150   7.427654   8.071516   6.127985
    22  H    2.737200   7.198177   6.830444   5.925918   3.872800
    23  H    3.977872   8.792202   8.185196   7.584521   5.478103
    24  H    3.187287   7.769538   7.407945   6.396919   4.269541
    25  H    3.901972   8.542910   7.064200   8.265910   6.470174
    26  H    4.385129   9.261530   8.043169   8.650959   6.695270
    27  H    4.382438   9.287680   8.161845   8.564775   6.563650
                   11         12         13         14         15
    11  H    0.000000
    12  C    4.214396   0.000000
    13  H    4.304799   2.143350   0.000000
    14  C    4.296970   6.548883   5.031617   0.000000
    15  H    3.576439   7.090516   6.132641   2.172730   0.000000
    16  H    5.579937   6.389388   4.422612   2.164081   4.325181
    17  H    3.915561   1.091717   3.096080   6.937447   7.156113
    18  N    5.543885   1.334149   2.731234   7.603693   8.327587
    19  H    5.280241   7.624667   6.034644   1.091515   2.517341
    20  C    6.412141   2.442062   2.664279   7.682638   8.746681
    21  C    6.447673   2.435163   4.176415   8.952762   9.512154
    22  H    6.149405   2.661315   2.235772   7.065438   8.211644
    23  H    7.378886   3.305709   3.728895   8.724823   9.788831
    24  H    6.681826   2.905578   2.741711   7.593143   8.804670
    25  H    6.035955   2.521000   4.569343   9.005820   9.319829
    26  H    7.076305   3.142822   4.726778   9.547785  10.119321
    27  H    7.193717   3.157813   4.686467   9.512585  10.177285
                   16         17         18         19         20
    16  H    0.000000
    17  H    7.074905   0.000000
    18  N    7.147479   2.047183   0.000000
    19  H    2.478471   8.027948   8.652975   0.000000
    20  C    6.830362   3.394647   1.455161   8.662315   0.000000
    21  C    8.585570   2.564515   1.455958  10.017644   2.473372
    22  H    6.165299   3.690646   2.101486   8.014007   1.095358
    23  H    7.810721   4.118243   2.087235   9.692964   1.095374
    24  H    6.569946   3.870915   2.115427   8.532875   1.101206
    25  H    8.893086   2.164755   2.094040  10.090390   3.398310
    26  H    9.136941   3.305928   2.097794  10.604362   2.748176
    27  H    9.003961   3.345299   2.105025  10.558795   2.744550
                   21         22         23         24         25
    21  C    0.000000
    22  H    3.299990   0.000000
    23  H    2.501545   1.779056   0.000000
    24  H    3.079523   1.794812   1.782425   0.000000
    25  H    1.095710   4.119038   3.568313   3.960634   0.000000
    26  H    1.101432   3.419450   2.408060   3.568584   1.794656
    27  H    1.100459   3.764659   2.629382   3.013931   1.789473
                   26         27
    26  H    0.000000
    27  H    1.794084   0.000000
 Symmetry turned off by external request.
 Stoichiometry    C11H13NO2
 Framework group  C1[X(C11H13NO2)]
 Deg. of freedom    75
 Full point group                 C1      NOp   1
 Rotational constants (GHZ):      1.6008457      0.3190918      0.2676012
 Leave Link  202 at Thu Nov  2 21:45:23 2017, MaxMem=  3758096384 cpu:         0.1
 (Enter /share/apps/gaussian/g09_D01/g09/l301.exe)
 Standard basis: 6-311++G(d,p) (5D, 7F)
 Ernie: Thresh=  0.10000D-02 Tol=  0.10000D-05 Strict=F.
   399 basis functions,   621 primitive gaussians,   413 cartesian basis functions
    51 alpha electrons       51 beta electrons
       nuclear repulsion energy       834.5224183324 Hartrees.
 IExCor= 4639 DFT=T Ex+Corr=wB97XD ExCW=0 ScaHFX=  1.000000
 ScaDFX=  1.000000  1.000000  1.000000  1.000000 ScalE2=  1.000000  1.000000
 IRadAn=      0 IRanWt=     -1 IRanGd=            0 ICorTp=0 IEmpDi=121
  HFx wShort=  0.000000 wLong=  0.200000 cFull=  0.222036 cShort=  0.000000 cLong=  0.777964
  DFx wShort=  0.000000 wLong=  0.200000 cFull=  0.000000 cShort=  0.000000 cLong=  1.000000
 NAtoms=   27 NActive=   27 NUniq=   27 SFac= 1.00D+00 NAtFMM=   60 NAOKFM=F Big=F
 Integral buffers will be    131072 words long.
 Raffenetti 1 integral format.
 Two-electron integral symmetry is turned off.
 R6Disp:  Grimme-D2 Dispersion energy=       -0.0148428071 Hartrees.
 Nuclear repulsion after empirical dispersion term =      834.5075755253 Hartrees.
 Leave Link  301 at Thu Nov  2 21:45:23 2017, MaxMem=  3758096384 cpu:         0.1
 (Enter /share/apps/gaussian/g09_D01/g09/l302.exe)
 NPDir=0 NMtPBC=     1 NCelOv=     1 NCel=       1 NClECP=     1 NCelD=      1
         NCelK=      1 NCelE2=     1 NClLst=     1 CellRange=     0.0.
 One-electron integrals computed using PRISM.
 NBasis=   399 RedAO= T EigKep=  1.10D-06  NBF=   399
 NBsUse=   397 1.00D-06 EigRej=  6.39D-07 NBFU=   397
 Precomputing XC quadrature grid using
 IXCGrd= 4 IRadAn=           0 IRanWt=          -1 IRanGd=           0 AccXCQ= 0.00D+00.
 Generated NRdTot=       0 NPtTot=           0 NUsed=           0 NTot=          32
 NSgBfM=   412   412   412   412   412 MxSgAt=    27 MxSgA2=    27.
 Leave Link  302 at Thu Nov  2 21:45:24 2017, MaxMem=  3758096384 cpu:         1.8
 (Enter /share/apps/gaussian/g09_D01/g09/l308.exe)
 Leave Link  308 at Thu Nov  2 21:45:24 2017, MaxMem=  3758096384 cpu:         0.5
 (Enter /share/apps/gaussian/g09_D01/g09/l303.exe)
 DipDrv:  MaxL=1.
 Leave Link  303 at Thu Nov  2 21:45:24 2017, MaxMem=  3758096384 cpu:         0.7
 (Enter /share/apps/gaussian/g09_D01/g09/l401.exe)
 ExpMin= 3.60D-02 ExpMax= 8.59D+03 ExpMxC= 1.30D+03 IAcc=3 IRadAn=         5 AccDes= 0.00D+00
 Harris functional with IExCor= 4639 and IRadAn=       5 diagonalized for initial guess.
 HarFok:  IExCor= 4639 AccDes= 0.00D+00 IRadAn=         5 IDoV= 1 UseB2=F ITyADJ=14
 ICtDFT=  3500011 ScaDFX=  1.000000  1.000000  1.000000  1.000000
 FoFCou: FMM=F IPFlag=           0 FMFlag=      100000 FMFlg1=           0
         NFxFlg=           0 DoJE=T BraDBF=F KetDBF=T FulRan=T
         wScrn=  0.000000 ICntrl=     500 IOpCl=  0 I1Cent=   200000004 NGrid=           0
         NMat0=    1 NMatS0=      1 NMatT0=    0 NMatD0=    1 NMtDS0=    0 NMtDT0=    0
 Symmetry not used in FoFCou.
 Harris En= -604.964959524996    
 JPrj=0 DoOrth=F DoCkMO=F.
 Leave Link  401 at Thu Nov  2 21:45:31 2017, MaxMem=  3758096384 cpu:        24.6
 (Enter /share/apps/gaussian/g09_D01/g09/l502.exe)
 Closed shell SCF:
 Using DIIS extrapolation, IDIIS=  1040.
 Two-electron integral symmetry not used.
 IVT=      535267 IEndB=      535267 NGot=  3758096384 MDV=  3757748740
 LenX=  3757748740 LenY=  3757577730
 Requested convergence on RMS density matrix=1.00D-08 within 128 cycles.
 Requested convergence on MAX density matrix=1.00D-06.
 Requested convergence on             energy=1.00D-06.
 No special actions if energy rises.
 Fock matrices will be formed incrementally for  20 cycles.

 Cycle   1  Pass 1  IDiag  1:
 FoFJK:  IHMeth= 1 ICntrl=       0 DoSepK=T KAlg= 0 I1Cent=   0 FoldK=F
 IRaf=         1 NMat=   1 IRICut=       1 DoRegI=T DoRafI=F ISym2E= 0.
 FoFCou: FMM=F IPFlag=           0 FMFlag=      100000 FMFlg1=           0
         NFxFlg=           0 DoJE=T BraDBF=F KetDBF=F FulRan=T
         wScrn=  0.000000 ICntrl=     500 IOpCl=  0 I1Cent=           0 NGrid=           0
         NMat0=    1 NMatS0=      1 NMatT0=    0 NMatD0=    1 NMtDS0=    0 NMtDT0=    0
 Symmetry not used in FoFCou.
 E= -631.923901436592    
 DIIS: error= 7.05D-02 at cycle   1 NSaved=   1.
 NSaved= 1 IEnMin= 1 EnMin= -631.923901436592     IErMin= 1 ErrMin= 7.05D-02
 ErrMax= 7.05D-02  0.00D+00 EMaxC= 1.00D-01 BMatC= 1.38D+00 BMatP= 1.38D+00
 IDIUse=3 WtCom= 2.95D-01 WtEn= 7.05D-01
 Coeff-Com:  0.100D+01
 Coeff-En:   0.100D+01
 Coeff:      0.100D+01
 Gap=     0.343 Goal=   None    Shift=    0.000
 GapD=    0.343 DampG=1.000 DampE=0.500 DampFc=0.5000 IDamp=-1.
 Damping current iteration by 5.00D-01
 RMSDP=3.81D-02 MaxDP=3.85D+00              OVMax= 1.53D-01

 Cycle   2  Pass 1  IDiag  1:
 RMSU=  7.74D-03    CP:  8.61D-01
 E= -632.023834040425     Delta-E=       -0.099932603833 Rises=F Damp=T
 DIIS: error= 3.27D-02 at cycle   2 NSaved=   2.
 NSaved= 2 IEnMin= 2 EnMin= -632.023834040425     IErMin= 2 ErrMin= 3.27D-02
 ErrMax= 3.27D-02  0.00D+00 EMaxC= 1.00D-01 BMatC= 2.84D-01 BMatP= 1.38D+00
 IDIUse=3 WtCom= 6.73D-01 WtEn= 3.27D-01
 Coeff-Com: -0.543D+00 0.154D+01
 Coeff-En:   0.000D+00 0.100D+01
 Coeff:     -0.365D+00 0.137D+01
 Gap=     0.314 Goal=   None    Shift=    0.000
 RMSDP=1.65D-02 MaxDP=1.80D+00 DE=-9.99D-02 OVMax= 1.58D-01

 Cycle   3  Pass 1  IDiag  1:
 RMSU=  6.76D-03    CP:  7.47D-01  1.58D+00
 E= -632.080200749073     Delta-E=       -0.056366708649 Rises=F Damp=F
 DIIS: error= 1.52D-02 at cycle   3 NSaved=   3.
 NSaved= 3 IEnMin= 3 EnMin= -632.080200749073     IErMin= 3 ErrMin= 1.52D-02
 ErrMax= 1.52D-02  0.00D+00 EMaxC= 1.00D-01 BMatC= 8.01D-02 BMatP= 2.84D-01
 IDIUse=3 WtCom= 8.48D-01 WtEn= 1.52D-01
 Coeff-Com: -0.342D+00 0.739D+00 0.603D+00
 Coeff-En:   0.000D+00 0.000D+00 0.100D+01
 Coeff:     -0.290D+00 0.627D+00 0.663D+00
 Gap=     0.293 Goal=   None    Shift=    0.000
 RMSDP=1.40D-02 MaxDP=1.50D+00 DE=-5.64D-02 OVMax= 7.73D-02

 Cycle   4  Pass 1  IDiag  1:
 RMSU=  4.18D-03    CP:  6.49D-01  1.76D+00  2.84D-01
 E= -632.139708025500     Delta-E=       -0.059507276426 Rises=F Damp=F
 DIIS: error= 4.51D-03 at cycle   4 NSaved=   4.
 NSaved= 4 IEnMin= 4 EnMin= -632.139708025500     IErMin= 4 ErrMin= 4.51D-03
 ErrMax= 4.51D-03  0.00D+00 EMaxC= 1.00D-01 BMatC= 7.34D-03 BMatP= 8.01D-02
 IDIUse=3 WtCom= 9.55D-01 WtEn= 4.51D-02
 Coeff-Com: -0.139D+00 0.300D+00 0.368D+00 0.472D+00
 Coeff-En:   0.000D+00 0.000D+00 0.923D-02 0.991D+00
 Coeff:     -0.133D+00 0.287D+00 0.351D+00 0.495D+00
 Gap=     0.277 Goal=   None    Shift=    0.000
 RMSDP=3.23D-03 MaxDP=3.53D-01 DE=-5.95D-02 OVMax= 1.51D-02

 Cycle   5  Pass 1  IDiag  1:
 RMSU=  1.03D-03    CP:  6.71D-01  1.83D+00  4.07D-01  9.32D-01
 E= -632.145368106781     Delta-E=       -0.005660081281 Rises=F Damp=F
 DIIS: error= 6.03D-04 at cycle   5 NSaved=   5.
 NSaved= 5 IEnMin= 5 EnMin= -632.145368106781     IErMin= 5 ErrMin= 6.03D-04
 ErrMax= 6.03D-04  0.00D+00 EMaxC= 1.00D-01 BMatC= 1.13D-04 BMatP= 7.34D-03
 IDIUse=3 WtCom= 9.94D-01 WtEn= 6.03D-03
 Coeff-Com:  0.949D-02-0.210D-01 0.253D-01 0.157D+00 0.829D+00
 Coeff-En:   0.000D+00 0.000D+00 0.000D+00 0.000D+00 0.100D+01
 Coeff:      0.944D-02-0.209D-01 0.251D-01 0.156D+00 0.830D+00
 Gap=     0.277 Goal=   None    Shift=    0.000
 RMSDP=1.36D-03 MaxDP=1.72D-01 DE=-5.66D-03 OVMax= 3.69D-03

 Cycle   6  Pass 1  IDiag  1:
 RMSU=  2.57D-04    CP:  6.63D-01  1.87D+00  3.89D-01  1.10D+00  1.19D+00
 E= -632.145496897777     Delta-E=       -0.000128790996 Rises=F Damp=F
 DIIS: error= 4.10D-04 at cycle   6 NSaved=   6.
 NSaved= 6 IEnMin= 6 EnMin= -632.145496897777     IErMin= 6 ErrMin= 4.10D-04
 ErrMax= 4.10D-04  0.00D+00 EMaxC= 1.00D-01 BMatC= 2.90D-05 BMatP= 1.13D-04
 IDIUse=3 WtCom= 9.96D-01 WtEn= 4.10D-03
 Coeff-Com:  0.239D-01-0.514D-01-0.375D-01 0.408D-02 0.400D+00 0.661D+00
 Coeff-En:   0.000D+00 0.000D+00 0.000D+00 0.000D+00 0.000D+00 0.100D+01
 Coeff:      0.238D-01-0.512D-01-0.373D-01 0.406D-02 0.399D+00 0.662D+00
 Gap=     0.278 Goal=   None    Shift=    0.000
 RMSDP=2.82D-04 MaxDP=2.58D-02 DE=-1.29D-04 OVMax= 3.02D-03

 Cycle   7  Pass 1  IDiag  1:
 RMSU=  8.38D-05    CP:  6.61D-01  1.87D+00  3.79D-01  1.14D+00  1.26D+00
                    CP:  9.26D-01
 E= -632.145531820787     Delta-E=       -0.000034923010 Rises=F Damp=F
 DIIS: error= 9.63D-05 at cycle   7 NSaved=   7.
 NSaved= 7 IEnMin= 7 EnMin= -632.145531820787     IErMin= 7 ErrMin= 9.63D-05
 ErrMax= 9.63D-05  0.00D+00 EMaxC= 1.00D-01 BMatC= 3.03D-06 BMatP= 2.90D-05
 IDIUse=1 WtCom= 1.00D+00 WtEn= 0.00D+00
 Coeff-Com:  0.483D-02-0.103D-01-0.116D-01-0.186D-01-0.117D-01 0.220D+00
 Coeff-Com:  0.827D+00
 Coeff:      0.483D-02-0.103D-01-0.116D-01-0.186D-01-0.117D-01 0.220D+00
 Coeff:      0.827D+00
 Gap=     0.278 Goal=   None    Shift=    0.000
 RMSDP=1.65D-04 MaxDP=1.75D-02 DE=-3.49D-05 OVMax= 1.09D-03

 Cycle   8  Pass 1  IDiag  1:
 RMSU=  3.10D-05    CP:  6.61D-01  1.88D+00  3.74D-01  1.17D+00  1.31D+00
                    CP:  1.03D+00  1.30D+00
 E= -632.145536654197     Delta-E=       -0.000004833410 Rises=F Damp=F
 DIIS: error= 5.64D-05 at cycle   8 NSaved=   8.
 NSaved= 8 IEnMin= 8 EnMin= -632.145536654197     IErMin= 8 ErrMin= 5.64D-05
 ErrMax= 5.64D-05  0.00D+00 EMaxC= 1.00D-01 BMatC= 6.66D-07 BMatP= 3.03D-06
 IDIUse=1 WtCom= 1.00D+00 WtEn= 0.00D+00
 Coeff-Com: -0.181D-02 0.398D-02 0.118D-02-0.104D-01-0.822D-01 0.161D-02
 Coeff-Com:  0.391D+00 0.697D+00
 Coeff:     -0.181D-02 0.398D-02 0.118D-02-0.104D-01-0.822D-01 0.161D-02
 Coeff:      0.391D+00 0.697D+00
 Gap=     0.278 Goal=   None    Shift=    0.000
 RMSDP=6.13D-05 MaxDP=6.68D-03 DE=-4.83D-06 OVMax= 6.71D-04

 Cycle   9  Pass 1  IDiag  1:
 RMSU=  1.39D-05    CP:  6.60D-01  1.88D+00  3.73D-01  1.18D+00  1.32D+00
                    CP:  1.07D+00  1.46D+00  9.91D-01
 E= -632.145537851504     Delta-E=       -0.000001197307 Rises=F Damp=F
 DIIS: error= 1.48D-05 at cycle   9 NSaved=   9.
 NSaved= 9 IEnMin= 9 EnMin= -632.145537851504     IErMin= 9 ErrMin= 1.48D-05
 ErrMax= 1.48D-05  0.00D+00 EMaxC= 1.00D-01 BMatC= 6.81D-08 BMatP= 6.66D-07
 IDIUse=1 WtCom= 1.00D+00 WtEn= 0.00D+00
 Coeff-Com: -0.117D-02 0.251D-02 0.244D-02 0.759D-03-0.195D-01-0.308D-01
 Coeff-Com: -0.589D-01 0.166D+00 0.938D+00
 Coeff:     -0.117D-02 0.251D-02 0.244D-02 0.759D-03-0.195D-01-0.308D-01
 Coeff:     -0.589D-01 0.166D+00 0.938D+00
 Gap=     0.278 Goal=   None    Shift=    0.000
 RMSDP=1.98D-05 MaxDP=1.56D-03 DE=-1.20D-06 OVMax= 3.04D-04

 Cycle  10  Pass 1  IDiag  1:
 RMSU=  7.28D-06    CP:  6.60D-01  1.88D+00  3.72D-01  1.18D+00  1.33D+00
                    CP:  1.05D+00  1.58D+00  1.33D+00  1.16D+00
 E= -632.145538035327     Delta-E=       -0.000000183823 Rises=F Damp=F
 DIIS: error= 9.65D-06 at cycle  10 NSaved=  10.
 NSaved=10 IEnMin=10 EnMin= -632.145538035327     IErMin=10 ErrMin= 9.65D-06
 ErrMax= 9.65D-06  0.00D+00 EMaxC= 1.00D-01 BMatC= 7.59D-09 BMatP= 6.81D-08
 IDIUse=1 WtCom= 1.00D+00 WtEn= 0.00D+00
 Coeff-Com: -0.392D-04 0.755D-04 0.486D-03 0.168D-02 0.459D-02-0.711D-02
 Coeff-Com: -0.700D-01-0.348D-01 0.260D+00 0.845D+00
 Coeff:     -0.392D-04 0.755D-04 0.486D-03 0.168D-02 0.459D-02-0.711D-02
 Coeff:     -0.700D-01-0.348D-01 0.260D+00 0.845D+00
 Gap=     0.278 Goal=   None    Shift=    0.000
 RMSDP=4.97D-06 MaxDP=5.26D-04 DE=-1.84D-07 OVMax= 1.15D-04

 Cycle  11  Pass 1  IDiag  1:
 RMSU=  2.00D-06    CP:  6.60D-01  1.88D+00  3.72D-01  1.18D+00  1.33D+00
                    CP:  1.04D+00  1.61D+00  1.41D+00  1.22D+00  1.22D+00
 E= -632.145538057816     Delta-E=       -0.000000022489 Rises=F Damp=F
 DIIS: error= 2.31D-06 at cycle  11 NSaved=  11.
 NSaved=11 IEnMin=11 EnMin= -632.145538057816     IErMin=11 ErrMin= 2.31D-06
 ErrMax= 2.31D-06  0.00D+00 EMaxC= 1.00D-01 BMatC= 1.33D-09 BMatP= 7.59D-09
 IDIUse=1 WtCom= 1.00D+00 WtEn= 0.00D+00
 Coeff-Com:  0.161D-03-0.346D-03-0.194D-03 0.547D-03 0.430D-02 0.211D-02
 Coeff-Com: -0.135D-01-0.328D-01-0.610D-01 0.270D+00 0.830D+00
 Coeff:      0.161D-03-0.346D-03-0.194D-03 0.547D-03 0.430D-02 0.211D-02
 Coeff:     -0.135D-01-0.328D-01-0.610D-01 0.270D+00 0.830D+00
 Gap=     0.278 Goal=   None    Shift=    0.000
 RMSDP=2.65D-06 MaxDP=2.12D-04 DE=-2.25D-08 OVMax= 4.70D-05

 Cycle  12  Pass 1  IDiag  1:
 RMSU=  8.50D-07    CP:  6.60D-01  1.88D+00  3.72D-01  1.18D+00  1.33D+00
                    CP:  1.04D+00  1.62D+00  1.43D+00  1.27D+00  1.33D+00
                    CP:  9.95D-01
 E= -632.145538061407     Delta-E=       -0.000000003591 Rises=F Damp=F
 DIIS: error= 1.72D-06 at cycle  12 NSaved=  12.
 NSaved=12 IEnMin=12 EnMin= -632.145538061407     IErMin=12 ErrMin= 1.72D-06
 ErrMax= 1.72D-06  0.00D+00 EMaxC= 1.00D-01 BMatC= 1.74D-10 BMatP= 1.33D-09
 IDIUse=1 WtCom= 1.00D+00 WtEn= 0.00D+00
 Coeff-Com:  0.276D-04-0.587D-04-0.804D-04-0.427D-04 0.279D-03 0.920D-03
 Coeff-Com:  0.798D-02-0.307D-02-0.558D-01-0.679D-01 0.157D+00 0.961D+00
 Coeff:      0.276D-04-0.587D-04-0.804D-04-0.427D-04 0.279D-03 0.920D-03
 Coeff:      0.798D-02-0.307D-02-0.558D-01-0.679D-01 0.157D+00 0.961D+00
 Gap=     0.278 Goal=   None    Shift=    0.000
 RMSDP=1.26D-06 MaxDP=8.37D-05 DE=-3.59D-09 OVMax= 2.46D-05

 Cycle  13  Pass 1  IDiag  1:
 RMSU=  2.81D-07    CP:  6.60D-01  1.88D+00  3.72D-01  1.18D+00  1.33D+00
                    CP:  1.04D+00  1.63D+00  1.45D+00  1.28D+00  1.39D+00
                    CP:  1.08D+00  1.38D+00
 E= -632.145538062149     Delta-E=       -0.000000000742 Rises=F Damp=F
 DIIS: error= 5.88D-07 at cycle  13 NSaved=  13.
 NSaved=13 IEnMin=13 EnMin= -632.145538062149     IErMin=13 ErrMin= 5.88D-07
 ErrMax= 5.88D-07  0.00D+00 EMaxC= 1.00D-01 BMatC= 4.72D-11 BMatP= 1.74D-10
 IDIUse=1 WtCom= 1.00D+00 WtEn= 0.00D+00
 Coeff-Com: -0.678D-05 0.153D-04-0.116D-04-0.933D-04-0.501D-03 0.204D-04
 Coeff-Com:  0.536D-02 0.325D-02-0.841D-02-0.618D-01-0.736D-01 0.397D+00
 Coeff-Com:  0.739D+00
 Coeff:     -0.678D-05 0.153D-04-0.116D-04-0.933D-04-0.501D-03 0.204D-04
 Coeff:      0.536D-02 0.325D-02-0.841D-02-0.618D-01-0.736D-01 0.397D+00
 Coeff:      0.739D+00
 Gap=     0.278 Goal=   None    Shift=    0.000
 RMSDP=4.20D-07 MaxDP=4.21D-05 DE=-7.42D-10 OVMax= 6.65D-06

 Cycle  14  Pass 1  IDiag  1:
 RMSU=  1.17D-07    CP:  6.60D-01  1.88D+00  3.72D-01  1.18D+00  1.33D+00
                    CP:  1.04D+00  1.63D+00  1.44D+00  1.29D+00  1.39D+00
                    CP:  1.10D+00  1.53D+00  1.20D+00
 E= -632.145538062300     Delta-E=       -0.000000000152 Rises=F Damp=F
 DIIS: error= 3.24D-07 at cycle  14 NSaved=  14.
 NSaved=14 IEnMin=14 EnMin= -632.145538062300     IErMin=14 ErrMin= 3.24D-07
 ErrMax= 3.24D-07  0.00D+00 EMaxC= 1.00D-01 BMatC= 5.84D-12 BMatP= 4.72D-11
 IDIUse=1 WtCom= 1.00D+00 WtEn= 0.00D+00
 Coeff-Com: -0.668D-05 0.144D-04 0.990D-05-0.219D-04-0.219D-03-0.182D-03
 Coeff-Com:  0.465D-03 0.711D-03 0.646D-02-0.817D-02-0.542D-01-0.322D-01
 Coeff-Com:  0.173D+00 0.914D+00
 Coeff:     -0.668D-05 0.144D-04 0.990D-05-0.219D-04-0.219D-03-0.182D-03
 Coeff:      0.465D-03 0.711D-03 0.646D-02-0.817D-02-0.542D-01-0.322D-01
 Coeff:      0.173D+00 0.914D+00
 Gap=     0.278 Goal=   None    Shift=    0.000
 RMSDP=4.24D-07 MaxDP=4.82D-05 DE=-1.52D-10 OVMax= 4.27D-06

 Cycle  15  Pass 1  IDiag  1:
 RMSU=  4.01D-08    CP:  6.60D-01  1.88D+00  3.72D-01  1.18D+00  1.33D+00
                    CP:  1.04D+00  1.63D+00  1.44D+00  1.29D+00  1.39D+00
                    CP:  1.09D+00  1.61D+00  1.40D+00  1.45D+00
 E= -632.145538062253     Delta-E=        0.000000000047 Rises=F Damp=F
 DIIS: error= 9.59D-08 at cycle  15 NSaved=  15.
 NSaved=15 IEnMin=14 EnMin= -632.145538062300     IErMin=15 ErrMin= 9.59D-08
 ErrMax= 9.59D-08  0.00D+00 EMaxC= 1.00D-01 BMatC= 1.69D-12 BMatP= 5.84D-12
 IDIUse=1 WtCom= 1.00D+00 WtEn= 0.00D+00
 Coeff-Com: -0.272D-05 0.569D-05 0.839D-05 0.900D-05-0.910D-05-0.935D-04
 Coeff-Com: -0.698D-03-0.419D-03 0.479D-02 0.774D-02-0.105D-01-0.745D-01
 Coeff-Com: -0.913D-01 0.360D+00 0.805D+00
 Coeff:     -0.272D-05 0.569D-05 0.839D-05 0.900D-05-0.910D-05-0.935D-04
 Coeff:     -0.698D-03-0.419D-03 0.479D-02 0.774D-02-0.105D-01-0.745D-01
 Coeff:     -0.913D-01 0.360D+00 0.805D+00
 Gap=     0.278 Goal=   None    Shift=    0.000
 RMSDP=1.73D-07 MaxDP=2.18D-05 DE= 4.68D-11 OVMax= 1.40D-06

 Cycle  16  Pass 1  IDiag  1:
 RMSU=  2.10D-08    CP:  6.60D-01  1.88D+00  3.72D-01  1.18D+00  1.33D+00
                    CP:  1.04D+00  1.63D+00  1.44D+00  1.30D+00  1.39D+00
                    CP:  1.08D+00  1.64D+00  1.47D+00  1.68D+00  1.17D+00
 E= -632.145538062259     Delta-E=       -0.000000000005 Rises=F Damp=F
 DIIS: error= 2.80D-08 at cycle  16 NSaved=  16.
 NSaved=16 IEnMin=14 EnMin= -632.145538062300     IErMin=16 ErrMin= 2.80D-08
 ErrMax= 2.80D-08  0.00D+00 EMaxC= 1.00D-01 BMatC= 2.17D-13 BMatP= 1.69D-12
 IDIUse=1 WtCom= 1.00D+00 WtEn= 0.00D+00
 Coeff-Com:  0.238D-06-0.573D-06 0.466D-06 0.589D-05 0.325D-04-0.804D-06
 Coeff-Com: -0.248D-03-0.368D-03 0.243D-03 0.392D-02 0.697D-02-0.144D-01
 Coeff-Com: -0.691D-01-0.618D-01 0.231D+00 0.904D+00
 Coeff:      0.238D-06-0.573D-06 0.466D-06 0.589D-05 0.325D-04-0.804D-06
 Coeff:     -0.248D-03-0.368D-03 0.243D-03 0.392D-02 0.697D-02-0.144D-01
 Coeff:     -0.691D-01-0.618D-01 0.231D+00 0.904D+00
 Gap=     0.278 Goal=   None    Shift=    0.000
 RMSDP=6.12D-08 MaxDP=7.93D-06 DE=-5.23D-12 OVMax= 5.53D-07

 Cycle  17  Pass 1  IDiag  1:
 RMSU=  6.67D-09    CP:  6.60D-01  1.88D+00  3.72D-01  1.18D+00  1.33D+00
                    CP:  1.04D+00  1.63D+00  1.44D+00  1.30D+00  1.39D+00
                    CP:  1.08D+00  1.65D+00  1.49D+00  1.80D+00  1.37D+00
                    CP:  1.29D+00
 E= -632.145538062268     Delta-E=       -0.000000000009 Rises=F Damp=F
 DIIS: error= 1.57D-08 at cycle  17 NSaved=  17.
 NSaved=17 IEnMin=14 EnMin= -632.145538062300     IErMin=17 ErrMin= 1.57D-08
 ErrMax= 1.57D-08  0.00D+00 EMaxC= 1.00D-01 BMatC= 2.60D-14 BMatP= 2.17D-13
 IDIUse=1 WtCom= 1.00D+00 WtEn= 0.00D+00
 Coeff-Com:  0.260D-06-0.553D-06-0.536D-06 0.122D-05 0.121D-04 0.968D-05
 Coeff-Com:  0.238D-05-0.967D-04-0.386D-03 0.404D-03 0.317D-02 0.385D-02
 Coeff-Com: -0.139D-01-0.567D-01-0.770D-02 0.333D+00 0.738D+00
 Coeff:      0.260D-06-0.553D-06-0.536D-06 0.122D-05 0.121D-04 0.968D-05
 Coeff:      0.238D-05-0.967D-04-0.386D-03 0.404D-03 0.317D-02 0.385D-02
 Coeff:     -0.139D-01-0.567D-01-0.770D-02 0.333D+00 0.738D+00
 Gap=     0.278 Goal=   None    Shift=    0.000
 RMSDP=1.50D-08 MaxDP=1.47D-06 DE=-9.09D-12 OVMax= 1.23D-07

 Cycle  18  Pass 1  IDiag  1:
 RMSU=  2.11D-09    CP:  6.60D-01  1.88D+00  3.72D-01  1.18D+00  1.33D+00
                    CP:  1.04D+00  1.63D+00  1.44D+00  1.30D+00  1.39D+00
                    CP:  1.08D+00  1.65D+00  1.49D+00  1.82D+00  1.42D+00
                    CP:  1.36D+00  1.16D+00
 E= -632.145538062295     Delta-E=       -0.000000000027 Rises=F Damp=F
 DIIS: error= 5.06D-09 at cycle  18 NSaved=  18.
 NSaved=18 IEnMin=14 EnMin= -632.145538062300     IErMin=18 ErrMin= 5.06D-09
 ErrMax= 5.06D-09  0.00D+00 EMaxC= 1.00D-01 BMatC= 2.86D-15 BMatP= 2.60D-14
 IDIUse=1 WtCom= 1.00D+00 WtEn= 0.00D+00
 Coeff-Com:  0.487D-07-0.966D-07-0.258D-06-0.496D-06-0.658D-06 0.389D-05
 Coeff-Com:  0.349D-04 0.119D-04-0.174D-03-0.380D-03 0.141D-03 0.300D-02
 Coeff-Com:  0.412D-02-0.894D-02-0.362D-01-0.211D-01 0.236D+00 0.823D+00
 Coeff:      0.487D-07-0.966D-07-0.258D-06-0.496D-06-0.658D-06 0.389D-05
 Coeff:      0.349D-04 0.119D-04-0.174D-03-0.380D-03 0.141D-03 0.300D-02
 Coeff:      0.412D-02-0.894D-02-0.362D-01-0.211D-01 0.236D+00 0.823D+00
 Gap=     0.278 Goal=   None    Shift=    0.000
 RMSDP=3.81D-09 MaxDP=3.18D-07 DE=-2.73D-11 OVMax= 4.69D-08

 SCF Done:  E(RwB97XD) =  -632.145538062     A.U. after   18 cycles
            NFock= 18  Conv=0.38D-08     -V/T= 2.0046
 KE= 6.292239917400D+02 PE=-3.142559560722D+03 EE= 1.046682455394D+03
 Leave Link  502 at Thu Nov  2 21:50:20 2017, MaxMem=  3758096384 cpu:      1121.5
 (Enter /share/apps/gaussian/g09_D01/g09/l801.exe)
 DoSCS=F DFT=T ScalE2(SS,OS)=  1.000000  1.000000
 ExpMin= 3.60D-02 ExpMax= 8.59D+03 ExpMxC= 1.30D+03 IAcc=3 IRadAn=         5 AccDes= 0.00D+00
 HarFok:  IExCor=  205 AccDes= 0.00D+00 IRadAn=         5 IDoV=-2 UseB2=F ITyADJ=14
 ICtDFT= 12500011 ScaDFX=  1.000000  1.000000  1.000000  1.000000
 Largest valence mixing into a core orbital is  5.73D-05
 Largest core mixing into a valence orbital is  1.49D-05
 Range of M.O.s used for correlation:    15   397
 NBasis=   399 NAE=    51 NBE=    51 NFC=    14 NFV=     0
 NROrb=    383 NOA=    37 NOB=    37 NVA=   346 NVB=   346

 **** Warning!!: The largest alpha MO coefficient is  0.15134602D+03

 Leave Link  801 at Thu Nov  2 21:50:21 2017, MaxMem=  3758096384 cpu:         1.0
 (Enter /share/apps/gaussian/g09_D01/g09/l914.exe)
 RHF ground state
 MDV=  3758096384 DFT=T DoStab=F Mixed=T DoRPA=T DoScal=F NonHer=T
 Would need an additional         15405800000 words for in-memory AO integral storage.
 Making orbital integer symmetry assigments:
    16 initial guesses have been made.
 Convergence on wavefunction:    0.001000000000000
 Davidson Disk Diagonalization:  ConvIn= 1.00D-03 SkipCon=T Conv= 1.00D-03.
 Max sub-space:   200 roots to seek:    16 dimension of matrix:        25604
 Iteration     1 Dimension    16 NMult     0 NNew     16
 CISAX will form    16 AO SS matrices at one time.
 NMat=    16 NSing=    16 JSym2X= 0.
 FoFJK:  IHMeth= 1 ICntrl=       0 DoSepK=T KAlg= 0 I1Cent=   0 FoldK=F
 IRaf=         1 NMat=  32 IRICut=       1 DoRegI=T DoRafI=F ISym2E= 0.
 FoFCou: FMM=F IPFlag=           0 FMFlag=      100000 FMFlg1=           0
         NFxFlg=           0 DoJE=F BraDBF=F KetDBF=F FulRan=T
         wScrn=  0.000000 ICntrl=     500 IOpCl=  0 I1Cent=           0 NGrid=           0
         NMat0=   16 NMatS0=     16 NMatT0=    0 NMatD0=   16 NMtDS0=    0 NMtDT0=    0
 Symmetry not used in FoFCou.
 New state      1 was old state      7
 New state      2 was old state      1
 New state      3 was old state      2
 New state      4 was old state      3
 Excitation Energies [eV] at current iteration:
 Root      1 :     4.415009894962585
 Root      2 :     4.500198186673657
 Root      3 :     5.218745542545684
 Root      4 :     5.805409012097396
 Root      5 :     5.988463637637493
 Root      6 :     6.162962831662534
 Root      7 :     6.451395060403081
 Root      8 :     6.626111101884123
 Root      9 :     6.656968582804798
 Root     10 :     6.788680578705132
 Root     11 :     6.910334747722668
 Root     12 :     7.081918053378338
 Root     13 :     7.335219672912132
 Root     14 :     7.555067820152998
 Root     15 :     7.602779895007776
 Root     16 :     7.862307209246663
 Iteration     2 Dimension    24 NMult    16 NNew      8
 CISAX will form     8 AO SS matrices at one time.
 NMat=     8 NSing=     8 JSym2X= 0.
 Root      1 not converged, maximum delta is    0.448564369529223
 Root      2 not converged, maximum delta is    0.410691824332871
 Root      3 not converged, maximum delta is    0.061505120250587
 Root      4 not converged, maximum delta is    0.068324693974607
 Excitation Energies [eV] at current iteration:
 Root      1 :     3.925212980507788   Change is   -0.489796914454797
 Root      2 :     4.165086232986130   Change is   -0.335111953687526
 Root      3 :     4.527155670729809   Change is   -0.691589871815875
 Root      4 :     5.535484257864334   Change is   -0.269924754233062
 Iteration     3 Dimension    32 NMult    24 NNew      8
 CISAX will form     8 AO SS matrices at one time.
 NMat=     8 NSing=     8 JSym2X= 0.
 Root      1 not converged, maximum delta is    0.023382287687942
 Root      2 not converged, maximum delta is    0.013270969355021
 Root      3 not converged, maximum delta is    0.033581684652448
 Root      4 not converged, maximum delta is    0.037768452926506
 Excitation Energies [eV] at current iteration:
 Root      1 :     3.881229968066649   Change is   -0.043983012441140
 Root      2 :     4.148240168659094   Change is   -0.016846064327036
 Root      3 :     4.471141667775302   Change is   -0.056014002954507
 Root      4 :     5.497127985267500   Change is   -0.038356272596833
 Iteration     4 Dimension    40 NMult    32 NNew      8
 CISAX will form     8 AO SS matrices at one time.
 NMat=     8 NSing=     8 JSym2X= 0.
 Root      1 not converged, maximum delta is    0.010652446727065
 Root      2 not converged, maximum delta is    0.004796914175422
 Root      3 not converged, maximum delta is    0.009382250693094
 Root      4 not converged, maximum delta is    0.144209752962716
 Excitation Energies [eV] at current iteration:
 Root      1 :     3.872577475698195   Change is   -0.008652492368454
 Root      2 :     4.146465267099874   Change is   -0.001774901559221
 Root      3 :     4.461112845718133   Change is   -0.010028822057169
 Root      4 :     5.485885402776648   Change is   -0.011242582490852
 Iteration     5 Dimension    48 NMult    40 NNew      8
 CISAX will form     8 AO SS matrices at one time.
 NMat=     8 NSing=     8 JSym2X= 0.
 Root      1 not converged, maximum delta is    0.003404300520122
 Root      2 not converged, maximum delta is    0.001908300208564
 Root      3 not converged, maximum delta is    0.004819654523897
 Root      4 not converged, maximum delta is    0.400290698892488
 Excitation Energies [eV] at current iteration:
 Root      1 :     3.871570301530745   Change is   -0.001007174167450
 Root      2 :     4.146252327474147   Change is   -0.000212939625727
 Root      3 :     4.459963771116657   Change is   -0.001149074601477
 Root      4 :     5.262322192999410   Change is   -0.223563209777238
 Iteration     6 Dimension    56 NMult    48 NNew      8
 CISAX will form     8 AO SS matrices at one time.
 NMat=     8 NSing=     8 JSym2X= 0.
 Root      1 has converged.
 Root      2 has converged.
 Root      3 not converged, maximum delta is    0.001245653349244
 Root      4 not converged, maximum delta is    0.034378914463241
 Excitation Energies [eV] at current iteration:
 Root      1 :     3.871491039275375   Change is   -0.000079262255370
 Root      2 :     4.146234492740085   Change is   -0.000017834734062
 Root      3 :     4.459844533199075   Change is   -0.000119237917581
 Root      4 :     5.199563427567121   Change is   -0.062758765432289
 Iteration     7 Dimension    60 NMult    56 NNew      4
 CISAX will form     4 AO SS matrices at one time.
 NMat=     4 NSing=     4 JSym2X= 0.
 Root      1 has converged.
 Root      2 has converged.
 Root      3 has converged.
 Root      4 not converged, maximum delta is    0.016019310048353
 Excitation Energies [eV] at current iteration:
 Root      1 :     3.871487856046485   Change is   -0.000003183228890
 Root      2 :     4.146234170278082   Change is   -0.000000322462003
 Root      3 :     4.459833006662451   Change is   -0.000011526536625
 Root      4 :     5.188008216052513   Change is   -0.011555211514608
 Iteration     8 Dimension    62 NMult    60 NNew      2
 CISAX will form     2 AO SS matrices at one time.
 NMat=     2 NSing=     2 JSym2X= 0.
 Root      1 has converged.
 Root      2 has converged.
 Root      3 has converged.
 Root      4 not converged, maximum delta is    0.004490360618873
 Excitation Energies [eV] at current iteration:
 Root      1 :     3.871487768439972   Change is   -0.000000087606513
 Root      2 :     4.146234167762825   Change is   -0.000000002515257
 Root      3 :     4.459832804425527   Change is   -0.000000202236924
 Root      4 :     5.186797401512211   Change is   -0.001210814540301
 Iteration     9 Dimension    64 NMult    62 NNew      2
 CISAX will form     2 AO SS matrices at one time.
 NMat=     2 NSing=     2 JSym2X= 0.
 Root      1 has converged.
 Root      2 has converged.
 Root      3 has converged.
 Root      4 not converged, maximum delta is    0.001492987051266
 Excitation Energies [eV] at current iteration:
 Root      1 :     3.871487635374822   Change is   -0.000000133065150
 Root      2 :     4.146234162865350   Change is   -0.000000004897475
 Root      3 :     4.459832763149672   Change is   -0.000000041275855
 Root      4 :     5.186653811032023   Change is   -0.000143590480188
 Iteration    10 Dimension    66 NMult    64 NNew      2
 CISAX will form     2 AO SS matrices at one time.
 NMat=     2 NSing=     2 JSym2X= 0.
 Root      1 has converged.
 Root      2 has converged.
 Root      3 has converged.
 Root      4 has converged.
 Excitation Energies [eV] at current iteration:
 Root      1 :     3.871487503075155   Change is   -0.000000132299667
 Root      2 :     4.146234151137642   Change is   -0.000000011727708
 Root      3 :     4.459832743265345   Change is   -0.000000019884327
 Root      4 :     5.186638576267928   Change is   -0.000015234764096
 Convergence achieved on expansion vectors.
 ***********************************************************************
 Excited states from <AA,BB:AA,BB> singles matrix:
 ***********************************************************************
 
 1PDM for each excited state written to RWF  633
 Ground to excited state transition densities written to RWF  633
 Ground to excited state transition electric dipole moments (Au):
       state          X           Y           Z        Dip. S.      Osc.
         1         1.9259      1.0629      0.1327      4.8566      0.4606
         2        -0.1877     -0.0772     -0.0029      0.0412      0.0042
         3         1.4983      0.6939     -0.0036      2.7266      0.2979
         4        -0.2244      0.1313      0.4816      0.2996      0.0381
 Ground to excited state transition velocity dipole moments (Au):
       state          X           Y           Z        Dip. S.      Osc.
         1        -0.2725     -0.1528     -0.0228      0.0981      0.4598
         2         0.0280      0.0114      0.0014      0.0009      0.0040
         3        -0.2407     -0.1102      0.0038      0.0701      0.2852
         4         0.0343     -0.0283     -0.0891      0.0099      0.0347
 Ground to excited state transition magnetic dipole moments (Au):
       state          X           Y           Z
         1        -0.7210      1.4843     -0.9182
         2         0.1098     -0.3632     -0.3325
         3        -1.1431      2.4522     -1.4086
         4         0.2314     -0.3633      0.2144
 Ground to excited state transition velocity quadrupole moments (Au):
       state          XX          YY          ZZ          XY          XZ          YZ
         1        -0.6837      1.1271      0.4032      0.8004      1.8285      1.2139
         2        -0.0113     -0.1052     -0.0450     -0.1650     -0.2126     -0.0730
         3        -1.8557      0.3151      0.1821     -0.1019      1.3138      0.7129
         4        -0.5411      0.0929      1.2741     -0.4124     -0.2558      0.5654
 <0|del|b> * <b|rxdel|0> + <0|del|b> * <b|delr+rdel|0>
 Rotatory Strengths (R) in cgs (10**-40 erg-esu-cm/Gauss)
       state          XX          YY          ZZ    R(velocity)    E-M Angle
         1       137.4329   -236.2769     51.9374    -15.6355       90.91
         2        -5.6225      1.8486     -3.3576     -2.3772       95.77
         3      -282.8287    212.8092     68.8610     -0.3861       90.02
         4        38.3723    -52.9244     11.3233     -1.0763       91.04
 1/2[<0|r|b>*<b|rxdel|0> + (<0|rxdel|b>*<b|r|0>)*]
 Rotatory Strengths (R) in cgs (10**-40 erg-esu-cm/Gauss)
       state          XX          YY          ZZ     R(length)
         1       981.9453  -1115.6585     86.1570    -15.8521
         2        14.5796    -19.8346     -0.6796     -1.9782
         3      1211.1737  -1203.3430     -3.6084      1.4074
         4        36.7171     33.7417    -73.0122     -0.8511
  1/2[<0|del|b>*<b|r|0> + (<0|r|b>*<b|del|0>)*] (Au)
       state          X           Y           Z        Dip. S.   Osc.(frdel)
         1        -0.5248     -0.1624     -0.0030      0.6902      0.4602
         2        -0.0053     -0.0009      0.0000      0.0062      0.0041
         3        -0.3607     -0.0764      0.0000      0.4372      0.2914
         4        -0.0077     -0.0037     -0.0429      0.0543      0.0362

 Excitation energies and oscillator strengths:
 
 Excited state symmetry could not be determined.
 Excited State   1:      Singlet-?Sym    3.8715 eV  320.25 nm  f=0.4606  <S**2>=0.000
      51 -> 52         0.67804
 This state for optimization and/or second-order correction.
 Total Energy, E(TD-HF/TD-KS) =  -632.003263508    
 Copying the excited state density for this state as the 1-particle RhoCI density.
 
 Excited state symmetry could not be determined.
 Excited State   2:      Singlet-?Sym    4.1462 eV  299.03 nm  f=0.0042  <S**2>=0.000
      48 -> 52         0.66596
      49 -> 52         0.13556
 
 Excited state symmetry could not be determined.
 Excited State   3:      Singlet-?Sym    4.4598 eV  278.00 nm  f=0.2979  <S**2>=0.000
      50 -> 52         0.67729
 
 Excited state symmetry could not be determined.
 Excited State   4:      Singlet-?Sym    5.1866 eV  239.05 nm  f=0.0381  <S**2>=0.000
      48 -> 52        -0.11556
      49 -> 52         0.56695
      50 -> 58         0.13438
      51 -> 57        -0.10167
      51 -> 58        -0.23280
      51 -> 62        -0.13759
 SavETr:  write IOETrn=   770 NScale= 10 NData=  16 NLR=1 NState=    4 LETran=      82.
 Leave Link  914 at Thu Nov  2 22:03:26 2017, MaxMem=  3758096384 cpu:      3101.4
 (Enter /share/apps/gaussian/g09_D01/g09/l601.exe)
 Copying SCF densities to generalized density rwf, IOpCl= 0 IROHF=0.

 **********************************************************************

            Population analysis using the SCF density.

 **********************************************************************

 Alpha  occ. eigenvalues --  -19.23402 -19.22408 -14.50209 -10.37662 -10.35912
 Alpha  occ. eigenvalues --  -10.34881 -10.34777 -10.34587 -10.29623 -10.29324
 Alpha  occ. eigenvalues --  -10.29180 -10.28089 -10.27986 -10.27704  -1.14078
 Alpha  occ. eigenvalues --   -1.10243  -1.09617  -0.95049  -0.89897  -0.86135
 Alpha  occ. eigenvalues --   -0.85807  -0.83104  -0.80820  -0.73400  -0.70020
 Alpha  occ. eigenvalues --   -0.68166  -0.65497  -0.63094  -0.59437  -0.59320
 Alpha  occ. eigenvalues --   -0.58975  -0.58297  -0.55006  -0.53100  -0.52366
 Alpha  occ. eigenvalues --   -0.51926  -0.51176  -0.50698  -0.50374  -0.50093
 Alpha  occ. eigenvalues --   -0.46970  -0.46372  -0.45856  -0.44850  -0.42270
 Alpha  occ. eigenvalues --   -0.41757  -0.41265  -0.33584  -0.33281  -0.30323
 Alpha  occ. eigenvalues --   -0.28279
 Alpha virt. eigenvalues --   -0.00439   0.02392   0.03999   0.04912   0.05360
 Alpha virt. eigenvalues --    0.05854   0.05969   0.06547   0.07545   0.07742
 Alpha virt. eigenvalues --    0.08099   0.08224   0.08283   0.09957   0.10248
 Alpha virt. eigenvalues --    0.11746   0.12099   0.12505   0.13014   0.13339
 Alpha virt. eigenvalues --    0.13524   0.14379   0.15042   0.15258   0.15861
 Alpha virt. eigenvalues --    0.16147   0.16318   0.16552   0.16867   0.17304
 Alpha virt. eigenvalues --    0.17431   0.17874   0.18302   0.18478   0.19120
 Alpha virt. eigenvalues --    0.19477   0.19891   0.20338   0.20616   0.21325
 Alpha virt. eigenvalues --    0.21680   0.21866   0.22215   0.22846   0.23097
 Alpha virt. eigenvalues --    0.23709   0.24162   0.24421   0.25504   0.25666
 Alpha virt. eigenvalues --    0.25845   0.26430   0.26698   0.27299   0.27730
 Alpha virt. eigenvalues --    0.27930   0.28213   0.28866   0.29438   0.30000
 Alpha virt. eigenvalues --    0.30411   0.30458   0.31640   0.32049   0.32666
 Alpha virt. eigenvalues --    0.33169   0.33545   0.34487   0.34707   0.35470
 Alpha virt. eigenvalues --    0.35728   0.36507   0.36740   0.37726   0.37840
 Alpha virt. eigenvalues --    0.38349   0.38527   0.39216   0.39758   0.40509
 Alpha virt. eigenvalues --    0.40828   0.41165   0.42265   0.42831   0.43104
 Alpha virt. eigenvalues --    0.43810   0.44382   0.45403   0.46545   0.48265
 Alpha virt. eigenvalues --    0.48324   0.49702   0.50163   0.51251   0.52121
 Alpha virt. eigenvalues --    0.52854   0.54550   0.56086   0.57226   0.59053
 Alpha virt. eigenvalues --    0.60576   0.62360   0.62795   0.63181   0.63758
 Alpha virt. eigenvalues --    0.64158   0.64851   0.65383   0.66140   0.67094
 Alpha virt. eigenvalues --    0.67592   0.68728   0.68766   0.69583   0.69851
 Alpha virt. eigenvalues --    0.70403   0.70727   0.71488   0.72003   0.73331
 Alpha virt. eigenvalues --    0.74988   0.75683   0.75755   0.76720   0.77585
 Alpha virt. eigenvalues --    0.78187   0.79639   0.80279   0.80592   0.81690
 Alpha virt. eigenvalues --    0.82949   0.84356   0.85529   0.85822   0.86679
 Alpha virt. eigenvalues --    0.90125   0.91476   0.93826   0.94421   0.94449
 Alpha virt. eigenvalues --    0.95501   0.96170   0.97702   0.98265   0.98538
 Alpha virt. eigenvalues --    1.00180   1.01338   1.03437   1.04203   1.04740
 Alpha virt. eigenvalues --    1.07084   1.08189   1.08413   1.09604   1.09908
 Alpha virt. eigenvalues --    1.11700   1.12990   1.13733   1.15093   1.15851
 Alpha virt. eigenvalues --    1.17835   1.18544   1.18865   1.20509   1.20958
 Alpha virt. eigenvalues --    1.22065   1.23517   1.29509   1.32009   1.32655
 Alpha virt. eigenvalues --    1.34793   1.35384   1.37348   1.38520   1.40391
 Alpha virt. eigenvalues --    1.41421   1.43865   1.48559   1.49551   1.50203
 Alpha virt. eigenvalues --    1.54088   1.55203   1.56140   1.57333   1.58915
 Alpha virt. eigenvalues --    1.59403   1.60499   1.61491   1.62404   1.63613
 Alpha virt. eigenvalues --    1.64191   1.65047   1.65638   1.66148   1.66621
 Alpha virt. eigenvalues --    1.69579   1.71651   1.71962   1.73965   1.74193
 Alpha virt. eigenvalues --    1.75226   1.76116   1.78164   1.80282   1.81325
 Alpha virt. eigenvalues --    1.82060   1.83002   1.83650   1.83858   1.85634
 Alpha virt. eigenvalues --    1.87212   1.88505   1.91284   1.91383   1.96102
 Alpha virt. eigenvalues --    1.97988   1.99179   2.00119   2.01145   2.01557
 Alpha virt. eigenvalues --    2.02032   2.04365   2.04663   2.05953   2.07209
 Alpha virt. eigenvalues --    2.07671   2.08904   2.09875   2.11280   2.14013
 Alpha virt. eigenvalues --    2.14898   2.17006   2.19733   2.21154   2.22841
 Alpha virt. eigenvalues --    2.23049   2.24881   2.26830   2.30209   2.35306
 Alpha virt. eigenvalues --    2.37542   2.39149   2.42246   2.45185   2.45639
 Alpha virt. eigenvalues --    2.46859   2.50005   2.51601   2.53830   2.54747
 Alpha virt. eigenvalues --    2.56806   2.57334   2.59060   2.60246   2.61380
 Alpha virt. eigenvalues --    2.64246   2.65310   2.68485   2.70396   2.70760
 Alpha virt. eigenvalues --    2.73606   2.74528   2.76172   2.79803   2.80648
 Alpha virt. eigenvalues --    2.81515   2.83418   2.83865   2.84618   2.85327
 Alpha virt. eigenvalues --    2.86154   2.86708   2.88145   2.90131   2.91777
 Alpha virt. eigenvalues --    2.93533   2.94906   2.95325   2.97669   2.98564
 Alpha virt. eigenvalues --    2.99184   3.00493   3.04571   3.06447   3.09922
 Alpha virt. eigenvalues --    3.12194   3.15738   3.19116   3.20780   3.21919
 Alpha virt. eigenvalues --    3.22692   3.28501   3.31061   3.31517   3.35032
 Alpha virt. eigenvalues --    3.38129   3.40291   3.47149   3.49994   3.54138
 Alpha virt. eigenvalues --    3.57597   3.62166   3.63401   3.66834   3.67331
 Alpha virt. eigenvalues --    3.70483   3.73904   3.77711   3.79382   3.80457
 Alpha virt. eigenvalues --    3.84219   3.88062   3.91054   3.92147   4.02744
 Alpha virt. eigenvalues --    4.08240   4.12384   4.14142   4.17840   4.29027
 Alpha virt. eigenvalues --    4.31455   4.40465   4.64226   4.93854   4.95038
 Alpha virt. eigenvalues --    5.16005   5.17101   5.19172   5.37538   5.66505
 Alpha virt. eigenvalues --    5.84267   5.97543  23.72857  23.91808  24.01890
 Alpha virt. eigenvalues --   24.03851  24.04328  24.05809  24.08374  24.14966
 Alpha virt. eigenvalues --   24.22807  24.24043  24.31447  35.68690  50.14477
 Alpha virt. eigenvalues --   50.18405
          Condensed to atoms (all electrons):
               1          2          3          4          5          6
     1  C   26.469443  -6.317048  -1.572615  -0.073688  -0.100146 -12.649999
     2  C   -6.317048  21.125645  -0.252904  -2.373553   0.865602   1.229744
     3  C   -1.572615  -0.252904  19.945916  -6.903786  -0.122596  -2.460895
     4  C   -0.073688  -2.373553  -6.903786  17.847856  -0.194314  -1.368852
     5  O   -0.100146   0.865602  -0.122596  -0.194314   8.162882  -0.498986
     6  C  -12.649999   1.229744  -2.460895  -1.368852  -0.498986  29.731569
     7  C    0.948199  -4.480347  -3.764795   4.242750  -0.076426  -1.190537
     8  O    0.235766  -0.229968   0.316354  -0.003857   0.018735  -0.073333
     9  C   -4.060340   2.370867   1.966902  -2.731956  -0.003698   0.817650
    10  H    0.073410  -0.053469  -0.053975   0.844994  -0.002087  -0.284309
    11  H   -0.126102   0.068891  -0.005071   0.041174   0.088216   0.004243
    12  C    2.033967  -4.324491  -1.113898  -1.234862   0.250917  -7.906371
    13  H   -0.397082  -0.077821   0.050193  -0.196482  -0.011752   1.020919
    14  C   -0.161275  -0.304336  -0.085208  -0.485313  -0.020578  -0.388155
    15  H   -0.040058  -0.058603  -0.190147   0.065427   0.000416  -0.006808
    16  H    0.018137   0.010273   0.049156  -0.113351   0.000634   0.010501
    17  H   -0.059685   0.097721  -0.049778   0.030867   0.005504   0.009393
    18  N    0.000749  -0.007783   0.000065  -0.000719   0.003366  -0.307152
    19  H    0.079877   0.006553   0.028011  -0.052427  -0.000322  -0.007239
    20  C   -0.290203  -0.331849  -0.022448  -0.009613  -0.003281   0.608913
    21  C    0.029866  -0.120107  -0.000776  -0.016145   0.001168  -0.205360
    22  H   -0.004874  -0.028715  -0.003575   0.000211   0.001047  -0.072455
    23  H   -0.008173  -0.024551  -0.000184  -0.004493  -0.000080   0.027746
    24  H    0.008987   0.026442  -0.000500   0.004990   0.000125   0.000912
    25  H    0.021657   0.020290   0.004456  -0.004550   0.001691  -0.053308
    26  H   -0.001147   0.003711   0.000011   0.001281   0.000052   0.048983
    27  H   -0.003572  -0.005733  -0.000620   0.000419  -0.000168   0.025016
               7          8          9         10         11         12
     1  C    0.948199   0.235766  -4.060340   0.073410  -0.126102   2.033967
     2  C   -4.480347  -0.229968   2.370867  -0.053469   0.068891  -4.324491
     3  C   -3.764795   0.316354   1.966902  -0.053975  -0.005071  -1.113898
     4  C    4.242750  -0.003857  -2.731956   0.844994   0.041174  -1.234862
     5  O   -0.076426   0.018735  -0.003698  -0.002087   0.088216   0.250917
     6  C   -1.190537  -0.073333   0.817650  -0.284309   0.004243  -7.906371
     7  C   11.683999  -0.307652  -1.882288   0.116566   0.029996   0.251160
     8  O   -0.307652   8.165966  -0.016488  -0.001112   0.226024   0.036055
     9  C   -1.882288  -0.016488   9.979953  -0.194997   0.017576  -0.684978
    10  H    0.116566  -0.001112  -0.194997   0.612316   0.001941  -0.086114
    11  H    0.029996   0.226024   0.017576   0.001941   0.271685  -0.031837
    12  C    0.251160   0.036055  -0.684978  -0.086114  -0.031837  18.252458
    13  H   -0.028110  -0.002811  -0.005081  -0.053972  -0.001748  -0.128251
    14  C    0.493381   0.020575   0.751322   0.025587  -0.002893  -0.175869
    15  H    0.606656  -0.022317  -0.026464   0.000490   0.000861   0.002275
    16  H   -0.005117   0.000050   0.409273  -0.023357   0.000270   0.003736
    17  H   -0.000025   0.000128   0.001177   0.001183   0.000575   0.370719
    18  N    0.001700  -0.000079  -0.003060  -0.003590   0.000124   0.277158
    19  H   -0.084334   0.000968  -0.061725   0.002336  -0.000207  -0.002034
    20  C   -0.004508  -0.000207   0.020666  -0.003751  -0.001164  -0.178369
    21  C    0.000064   0.000295  -0.000991  -0.001816  -0.000044   0.044338
    22  H   -0.000963   0.000113   0.001005  -0.000762   0.000025   0.085610
    23  H    0.000014  -0.000011   0.000158   0.000003  -0.000116   0.025859
    24  H   -0.000041   0.000036  -0.000266  -0.001809   0.000085  -0.050944
    25  H    0.000692  -0.000020  -0.001133   0.000325   0.000079   0.074346
    26  H   -0.000160   0.000007   0.000391  -0.000222   0.000066  -0.058154
    27  H   -0.000022  -0.000003   0.000098   0.000066  -0.000012  -0.026473
              13         14         15         16         17         18
     1  C   -0.397082  -0.161275  -0.040058   0.018137  -0.059685   0.000749
     2  C   -0.077821  -0.304336  -0.058603   0.010273   0.097721  -0.007783
     3  C    0.050193  -0.085208  -0.190147   0.049156  -0.049778   0.000065
     4  C   -0.196482  -0.485313   0.065427  -0.113351   0.030867  -0.000719
     5  O   -0.011752  -0.020578   0.000416   0.000634   0.005504   0.003366
     6  C    1.020919  -0.388155  -0.006808   0.010501   0.009393  -0.307152
     7  C   -0.028110   0.493381   0.606656  -0.005117  -0.000025   0.001700
     8  O   -0.002811   0.020575  -0.022317   0.000050   0.000128  -0.000079
     9  C   -0.005081   0.751322  -0.026464   0.409273   0.001177  -0.003060
    10  H   -0.053972   0.025587   0.000490  -0.023357   0.001183  -0.003590
    11  H   -0.001748  -0.002893   0.000861   0.000270   0.000575   0.000124
    12  C   -0.128251  -0.175869   0.002275   0.003736   0.370719   0.277158
    13  H    0.767159  -0.013343   0.000364   0.005337   0.002944  -0.033404
    14  C   -0.013343   6.302180  -0.016103  -0.060881  -0.000588  -0.000164
    15  H    0.000364  -0.016103   0.462453   0.000844  -0.000200   0.000006
    16  H    0.005337  -0.060881   0.000844   0.488391  -0.000166   0.000088
    17  H    0.002944  -0.000588  -0.000200  -0.000166   0.464295  -0.068750
    18  N   -0.033404  -0.000164   0.000006   0.000088  -0.068750   6.836297
    19  H   -0.001469   0.423587  -0.010413  -0.011298   0.000018  -0.000013
    20  C    0.025433  -0.002817  -0.000005  -0.000089   0.005869   0.216084
    21  C   -0.009574  -0.000477   0.000014   0.000081  -0.042766   0.271434
    22  H   -0.003463   0.000498  -0.000024  -0.000138   0.003914  -0.043414
    23  H    0.000820  -0.000201   0.000002  -0.000013  -0.001226  -0.056724
    24  H   -0.000443   0.000405  -0.000006   0.000055  -0.002173  -0.040340
    25  H   -0.001438  -0.000009   0.000007   0.000000  -0.006932  -0.087521
    26  H    0.002008   0.000051  -0.000001   0.000003   0.001026  -0.044661
    27  H   -0.000300  -0.000030   0.000000   0.000002   0.003611  -0.052980
              19         20         21         22         23         24
     1  C    0.079877  -0.290203   0.029866  -0.004874  -0.008173   0.008987
     2  C    0.006553  -0.331849  -0.120107  -0.028715  -0.024551   0.026442
     3  C    0.028011  -0.022448  -0.000776  -0.003575  -0.000184  -0.000500
     4  C   -0.052427  -0.009613  -0.016145   0.000211  -0.004493   0.004990
     5  O   -0.000322  -0.003281   0.001168   0.001047  -0.000080   0.000125
     6  C   -0.007239   0.608913  -0.205360  -0.072455   0.027746   0.000912
     7  C   -0.084334  -0.004508   0.000064  -0.000963   0.000014  -0.000041
     8  O    0.000968  -0.000207   0.000295   0.000113  -0.000011   0.000036
     9  C   -0.061725   0.020666  -0.000991   0.001005   0.000158  -0.000266
    10  H    0.002336  -0.003751  -0.001816  -0.000762   0.000003  -0.001809
    11  H   -0.000207  -0.001164  -0.000044   0.000025  -0.000116   0.000085
    12  C   -0.002034  -0.178369   0.044338   0.085610   0.025859  -0.050944
    13  H   -0.001469   0.025433  -0.009574  -0.003463   0.000820  -0.000443
    14  C    0.423587  -0.002817  -0.000477   0.000498  -0.000201   0.000405
    15  H   -0.010413  -0.000005   0.000014  -0.000024   0.000002  -0.000006
    16  H   -0.011298  -0.000089   0.000081  -0.000138  -0.000013   0.000055
    17  H    0.000018   0.005869  -0.042766   0.003914  -0.001226  -0.002173
    18  N   -0.000013   0.216084   0.271434  -0.043414  -0.056724  -0.040340
    19  H    0.486765  -0.000068  -0.000001   0.000037  -0.000004   0.000008
    20  C   -0.000068   5.274506  -0.078318   0.413765   0.394107   0.410207
    21  C   -0.000001  -0.078318   5.210050   0.005753   0.009478  -0.003749
    22  H    0.000037   0.413765   0.005753   0.533026  -0.025106  -0.040506
    23  H   -0.000004   0.394107   0.009478  -0.025106   0.507201  -0.026541
    24  H    0.000008   0.410207  -0.003749  -0.040506  -0.026541   0.502684
    25  H    0.000000  -0.004536   0.411982  -0.002191   0.003504  -0.001604
    26  H    0.000001  -0.011253   0.405502  -0.003057  -0.004490   0.003725
    27  H    0.000000   0.017807   0.397925   0.002597  -0.004064  -0.001133
              25         26         27
     1  C    0.021657  -0.001147  -0.003572
     2  C    0.020290   0.003711  -0.005733
     3  C    0.004456   0.000011  -0.000620
     4  C   -0.004550   0.001281   0.000419
     5  O    0.001691   0.000052  -0.000168
     6  C   -0.053308   0.048983   0.025016
     7  C    0.000692  -0.000160  -0.000022
     8  O   -0.000020   0.000007  -0.000003
     9  C   -0.001133   0.000391   0.000098
    10  H    0.000325  -0.000222   0.000066
    11  H    0.000079   0.000066  -0.000012
    12  C    0.074346  -0.058154  -0.026473
    13  H   -0.001438   0.002008  -0.000300
    14  C   -0.000009   0.000051  -0.000030
    15  H    0.000007  -0.000001   0.000000
    16  H    0.000000   0.000003   0.000002
    17  H   -0.006932   0.001026   0.003611
    18  N   -0.087521  -0.044661  -0.052980
    19  H    0.000000   0.000001   0.000000
    20  C   -0.004536  -0.011253   0.017807
    21  C    0.411982   0.405502   0.397925
    22  H   -0.002191  -0.003057   0.002597
    23  H    0.003504  -0.004490  -0.004064
    24  H   -0.001604   0.003725  -0.001133
    25  H    0.527231  -0.020332  -0.030326
    26  H   -0.020332   0.555445  -0.064299
    27  H   -0.030326  -0.064299   0.559032
 Mulliken charges:
               1
     1  C    1.945948
     2  C   -0.834463
     3  C    0.242705
     4  C   -1.312010
     5  O   -0.365923
     6  C   -0.061832
     7  C   -0.549853
     8  O   -0.363215
     9  C   -0.663576
    10  H    0.086126
    11  H    0.417361
    12  C    0.294047
    13  H    0.091371
    14  C   -0.299346
    15  H    0.231333
    16  H    0.217579
    17  H    0.233343
    18  N    0.143283
    19  H    0.203392
    20  C   -0.444878
    21  C   -0.307829
    22  H    0.181643
    23  H    0.187085
    24  H    0.211394
    25  H    0.147639
    26  H    0.185514
    27  H    0.183162
 Sum of Mulliken charges =   0.00000
 Mulliken charges with hydrogens summed into heavy atoms:
               1
     1  C    1.945948
     2  C   -0.834463
     3  C    0.242705
     4  C   -1.225884
     5  O   -0.365923
     6  C    0.029539
     7  C   -0.318520
     8  O    0.054147
     9  C   -0.445997
    12  C    0.527390
    14  C   -0.095954
    18  N    0.143283
    20  C    0.135243
    21  C    0.208486
 Electronic spatial extent (au):  <R**2>=          10245.4422
 Charge=              0.0000 electrons
 Dipole moment (field-independent basis, Debye):
    X=              5.6759    Y=              4.7509    Z=              3.6307  Tot=              8.2444
 Quadrupole moment (field-independent basis, Debye-Ang):
   XX=            -52.6608   YY=           -101.5651   ZZ=           -111.5053
   XY=              3.4606   XZ=            -22.6543   YZ=            -25.7309
 Traceless Quadrupole moment (field-independent basis, Debye-Ang):
   XX=             35.9163   YY=            -12.9880   ZZ=            -22.9282
   XY=              3.4606   XZ=            -22.6543   YZ=            -25.7309
 Octapole moment (field-independent basis, Debye-Ang**2):
  XXX=            -31.6641  YYY=            546.0806  ZZZ=           1075.9491  XYY=            -58.5422
  XXY=            148.5007  XXZ=            196.2746  XZZ=             49.9208  YZZ=            304.5586
  YYZ=            393.0201  XYZ=             -2.7466
 Hexadecapole moment (field-independent basis, Debye-Ang**3):
 XXXX=          -3021.3502 YYYY=          -3087.3707 ZZZZ=          -8271.6552 XXXY=           -392.4937
 XXXZ=            182.3005 YYYX=           -491.0784 YYYZ=          -2164.2192 ZZZX=            185.0774
 ZZZY=          -2644.8677 XXYY=          -1040.9101 XXZZ=          -1423.4473 YYZZ=          -2202.9383
 XXYZ=           -590.8006 YYXZ=            229.3115 ZZXY=           -205.1858
 N-N= 8.345075755253D+02 E-N=-3.142559560911D+03  KE= 6.292239917400D+02
 Leave Link  601 at Thu Nov  2 22:03:27 2017, MaxMem=  3758096384 cpu:         0.5
 (Enter /share/apps/gaussian/g09_D01/g09/l9999.exe)
 1\1\GINC-NXV21\SP\RwB97XD TD-FC\6-311++G(d,p)\C11H13N1O2\BTX008\02-Nov
 -2017\0\\#p wb97xd 6-311++G** td=(nstates=4) nosymm\\Title\\0,1\C,0,-0
 .549514,-2.421375,-3.556489\C,0,0.748952,-2.08453,-4.18568\C,0,-1.4351
 28,-3.316549,-4.234244\C,0,-0.970489,-1.888841,-2.320671\O,0,0.972908,
 -2.549156,-5.370477\C,0,1.712641,-1.292266,-3.49646\C,0,-2.678296,-3.6
 42643,-3.669457\O,0,-1.094483,-3.862251,-5.419024\C,0,-2.205884,-2.208
 878,-1.773965\H,0,-0.320388,-1.20876,-1.77577\H,0,-0.169942,-3.394053,
 -5.620683\C,0,2.901163,-0.936609,-4.10727\H,0,1.505636,-0.972217,-2.48
 0867\C,0,-3.058648,-3.089708,-2.454186\H,0,-3.318449,-4.339669,-4.2122
 69\H,0,-2.515509,-1.77451,-0.823695\H,0,3.057591,-1.228212,-5.147628\N
 ,0,3.911606,-0.259407,-3.559222\H,0,-4.027919,-3.334554,-2.016044\C,0,
 3.893413,0.167594,-2.168239\C,0,5.095997,0.094821,-4.328347\H,0,3.5017
 36,-0.633692,-1.532362\H,0,4.916749,0.396317,-1.851515\H,0,3.278691,1.
 072565,-2.042548\H,0,4.984634,-0.264548,-5.35744\H,0,5.983314,-0.36969
 ,-3.870035\H,0,5.226221,1.187487,-4.339873\\Version=ES64L-G09RevD.01\H
 F=-632.1455381\RMSD=3.809e-09\PG=C01 [X(C11H13N1O2)]\\@


     SCHOPENHAUER'S LAW OF ENTROPY
 IF YOU PUT A SPOONFUL OF WINE IN A BARREL FULL
 OF SEWAGE, YOU GET SEWAGE.
 IF YOU PUT A SPOONFUL OF SEWAGE IN A BARREL FULL
 OF WINE, YOU GET SEWAGE.
 Job cpu time:       0 days  1 hours 10 minutes 54.6 seconds.
 File lengths (MBytes):  RWF=    237 Int=      0 D2E=      0 Chk=     27 Scr=      1
 Normal termination of Gaussian 09 at Thu Nov  2 22:03:27 2017.
