 Entering Gaussian System, Link 0=g09
 Input=2hp_1_666-mega_dimer_0_mon-1.com
 Output=2hp_1_666-mega_dimer_0_mon-1.out
 Initial command:
 /share/apps/gaussian/g09_D01/g09/l1.exe "/tmp/160981.1.all.q/Gau-29731.inp" -scrdir="/tmp/160981.1.all.q/"
 Entering Link 1 = /share/apps/gaussian/g09_D01/g09/l1.exe PID=     29732.
  
 Copyright (c) 1988,1990,1992,1993,1995,1998,2003,2009,2013,
            Gaussian, Inc.  All Rights Reserved.
  
 This is part of the Gaussian(R) 09 program.  It is based on
 the Gaussian(R) 03 system (copyright 2003, Gaussian, Inc.),
 the Gaussian(R) 98 system (copyright 1998, Gaussian, Inc.),
 the Gaussian(R) 94 system (copyright 1995, Gaussian, Inc.),
 the Gaussian 92(TM) system (copyright 1992, Gaussian, Inc.),
 the Gaussian 90(TM) system (copyright 1990, Gaussian, Inc.),
 the Gaussian 88(TM) system (copyright 1988, Gaussian, Inc.),
 the Gaussian 86(TM) system (copyright 1986, Carnegie Mellon
 University), and the Gaussian 82(TM) system (copyright 1983,
 Carnegie Mellon University). Gaussian is a federally registered
 trademark of Gaussian, Inc.
  
 This software contains proprietary and confidential information,
 including trade secrets, belonging to Gaussian, Inc.
  
 This software is provided under written license and may be
 used, copied, transmitted, or stored only in accord with that
 written license.
  
 The following legend is applicable only to US Government
 contracts under FAR:
  
                    RESTRICTED RIGHTS LEGEND
  
 Use, reproduction and disclosure by the US Government is
 subject to restrictions as set forth in subparagraphs (a)
 and (c) of the Commercial Computer Software - Restricted
 Rights clause in FAR 52.227-19.
  
 Gaussian, Inc.
 340 Quinnipiac St., Bldg. 40, Wallingford CT 06492
  
  
 ---------------------------------------------------------------
 Warning -- This program may not be used in any manner that
 competes with the business of Gaussian, Inc. or will provide
 assistance to any competitor of Gaussian, Inc.  The licensee
 of this program is prohibited from giving any competitor of
 Gaussian, Inc. access to this program.  By using this program,
 the user acknowledges that Gaussian, Inc. is engaged in the
 business of creating and licensing software in the field of
 computational chemistry and represents and warrants to the
 licensee that it is not a competitor of Gaussian, Inc. and that
 it will not use this program in any manner prohibited above.
 ---------------------------------------------------------------
  

 Cite this work as:
 Gaussian 09, Revision D.01,
 M. J. Frisch, G. W. Trucks, H. B. Schlegel, G. E. Scuseria, 
 M. A. Robb, J. R. Cheeseman, G. Scalmani, V. Barone, B. Mennucci, 
 G. A. Petersson, H. Nakatsuji, M. Caricato, X. Li, H. P. Hratchian, 
 A. F. Izmaylov, J. Bloino, G. Zheng, J. L. Sonnenberg, M. Hada, 
 M. Ehara, K. Toyota, R. Fukuda, J. Hasegawa, M. Ishida, T. Nakajima, 
 Y. Honda, O. Kitao, H. Nakai, T. Vreven, J. A. Montgomery, Jr., 
 J. E. Peralta, F. Ogliaro, M. Bearpark, J. J. Heyd, E. Brothers, 
 K. N. Kudin, V. N. Staroverov, T. Keith, R. Kobayashi, J. Normand, 
 K. Raghavachari, A. Rendell, J. C. Burant, S. S. Iyengar, J. Tomasi, 
 M. Cossi, N. Rega, J. M. Millam, M. Klene, J. E. Knox, J. B. Cross, 
 V. Bakken, C. Adamo, J. Jaramillo, R. Gomperts, R. E. Stratmann, 
 O. Yazyev, A. J. Austin, R. Cammi, C. Pomelli, J. W. Ochterski, 
 R. L. Martin, K. Morokuma, V. G. Zakrzewski, G. A. Voth, 
 P. Salvador, J. J. Dannenberg, S. Dapprich, A. D. Daniels, 
 O. Farkas, J. B. Foresman, J. V. Ortiz, J. Cioslowski, 
 and D. J. Fox, Gaussian, Inc., Wallingford CT, 2013.
 
 ******************************************
 Gaussian 09:  ES64L-G09RevD.01 24-Apr-2013
                 2-Nov-2017 
 ******************************************
 %chk=2hp_1_666-mega_dimer_0_mon-1.chk
 %nproc=4
 Will use up to    4 processors via shared memory.
 %mem=28GB
 ------------------------------------------
 #p wb97xd 6-311++G** td=(nstates=4) nosymm
 ------------------------------------------
 1/38=1/1;
 2/12=2,15=1,17=6,18=5,40=1/2;
 3/5=4,6=6,7=1111,11=9,16=1,25=1,30=1,74=-58/1,2,8,3;
 4//1;
 5/5=2,38=5/2;
 8/6=1,10=2,108=4/1;
 9/41=4,42=1,70=2/14;
 6/7=2,8=2,9=2,10=2/1;
 99/5=1,9=1/99;
 Leave Link    1 at Thu Nov  2 21:38:37 2017, MaxMem=  3758096384 cpu:         0.4
 (Enter /share/apps/gaussian/g09_D01/g09/l101.exe)
 -----
 Title
 -----
 Symbolic Z-matrix:
 Charge =  0 Multiplicity = 1
 C                    -0.01852  -0.16759  -8.62423 
 H                    -1.04186  -0.39632  -8.94095 
 H                     0.5962   -1.07256  -8.74992 
 H                     0.37315   0.63369  -9.2601 
 N                    -0.03672   0.25941  -7.23324 
 C                    -1.22111  -0.09482  -6.46412 
 C                     0.97373   0.93661  -6.6852 
 H                    -1.35133  -1.18749  -6.45259 
 H                    -1.10974   0.26455  -5.43503 
 H                    -2.10842   0.36969  -6.92243 
 C                     2.16225   1.29226  -7.29601 
 H                     0.8173    1.22821  -5.64484 
 H                     2.36926   0.97222  -8.3116 
 C                     3.12594   2.08453  -6.60679 
 C                     4.42441   2.42137  -7.23598 
 O                     2.90199   2.54916  -5.42199 
 C                     5.31002   3.31655  -6.55822 
 C                     4.84538   1.88884  -8.4718 
 H                     4.04483   3.39405  -5.17178 
 C                     6.55319   3.64264  -7.12301 
 O                     4.96937   3.86225  -5.37344 
 C                     6.08077   2.20888  -9.0185 
 H                     4.19528   1.20876  -9.0167 
 C                     6.93354   3.08971  -8.33828 
 H                     7.19334   4.33967  -6.5802 
 H                     6.3904    1.77451  -9.96877 
 H                     7.90281   3.33455  -8.77642 
 
 NAtoms=     27 NQM=       27 NQMF=       0 NMMI=      0 NMMIF=      0
                NMic=       0 NMicF=      0.
                    Isotopes and Nuclear Properties:
 (Nuclear quadrupole moments (NQMom) in fm**2, nuclear magnetic moments (NMagM)
  in nuclear magnetons)

  Atom         1           2           3           4           5           6           7           8           9          10
 IAtWgt=          12           1           1           1          14          12          12           1           1           1
 AtmWgt=  12.0000000   1.0078250   1.0078250   1.0078250  14.0030740  12.0000000  12.0000000   1.0078250   1.0078250   1.0078250
 NucSpn=           0           1           1           1           2           0           0           1           1           1
 AtZEff=   0.0000000   0.0000000   0.0000000   0.0000000   0.0000000   0.0000000   0.0000000   0.0000000   0.0000000   0.0000000
 NQMom=    0.0000000   0.0000000   0.0000000   0.0000000   2.0440000   0.0000000   0.0000000   0.0000000   0.0000000   0.0000000
 NMagM=    0.0000000   2.7928460   2.7928460   2.7928460   0.4037610   0.0000000   0.0000000   2.7928460   2.7928460   2.7928460
 AtZNuc=   6.0000000   1.0000000   1.0000000   1.0000000   7.0000000   6.0000000   6.0000000   1.0000000   1.0000000   1.0000000

  Atom        11          12          13          14          15          16          17          18          19          20
 IAtWgt=          12           1           1          12          12          16          12          12           1          12
 AtmWgt=  12.0000000   1.0078250   1.0078250  12.0000000  12.0000000  15.9949146  12.0000000  12.0000000   1.0078250  12.0000000
 NucSpn=           0           1           1           0           0           0           0           0           1           0
 AtZEff=   0.0000000   0.0000000   0.0000000   0.0000000   0.0000000   0.0000000   0.0000000   0.0000000   0.0000000   0.0000000
 NQMom=    0.0000000   0.0000000   0.0000000   0.0000000   0.0000000   0.0000000   0.0000000   0.0000000   0.0000000   0.0000000
 NMagM=    0.0000000   2.7928460   2.7928460   0.0000000   0.0000000   0.0000000   0.0000000   0.0000000   2.7928460   0.0000000
 AtZNuc=   6.0000000   1.0000000   1.0000000   6.0000000   6.0000000   8.0000000   6.0000000   6.0000000   1.0000000   6.0000000

  Atom        21          22          23          24          25          26          27
 IAtWgt=          16          12           1          12           1           1           1
 AtmWgt=  15.9949146  12.0000000   1.0078250  12.0000000   1.0078250   1.0078250   1.0078250
 NucSpn=           0           0           1           0           1           1           1
 AtZEff=   0.0000000   0.0000000   0.0000000   0.0000000   0.0000000   0.0000000   0.0000000
 NQMom=    0.0000000   0.0000000   0.0000000   0.0000000   0.0000000   0.0000000   0.0000000
 NMagM=    0.0000000   0.0000000   2.7928460   0.0000000   2.7928460   2.7928460   2.7928460
 AtZNuc=   8.0000000   6.0000000   1.0000000   6.0000000   1.0000000   1.0000000   1.0000000
 Leave Link  101 at Thu Nov  2 21:38:37 2017, MaxMem=  3758096384 cpu:         0.2
 (Enter /share/apps/gaussian/g09_D01/g09/l202.exe)
                          Input orientation:                          
 ---------------------------------------------------------------------
 Center     Atomic      Atomic             Coordinates (Angstroms)
 Number     Number       Type             X           Y           Z
 ---------------------------------------------------------------------
      1          6           0       -0.018523   -0.167594   -8.624227
      2          1           0       -1.041859   -0.396318   -8.940951
      3          1           0        0.596200   -1.072565   -8.749918
      4          1           0        0.373154    0.633692   -9.260104
      5          7           0       -0.036716    0.259407   -7.233244
      6          6           0       -1.221106   -0.094821   -6.464118
      7          6           0        0.973728    0.936608   -6.685196
      8          1           0       -1.351330   -1.187488   -6.452592
      9          1           0       -1.109743    0.264547   -5.435025
     10          1           0       -2.108423    0.369690   -6.922430
     11          6           0        2.162250    1.292265   -7.296006
     12          1           0        0.817300    1.228212   -5.644838
     13          1           0        2.369255    0.972216   -8.311599
     14          6           0        3.125938    2.084530   -6.606786
     15          6           0        4.424405    2.421374   -7.235977
     16          8           0        2.901988    2.549157   -5.421988
     17          6           0        5.310019    3.316548   -6.558221
     18          6           0        4.845380    1.888840   -8.471795
     19          1           0        4.044833    3.394053   -5.171782
     20          6           0        6.553187    3.642642   -7.123008
     21          8           0        4.969374    3.862250   -5.373442
     22          6           0        6.080774    2.208877   -9.018501
     23          1           0        4.195278    1.208760   -9.016695
     24          6           0        6.933539    3.089708   -8.338279
     25          1           0        7.193340    4.339668   -6.580197
     26          1           0        6.390400    1.774510   -9.968770
     27          1           0        7.902810    3.334553   -8.776421
 ---------------------------------------------------------------------
                    Distance matrix (angstroms):
                    1          2          3          4          5
     1  C    0.000000
     2  H    1.095375   0.000000
     3  H    1.101206   1.782426   0.000000
     4  H    1.095358   1.779056   1.794813   0.000000
     5  N    1.455161   2.087235   2.115427   2.101486   0.000000
     6  C    2.473373   2.501546   3.079524   3.299990   1.455957
     7  C    2.442062   3.305709   2.905577   2.661315   1.334149
     8  H    2.744550   2.629383   3.013932   3.764660   2.105026
     9  H    3.398311   3.568314   3.960634   4.119039   2.094040
    10  H    2.748176   2.408060   3.568585   3.419450   2.097794
    11  C    2.941280   3.977873   3.187286   2.737200   2.430265
    12  H    3.394648   4.118244   3.870915   3.690646   2.047183
    13  H    2.664280   3.728896   2.741711   2.235773   2.731235
    14  C    4.362312   5.382701   4.578192   4.089358   3.704849
    15  C    5.326312   6.381721   5.399517   4.868833   4.957389
    16  O    5.115120   6.050856   5.432186   4.979472   4.142413
    17  C    6.693354   7.733636   6.803524   6.234623   6.195913
    18  C    5.282964   6.332585   5.186791   4.711436   5.293763
    19  H    6.412142   7.378888   6.681826   6.149406   5.543886
    20  C    7.743315   8.792203   7.769537   7.198178   7.408458
    21  O    7.189323   8.185197   7.407944   6.830444   6.442071
    22  C    6.557781   7.584521   6.396917   5.925918   6.664177
    23  H    4.450225   5.478103   4.269541   3.872800   4.689535
    24  C    7.682639   8.724825   7.593144   7.065439   7.603694
    25  H    8.746682   9.788832   8.804670   8.211644   8.327587
    26  H    6.830363   7.810722   6.569946   6.165300   7.147479
    27  H    8.662316   9.692965   8.532874   8.014008   8.652976
                    6          7          8          9         10
     6  C    0.000000
     7  C    2.435163   0.000000
     8  H    1.100460   3.157813   0.000000
     9  H    1.095710   2.521001   1.789473   0.000000
    10  H    1.101432   3.142822   1.794085   1.794656   0.000000
    11  C    3.750086   1.382811   4.382438   3.901973   4.385128
    12  H    2.564515   1.091718   3.345300   2.164756   3.305927
    13  H    4.176415   2.143350   4.686468   4.569344   4.726778
    14  C    4.864845   2.440467   5.547595   4.756717   5.517141
    15  C    6.228868   3.796717   6.855413   6.206619   6.854601
    16  O    5.007650   2.813218   5.754596   4.616665   5.666182
    17  C    7.368981   4.948096   8.041832   7.196501   7.990613
    18  C    6.690884   4.369024   7.206954   6.879229   7.284485
    19  H    6.447673   4.214397   7.193717   6.035955   7.076305
    20  C    8.651150   6.216483   9.287680   8.542910   9.261530
    21  O    7.427653   5.123013   8.161845   7.064200   8.043168
    22  C    8.071515   5.757161   8.564774   8.265909   8.650958
    23  H    6.127984   3.986018   6.563649   6.470174   6.695269
    24  C    8.952762   6.548883   9.512585   9.005821   9.547785
    25  H    9.512154   7.090516  10.177285   9.319829  10.119320
    26  H    8.585570   6.389388   9.003962   8.893086   9.136941
    27  H   10.017644   7.624667  10.558795  10.090390  10.604361
                   11         12         13         14         15
    11  C    0.000000
    12  H    2.130575   0.000000
    13  H    1.084763   3.096080   0.000000
    14  C    1.425273   2.643565   2.171681   0.000000
    15  C    2.528999   4.119049   2.735080   1.481675   0.000000
    16  O    2.374644   2.478000   3.334726   1.292199   2.371632
    17  C    3.814512   5.037851   4.149496   2.508074   1.430036
    18  C    2.989577   4.965234   2.645195   2.544216   1.409985
    19  H    3.531849   3.915561   4.304800   2.149059   2.313240
    20  C    4.983425   6.396472   5.103843   3.800031   2.456821
    21  O    4.263921   4.924584   4.872954   2.842478   2.417054
    22  C    4.377442   6.328307   3.975477   3.816135   2.442561
    23  H    2.664760   4.772896   1.971668   2.778151   2.166538
    24  C    5.204069   6.937447   5.031617   4.301892   2.820903
    25  H    5.925446   7.156112   6.132641   4.650819   3.431749
    26  H    5.025284   7.074904   4.422612   4.696356   3.428079
    27  H    6.270295   8.027947   6.034644   5.393364   3.912309
                   16         17         18         19         20
    16  O    0.000000
    17  C    2.771016   0.000000
    18  C    3.676155   2.432284   0.000000
    19  H    1.443103   1.878541   3.714381   0.000000
    20  C    4.173779   1.403848   2.794933   3.187620   0.000000
    21  O    2.449623   1.348158   3.675529   1.055770   2.370163
    22  C    4.812003   2.806061   1.388348   4.510759   2.423169
    23  H    4.048602   3.424838   1.087225   4.425098   3.881954
    24  C    5.005033   2.419893   2.412534   4.296970   1.388268
    25  H    4.791981   2.143398   3.885565   3.576439   1.091002
    26  H    5.782934   3.895760   2.154319   5.579937   3.408046
    27  H    6.072667   3.412228   3.395697   5.280241   2.156427
                   21         22         23         24         25
    21  O    0.000000
    22  C    4.153951   0.000000
    23  H    4.573131   2.134322   0.000000
    24  C    3.639371   1.402060   3.390617   0.000000
    25  H    2.574919   3.423945   4.972674   2.172728   0.000000
    26  H    5.243569   1.089750   2.458675   2.164081   4.325179
    27  H    4.523691   2.155357   4.280481   1.091514   2.517341
                   26         27
    26  H    0.000000
    27  H    2.478470   0.000000
 Symmetry turned off by external request.
 Stoichiometry    C11H13NO2
 Framework group  C1[X(C11H13NO2)]
 Deg. of freedom    75
 Full point group                 C1      NOp   1
 Rotational constants (GHZ):      1.6008456      0.3190918      0.2676011
 Leave Link  202 at Thu Nov  2 21:38:37 2017, MaxMem=  3758096384 cpu:         0.0
 (Enter /share/apps/gaussian/g09_D01/g09/l301.exe)
 Standard basis: 6-311++G(d,p) (5D, 7F)
 Ernie: Thresh=  0.10000D-02 Tol=  0.10000D-05 Strict=F.
   399 basis functions,   621 primitive gaussians,   413 cartesian basis functions
    51 alpha electrons       51 beta electrons
       nuclear repulsion energy       834.5224354524 Hartrees.
 IExCor= 4639 DFT=T Ex+Corr=wB97XD ExCW=0 ScaHFX=  1.000000
 ScaDFX=  1.000000  1.000000  1.000000  1.000000 ScalE2=  1.000000  1.000000
 IRadAn=      0 IRanWt=     -1 IRanGd=            0 ICorTp=0 IEmpDi=121
  HFx wShort=  0.000000 wLong=  0.200000 cFull=  0.222036 cShort=  0.000000 cLong=  0.777964
  DFx wShort=  0.000000 wLong=  0.200000 cFull=  0.000000 cShort=  0.000000 cLong=  1.000000
 NAtoms=   27 NActive=   27 NUniq=   27 SFac= 1.00D+00 NAtFMM=   60 NAOKFM=F Big=F
 Integral buffers will be    131072 words long.
 Raffenetti 1 integral format.
 Two-electron integral symmetry is turned off.
 R6Disp:  Grimme-D2 Dispersion energy=       -0.0148428078 Hartrees.
 Nuclear repulsion after empirical dispersion term =      834.5075926446 Hartrees.
 Leave Link  301 at Thu Nov  2 21:38:37 2017, MaxMem=  3758096384 cpu:         0.1
 (Enter /share/apps/gaussian/g09_D01/g09/l302.exe)
 NPDir=0 NMtPBC=     1 NCelOv=     1 NCel=       1 NClECP=     1 NCelD=      1
         NCelK=      1 NCelE2=     1 NClLst=     1 CellRange=     0.0.
 One-electron integrals computed using PRISM.
 NBasis=   399 RedAO= T EigKep=  1.10D-06  NBF=   399
 NBsUse=   397 1.00D-06 EigRej=  6.39D-07 NBFU=   397
 Precomputing XC quadrature grid using
 IXCGrd= 4 IRadAn=           0 IRanWt=          -1 IRanGd=           0 AccXCQ= 0.00D+00.
 Generated NRdTot=       0 NPtTot=           0 NUsed=           0 NTot=          32
 NSgBfM=   412   412   412   412   412 MxSgAt=    27 MxSgA2=    27.
 Leave Link  302 at Thu Nov  2 21:38:38 2017, MaxMem=  3758096384 cpu:         1.6
 (Enter /share/apps/gaussian/g09_D01/g09/l308.exe)
 Leave Link  308 at Thu Nov  2 21:38:38 2017, MaxMem=  3758096384 cpu:         0.2
 (Enter /share/apps/gaussian/g09_D01/g09/l303.exe)
 DipDrv:  MaxL=1.
 Leave Link  303 at Thu Nov  2 21:38:38 2017, MaxMem=  3758096384 cpu:         0.2
 (Enter /share/apps/gaussian/g09_D01/g09/l401.exe)
 ExpMin= 3.60D-02 ExpMax= 8.59D+03 ExpMxC= 1.30D+03 IAcc=3 IRadAn=         5 AccDes= 0.00D+00
 Harris functional with IExCor= 4639 and IRadAn=       5 diagonalized for initial guess.
 HarFok:  IExCor= 4639 AccDes= 0.00D+00 IRadAn=         5 IDoV= 1 UseB2=F ITyADJ=14
 ICtDFT=  3500011 ScaDFX=  1.000000  1.000000  1.000000  1.000000
 FoFCou: FMM=F IPFlag=           0 FMFlag=      100000 FMFlg1=           0
         NFxFlg=           0 DoJE=T BraDBF=F KetDBF=T FulRan=T
         wScrn=  0.000000 ICntrl=     500 IOpCl=  0 I1Cent=   200000004 NGrid=           0
         NMat0=    1 NMatS0=      1 NMatT0=    0 NMatD0=    1 NMtDS0=    0 NMtDT0=    0
 Symmetry not used in FoFCou.
 Harris En= -604.964959381559    
 JPrj=0 DoOrth=F DoCkMO=F.
 Leave Link  401 at Thu Nov  2 21:38:44 2017, MaxMem=  3758096384 cpu:        23.9
 (Enter /share/apps/gaussian/g09_D01/g09/l502.exe)
 Closed shell SCF:
 Using DIIS extrapolation, IDIIS=  1040.
 Two-electron integral symmetry not used.
 IVT=      535267 IEndB=      535267 NGot=  3758096384 MDV=  3757748740
 LenX=  3757748740 LenY=  3757577730
 Requested convergence on RMS density matrix=1.00D-08 within 128 cycles.
 Requested convergence on MAX density matrix=1.00D-06.
 Requested convergence on             energy=1.00D-06.
 No special actions if energy rises.
 Fock matrices will be formed incrementally for  20 cycles.

 Cycle   1  Pass 1  IDiag  1:
 FoFJK:  IHMeth= 1 ICntrl=       0 DoSepK=T KAlg= 0 I1Cent=   0 FoldK=F
 IRaf=         1 NMat=   1 IRICut=       1 DoRegI=T DoRafI=F ISym2E= 0.
 FoFCou: FMM=F IPFlag=           0 FMFlag=      100000 FMFlg1=           0
         NFxFlg=           0 DoJE=T BraDBF=F KetDBF=F FulRan=T
         wScrn=  0.000000 ICntrl=     500 IOpCl=  0 I1Cent=           0 NGrid=           0
         NMat0=    1 NMatS0=      1 NMatT0=    0 NMatD0=    1 NMtDS0=    0 NMtDT0=    0
 Symmetry not used in FoFCou.
 E= -631.923901511127    
 DIIS: error= 7.05D-02 at cycle   1 NSaved=   1.
 NSaved= 1 IEnMin= 1 EnMin= -631.923901511127     IErMin= 1 ErrMin= 7.05D-02
 ErrMax= 7.05D-02  0.00D+00 EMaxC= 1.00D-01 BMatC= 1.38D+00 BMatP= 1.38D+00
 IDIUse=3 WtCom= 2.95D-01 WtEn= 7.05D-01
 Coeff-Com:  0.100D+01
 Coeff-En:   0.100D+01
 Coeff:      0.100D+01
 Gap=     0.343 Goal=   None    Shift=    0.000
 GapD=    0.343 DampG=1.000 DampE=0.500 DampFc=0.5000 IDamp=-1.
 Damping current iteration by 5.00D-01
 RMSDP=3.81D-02 MaxDP=3.85D+00              OVMax= 1.53D-01

 Cycle   2  Pass 1  IDiag  1:
 RMSU=  7.74D-03    CP:  8.61D-01
 E= -632.023834066666     Delta-E=       -0.099932555539 Rises=F Damp=T
 DIIS: error= 3.27D-02 at cycle   2 NSaved=   2.
 NSaved= 2 IEnMin= 2 EnMin= -632.023834066666     IErMin= 2 ErrMin= 3.27D-02
 ErrMax= 3.27D-02  0.00D+00 EMaxC= 1.00D-01 BMatC= 2.84D-01 BMatP= 1.38D+00
 IDIUse=3 WtCom= 6.73D-01 WtEn= 3.27D-01
 Coeff-Com: -0.543D+00 0.154D+01
 Coeff-En:   0.000D+00 0.100D+01
 Coeff:     -0.365D+00 0.137D+01
 Gap=     0.314 Goal=   None    Shift=    0.000
 RMSDP=1.65D-02 MaxDP=1.80D+00 DE=-9.99D-02 OVMax= 1.58D-01

 Cycle   3  Pass 1  IDiag  1:
 RMSU=  6.76D-03    CP:  7.47D-01  1.58D+00
 E= -632.080200789362     Delta-E=       -0.056366722695 Rises=F Damp=F
 DIIS: error= 1.52D-02 at cycle   3 NSaved=   3.
 NSaved= 3 IEnMin= 3 EnMin= -632.080200789362     IErMin= 3 ErrMin= 1.52D-02
 ErrMax= 1.52D-02  0.00D+00 EMaxC= 1.00D-01 BMatC= 8.01D-02 BMatP= 2.84D-01
 IDIUse=3 WtCom= 8.48D-01 WtEn= 1.52D-01
 Coeff-Com: -0.342D+00 0.739D+00 0.603D+00
 Coeff-En:   0.000D+00 0.000D+00 0.100D+01
 Coeff:     -0.290D+00 0.627D+00 0.663D+00
 Gap=     0.293 Goal=   None    Shift=    0.000
 RMSDP=1.40D-02 MaxDP=1.50D+00 DE=-5.64D-02 OVMax= 7.73D-02

 Cycle   4  Pass 1  IDiag  1:
 RMSU=  4.18D-03    CP:  6.49D-01  1.76D+00  2.84D-01
 E= -632.139707946973     Delta-E=       -0.059507157611 Rises=F Damp=F
 DIIS: error= 4.51D-03 at cycle   4 NSaved=   4.
 NSaved= 4 IEnMin= 4 EnMin= -632.139707946973     IErMin= 4 ErrMin= 4.51D-03
 ErrMax= 4.51D-03  0.00D+00 EMaxC= 1.00D-01 BMatC= 7.34D-03 BMatP= 8.01D-02
 IDIUse=3 WtCom= 9.55D-01 WtEn= 4.51D-02
 Coeff-Com: -0.139D+00 0.300D+00 0.368D+00 0.472D+00
 Coeff-En:   0.000D+00 0.000D+00 0.923D-02 0.991D+00
 Coeff:     -0.133D+00 0.287D+00 0.351D+00 0.495D+00
 Gap=     0.277 Goal=   None    Shift=    0.000
 RMSDP=3.23D-03 MaxDP=3.53D-01 DE=-5.95D-02 OVMax= 1.51D-02

 Cycle   5  Pass 1  IDiag  1:
 RMSU=  1.03D-03    CP:  6.71D-01  1.83D+00  4.07D-01  9.32D-01
 E= -632.145368070075     Delta-E=       -0.005660123103 Rises=F Damp=F
 DIIS: error= 6.03D-04 at cycle   5 NSaved=   5.
 NSaved= 5 IEnMin= 5 EnMin= -632.145368070075     IErMin= 5 ErrMin= 6.03D-04
 ErrMax= 6.03D-04  0.00D+00 EMaxC= 1.00D-01 BMatC= 1.13D-04 BMatP= 7.34D-03
 IDIUse=3 WtCom= 9.94D-01 WtEn= 6.03D-03
 Coeff-Com:  0.949D-02-0.210D-01 0.253D-01 0.157D+00 0.829D+00
 Coeff-En:   0.000D+00 0.000D+00 0.000D+00 0.000D+00 0.100D+01
 Coeff:      0.944D-02-0.209D-01 0.251D-01 0.156D+00 0.830D+00
 Gap=     0.277 Goal=   None    Shift=    0.000
 RMSDP=1.36D-03 MaxDP=1.72D-01 DE=-5.66D-03 OVMax= 3.69D-03

 Cycle   6  Pass 1  IDiag  1:
 RMSU=  2.57D-04    CP:  6.63D-01  1.87D+00  3.89D-01  1.10D+00  1.19D+00
 E= -632.145496860932     Delta-E=       -0.000128790857 Rises=F Damp=F
 DIIS: error= 4.10D-04 at cycle   6 NSaved=   6.
 NSaved= 6 IEnMin= 6 EnMin= -632.145496860932     IErMin= 6 ErrMin= 4.10D-04
 ErrMax= 4.10D-04  0.00D+00 EMaxC= 1.00D-01 BMatC= 2.90D-05 BMatP= 1.13D-04
 IDIUse=3 WtCom= 9.96D-01 WtEn= 4.10D-03
 Coeff-Com:  0.239D-01-0.514D-01-0.375D-01 0.408D-02 0.400D+00 0.661D+00
 Coeff-En:   0.000D+00 0.000D+00 0.000D+00 0.000D+00 0.000D+00 0.100D+01
 Coeff:      0.238D-01-0.512D-01-0.373D-01 0.406D-02 0.399D+00 0.662D+00
 Gap=     0.278 Goal=   None    Shift=    0.000
 RMSDP=2.82D-04 MaxDP=2.58D-02 DE=-1.29D-04 OVMax= 3.02D-03

 Cycle   7  Pass 1  IDiag  1:
 RMSU=  8.38D-05    CP:  6.61D-01  1.87D+00  3.79D-01  1.14D+00  1.26D+00
                    CP:  9.26D-01
 E= -632.145531783946     Delta-E=       -0.000034923014 Rises=F Damp=F
 DIIS: error= 9.63D-05 at cycle   7 NSaved=   7.
 NSaved= 7 IEnMin= 7 EnMin= -632.145531783946     IErMin= 7 ErrMin= 9.63D-05
 ErrMax= 9.63D-05  0.00D+00 EMaxC= 1.00D-01 BMatC= 3.03D-06 BMatP= 2.90D-05
 IDIUse=1 WtCom= 1.00D+00 WtEn= 0.00D+00
 Coeff-Com:  0.483D-02-0.103D-01-0.116D-01-0.186D-01-0.117D-01 0.220D+00
 Coeff-Com:  0.827D+00
 Coeff:      0.483D-02-0.103D-01-0.116D-01-0.186D-01-0.117D-01 0.220D+00
 Coeff:      0.827D+00
 Gap=     0.278 Goal=   None    Shift=    0.000
 RMSDP=1.65D-04 MaxDP=1.75D-02 DE=-3.49D-05 OVMax= 1.09D-03

 Cycle   8  Pass 1  IDiag  1:
 RMSU=  3.10D-05    CP:  6.61D-01  1.88D+00  3.74D-01  1.17D+00  1.31D+00
                    CP:  1.03D+00  1.30D+00
 E= -632.145536617312     Delta-E=       -0.000004833366 Rises=F Damp=F
 DIIS: error= 5.64D-05 at cycle   8 NSaved=   8.
 NSaved= 8 IEnMin= 8 EnMin= -632.145536617312     IErMin= 8 ErrMin= 5.64D-05
 ErrMax= 5.64D-05  0.00D+00 EMaxC= 1.00D-01 BMatC= 6.66D-07 BMatP= 3.03D-06
 IDIUse=1 WtCom= 1.00D+00 WtEn= 0.00D+00
 Coeff-Com: -0.181D-02 0.398D-02 0.118D-02-0.104D-01-0.822D-01 0.161D-02
 Coeff-Com:  0.391D+00 0.697D+00
 Coeff:     -0.181D-02 0.398D-02 0.118D-02-0.104D-01-0.822D-01 0.161D-02
 Coeff:      0.391D+00 0.697D+00
 Gap=     0.278 Goal=   None    Shift=    0.000
 RMSDP=6.13D-05 MaxDP=6.68D-03 DE=-4.83D-06 OVMax= 6.71D-04

 Cycle   9  Pass 1  IDiag  1:
 RMSU=  1.39D-05    CP:  6.60D-01  1.88D+00  3.73D-01  1.18D+00  1.32D+00
                    CP:  1.07D+00  1.46D+00  9.91D-01
 E= -632.145537814638     Delta-E=       -0.000001197326 Rises=F Damp=F
 DIIS: error= 1.48D-05 at cycle   9 NSaved=   9.
 NSaved= 9 IEnMin= 9 EnMin= -632.145537814638     IErMin= 9 ErrMin= 1.48D-05
 ErrMax= 1.48D-05  0.00D+00 EMaxC= 1.00D-01 BMatC= 6.81D-08 BMatP= 6.66D-07
 IDIUse=1 WtCom= 1.00D+00 WtEn= 0.00D+00
 Coeff-Com: -0.117D-02 0.251D-02 0.244D-02 0.759D-03-0.195D-01-0.308D-01
 Coeff-Com: -0.589D-01 0.166D+00 0.938D+00
 Coeff:     -0.117D-02 0.251D-02 0.244D-02 0.759D-03-0.195D-01-0.308D-01
 Coeff:     -0.589D-01 0.166D+00 0.938D+00
 Gap=     0.278 Goal=   None    Shift=    0.000
 RMSDP=1.98D-05 MaxDP=1.56D-03 DE=-1.20D-06 OVMax= 3.04D-04

 Cycle  10  Pass 1  IDiag  1:
 RMSU=  7.28D-06    CP:  6.60D-01  1.88D+00  3.72D-01  1.18D+00  1.33D+00
                    CP:  1.05D+00  1.58D+00  1.33D+00  1.16D+00
 E= -632.145537998498     Delta-E=       -0.000000183860 Rises=F Damp=F
 DIIS: error= 9.65D-06 at cycle  10 NSaved=  10.
 NSaved=10 IEnMin=10 EnMin= -632.145537998498     IErMin=10 ErrMin= 9.65D-06
 ErrMax= 9.65D-06  0.00D+00 EMaxC= 1.00D-01 BMatC= 7.59D-09 BMatP= 6.81D-08
 IDIUse=1 WtCom= 1.00D+00 WtEn= 0.00D+00
 Coeff-Com: -0.392D-04 0.755D-04 0.486D-03 0.168D-02 0.459D-02-0.711D-02
 Coeff-Com: -0.700D-01-0.348D-01 0.260D+00 0.845D+00
 Coeff:     -0.392D-04 0.755D-04 0.486D-03 0.168D-02 0.459D-02-0.711D-02
 Coeff:     -0.700D-01-0.348D-01 0.260D+00 0.845D+00
 Gap=     0.278 Goal=   None    Shift=    0.000
 RMSDP=4.97D-06 MaxDP=5.26D-04 DE=-1.84D-07 OVMax= 1.15D-04

 Cycle  11  Pass 1  IDiag  1:
 RMSU=  2.00D-06    CP:  6.60D-01  1.88D+00  3.72D-01  1.18D+00  1.33D+00
                    CP:  1.04D+00  1.61D+00  1.41D+00  1.22D+00  1.22D+00
 E= -632.145538020915     Delta-E=       -0.000000022417 Rises=F Damp=F
 DIIS: error= 2.31D-06 at cycle  11 NSaved=  11.
 NSaved=11 IEnMin=11 EnMin= -632.145538020915     IErMin=11 ErrMin= 2.31D-06
 ErrMax= 2.31D-06  0.00D+00 EMaxC= 1.00D-01 BMatC= 1.33D-09 BMatP= 7.59D-09
 IDIUse=1 WtCom= 1.00D+00 WtEn= 0.00D+00
 Coeff-Com:  0.161D-03-0.346D-03-0.194D-03 0.547D-03 0.430D-02 0.211D-02
 Coeff-Com: -0.135D-01-0.328D-01-0.610D-01 0.270D+00 0.830D+00
 Coeff:      0.161D-03-0.346D-03-0.194D-03 0.547D-03 0.430D-02 0.211D-02
 Coeff:     -0.135D-01-0.328D-01-0.610D-01 0.270D+00 0.830D+00
 Gap=     0.278 Goal=   None    Shift=    0.000
 RMSDP=2.65D-06 MaxDP=2.12D-04 DE=-2.24D-08 OVMax= 4.70D-05

 Cycle  12  Pass 1  IDiag  1:
 RMSU=  8.50D-07    CP:  6.60D-01  1.88D+00  3.72D-01  1.18D+00  1.33D+00
                    CP:  1.04D+00  1.62D+00  1.43D+00  1.27D+00  1.33D+00
                    CP:  9.95D-01
 E= -632.145538024643     Delta-E=       -0.000000003728 Rises=F Damp=F
 DIIS: error= 1.72D-06 at cycle  12 NSaved=  12.
 NSaved=12 IEnMin=12 EnMin= -632.145538024643     IErMin=12 ErrMin= 1.72D-06
 ErrMax= 1.72D-06  0.00D+00 EMaxC= 1.00D-01 BMatC= 1.74D-10 BMatP= 1.33D-09
 IDIUse=1 WtCom= 1.00D+00 WtEn= 0.00D+00
 Coeff-Com:  0.276D-04-0.587D-04-0.804D-04-0.428D-04 0.279D-03 0.920D-03
 Coeff-Com:  0.798D-02-0.307D-02-0.558D-01-0.679D-01 0.157D+00 0.961D+00
 Coeff:      0.276D-04-0.587D-04-0.804D-04-0.428D-04 0.279D-03 0.920D-03
 Coeff:      0.798D-02-0.307D-02-0.558D-01-0.679D-01 0.157D+00 0.961D+00
 Gap=     0.278 Goal=   None    Shift=    0.000
 RMSDP=1.26D-06 MaxDP=8.37D-05 DE=-3.73D-09 OVMax= 2.46D-05

 Cycle  13  Pass 1  IDiag  1:
 RMSU=  2.81D-07    CP:  6.60D-01  1.88D+00  3.72D-01  1.18D+00  1.33D+00
                    CP:  1.04D+00  1.63D+00  1.45D+00  1.28D+00  1.39D+00
                    CP:  1.08D+00  1.38D+00
 E= -632.145538025292     Delta-E=       -0.000000000650 Rises=F Damp=F
 DIIS: error= 5.88D-07 at cycle  13 NSaved=  13.
 NSaved=13 IEnMin=13 EnMin= -632.145538025292     IErMin=13 ErrMin= 5.88D-07
 ErrMax= 5.88D-07  0.00D+00 EMaxC= 1.00D-01 BMatC= 4.73D-11 BMatP= 1.74D-10
 IDIUse=1 WtCom= 1.00D+00 WtEn= 0.00D+00
 Coeff-Com: -0.678D-05 0.153D-04-0.116D-04-0.933D-04-0.501D-03 0.204D-04
 Coeff-Com:  0.536D-02 0.325D-02-0.841D-02-0.618D-01-0.736D-01 0.397D+00
 Coeff-Com:  0.739D+00
 Coeff:     -0.678D-05 0.153D-04-0.116D-04-0.933D-04-0.501D-03 0.204D-04
 Coeff:      0.536D-02 0.325D-02-0.841D-02-0.618D-01-0.736D-01 0.397D+00
 Coeff:      0.739D+00
 Gap=     0.278 Goal=   None    Shift=    0.000
 RMSDP=4.20D-07 MaxDP=4.21D-05 DE=-6.50D-10 OVMax= 6.65D-06

 Cycle  14  Pass 1  IDiag  1:
 RMSU=  1.17D-07    CP:  6.60D-01  1.88D+00  3.72D-01  1.18D+00  1.33D+00
                    CP:  1.04D+00  1.63D+00  1.44D+00  1.29D+00  1.39D+00
                    CP:  1.10D+00  1.53D+00  1.20D+00
 E= -632.145538025389     Delta-E=       -0.000000000097 Rises=F Damp=F
 DIIS: error= 3.24D-07 at cycle  14 NSaved=  14.
 NSaved=14 IEnMin=14 EnMin= -632.145538025389     IErMin=14 ErrMin= 3.24D-07
 ErrMax= 3.24D-07  0.00D+00 EMaxC= 1.00D-01 BMatC= 5.84D-12 BMatP= 4.73D-11
 IDIUse=1 WtCom= 1.00D+00 WtEn= 0.00D+00
 Coeff-Com: -0.668D-05 0.144D-04 0.990D-05-0.219D-04-0.219D-03-0.182D-03
 Coeff-Com:  0.465D-03 0.711D-03 0.646D-02-0.817D-02-0.542D-01-0.322D-01
 Coeff-Com:  0.173D+00 0.914D+00
 Coeff:     -0.668D-05 0.144D-04 0.990D-05-0.219D-04-0.219D-03-0.182D-03
 Coeff:      0.465D-03 0.711D-03 0.646D-02-0.817D-02-0.542D-01-0.322D-01
 Coeff:      0.173D+00 0.914D+00
 Gap=     0.278 Goal=   None    Shift=    0.000
 RMSDP=4.26D-07 MaxDP=4.83D-05 DE=-9.66D-11 OVMax= 4.27D-06

 Cycle  15  Pass 1  IDiag  1:
 RMSU=  4.01D-08    CP:  6.60D-01  1.88D+00  3.72D-01  1.18D+00  1.33D+00
                    CP:  1.04D+00  1.63D+00  1.44D+00  1.29D+00  1.39D+00
                    CP:  1.09D+00  1.61D+00  1.40D+00  1.45D+00
 E= -632.145538025425     Delta-E=       -0.000000000036 Rises=F Damp=F
 DIIS: error= 9.59D-08 at cycle  15 NSaved=  15.
 NSaved=15 IEnMin=15 EnMin= -632.145538025425     IErMin=15 ErrMin= 9.59D-08
 ErrMax= 9.59D-08  0.00D+00 EMaxC= 1.00D-01 BMatC= 1.69D-12 BMatP= 5.84D-12
 IDIUse=1 WtCom= 1.00D+00 WtEn= 0.00D+00
 Coeff-Com: -0.272D-05 0.569D-05 0.839D-05 0.900D-05-0.910D-05-0.935D-04
 Coeff-Com: -0.698D-03-0.419D-03 0.479D-02 0.774D-02-0.105D-01-0.745D-01
 Coeff-Com: -0.913D-01 0.360D+00 0.805D+00
 Coeff:     -0.272D-05 0.569D-05 0.839D-05 0.900D-05-0.910D-05-0.935D-04
 Coeff:     -0.698D-03-0.419D-03 0.479D-02 0.774D-02-0.105D-01-0.745D-01
 Coeff:     -0.913D-01 0.360D+00 0.805D+00
 Gap=     0.278 Goal=   None    Shift=    0.000
 RMSDP=1.73D-07 MaxDP=2.18D-05 DE=-3.59D-11 OVMax= 1.40D-06

 Cycle  16  Pass 1  IDiag  1:
 RMSU=  2.11D-08    CP:  6.60D-01  1.88D+00  3.72D-01  1.18D+00  1.33D+00
                    CP:  1.04D+00  1.63D+00  1.44D+00  1.30D+00  1.39D+00
                    CP:  1.08D+00  1.64D+00  1.47D+00  1.68D+00  1.17D+00
 E= -632.145538025490     Delta-E=       -0.000000000065 Rises=F Damp=F
 DIIS: error= 2.80D-08 at cycle  16 NSaved=  16.
 NSaved=16 IEnMin=16 EnMin= -632.145538025490     IErMin=16 ErrMin= 2.80D-08
 ErrMax= 2.80D-08  0.00D+00 EMaxC= 1.00D-01 BMatC= 2.17D-13 BMatP= 1.69D-12
 IDIUse=1 WtCom= 1.00D+00 WtEn= 0.00D+00
 Coeff-Com:  0.238D-06-0.573D-06 0.466D-06 0.589D-05 0.325D-04-0.804D-06
 Coeff-Com: -0.248D-03-0.368D-03 0.243D-03 0.392D-02 0.697D-02-0.144D-01
 Coeff-Com: -0.691D-01-0.618D-01 0.231D+00 0.904D+00
 Coeff:      0.238D-06-0.573D-06 0.466D-06 0.589D-05 0.325D-04-0.804D-06
 Coeff:     -0.248D-03-0.368D-03 0.243D-03 0.392D-02 0.697D-02-0.144D-01
 Coeff:     -0.691D-01-0.618D-01 0.231D+00 0.904D+00
 Gap=     0.278 Goal=   None    Shift=    0.000
 RMSDP=6.09D-08 MaxDP=7.89D-06 DE=-6.53D-11 OVMax= 5.53D-07

 Cycle  17  Pass 1  IDiag  1:
 RMSU=  6.71D-09    CP:  6.60D-01  1.88D+00  3.72D-01  1.18D+00  1.33D+00
                    CP:  1.04D+00  1.63D+00  1.44D+00  1.30D+00  1.39D+00
                    CP:  1.08D+00  1.65D+00  1.49D+00  1.80D+00  1.37D+00
                    CP:  1.28D+00
 E= -632.145538025410     Delta-E=        0.000000000080 Rises=F Damp=F
 DIIS: error= 1.57D-08 at cycle  17 NSaved=  17.
 NSaved=17 IEnMin=16 EnMin= -632.145538025490     IErMin=17 ErrMin= 1.57D-08
 ErrMax= 1.57D-08  0.00D+00 EMaxC= 1.00D-01 BMatC= 2.60D-14 BMatP= 2.17D-13
 IDIUse=1 WtCom= 1.00D+00 WtEn= 0.00D+00
 Coeff-Com:  0.260D-06-0.553D-06-0.536D-06 0.122D-05 0.121D-04 0.968D-05
 Coeff-Com:  0.238D-05-0.967D-04-0.386D-03 0.404D-03 0.317D-02 0.385D-02
 Coeff-Com: -0.139D-01-0.567D-01-0.770D-02 0.333D+00 0.738D+00
 Coeff:      0.260D-06-0.553D-06-0.536D-06 0.122D-05 0.121D-04 0.968D-05
 Coeff:      0.238D-05-0.967D-04-0.386D-03 0.404D-03 0.317D-02 0.385D-02
 Coeff:     -0.139D-01-0.567D-01-0.770D-02 0.333D+00 0.738D+00
 Gap=     0.278 Goal=   None    Shift=    0.000
 RMSDP=1.52D-08 MaxDP=1.49D-06 DE= 8.03D-11 OVMax= 1.23D-07

 Cycle  18  Pass 1  IDiag  1:
 RMSU=  2.15D-09    CP:  6.60D-01  1.88D+00  3.72D-01  1.18D+00  1.33D+00
                    CP:  1.04D+00  1.63D+00  1.44D+00  1.30D+00  1.39D+00
                    CP:  1.08D+00  1.65D+00  1.49D+00  1.82D+00  1.42D+00
                    CP:  1.36D+00  1.16D+00
 E= -632.145538025449     Delta-E=       -0.000000000039 Rises=F Damp=F
 DIIS: error= 5.06D-09 at cycle  18 NSaved=  18.
 NSaved=18 IEnMin=16 EnMin= -632.145538025490     IErMin=18 ErrMin= 5.06D-09
 ErrMax= 5.06D-09  0.00D+00 EMaxC= 1.00D-01 BMatC= 2.86D-15 BMatP= 2.60D-14
 IDIUse=1 WtCom= 1.00D+00 WtEn= 0.00D+00
 Coeff-Com:  0.487D-07-0.966D-07-0.258D-06-0.496D-06-0.658D-06 0.389D-05
 Coeff-Com:  0.349D-04 0.119D-04-0.174D-03-0.380D-03 0.141D-03 0.300D-02
 Coeff-Com:  0.412D-02-0.894D-02-0.362D-01-0.211D-01 0.236D+00 0.823D+00
 Coeff:      0.487D-07-0.966D-07-0.258D-06-0.496D-06-0.658D-06 0.389D-05
 Coeff:      0.349D-04 0.119D-04-0.174D-03-0.380D-03 0.141D-03 0.300D-02
 Coeff:      0.412D-02-0.894D-02-0.362D-01-0.211D-01 0.236D+00 0.823D+00
 Gap=     0.278 Goal=   None    Shift=    0.000
 RMSDP=3.67D-09 MaxDP=2.87D-07 DE=-3.87D-11 OVMax= 4.69D-08

 SCF Done:  E(RwB97XD) =  -632.145538025     A.U. after   18 cycles
            NFock= 18  Conv=0.37D-08     -V/T= 2.0046
 KE= 6.292239928004D+02 PE=-3.142559596182D+03 EE= 1.046682472712D+03
 Leave Link  502 at Thu Nov  2 21:43:22 2017, MaxMem=  3758096384 cpu:      1111.9
 (Enter /share/apps/gaussian/g09_D01/g09/l801.exe)
 DoSCS=F DFT=T ScalE2(SS,OS)=  1.000000  1.000000
 ExpMin= 3.60D-02 ExpMax= 8.59D+03 ExpMxC= 1.30D+03 IAcc=3 IRadAn=         5 AccDes= 0.00D+00
 HarFok:  IExCor=  205 AccDes= 0.00D+00 IRadAn=         5 IDoV=-2 UseB2=F ITyADJ=14
 ICtDFT= 12500011 ScaDFX=  1.000000  1.000000  1.000000  1.000000
 Largest valence mixing into a core orbital is  5.73D-05
 Largest core mixing into a valence orbital is  1.49D-05
 Range of M.O.s used for correlation:    15   397
 NBasis=   399 NAE=    51 NBE=    51 NFC=    14 NFV=     0
 NROrb=    383 NOA=    37 NOB=    37 NVA=   346 NVB=   346

 **** Warning!!: The largest alpha MO coefficient is  0.15134656D+03

 Leave Link  801 at Thu Nov  2 21:43:23 2017, MaxMem=  3758096384 cpu:         1.0
 (Enter /share/apps/gaussian/g09_D01/g09/l914.exe)
 RHF ground state
 MDV=  3758096384 DFT=T DoStab=F Mixed=T DoRPA=T DoScal=F NonHer=T
 Would need an additional         15405800000 words for in-memory AO integral storage.
 Making orbital integer symmetry assigments:
    16 initial guesses have been made.
 Convergence on wavefunction:    0.001000000000000
 Davidson Disk Diagonalization:  ConvIn= 1.00D-03 SkipCon=T Conv= 1.00D-03.
 Max sub-space:   200 roots to seek:    16 dimension of matrix:        25604
 Iteration     1 Dimension    16 NMult     0 NNew     16
 CISAX will form    16 AO SS matrices at one time.
 NMat=    16 NSing=    16 JSym2X= 0.
 FoFJK:  IHMeth= 1 ICntrl=       0 DoSepK=T KAlg= 0 I1Cent=   0 FoldK=F
 IRaf=         1 NMat=  32 IRICut=       1 DoRegI=T DoRafI=F ISym2E= 0.
 FoFCou: FMM=F IPFlag=           0 FMFlag=      100000 FMFlg1=           0
         NFxFlg=           0 DoJE=F BraDBF=F KetDBF=F FulRan=T
         wScrn=  0.000000 ICntrl=     500 IOpCl=  0 I1Cent=           0 NGrid=           0
         NMat0=   16 NMatS0=     16 NMatT0=    0 NMatD0=   16 NMtDS0=    0 NMtDT0=    0
 Symmetry not used in FoFCou.
 New state      1 was old state      7
 New state      2 was old state      1
 New state      3 was old state      2
 New state      4 was old state      3
 Excitation Energies [eV] at current iteration:
 Root      1 :     4.415009306120362
 Root      2 :     4.500195244104425
 Root      3 :     5.218751658594238
 Root      4 :     5.805410074755456
 Root      5 :     5.988461220443383
 Root      6 :     6.162959062597273
 Root      7 :     6.451396331960301
 Root      8 :     6.626107801441606
 Root      9 :     6.656964445831087
 Root     10 :     6.788683591871501
 Root     11 :     6.910329036475463
 Root     12 :     7.081917415088286
 Root     13 :     7.335215962998226
 Root     14 :     7.555065359919808
 Root     15 :     7.602781181076362
 Root     16 :     7.862302059276451
 Iteration     2 Dimension    24 NMult    16 NNew      8
 CISAX will form     8 AO SS matrices at one time.
 NMat=     8 NSing=     8 JSym2X= 0.
 Root      1 not converged, maximum delta is    0.448562692291810
 Root      2 not converged, maximum delta is    0.410691267135445
 Root      3 not converged, maximum delta is    0.061505686347798
 Root      4 not converged, maximum delta is    0.068324167686290
 Excitation Energies [eV] at current iteration:
 Root      1 :     3.925210403409610   Change is   -0.489798902710752
 Root      2 :     4.165085213525466   Change is   -0.335110030578959
 Root      3 :     4.527162442848714   Change is   -0.691589215745524
 Root      4 :     5.535485936149111   Change is   -0.269924138606345
 Iteration     3 Dimension    32 NMult    24 NNew      8
 CISAX will form     8 AO SS matrices at one time.
 NMat=     8 NSing=     8 JSym2X= 0.
 Root      1 not converged, maximum delta is    0.023381771179447
 Root      2 not converged, maximum delta is    0.013270261891373
 Root      3 not converged, maximum delta is    0.033582296576364
 Root      4 not converged, maximum delta is    0.037768332979649
 Excitation Energies [eV] at current iteration:
 Root      1 :     3.881227432662390   Change is   -0.043982970747220
 Root      2 :     4.148239215050079   Change is   -0.016845998475387
 Root      3 :     4.471148097470417   Change is   -0.056014345378297
 Root      4 :     5.497129692815067   Change is   -0.038356243334044
 Iteration     4 Dimension    40 NMult    32 NNew      8
 CISAX will form     8 AO SS matrices at one time.
 NMat=     8 NSing=     8 JSym2X= 0.
 Root      1 not converged, maximum delta is    0.010652282225116
 Root      2 not converged, maximum delta is    0.004796942422707
 Root      3 not converged, maximum delta is    0.009382398907854
 Root      4 not converged, maximum delta is    0.144265145544308
 Excitation Energies [eV] at current iteration:
 Root      1 :     3.872574912227551   Change is   -0.008652520434839
 Root      2 :     4.146464350454581   Change is   -0.001774864595498
 Root      3 :     4.461119205578726   Change is   -0.010028891891692
 Root      4 :     5.485884496138327   Change is   -0.011245196676739
 Iteration     5 Dimension    48 NMult    40 NNew      8
 CISAX will form     8 AO SS matrices at one time.
 NMat=     8 NSing=     8 JSym2X= 0.
 Root      1 not converged, maximum delta is    0.003404366079300
 Root      2 not converged, maximum delta is    0.001908330060697
 Root      3 not converged, maximum delta is    0.004819625954839
 Root      4 not converged, maximum delta is    0.400278136722321
 Excitation Energies [eV] at current iteration:
 Root      1 :     3.871567729289465   Change is   -0.001007182938085
 Root      2 :     4.146251413749376   Change is   -0.000212936705205
 Root      3 :     4.459970128046724   Change is   -0.001149077532002
 Root      4 :     5.262306955802377   Change is   -0.223577540335950
 Iteration     6 Dimension    56 NMult    48 NNew      8
 CISAX will form     8 AO SS matrices at one time.
 NMat=     8 NSing=     8 JSym2X= 0.
 Root      1 has converged.
 Root      2 has converged.
 Root      3 not converged, maximum delta is    0.001245694776506
 Root      4 not converged, maximum delta is    0.034375968098114
 Excitation Energies [eV] at current iteration:
 Root      1 :     3.871488465785827   Change is   -0.000079263503638
 Root      2 :     4.146233579835276   Change is   -0.000017833914099
 Root      3 :     4.459850891089756   Change is   -0.000119236956967
 Root      4 :     5.199558999048901   Change is   -0.062747956753476
 Iteration     7 Dimension    60 NMult    56 NNew      4
 CISAX will form     4 AO SS matrices at one time.
 NMat=     4 NSing=     4 JSym2X= 0.
 Root      1 has converged.
 Root      2 has converged.
 Root      3 has converged.
 Root      4 not converged, maximum delta is    0.016018359503571
 Excitation Energies [eV] at current iteration:
 Root      1 :     3.871485283165663   Change is   -0.000003182620164
 Root      2 :     4.146233257472239   Change is   -0.000000322363038
 Root      3 :     4.459839364331485   Change is   -0.000011526758271
 Root      4 :     5.188005965758347   Change is   -0.011553033290555
 Iteration     8 Dimension    62 NMult    60 NNew      2
 CISAX will form     2 AO SS matrices at one time.
 NMat=     2 NSing=     2 JSym2X= 0.
 Root      1 has converged.
 Root      2 has converged.
 Root      3 has converged.
 Root      4 not converged, maximum delta is    0.004490025128531
 Excitation Energies [eV] at current iteration:
 Root      1 :     3.871485195546967   Change is   -0.000000087618696
 Root      2 :     4.146233254956266   Change is   -0.000000002515972
 Root      3 :     4.459839162157005   Change is   -0.000000202174480
 Root      4 :     5.186795377959756   Change is   -0.001210587798590
 Iteration     9 Dimension    64 NMult    62 NNew      2
 CISAX will form     2 AO SS matrices at one time.
 NMat=     2 NSing=     2 JSym2X= 0.
 Root      1 has converged.
 Root      2 has converged.
 Root      3 has converged.
 Root      4 not converged, maximum delta is    0.001492941808408
 Excitation Energies [eV] at current iteration:
 Root      1 :     3.871485062464698   Change is   -0.000000133082269
 Root      2 :     4.146233250046261   Change is   -0.000000004910006
 Root      3 :     4.459839120849707   Change is   -0.000000041307298
 Root      4 :     5.186651814764015   Change is   -0.000143563195741
 Iteration    10 Dimension    66 NMult    64 NNew      2
 CISAX will form     2 AO SS matrices at one time.
 NMat=     2 NSing=     2 JSym2X= 0.
 Root      1 has converged.
 Root      2 has converged.
 Root      3 has converged.
 Root      4 has converged.
 Excitation Energies [eV] at current iteration:
 Root      1 :     3.871484930069008   Change is   -0.000000132395690
 Root      2 :     4.146233238283654   Change is   -0.000000011762607
 Root      3 :     4.459839100919547   Change is   -0.000000019930160
 Root      4 :     5.186636581533981   Change is   -0.000015233230034
 Convergence achieved on expansion vectors.
 ***********************************************************************
 Excited states from <AA,BB:AA,BB> singles matrix:
 ***********************************************************************
 
 1PDM for each excited state written to RWF  633
 Ground to excited state transition densities written to RWF  633
 Ground to excited state transition electric dipole moments (Au):
       state          X           Y           Z        Dip. S.      Osc.
         1        -1.9259     -1.0629     -0.1327      4.8566      0.4606
         2         0.1877      0.0772      0.0029      0.0412      0.0042
         3        -1.4984     -0.6939      0.0036      2.7266      0.2979
         4         0.2244     -0.1313     -0.4816      0.2996      0.0381
 Ground to excited state transition velocity dipole moments (Au):
       state          X           Y           Z        Dip. S.      Osc.
         1         0.2725      0.1528      0.0228      0.0981      0.4598
         2        -0.0280     -0.0114     -0.0014      0.0009      0.0040
         3         0.2407      0.1102     -0.0038      0.0701      0.2852
         4        -0.0343      0.0283      0.0891      0.0099      0.0347
 Ground to excited state transition magnetic dipole moments (Au):
       state          X           Y           Z
         1         2.3960     -4.2399      0.2009
         2        -0.1231      0.2192     -0.4162
         3         1.1037     -2.4301     -0.6019
         4         0.8094     -0.3168      0.4219
 Ground to excited state transition velocity quadrupole moments (Au):
       state          XX          YY          ZZ          XY          XZ          YZ
         1         3.3067      1.1271     -0.5278      1.9195     -3.5614     -1.9031
         2        -0.4221     -0.1052      0.0127     -0.2487      0.3491      0.1599
         3         1.6700      0.3151      0.3360      0.7048     -3.6236     -1.5339
         4        -1.0427      0.0929     -2.3586     -0.2049      1.0949     -0.0127
 <0|del|b> * <b|rxdel|0> + <0|del|b> * <b|delr+rdel|0>
 Rotatory Strengths (R) in cgs (10**-40 erg-esu-cm/Gauss)
       state          XX          YY          ZZ    R(velocity)    E-M Angle
         1      -137.4333    236.2771    -51.9381     15.6352       89.65
         2         5.6217     -1.8490      3.3578      2.3768       84.02
         3       282.8314   -212.8110    -68.8600      0.3868       89.98
         4       -38.3722     52.9264    -11.3236      1.0769       89.48
 1/2[<0|r|b>*<b|rxdel|0> + (<0|rxdel|b>*<b|r|0>)*]
 Rotatory Strengths (R) in cgs (10**-40 erg-esu-cm/Gauss)
       state          XX          YY          ZZ     R(length)
         1      3263.2313  -3186.9535     18.8484     31.7087
         2        16.3337    -11.9708      0.8498      1.7376
         3      1169.4659  -1192.5132      1.5421     -7.1684
         4      -128.4486    -29.4251    143.6969     -4.7256
  1/2[<0|del|b>*<b|r|0> + (<0|r|b>*<b|del|0>)*] (Au)
       state          X           Y           Z        Dip. S.   Osc.(frdel)
         1        -0.5248     -0.1624     -0.0030      0.6902      0.4602
         2        -0.0053     -0.0009      0.0000      0.0062      0.0041
         3        -0.3607     -0.0764      0.0000      0.4372      0.2915
         4        -0.0077     -0.0037     -0.0429      0.0543      0.0362

 Excitation energies and oscillator strengths:
 
 Excited state symmetry could not be determined.
 Excited State   1:      Singlet-?Sym    3.8715 eV  320.25 nm  f=0.4606  <S**2>=0.000
      51 -> 52         0.67804
 This state for optimization and/or second-order correction.
 Total Energy, E(TD-HF/TD-KS) =  -632.003263566    
 Copying the excited state density for this state as the 1-particle RhoCI density.
 
 Excited state symmetry could not be determined.
 Excited State   2:      Singlet-?Sym    4.1462 eV  299.03 nm  f=0.0042  <S**2>=0.000
      48 -> 52         0.66596
      49 -> 52         0.13557
 
 Excited state symmetry could not be determined.
 Excited State   3:      Singlet-?Sym    4.4598 eV  278.00 nm  f=0.2979  <S**2>=0.000
      50 -> 52         0.67729
 
 Excited state symmetry could not be determined.
 Excited State   4:      Singlet-?Sym    5.1866 eV  239.05 nm  f=0.0381  <S**2>=0.000
      48 -> 52        -0.11557
      49 -> 52         0.56694
      50 -> 58         0.13438
      51 -> 57        -0.10166
      51 -> 58        -0.23281
      51 -> 62        -0.13759
 SavETr:  write IOETrn=   770 NScale= 10 NData=  16 NLR=1 NState=    4 LETran=      82.
 Leave Link  914 at Thu Nov  2 21:56:35 2017, MaxMem=  3758096384 cpu:      3167.2
 (Enter /share/apps/gaussian/g09_D01/g09/l601.exe)
 Copying SCF densities to generalized density rwf, IOpCl= 0 IROHF=0.

 **********************************************************************

            Population analysis using the SCF density.

 **********************************************************************

 Alpha  occ. eigenvalues --  -19.23402 -19.22408 -14.50209 -10.37662 -10.35912
 Alpha  occ. eigenvalues --  -10.34881 -10.34777 -10.34587 -10.29623 -10.29324
 Alpha  occ. eigenvalues --  -10.29180 -10.28089 -10.27986 -10.27704  -1.14078
 Alpha  occ. eigenvalues --   -1.10243  -1.09617  -0.95049  -0.89897  -0.86135
 Alpha  occ. eigenvalues --   -0.85807  -0.83104  -0.80820  -0.73400  -0.70020
 Alpha  occ. eigenvalues --   -0.68166  -0.65497  -0.63094  -0.59437  -0.59320
 Alpha  occ. eigenvalues --   -0.58975  -0.58297  -0.55006  -0.53100  -0.52366
 Alpha  occ. eigenvalues --   -0.51926  -0.51176  -0.50698  -0.50374  -0.50093
 Alpha  occ. eigenvalues --   -0.46970  -0.46372  -0.45856  -0.44850  -0.42270
 Alpha  occ. eigenvalues --   -0.41757  -0.41265  -0.33584  -0.33281  -0.30323
 Alpha  occ. eigenvalues --   -0.28279
 Alpha virt. eigenvalues --   -0.00439   0.02392   0.03999   0.04912   0.05360
 Alpha virt. eigenvalues --    0.05854   0.05969   0.06547   0.07545   0.07742
 Alpha virt. eigenvalues --    0.08099   0.08224   0.08283   0.09957   0.10248
 Alpha virt. eigenvalues --    0.11746   0.12099   0.12505   0.13014   0.13339
 Alpha virt. eigenvalues --    0.13524   0.14379   0.15042   0.15258   0.15861
 Alpha virt. eigenvalues --    0.16147   0.16318   0.16552   0.16867   0.17304
 Alpha virt. eigenvalues --    0.17431   0.17874   0.18302   0.18478   0.19120
 Alpha virt. eigenvalues --    0.19477   0.19891   0.20338   0.20616   0.21325
 Alpha virt. eigenvalues --    0.21680   0.21866   0.22215   0.22846   0.23097
 Alpha virt. eigenvalues --    0.23709   0.24162   0.24421   0.25504   0.25666
 Alpha virt. eigenvalues --    0.25845   0.26430   0.26698   0.27299   0.27730
 Alpha virt. eigenvalues --    0.27930   0.28213   0.28866   0.29438   0.30000
 Alpha virt. eigenvalues --    0.30411   0.30458   0.31640   0.32049   0.32666
 Alpha virt. eigenvalues --    0.33169   0.33545   0.34487   0.34707   0.35470
 Alpha virt. eigenvalues --    0.35728   0.36507   0.36740   0.37726   0.37840
 Alpha virt. eigenvalues --    0.38349   0.38527   0.39216   0.39758   0.40509
 Alpha virt. eigenvalues --    0.40828   0.41165   0.42265   0.42831   0.43104
 Alpha virt. eigenvalues --    0.43810   0.44382   0.45403   0.46545   0.48265
 Alpha virt. eigenvalues --    0.48324   0.49702   0.50163   0.51251   0.52121
 Alpha virt. eigenvalues --    0.52854   0.54550   0.56086   0.57226   0.59053
 Alpha virt. eigenvalues --    0.60576   0.62360   0.62795   0.63181   0.63758
 Alpha virt. eigenvalues --    0.64158   0.64851   0.65383   0.66140   0.67094
 Alpha virt. eigenvalues --    0.67592   0.68728   0.68766   0.69583   0.69851
 Alpha virt. eigenvalues --    0.70403   0.70727   0.71488   0.72003   0.73331
 Alpha virt. eigenvalues --    0.74988   0.75683   0.75755   0.76720   0.77585
 Alpha virt. eigenvalues --    0.78187   0.79639   0.80279   0.80592   0.81690
 Alpha virt. eigenvalues --    0.82949   0.84356   0.85529   0.85822   0.86679
 Alpha virt. eigenvalues --    0.90125   0.91476   0.93826   0.94421   0.94449
 Alpha virt. eigenvalues --    0.95501   0.96170   0.97702   0.98265   0.98538
 Alpha virt. eigenvalues --    1.00180   1.01338   1.03437   1.04203   1.04740
 Alpha virt. eigenvalues --    1.07084   1.08189   1.08413   1.09604   1.09908
 Alpha virt. eigenvalues --    1.11700   1.12990   1.13733   1.15093   1.15851
 Alpha virt. eigenvalues --    1.17835   1.18545   1.18865   1.20509   1.20958
 Alpha virt. eigenvalues --    1.22065   1.23517   1.29509   1.32009   1.32655
 Alpha virt. eigenvalues --    1.34793   1.35384   1.37348   1.38520   1.40391
 Alpha virt. eigenvalues --    1.41421   1.43865   1.48559   1.49551   1.50203
 Alpha virt. eigenvalues --    1.54088   1.55203   1.56140   1.57333   1.58915
 Alpha virt. eigenvalues --    1.59403   1.60499   1.61491   1.62404   1.63613
 Alpha virt. eigenvalues --    1.64191   1.65047   1.65638   1.66148   1.66621
 Alpha virt. eigenvalues --    1.69579   1.71651   1.71962   1.73965   1.74193
 Alpha virt. eigenvalues --    1.75226   1.76116   1.78164   1.80282   1.81325
 Alpha virt. eigenvalues --    1.82060   1.83002   1.83650   1.83858   1.85634
 Alpha virt. eigenvalues --    1.87212   1.88505   1.91284   1.91383   1.96102
 Alpha virt. eigenvalues --    1.97988   1.99179   2.00119   2.01145   2.01557
 Alpha virt. eigenvalues --    2.02032   2.04365   2.04663   2.05953   2.07209
 Alpha virt. eigenvalues --    2.07671   2.08903   2.09875   2.11280   2.14013
 Alpha virt. eigenvalues --    2.14898   2.17006   2.19733   2.21154   2.22841
 Alpha virt. eigenvalues --    2.23048   2.24881   2.26830   2.30209   2.35306
 Alpha virt. eigenvalues --    2.37542   2.39149   2.42246   2.45185   2.45639
 Alpha virt. eigenvalues --    2.46859   2.50005   2.51601   2.53830   2.54747
 Alpha virt. eigenvalues --    2.56806   2.57334   2.59060   2.60246   2.61380
 Alpha virt. eigenvalues --    2.64246   2.65310   2.68485   2.70396   2.70760
 Alpha virt. eigenvalues --    2.73606   2.74528   2.76172   2.79802   2.80648
 Alpha virt. eigenvalues --    2.81515   2.83418   2.83864   2.84618   2.85326
 Alpha virt. eigenvalues --    2.86154   2.86708   2.88145   2.90132   2.91777
 Alpha virt. eigenvalues --    2.93533   2.94906   2.95325   2.97669   2.98564
 Alpha virt. eigenvalues --    2.99184   3.00493   3.04571   3.06447   3.09922
 Alpha virt. eigenvalues --    3.12194   3.15738   3.19116   3.20780   3.21919
 Alpha virt. eigenvalues --    3.22692   3.28501   3.31061   3.31517   3.35032
 Alpha virt. eigenvalues --    3.38129   3.40292   3.47149   3.49994   3.54138
 Alpha virt. eigenvalues --    3.57597   3.62166   3.63401   3.66834   3.67331
 Alpha virt. eigenvalues --    3.70483   3.73904   3.77711   3.79382   3.80457
 Alpha virt. eigenvalues --    3.84219   3.88062   3.91054   3.92147   4.02744
 Alpha virt. eigenvalues --    4.08240   4.12384   4.14142   4.17840   4.29027
 Alpha virt. eigenvalues --    4.31455   4.40465   4.64226   4.93854   4.95038
 Alpha virt. eigenvalues --    5.16005   5.17101   5.19172   5.37537   5.66505
 Alpha virt. eigenvalues --    5.84267   5.97543  23.72857  23.91808  24.01890
 Alpha virt. eigenvalues --   24.03851  24.04328  24.05809  24.08374  24.14965
 Alpha virt. eigenvalues --   24.22807  24.24043  24.31447  35.68690  50.14477
 Alpha virt. eigenvalues --   50.18405
          Condensed to atoms (all electrons):
               1          2          3          4          5          6
     1  C    5.274505   0.394107   0.410207   0.413765   0.216084  -0.078318
     2  H    0.394107   0.507200  -0.026540  -0.025106  -0.056724   0.009478
     3  H    0.410207  -0.026540   0.502684  -0.040506  -0.040341  -0.003749
     4  H    0.413765  -0.025106  -0.040506   0.533025  -0.043414   0.005753
     5  N    0.216084  -0.056724  -0.040341  -0.043414   6.836296   0.271434
     6  C   -0.078318   0.009478  -0.003749   0.005753   0.271434   5.210050
     7  C   -0.178366   0.025859  -0.050944   0.085610   0.277160   0.044337
     8  H    0.017807  -0.004064  -0.001133   0.002597  -0.052980   0.397925
     9  H   -0.004536   0.003504  -0.001604  -0.002191  -0.087520   0.411982
    10  H   -0.011253  -0.004490   0.003725  -0.003057  -0.044661   0.405502
    11  C    0.608903   0.027746   0.000913  -0.072454  -0.307152  -0.205359
    12  H    0.005869  -0.001226  -0.002173   0.003914  -0.068750  -0.042766
    13  H    0.025433   0.000820  -0.000443  -0.003463  -0.033404  -0.009574
    14  C   -0.331842  -0.024550   0.026442  -0.028716  -0.007783  -0.120106
    15  C   -0.290202  -0.008173   0.008986  -0.004874   0.000749   0.029866
    16  O   -0.003281  -0.000080   0.000125   0.001047   0.003366   0.001168
    17  C   -0.022447  -0.000184  -0.000500  -0.003575   0.000065  -0.000776
    18  C   -0.009613  -0.004492   0.004990   0.000211  -0.000719  -0.016145
    19  H   -0.001164  -0.000116   0.000085   0.000025   0.000124  -0.000044
    20  C   -0.004508   0.000014  -0.000041  -0.000964   0.001700   0.000064
    21  O   -0.000207  -0.000011   0.000036   0.000113  -0.000079   0.000295
    22  C    0.020665   0.000158  -0.000266   0.001005  -0.003060  -0.000991
    23  H   -0.003751   0.000003  -0.001809  -0.000763  -0.003590  -0.001816
    24  C   -0.002817  -0.000201   0.000405   0.000498  -0.000164  -0.000477
    25  H   -0.000005   0.000002  -0.000006  -0.000024   0.000006   0.000014
    26  H   -0.000089  -0.000013   0.000055  -0.000138   0.000088   0.000081
    27  H   -0.000068  -0.000004   0.000008   0.000037  -0.000013  -0.000001
               7          8          9         10         11         12
     1  C   -0.178366   0.017807  -0.004536  -0.011253   0.608903   0.005869
     2  H    0.025859  -0.004064   0.003504  -0.004490   0.027746  -0.001226
     3  H   -0.050944  -0.001133  -0.001604   0.003725   0.000913  -0.002173
     4  H    0.085610   0.002597  -0.002191  -0.003057  -0.072454   0.003914
     5  N    0.277160  -0.052980  -0.087520  -0.044661  -0.307152  -0.068750
     6  C    0.044337   0.397925   0.411982   0.405502  -0.205359  -0.042766
     7  C   18.252404  -0.026473   0.074345  -0.058154  -7.906300   0.370719
     8  H   -0.026473   0.559033  -0.030326  -0.064299   0.025016   0.003611
     9  H    0.074345  -0.030326   0.527231  -0.020332  -0.053308  -0.006932
    10  H   -0.058154  -0.064299  -0.020332   0.555445   0.048983   0.001026
    11  C   -7.906300   0.025016  -0.053308   0.048983  29.731284   0.009393
    12  H    0.370719   0.003611  -0.006932   0.001026   0.009393   0.464295
    13  H   -0.128248  -0.000300  -0.001439   0.002008   1.020916   0.002944
    14  C   -4.324489  -0.005733   0.020290   0.003711   1.229870   0.097722
    15  C    2.033943  -0.003572   0.021657  -0.001147 -12.649941  -0.059686
    16  O    0.250918  -0.000168   0.001692   0.000052  -0.498986   0.005503
    17  C   -1.113900  -0.000620   0.004456   0.000011  -2.460899  -0.049778
    18  C   -1.234858   0.000419  -0.004550   0.001281  -1.368830   0.030867
    19  H   -0.031837  -0.000012   0.000079   0.000066   0.004241   0.000575
    20  C    0.251159  -0.000022   0.000692  -0.000160  -1.190497  -0.000025
    21  O    0.036054  -0.000003  -0.000020   0.000007  -0.073333   0.000128
    22  C   -0.684982   0.000098  -0.001133   0.000391   0.817643   0.001177
    23  H   -0.086114   0.000066   0.000325  -0.000222  -0.284306   0.001183
    24  C   -0.175868  -0.000030  -0.000009   0.000051  -0.388162  -0.000588
    25  H    0.002275   0.000000   0.000007  -0.000001  -0.006808  -0.000200
    26  H    0.003736   0.000002   0.000000   0.000003   0.010501  -0.000166
    27  H   -0.002034   0.000000   0.000000   0.000001  -0.007239   0.000018
              13         14         15         16         17         18
     1  C    0.025433  -0.331842  -0.290202  -0.003281  -0.022447  -0.009613
     2  H    0.000820  -0.024550  -0.008173  -0.000080  -0.000184  -0.004492
     3  H   -0.000443   0.026442   0.008986   0.000125  -0.000500   0.004990
     4  H   -0.003463  -0.028716  -0.004874   0.001047  -0.003575   0.000211
     5  N   -0.033404  -0.007783   0.000749   0.003366   0.000065  -0.000719
     6  C   -0.009574  -0.120106   0.029866   0.001168  -0.000776  -0.016145
     7  C   -0.128248  -4.324489   2.033943   0.250918  -1.113900  -1.234858
     8  H   -0.000300  -0.005733  -0.003572  -0.000168  -0.000620   0.000419
     9  H   -0.001439   0.020290   0.021657   0.001692   0.004456  -0.004550
    10  H    0.002008   0.003711  -0.001147   0.000052   0.000011   0.001281
    11  C    1.020916   1.229870 -12.649941  -0.498986  -2.460899  -1.368830
    12  H    0.002944   0.097722  -0.059686   0.005503  -0.049778   0.030867
    13  H    0.767159  -0.077819  -0.397085  -0.011752   0.050192  -0.196484
    14  C   -0.077819  21.125627  -6.317137   0.865601  -0.252963  -2.373588
    15  C   -0.397085  -6.317137  26.469488  -0.100145  -1.572546  -0.073701
    16  O   -0.011752   0.865601  -0.100145   8.162884  -0.122596  -0.194314
    17  C    0.050192  -0.252963  -1.572546  -0.122596  19.945805  -6.903760
    18  C   -0.196484  -2.373588  -0.073701  -0.194314  -6.903760  17.847902
    19  H   -0.001748   0.068889  -0.126099   0.088216  -0.005071   0.041175
    20  C   -0.028109  -4.480297   0.948159  -0.076426  -3.764725   4.242721
    21  O   -0.002811  -0.229971   0.235768   0.018735   0.316355  -0.003857
    22  C   -0.005080   2.370900  -4.060348  -0.003698   1.966881  -2.731981
    23  H   -0.053972  -0.053472   0.073409  -0.002087  -0.053975   0.844996
    24  C   -0.013344  -0.304356  -0.161273  -0.020578  -0.085182  -0.485301
    25  H    0.000364  -0.058602  -0.040058   0.000416  -0.190148   0.065428
    26  H    0.005337   0.010274   0.018138   0.000634   0.049156  -0.113351
    27  H   -0.001469   0.006553   0.079877  -0.000322   0.028013  -0.052428
              19         20         21         22         23         24
     1  C   -0.001164  -0.004508  -0.000207   0.020665  -0.003751  -0.002817
     2  H   -0.000116   0.000014  -0.000011   0.000158   0.000003  -0.000201
     3  H    0.000085  -0.000041   0.000036  -0.000266  -0.001809   0.000405
     4  H    0.000025  -0.000964   0.000113   0.001005  -0.000763   0.000498
     5  N    0.000124   0.001700  -0.000079  -0.003060  -0.003590  -0.000164
     6  C   -0.000044   0.000064   0.000295  -0.000991  -0.001816  -0.000477
     7  C   -0.031837   0.251159   0.036054  -0.684982  -0.086114  -0.175868
     8  H   -0.000012  -0.000022  -0.000003   0.000098   0.000066  -0.000030
     9  H    0.000079   0.000692  -0.000020  -0.001133   0.000325  -0.000009
    10  H    0.000066  -0.000160   0.000007   0.000391  -0.000222   0.000051
    11  C    0.004241  -1.190497  -0.073333   0.817643  -0.284306  -0.388162
    12  H    0.000575  -0.000025   0.000128   0.001177   0.001183  -0.000588
    13  H   -0.001748  -0.028109  -0.002811  -0.005080  -0.053972  -0.013344
    14  C    0.068889  -4.480297  -0.229971   2.370900  -0.053472  -0.304356
    15  C   -0.126099   0.948159   0.235768  -4.060348   0.073409  -0.161273
    16  O    0.088216  -0.076426   0.018735  -0.003698  -0.002087  -0.020578
    17  C   -0.005071  -3.764725   0.316355   1.966881  -0.053975  -0.085182
    18  C    0.041175   4.242721  -0.003857  -2.731981   0.844996  -0.485301
    19  H    0.271684   0.029997   0.226024   0.017576   0.001941  -0.002893
    20  C    0.029997  11.683907  -0.307651  -1.882280   0.116565   0.493377
    21  O    0.226024  -0.307651   8.165967  -0.016488  -0.001112   0.020575
    22  C    0.017576  -1.882280  -0.016488   9.979977  -0.194997   0.751320
    23  H    0.001941   0.116565  -0.001112  -0.194997   0.612316   0.025588
    24  C   -0.002893   0.493377   0.020575   0.751320   0.025588   6.302175
    25  H    0.000861   0.606656  -0.022317  -0.026464   0.000490  -0.016103
    26  H    0.000270  -0.005117   0.000050   0.409273  -0.023357  -0.060882
    27  H   -0.000207  -0.084334   0.000968  -0.061724   0.002336   0.423586
              25         26         27
     1  C   -0.000005  -0.000089  -0.000068
     2  H    0.000002  -0.000013  -0.000004
     3  H   -0.000006   0.000055   0.000008
     4  H   -0.000024  -0.000138   0.000037
     5  N    0.000006   0.000088  -0.000013
     6  C    0.000014   0.000081  -0.000001
     7  C    0.002275   0.003736  -0.002034
     8  H    0.000000   0.000002   0.000000
     9  H    0.000007   0.000000   0.000000
    10  H   -0.000001   0.000003   0.000001
    11  C   -0.006808   0.010501  -0.007239
    12  H   -0.000200  -0.000166   0.000018
    13  H    0.000364   0.005337  -0.001469
    14  C   -0.058602   0.010274   0.006553
    15  C   -0.040058   0.018138   0.079877
    16  O    0.000416   0.000634  -0.000322
    17  C   -0.190148   0.049156   0.028013
    18  C    0.065428  -0.113351  -0.052428
    19  H    0.000861   0.000270  -0.000207
    20  C    0.606656  -0.005117  -0.084334
    21  O   -0.022317   0.000050   0.000968
    22  C   -0.026464   0.409273  -0.061724
    23  H    0.000490  -0.023357   0.002336
    24  C   -0.016103  -0.060882   0.423586
    25  H    0.462454   0.000844  -0.010413
    26  H    0.000844   0.488391  -0.011298
    27  H   -0.010413  -0.011298   0.486765
 Mulliken charges:
               1
     1  C   -0.444879
     2  H    0.187085
     3  H    0.211394
     4  H    0.181643
     5  N    0.143283
     6  C   -0.307829
     7  C    0.294049
     8  H    0.183162
     9  H    0.147639
    10  H    0.185514
    11  C   -0.061835
    12  H    0.233343
    13  H    0.091371
    14  C   -0.834456
    15  C    1.945945
    16  O   -0.365924
    17  C    0.242711
    18  C   -1.312018
    19  H    0.417362
    20  C   -0.549855
    21  O   -0.363215
    22  C   -0.663574
    23  H    0.086125
    24  C   -0.299348
    25  H    0.231333
    26  H    0.217579
    27  H    0.203392
 Sum of Mulliken charges =   0.00000
 Mulliken charges with hydrogens summed into heavy atoms:
               1
     1  C    0.135243
     5  N    0.143283
     6  C    0.208487
     7  C    0.527392
    11  C    0.029536
    14  C   -0.834456
    15  C    1.945945
    16  O   -0.365924
    17  C    0.242711
    18  C   -1.225893
    20  C   -0.318522
    21  O    0.054147
    22  C   -0.445995
    24  C   -0.095956
 Electronic spatial extent (au):  <R**2>=          27674.0429
 Charge=              0.0000 electrons
 Dipole moment (field-independent basis, Debye):
    X=             -5.6760    Y=             -4.7509    Z=             -3.6307  Tot=              8.2444
 Quadrupole moment (field-independent basis, Debye-Ang):
   XX=            -96.6482   YY=           -101.5651   ZZ=            -33.1362
   XY=            -14.9487   XZ=             24.5345   YZ=             25.5430
 Traceless Quadrupole moment (field-independent basis, Debye-Ang):
   XX=            -19.5317   YY=            -24.4486   ZZ=             43.9803
   XY=            -14.9487   XZ=             24.5345   YZ=             25.5430
 Octapole moment (field-independent basis, Debye-Ang**2):
  XXX=           -836.1702  YYY=           -546.0805  ZZZ=           1265.6085  XYY=           -335.0116
  XXY=           -193.0159  XXZ=            616.7169  XZZ=           -350.4471  YZZ=           -302.5307
  YYZ=            703.1180  XYZ=             64.3751
 Hexadecapole moment (field-independent basis, Debye-Ang**3):
 XXXX=          -8595.6368 YYYY=          -3087.3694 ZZZZ=         -21493.6682 XXXY=          -2239.2980
 XXXZ=           5693.3212 YYYX=          -2607.0813 YYYZ=           3729.3364 ZZZX=           5924.4370
 ZZZY=           4196.9924 XXYY=          -2112.1995 XXZZ=          -5539.0184 YYZZ=          -5549.6592
 XXYZ=           1127.2576 YYXZ=           2322.0029 ZZXY=          -1033.6671
 N-N= 8.345075926446D+02 E-N=-3.142559596371D+03  KE= 6.292239928004D+02
 Leave Link  601 at Thu Nov  2 21:56:36 2017, MaxMem=  3758096384 cpu:         0.8
 (Enter /share/apps/gaussian/g09_D01/g09/l9999.exe)
 1\1\GINC-NXV21\SP\RwB97XD TD-FC\6-311++G(d,p)\C11H13N1O2\BTX008\02-Nov
 -2017\0\\#p wb97xd 6-311++G** td=(nstates=4) nosymm\\Title\\0,1\C,0,-0
 .018523,-0.167594,-8.624227\H,0,-1.041859,-0.396318,-8.940951\H,0,0.59
 62,-1.072565,-8.749918\H,0,0.373154,0.633692,-9.260104\N,0,-0.036716,0
 .259407,-7.233244\C,0,-1.221106,-0.094821,-6.464118\C,0,0.973728,0.936
 608,-6.685196\H,0,-1.35133,-1.187488,-6.452592\H,0,-1.109743,0.264547,
 -5.435025\H,0,-2.108423,0.36969,-6.92243\C,0,2.16225,1.292265,-7.29600
 6\H,0,0.8173,1.228212,-5.644838\H,0,2.369255,0.972216,-8.311599\C,0,3.
 125938,2.08453,-6.606786\C,0,4.424405,2.421374,-7.235977\O,0,2.901988,
 2.549157,-5.421988\C,0,5.310019,3.316548,-6.558221\C,0,4.84538,1.88884
 ,-8.471795\H,0,4.044833,3.394053,-5.171782\C,0,6.553187,3.642642,-7.12
 3008\O,0,4.969374,3.86225,-5.373442\C,0,6.080774,2.208877,-9.018501\H,
 0,4.195278,1.20876,-9.016695\C,0,6.933539,3.089708,-8.338279\H,0,7.193
 34,4.339668,-6.580197\H,0,6.3904,1.77451,-9.96877\H,0,7.90281,3.334553
 ,-8.776421\\Version=ES64L-G09RevD.01\HF=-632.145538\RMSD=3.667e-09\PG=
 C01 [X(C11H13N1O2)]\\@


 LOVE IS BLIND, THAT'S WHY ALL THE WORLD LOVES A LOUVER.
 Job cpu time:       0 days  1 hours 11 minutes 49.2 seconds.
 File lengths (MBytes):  RWF=    237 Int=      0 D2E=      0 Chk=     27 Scr=      1
 Normal termination of Gaussian 09 at Thu Nov  2 21:56:37 2017.
