 Entering Gaussian System, Link 0=g09
 Input=2hp_1_666-mega_dimer_1_mon-1.com
 Output=2hp_1_666-mega_dimer_1_mon-1.out
 Initial command:
 /share/apps/gaussian/g09_D01/g09/l1.exe "/tmp/160984.1.all.q/Gau-50440.inp" -scrdir="/tmp/160984.1.all.q/"
 Entering Link 1 = /share/apps/gaussian/g09_D01/g09/l1.exe PID=     50443.
  
 Copyright (c) 1988,1990,1992,1993,1995,1998,2003,2009,2013,
            Gaussian, Inc.  All Rights Reserved.
  
 This is part of the Gaussian(R) 09 program.  It is based on
 the Gaussian(R) 03 system (copyright 2003, Gaussian, Inc.),
 the Gaussian(R) 98 system (copyright 1998, Gaussian, Inc.),
 the Gaussian(R) 94 system (copyright 1995, Gaussian, Inc.),
 the Gaussian 92(TM) system (copyright 1992, Gaussian, Inc.),
 the Gaussian 90(TM) system (copyright 1990, Gaussian, Inc.),
 the Gaussian 88(TM) system (copyright 1988, Gaussian, Inc.),
 the Gaussian 86(TM) system (copyright 1986, Carnegie Mellon
 University), and the Gaussian 82(TM) system (copyright 1983,
 Carnegie Mellon University). Gaussian is a federally registered
 trademark of Gaussian, Inc.
  
 This software contains proprietary and confidential information,
 including trade secrets, belonging to Gaussian, Inc.
  
 This software is provided under written license and may be
 used, copied, transmitted, or stored only in accord with that
 written license.
  
 The following legend is applicable only to US Government
 contracts under FAR:
  
                    RESTRICTED RIGHTS LEGEND
  
 Use, reproduction and disclosure by the US Government is
 subject to restrictions as set forth in subparagraphs (a)
 and (c) of the Commercial Computer Software - Restricted
 Rights clause in FAR 52.227-19.
  
 Gaussian, Inc.
 340 Quinnipiac St., Bldg. 40, Wallingford CT 06492
  
  
 ---------------------------------------------------------------
 Warning -- This program may not be used in any manner that
 competes with the business of Gaussian, Inc. or will provide
 assistance to any competitor of Gaussian, Inc.  The licensee
 of this program is prohibited from giving any competitor of
 Gaussian, Inc. access to this program.  By using this program,
 the user acknowledges that Gaussian, Inc. is engaged in the
 business of creating and licensing software in the field of
 computational chemistry and represents and warrants to the
 licensee that it is not a competitor of Gaussian, Inc. and that
 it will not use this program in any manner prohibited above.
 ---------------------------------------------------------------
  

 Cite this work as:
 Gaussian 09, Revision D.01,
 M. J. Frisch, G. W. Trucks, H. B. Schlegel, G. E. Scuseria, 
 M. A. Robb, J. R. Cheeseman, G. Scalmani, V. Barone, B. Mennucci, 
 G. A. Petersson, H. Nakatsuji, M. Caricato, X. Li, H. P. Hratchian, 
 A. F. Izmaylov, J. Bloino, G. Zheng, J. L. Sonnenberg, M. Hada, 
 M. Ehara, K. Toyota, R. Fukuda, J. Hasegawa, M. Ishida, T. Nakajima, 
 Y. Honda, O. Kitao, H. Nakai, T. Vreven, J. A. Montgomery, Jr., 
 J. E. Peralta, F. Ogliaro, M. Bearpark, J. J. Heyd, E. Brothers, 
 K. N. Kudin, V. N. Staroverov, T. Keith, R. Kobayashi, J. Normand, 
 K. Raghavachari, A. Rendell, J. C. Burant, S. S. Iyengar, J. Tomasi, 
 M. Cossi, N. Rega, J. M. Millam, M. Klene, J. E. Knox, J. B. Cross, 
 V. Bakken, C. Adamo, J. Jaramillo, R. Gomperts, R. E. Stratmann, 
 O. Yazyev, A. J. Austin, R. Cammi, C. Pomelli, J. W. Ochterski, 
 R. L. Martin, K. Morokuma, V. G. Zakrzewski, G. A. Voth, 
 P. Salvador, J. J. Dannenberg, S. Dapprich, A. D. Daniels, 
 O. Farkas, J. B. Foresman, J. V. Ortiz, J. Cioslowski, 
 and D. J. Fox, Gaussian, Inc., Wallingford CT, 2013.
 
 ******************************************
 Gaussian 09:  ES64L-G09RevD.01 24-Apr-2013
                 2-Nov-2017 
 ******************************************
 %chk=2hp_1_666-mega_dimer_1_mon-1.chk
 %nproc=4
 Will use up to    4 processors via shared memory.
 %mem=28GB
 ------------------------------------------
 #p wb97xd 6-311++G** td=(nstates=4) nosymm
 ------------------------------------------
 1/38=1/1;
 2/12=2,15=1,17=6,18=5,40=1/2;
 3/5=4,6=6,7=1111,11=9,16=1,25=1,30=1,74=-58/1,2,8,3;
 4//1;
 5/5=2,38=5/2;
 8/6=1,10=2,108=4/1;
 9/41=4,42=1,70=2/14;
 6/7=2,8=2,9=2,10=2/1;
 99/5=1,9=1/99;
 Leave Link    1 at Thu Nov  2 21:45:28 2017, MaxMem=  3758096384 cpu:         0.4
 (Enter /share/apps/gaussian/g09_D01/g09/l101.exe)
 -----
 Title
 -----
 Symbolic Z-matrix:
 Charge =  0 Multiplicity = 1
 H                     0.43331  -5.6488   -1.48038 
 C                     1.3192   -5.1828   -1.02079 
 H                     1.43153  -5.54214   0.00796 
 H                     1.18515  -4.09039  -1.00987 
 N                     2.50265  -5.53196  -1.79177 
 C                     3.51148  -6.21569  -1.25002 
 C                     2.51781  -5.09108  -3.17833 
 C                     4.70001  -6.56784  -1.86393 
 H                     3.35427  -6.51405  -0.21182 
 H                     2.91277  -5.88436  -3.82335 
 H                     1.49297  -4.86332  -3.49116 
 H                     3.12788  -4.18182  -3.29718 
 C                     5.66781  -7.36     -1.17957 
 H                     4.90465  -6.24433  -2.8792 
 C                     6.96868  -7.69291  -1.81312 
 O                     5.44678  -7.82273   0.00445 
 C                     7.86552  -8.58357  -1.14365 
 C                     7.38449  -7.15143  -3.04434 
 H                     6.60856  -8.65906   0.2531 
 C                     9.11077  -8.90157  -1.71234 
 O                     7.52891  -9.12637   0.04532 
 C                     8.62332  -7.45812  -3.59245 
 H                     6.72925  -6.47622  -3.58878 
 C                     9.48771  -8.33718  -2.92347 
 H                     9.75483  -9.59827  -1.17381 
 H                     8.92669  -7.01316  -4.54007 
 H                     10.45619  -8.57354  -3.36906 
 
 NAtoms=     27 NQM=       27 NQMF=       0 NMMI=      0 NMMIF=      0
                NMic=       0 NMicF=      0.
                    Isotopes and Nuclear Properties:
 (Nuclear quadrupole moments (NQMom) in fm**2, nuclear magnetic moments (NMagM)
  in nuclear magnetons)

  Atom         1           2           3           4           5           6           7           8           9          10
 IAtWgt=           1          12           1           1          14          12          12          12           1           1
 AtmWgt=   1.0078250  12.0000000   1.0078250   1.0078250  14.0030740  12.0000000  12.0000000  12.0000000   1.0078250   1.0078250
 NucSpn=           1           0           1           1           2           0           0           0           1           1
 AtZEff=   0.0000000   0.0000000   0.0000000   0.0000000   0.0000000   0.0000000   0.0000000   0.0000000   0.0000000   0.0000000
 NQMom=    0.0000000   0.0000000   0.0000000   0.0000000   2.0440000   0.0000000   0.0000000   0.0000000   0.0000000   0.0000000
 NMagM=    2.7928460   0.0000000   2.7928460   2.7928460   0.4037610   0.0000000   0.0000000   0.0000000   2.7928460   2.7928460
 AtZNuc=   1.0000000   6.0000000   1.0000000   1.0000000   7.0000000   6.0000000   6.0000000   6.0000000   1.0000000   1.0000000

  Atom        11          12          13          14          15          16          17          18          19          20
 IAtWgt=           1           1          12           1          12          16          12          12           1          12
 AtmWgt=   1.0078250   1.0078250  12.0000000   1.0078250  12.0000000  15.9949146  12.0000000  12.0000000   1.0078250  12.0000000
 NucSpn=           1           1           0           1           0           0           0           0           1           0
 AtZEff=   0.0000000   0.0000000   0.0000000   0.0000000   0.0000000   0.0000000   0.0000000   0.0000000   0.0000000   0.0000000
 NQMom=    0.0000000   0.0000000   0.0000000   0.0000000   0.0000000   0.0000000   0.0000000   0.0000000   0.0000000   0.0000000
 NMagM=    2.7928460   2.7928460   0.0000000   2.7928460   0.0000000   0.0000000   0.0000000   0.0000000   2.7928460   0.0000000
 AtZNuc=   1.0000000   1.0000000   6.0000000   1.0000000   6.0000000   8.0000000   6.0000000   6.0000000   1.0000000   6.0000000

  Atom        21          22          23          24          25          26          27
 IAtWgt=          16          12           1          12           1           1           1
 AtmWgt=  15.9949146  12.0000000   1.0078250  12.0000000   1.0078250   1.0078250   1.0078250
 NucSpn=           0           0           1           0           1           1           1
 AtZEff=   0.0000000   0.0000000   0.0000000   0.0000000   0.0000000   0.0000000   0.0000000
 NQMom=    0.0000000   0.0000000   0.0000000   0.0000000   0.0000000   0.0000000   0.0000000
 NMagM=    0.0000000   0.0000000   2.7928460   0.0000000   2.7928460   2.7928460   2.7928460
 AtZNuc=   8.0000000   6.0000000   1.0000000   6.0000000   1.0000000   1.0000000   1.0000000
 Leave Link  101 at Thu Nov  2 21:45:29 2017, MaxMem=  3758096384 cpu:         0.5
 (Enter /share/apps/gaussian/g09_D01/g09/l202.exe)
                          Input orientation:                          
 ---------------------------------------------------------------------
 Center     Atomic      Atomic             Coordinates (Angstroms)
 Number     Number       Type             X           Y           Z
 ---------------------------------------------------------------------
      1          1           0        0.433308   -5.648799   -1.480377
      2          6           0        1.319203   -5.182804   -1.020786
      3          1           0        1.431529   -5.542138    0.007956
      4          1           0        1.185153   -4.090391   -1.009865
      5          7           0        2.502652   -5.531956   -1.791767
      6          6           0        3.511478   -6.215690   -1.250017
      7          6           0        2.517810   -5.091084   -3.178332
      8          6           0        4.700006   -6.567836   -1.863930
      9          1           0        3.354274   -6.514050   -0.211815
     10          1           0        2.912771   -5.884357   -3.823351
     11          1           0        1.492967   -4.863322   -3.491161
     12          1           0        3.127881   -4.181816   -3.297179
     13          6           0        5.667812   -7.360004   -1.179567
     14          1           0        4.904648   -6.244331   -2.879200
     15          6           0        6.968676   -7.692910   -1.813118
     16          8           0        5.446779   -7.822733    0.004446
     17          6           0        7.865521   -8.583573   -1.143648
     18          6           0        7.384494   -7.151431   -3.044341
     19          1           0        6.608559   -8.659062    0.253102
     20          6           0        9.110772   -8.901567   -1.712336
     21          8           0        7.528910   -9.126371    0.045324
     22          6           0        8.623319   -7.458124   -3.592445
     23          1           0        6.729246   -6.476223   -3.588784
     24          6           0        9.487705   -8.337179   -2.923469
     25          1           0        9.754833   -9.598270   -1.173810
     26          1           0        8.926685   -7.013164   -4.540066
     27          1           0       10.456188   -8.573545   -3.369065
 ---------------------------------------------------------------------
                    Distance matrix (angstroms):
                    1          2          3          4          5
     1  H    0.000000
     2  C    1.101447   0.000000
     3  H    1.795260   1.095467   0.000000
     4  H    1.793122   1.100661   1.790036   0.000000
     5  N    2.095901   1.454947   2.094376   2.103636   0.000000
     6  C    3.138401   2.434229   2.522371   3.160120   1.333685
     7  C    2.745769   2.469833   3.396452   2.734888   1.455047
     8  C    4.381376   3.749538   3.903710   4.384216   2.430354
     9  H    3.299993   2.562843   2.165609   3.349044   2.045976
    10  H    3.419467   3.299395   4.121906   3.757483   2.102312
    11  H    2.404808   2.497001   3.564882   2.617060   2.086738
    12  H    3.565604   3.074940   3.956261   3.002392   2.116614
    13  C    5.515319   4.865780   4.760351   5.550982   3.706047
    14  H    4.722737   4.175639   4.570700   4.687058   2.731222
    15  C    6.855665   6.232573   6.213061   6.860940   4.961406
    16  O    5.662648   5.005718   4.617722   5.755055   4.140281
    17  C    7.997754   7.377981   7.209214   8.051950   6.204256
    18  C    7.281681   6.690144   6.880707   7.207003   5.293772
    19  H    7.085221   6.456349   6.047888   7.202859   5.551464
    20  C    9.269988   8.661177   8.556631   9.298189   7.418075
    21  O    8.047909   7.432952   7.072919   8.168095   6.446549
    22  C    8.649322   8.070974   8.267753   8.563741   6.664468
    23  H    6.690953   6.126672   6.471079   6.563534   4.688817
    24  C    9.554685   8.960732   9.017066   9.519951   7.611898
    25  H   10.128333   9.522584   9.334140  10.188377   8.337320
    26  H    9.130205   8.579588   8.889645   8.996457   7.142501
    27  H   10.610344  10.024771  10.101394  10.564875   8.660131
                    6          7          8          9         10
     6  C    0.000000
     7  C    2.443463   0.000000
     8  C    1.383291   2.944559   0.000000
     9  H    1.091602   3.394809   2.131519   0.000000
    10  H    2.662758   1.096050   2.738738   3.692510   0.000000
    11  H    3.305452   1.095464   3.979742   4.116245   1.780086
    12  H    2.911127   1.101399   3.196697   3.874279   1.794930
    13  C    2.442170   4.366414   1.425669   2.646628   4.093578
    14  H    2.143824   2.667668   1.085038   3.096991   2.233512
    15  C    3.801510   5.333246   2.532832   4.125262   4.874655
    16  O    2.810988   5.115744   2.371343   2.477498   4.983024
    17  C    4.957406   6.703390   3.821320   5.050009   6.244702
    18  C    4.369836   5.286549   2.990055   4.967105   4.712604
    19  H    4.221533   6.421794   3.535198   3.925251   6.162411
    20  C    6.227340   7.754745   4.992408   6.410076   7.209380
    21  O    5.127351   7.196292   4.265448   4.931321   6.840032
    22  C    5.758605   6.561372   4.378671   6.331095   5.927935
    23  H    3.986444   4.452334   2.664832   4.774493   3.869213
    24  C    6.558692   7.692953   5.212989   6.949521   7.075018
    25  H    7.101207   8.758272   5.933892   7.169728   8.223566
    26  H    6.386302   6.828059   5.022433   7.073517   6.160767
    27  H    7.634058   8.670742   6.278689   8.040331   8.021300
                   11         12         13         14         15
    11  H    0.000000
    12  H    1.781859   0.000000
    13  C    5.385742   4.586547   0.000000
    14  H    3.731119   2.754192   2.171612   0.000000
    15  C    6.387941   5.411278   1.484743   2.737722   0.000000
    16  O    6.050621   5.434546   1.290295   3.331767   2.374145
    17  C    7.743418   6.816039   2.515618   4.153428   1.430315
    18  C    6.336023   5.196277   2.543203   2.645702   1.407840
    19  H    7.388940   6.690691   2.150604   4.306455   2.309199
    20  C    8.803556   7.783493   3.809755   5.110181   2.461622
    21  O    8.192248   7.415525   2.843254   4.872961   2.412981
    22  C    7.588490   6.404781   3.816625   3.976245   2.441101
    23  H    5.479927   4.280090   2.777056   1.971406   2.165789
    24  C    8.735319   7.606186   4.311339   5.038490   2.827272
    25  H    9.800422   8.818342   4.659786   6.138530   3.435372
    26  H    7.809109   6.571714   4.693986   4.418864   3.425215
    27  H    9.701546   8.543801   5.403252   6.040265   3.919085
                   16         17         18         19         20
    16  O    0.000000
    17  C    2.783399   0.000000
    18  C    3.674301   2.427973   0.000000
    19  H    1.452931   1.880575   3.707851   0.000000
    20  C    4.187609   1.405410   2.795934   3.191054   0.000000
    21  O    2.456911   1.349663   3.669778   1.052899   2.375330
    22  C    4.812585   2.799554   1.388944   4.504414   2.419907
    23  H    4.045876   3.422095   1.087048   4.420344   3.882656
    24  C    5.016615   2.420734   2.417458   4.299267   1.388328
    25  H    4.806261   2.144766   3.886440   3.580116   1.090972
    26  H    5.780808   3.889461   2.152827   5.572894   3.405292
    27  H    6.085924   3.415280   3.400464   5.285041   2.159281
                   21         22         23         24         25
    21  O    0.000000
    22  C    4.148993   0.000000
    23  H    4.568313   2.133461   0.000000
    24  C    3.643272   1.402651   3.393361   0.000000
    25  H    2.581416   3.422038   4.973274   2.173250   0.000000
    26  H    5.238819   1.089957   2.453973   2.163595   4.324382
    27  H    4.531294   2.157191   4.282188   1.091963   2.522123
                   26         27
    26  H    0.000000
    27  H    2.478994   0.000000
 Symmetry turned off by external request.
 Stoichiometry    C11H13NO2
 Framework group  C1[X(C11H13NO2)]
 Deg. of freedom    75
 Full point group                 C1      NOp   1
 Rotational constants (GHZ):      1.6027772      0.3184398      0.2671602
 Leave Link  202 at Thu Nov  2 21:45:29 2017, MaxMem=  3758096384 cpu:         0.3
 (Enter /share/apps/gaussian/g09_D01/g09/l301.exe)
 Standard basis: 6-311++G(d,p) (5D, 7F)
 Ernie: Thresh=  0.10000D-02 Tol=  0.10000D-05 Strict=F.
   399 basis functions,   621 primitive gaussians,   413 cartesian basis functions
    51 alpha electrons       51 beta electrons
       nuclear repulsion energy       834.1690980849 Hartrees.
 IExCor= 4639 DFT=T Ex+Corr=wB97XD ExCW=0 ScaHFX=  1.000000
 ScaDFX=  1.000000  1.000000  1.000000  1.000000 ScalE2=  1.000000  1.000000
 IRadAn=      0 IRanWt=     -1 IRanGd=            0 ICorTp=0 IEmpDi=121
  HFx wShort=  0.000000 wLong=  0.200000 cFull=  0.222036 cShort=  0.000000 cLong=  0.777964
  DFx wShort=  0.000000 wLong=  0.200000 cFull=  0.000000 cShort=  0.000000 cLong=  1.000000
 NAtoms=   27 NActive=   27 NUniq=   27 SFac= 1.00D+00 NAtFMM=   60 NAOKFM=F Big=F
 Integral buffers will be    131072 words long.
 Raffenetti 1 integral format.
 Two-electron integral symmetry is turned off.
 R6Disp:  Grimme-D2 Dispersion energy=       -0.0148373361 Hartrees.
 Nuclear repulsion after empirical dispersion term =      834.1542607488 Hartrees.
 Leave Link  301 at Thu Nov  2 21:45:29 2017, MaxMem=  3758096384 cpu:         0.8
 (Enter /share/apps/gaussian/g09_D01/g09/l302.exe)
 NPDir=0 NMtPBC=     1 NCelOv=     1 NCel=       1 NClECP=     1 NCelD=      1
         NCelK=      1 NCelE2=     1 NClLst=     1 CellRange=     0.0.
 One-electron integrals computed using PRISM.
 NBasis=   399 RedAO= T EigKep=  1.11D-06  NBF=   399
 NBsUse=   397 1.00D-06 EigRej=  6.40D-07 NBFU=   397
 Precomputing XC quadrature grid using
 IXCGrd= 4 IRadAn=           0 IRanWt=          -1 IRanGd=           0 AccXCQ= 0.00D+00.
 Generated NRdTot=       0 NPtTot=           0 NUsed=           0 NTot=          32
 NSgBfM=   412   412   412   412   412 MxSgAt=    27 MxSgA2=    27.
 Leave Link  302 at Thu Nov  2 21:45:33 2017, MaxMem=  3758096384 cpu:         9.8
 (Enter /share/apps/gaussian/g09_D01/g09/l308.exe)
 Leave Link  308 at Thu Nov  2 21:45:33 2017, MaxMem=  3758096384 cpu:         1.4
 (Enter /share/apps/gaussian/g09_D01/g09/l303.exe)
 DipDrv:  MaxL=1.
 Leave Link  303 at Thu Nov  2 21:45:34 2017, MaxMem=  3758096384 cpu:         1.1
 (Enter /share/apps/gaussian/g09_D01/g09/l401.exe)
 ExpMin= 3.60D-02 ExpMax= 8.59D+03 ExpMxC= 1.30D+03 IAcc=3 IRadAn=         5 AccDes= 0.00D+00
 Harris functional with IExCor= 4639 and IRadAn=       5 diagonalized for initial guess.
 HarFok:  IExCor= 4639 AccDes= 0.00D+00 IRadAn=         5 IDoV= 1 UseB2=F ITyADJ=14
 ICtDFT=  3500011 ScaDFX=  1.000000  1.000000  1.000000  1.000000
 FoFCou: FMM=F IPFlag=           0 FMFlag=      100000 FMFlg1=           0
         NFxFlg=           0 DoJE=T BraDBF=F KetDBF=T FulRan=T
         wScrn=  0.000000 ICntrl=     500 IOpCl=  0 I1Cent=   200000004 NGrid=           0
         NMat0=    1 NMatS0=      1 NMatT0=    0 NMatD0=    1 NMtDS0=    0 NMtDT0=    0
 Symmetry not used in FoFCou.
 Harris En= -604.965261109998    
 JPrj=0 DoOrth=F DoCkMO=F.
 Leave Link  401 at Thu Nov  2 21:45:50 2017, MaxMem=  3758096384 cpu:        62.0
 (Enter /share/apps/gaussian/g09_D01/g09/l502.exe)
 Closed shell SCF:
 Using DIIS extrapolation, IDIIS=  1040.
 Two-electron integral symmetry not used.
 IVT=      535267 IEndB=      535267 NGot=  3758096384 MDV=  3757748740
 LenX=  3757748740 LenY=  3757577730
 Requested convergence on RMS density matrix=1.00D-08 within 128 cycles.
 Requested convergence on MAX density matrix=1.00D-06.
 Requested convergence on             energy=1.00D-06.
 No special actions if energy rises.
 Fock matrices will be formed incrementally for  20 cycles.

 Cycle   1  Pass 1  IDiag  1:
 FoFJK:  IHMeth= 1 ICntrl=       0 DoSepK=T KAlg= 0 I1Cent=   0 FoldK=F
 IRaf=         1 NMat=   1 IRICut=       1 DoRegI=T DoRafI=F ISym2E= 0.
 FoFCou: FMM=F IPFlag=           0 FMFlag=      100000 FMFlg1=           0
         NFxFlg=           0 DoJE=T BraDBF=F KetDBF=F FulRan=T
         wScrn=  0.000000 ICntrl=     500 IOpCl=  0 I1Cent=           0 NGrid=           0
         NMat0=    1 NMatS0=      1 NMatT0=    0 NMatD0=    1 NMtDS0=    0 NMtDT0=    0
 Symmetry not used in FoFCou.
 E= -631.924101762584    
 DIIS: error= 6.86D-02 at cycle   1 NSaved=   1.
 NSaved= 1 IEnMin= 1 EnMin= -631.924101762584     IErMin= 1 ErrMin= 6.86D-02
 ErrMax= 6.86D-02  0.00D+00 EMaxC= 1.00D-01 BMatC= 1.38D+00 BMatP= 1.38D+00
 IDIUse=3 WtCom= 3.14D-01 WtEn= 6.86D-01
 Coeff-Com:  0.100D+01
 Coeff-En:   0.100D+01
 Coeff:      0.100D+01
 Gap=     0.343 Goal=   None    Shift=    0.000
 GapD=    0.343 DampG=1.000 DampE=0.500 DampFc=0.5000 IDamp=-1.
 Damping current iteration by 5.00D-01
 RMSDP=3.74D-02 MaxDP=3.76D+00              OVMax= 1.53D-01

 Cycle   2  Pass 1  IDiag  1:
 RMSU=  7.73D-03    CP:  8.63D-01
 E= -632.024017411216     Delta-E=       -0.099915648632 Rises=F Damp=T
 DIIS: error= 3.18D-02 at cycle   2 NSaved=   2.
 NSaved= 2 IEnMin= 2 EnMin= -632.024017411216     IErMin= 2 ErrMin= 3.18D-02
 ErrMax= 3.18D-02  0.00D+00 EMaxC= 1.00D-01 BMatC= 2.84D-01 BMatP= 1.38D+00
 IDIUse=3 WtCom= 6.82D-01 WtEn= 3.18D-01
 Coeff-Com: -0.544D+00 0.154D+01
 Coeff-En:   0.000D+00 0.100D+01
 Coeff:     -0.370D+00 0.137D+01
 Gap=     0.314 Goal=   None    Shift=    0.000
 RMSDP=1.61D-02 MaxDP=1.79D+00 DE=-9.99D-02 OVMax= 1.58D-01

 Cycle   3  Pass 1  IDiag  1:
 RMSU=  6.76D-03    CP:  7.52D-01  1.60D+00
 E= -632.079284905455     Delta-E=       -0.055267494239 Rises=F Damp=F
 DIIS: error= 1.53D-02 at cycle   3 NSaved=   3.
 NSaved= 3 IEnMin= 3 EnMin= -632.079284905455     IErMin= 3 ErrMin= 1.53D-02
 ErrMax= 1.53D-02  0.00D+00 EMaxC= 1.00D-01 BMatC= 8.13D-02 BMatP= 2.84D-01
 IDIUse=3 WtCom= 8.47D-01 WtEn= 1.53D-01
 Coeff-Com: -0.344D+00 0.743D+00 0.601D+00
 Coeff-En:   0.000D+00 0.000D+00 0.100D+01
 Coeff:     -0.291D+00 0.630D+00 0.662D+00
 Gap=     0.293 Goal=   None    Shift=    0.000
 RMSDP=1.40D-02 MaxDP=1.48D+00 DE=-5.53D-02 OVMax= 7.83D-02

 Cycle   4  Pass 1  IDiag  1:
 RMSU=  4.10D-03    CP:  6.53D-01  1.76D+00  2.81D-01
 E= -632.139705156556     Delta-E=       -0.060420251101 Rises=F Damp=F
 DIIS: error= 4.79D-03 at cycle   4 NSaved=   4.
 NSaved= 4 IEnMin= 4 EnMin= -632.139705156556     IErMin= 4 ErrMin= 4.79D-03
 ErrMax= 4.79D-03  0.00D+00 EMaxC= 1.00D-01 BMatC= 7.42D-03 BMatP= 8.13D-02
 IDIUse=3 WtCom= 9.52D-01 WtEn= 4.79D-02
 Coeff-Com: -0.140D+00 0.302D+00 0.367D+00 0.472D+00
 Coeff-En:   0.000D+00 0.000D+00 0.872D-02 0.991D+00
 Coeff:     -0.133D+00 0.287D+00 0.350D+00 0.497D+00
 Gap=     0.277 Goal=   None    Shift=    0.000
 RMSDP=3.27D-03 MaxDP=3.51D-01 DE=-6.04D-02 OVMax= 1.51D-02

 Cycle   5  Pass 1  IDiag  1:
 RMSU=  1.01D-03    CP:  6.76D-01  1.83D+00  4.12D-01  9.32D-01
 E= -632.145423488982     Delta-E=       -0.005718332426 Rises=F Damp=F
 DIIS: error= 6.08D-04 at cycle   5 NSaved=   5.
 NSaved= 5 IEnMin= 5 EnMin= -632.145423488982     IErMin= 5 ErrMin= 6.08D-04
 ErrMax= 6.08D-04  0.00D+00 EMaxC= 1.00D-01 BMatC= 1.17D-04 BMatP= 7.42D-03
 IDIUse=3 WtCom= 9.94D-01 WtEn= 6.08D-03
 Coeff-Com:  0.941D-02-0.209D-01 0.255D-01 0.161D+00 0.825D+00
 Coeff-En:   0.000D+00 0.000D+00 0.000D+00 0.000D+00 0.100D+01
 Coeff:      0.935D-02-0.207D-01 0.254D-01 0.160D+00 0.826D+00
 Gap=     0.277 Goal=   None    Shift=    0.000
 RMSDP=1.35D-03 MaxDP=1.69D-01 DE=-5.72D-03 OVMax= 3.76D-03

 Cycle   6  Pass 1  IDiag  1:
 RMSU=  2.62D-04    CP:  6.67D-01  1.87D+00  3.94D-01  1.10D+00  1.19D+00
 E= -632.145554530550     Delta-E=       -0.000131041569 Rises=F Damp=F
 DIIS: error= 4.13D-04 at cycle   6 NSaved=   6.
 NSaved= 6 IEnMin= 6 EnMin= -632.145554530550     IErMin= 6 ErrMin= 4.13D-04
 ErrMax= 4.13D-04  0.00D+00 EMaxC= 1.00D-01 BMatC= 2.94D-05 BMatP= 1.17D-04
 IDIUse=3 WtCom= 9.96D-01 WtEn= 4.13D-03
 Coeff-Com:  0.240D-01-0.517D-01-0.374D-01 0.554D-02 0.400D+00 0.660D+00
 Coeff-En:   0.000D+00 0.000D+00 0.000D+00 0.000D+00 0.000D+00 0.100D+01
 Coeff:      0.239D-01-0.515D-01-0.372D-01 0.552D-02 0.398D+00 0.661D+00
 Gap=     0.279 Goal=   None    Shift=    0.000
 RMSDP=2.75D-04 MaxDP=2.51D-02 DE=-1.31D-04 OVMax= 3.04D-03

 Cycle   7  Pass 1  IDiag  1:
 RMSU=  8.32D-05    CP:  6.66D-01  1.87D+00  3.85D-01  1.14D+00  1.26D+00
                    CP:  9.12D-01
 E= -632.145589723518     Delta-E=       -0.000035192968 Rises=F Damp=F
 DIIS: error= 9.66D-05 at cycle   7 NSaved=   7.
 NSaved= 7 IEnMin= 7 EnMin= -632.145589723518     IErMin= 7 ErrMin= 9.66D-05
 ErrMax= 9.66D-05  0.00D+00 EMaxC= 1.00D-01 BMatC= 3.02D-06 BMatP= 2.94D-05
 IDIUse=1 WtCom= 1.00D+00 WtEn= 0.00D+00
 Coeff-Com:  0.486D-02-0.103D-01-0.116D-01-0.187D-01-0.111D-01 0.219D+00
 Coeff-Com:  0.828D+00
 Coeff:      0.486D-02-0.103D-01-0.116D-01-0.187D-01-0.111D-01 0.219D+00
 Coeff:      0.828D+00
 Gap=     0.279 Goal=   None    Shift=    0.000
 RMSDP=1.61D-04 MaxDP=1.70D-02 DE=-3.52D-05 OVMax= 1.08D-03

 Cycle   8  Pass 1  IDiag  1:
 RMSU=  2.99D-05    CP:  6.65D-01  1.88D+00  3.81D-01  1.17D+00  1.31D+00
                    CP:  1.01D+00  1.30D+00
 E= -632.145594541930     Delta-E=       -0.000004818412 Rises=F Damp=F
 DIIS: error= 5.23D-05 at cycle   8 NSaved=   8.
 NSaved= 8 IEnMin= 8 EnMin= -632.145594541930     IErMin= 8 ErrMin= 5.23D-05
 ErrMax= 5.23D-05  0.00D+00 EMaxC= 1.00D-01 BMatC= 6.64D-07 BMatP= 3.02D-06
 IDIUse=1 WtCom= 1.00D+00 WtEn= 0.00D+00
 Coeff-Com: -0.181D-02 0.399D-02 0.117D-02-0.106D-01-0.816D-01 0.119D-02
 Coeff-Com:  0.390D+00 0.697D+00
 Coeff:     -0.181D-02 0.399D-02 0.117D-02-0.106D-01-0.816D-01 0.119D-02
 Coeff:      0.390D+00 0.697D+00
 Gap=     0.279 Goal=   None    Shift=    0.000
 RMSDP=6.03D-05 MaxDP=6.57D-03 DE=-4.82D-06 OVMax= 6.78D-04

 Cycle   9  Pass 1  IDiag  1:
 RMSU=  1.38D-05    CP:  6.65D-01  1.88D+00  3.79D-01  1.18D+00  1.33D+00
                    CP:  1.05D+00  1.45D+00  9.89D-01
 E= -632.145595737288     Delta-E=       -0.000001195358 Rises=F Damp=F
 DIIS: error= 1.42D-05 at cycle   9 NSaved=   9.
 NSaved= 9 IEnMin= 9 EnMin= -632.145595737288     IErMin= 9 ErrMin= 1.42D-05
 ErrMax= 1.42D-05  0.00D+00 EMaxC= 1.00D-01 BMatC= 6.87D-08 BMatP= 6.64D-07
 IDIUse=1 WtCom= 1.00D+00 WtEn= 0.00D+00
 Coeff-Com: -0.118D-02 0.252D-02 0.243D-02 0.671D-03-0.195D-01-0.306D-01
 Coeff-Com: -0.595D-01 0.167D+00 0.938D+00
 Coeff:     -0.118D-02 0.252D-02 0.243D-02 0.671D-03-0.195D-01-0.306D-01
 Coeff:     -0.595D-01 0.167D+00 0.938D+00
 Gap=     0.279 Goal=   None    Shift=    0.000
 RMSDP=1.94D-05 MaxDP=1.47D-03 DE=-1.20D-06 OVMax= 3.00D-04

 Cycle  10  Pass 1  IDiag  1:
 RMSU=  7.47D-06    CP:  6.65D-01  1.88D+00  3.79D-01  1.18D+00  1.33D+00
                    CP:  1.03D+00  1.57D+00  1.32D+00  1.15D+00
 E= -632.145595920133     Delta-E=       -0.000000182845 Rises=F Damp=F
 DIIS: error= 8.96D-06 at cycle  10 NSaved=  10.
 NSaved=10 IEnMin=10 EnMin= -632.145595920133     IErMin=10 ErrMin= 8.96D-06
 ErrMax= 8.96D-06  0.00D+00 EMaxC= 1.00D-01 BMatC= 7.48D-09 BMatP= 6.87D-08
 IDIUse=1 WtCom= 1.00D+00 WtEn= 0.00D+00
 Coeff-Com: -0.373D-04 0.714D-04 0.480D-03 0.168D-02 0.455D-02-0.688D-02
 Coeff-Com: -0.700D-01-0.339D-01 0.258D+00 0.846D+00
 Coeff:     -0.373D-04 0.714D-04 0.480D-03 0.168D-02 0.455D-02-0.688D-02
 Coeff:     -0.700D-01-0.339D-01 0.258D+00 0.846D+00
 Gap=     0.279 Goal=   None    Shift=    0.000
 RMSDP=4.80D-06 MaxDP=5.07D-04 DE=-1.83D-07 OVMax= 1.12D-04

 Cycle  11  Pass 1  IDiag  1:
 RMSU=  2.01D-06    CP:  6.65D-01  1.88D+00  3.79D-01  1.18D+00  1.33D+00
                    CP:  1.02D+00  1.60D+00  1.40D+00  1.20D+00  1.22D+00
 E= -632.145595942153     Delta-E=       -0.000000022020 Rises=F Damp=F
 DIIS: error= 2.26D-06 at cycle  11 NSaved=  11.
 NSaved=11 IEnMin=11 EnMin= -632.145595942153     IErMin=11 ErrMin= 2.26D-06
 ErrMax= 2.26D-06  0.00D+00 EMaxC= 1.00D-01 BMatC= 1.30D-09 BMatP= 7.48D-09
 IDIUse=1 WtCom= 1.00D+00 WtEn= 0.00D+00
 Coeff-Com:  0.160D-03-0.344D-03-0.192D-03 0.553D-03 0.423D-02 0.212D-02
 Coeff-Com: -0.133D-01-0.322D-01-0.617D-01 0.267D+00 0.833D+00
 Coeff:      0.160D-03-0.344D-03-0.192D-03 0.553D-03 0.423D-02 0.212D-02
 Coeff:     -0.133D-01-0.322D-01-0.617D-01 0.267D+00 0.833D+00
 Gap=     0.279 Goal=   None    Shift=    0.000
 RMSDP=2.63D-06 MaxDP=2.09D-04 DE=-2.20D-08 OVMax= 4.63D-05

 Cycle  12  Pass 1  IDiag  1:
 RMSU=  8.41D-07    CP:  6.65D-01  1.88D+00  3.79D-01  1.18D+00  1.33D+00
                    CP:  1.02D+00  1.61D+00  1.43D+00  1.25D+00  1.33D+00
                    CP:  1.01D+00
 E= -632.145595945749     Delta-E=       -0.000000003595 Rises=F Damp=F
 DIIS: error= 1.63D-06 at cycle  12 NSaved=  12.
 NSaved=12 IEnMin=12 EnMin= -632.145595945749     IErMin=12 ErrMin= 1.63D-06
 ErrMax= 1.63D-06  0.00D+00 EMaxC= 1.00D-01 BMatC= 1.63D-10 BMatP= 1.30D-09
 IDIUse=1 WtCom= 1.00D+00 WtEn= 0.00D+00
 Coeff-Com:  0.253D-04-0.536D-04-0.760D-04-0.452D-04 0.234D-03 0.868D-03
 Coeff-Com:  0.800D-02-0.260D-02-0.539D-01-0.703D-01 0.147D+00 0.971D+00
 Coeff:      0.253D-04-0.536D-04-0.760D-04-0.452D-04 0.234D-03 0.868D-03
 Coeff:      0.800D-02-0.260D-02-0.539D-01-0.703D-01 0.147D+00 0.971D+00
 Gap=     0.279 Goal=   None    Shift=    0.000
 RMSDP=1.22D-06 MaxDP=8.06D-05 DE=-3.60D-09 OVMax= 2.41D-05

 Cycle  13  Pass 1  IDiag  1:
 RMSU=  2.78D-07    CP:  6.65D-01  1.88D+00  3.78D-01  1.18D+00  1.33D+00
                    CP:  1.02D+00  1.62D+00  1.44D+00  1.26D+00  1.39D+00
                    CP:  1.10D+00  1.39D+00
 E= -632.145595946342     Delta-E=       -0.000000000593 Rises=F Damp=F
 DIIS: error= 5.15D-07 at cycle  13 NSaved=  13.
 NSaved=13 IEnMin=13 EnMin= -632.145595946342     IErMin=13 ErrMin= 5.15D-07
 ErrMax= 5.15D-07  0.00D+00 EMaxC= 1.00D-01 BMatC= 4.24D-11 BMatP= 1.63D-10
 IDIUse=1 WtCom= 1.00D+00 WtEn= 0.00D+00
 Coeff-Com: -0.666D-05 0.150D-04-0.111D-04-0.928D-04-0.489D-03 0.624D-05
 Coeff-Com:  0.515D-02 0.316D-02-0.757D-02-0.600D-01-0.743D-01 0.387D+00
 Coeff-Com:  0.747D+00
 Coeff:     -0.666D-05 0.150D-04-0.111D-04-0.928D-04-0.489D-03 0.624D-05
 Coeff:      0.515D-02 0.316D-02-0.757D-02-0.600D-01-0.743D-01 0.387D+00
 Coeff:      0.747D+00
 Gap=     0.279 Goal=   None    Shift=    0.000
 RMSDP=4.22D-07 MaxDP=4.19D-05 DE=-5.93D-10 OVMax= 6.50D-06

 Cycle  14  Pass 1  IDiag  1:
 RMSU=  1.15D-07    CP:  6.65D-01  1.88D+00  3.78D-01  1.18D+00  1.33D+00
                    CP:  1.02D+00  1.62D+00  1.43D+00  1.26D+00  1.39D+00
                    CP:  1.11D+00  1.53D+00  1.20D+00
 E= -632.145595946520     Delta-E=       -0.000000000178 Rises=F Damp=F
 DIIS: error= 3.19D-07 at cycle  14 NSaved=  14.
 NSaved=14 IEnMin=14 EnMin= -632.145595946520     IErMin=14 ErrMin= 3.19D-07
 ErrMax= 3.19D-07  0.00D+00 EMaxC= 1.00D-01 BMatC= 5.32D-12 BMatP= 4.24D-11
 IDIUse=1 WtCom= 1.00D+00 WtEn= 0.00D+00
 Coeff-Com: -0.659D-05 0.142D-04 0.102D-04-0.200D-04-0.204D-03-0.179D-03
 Coeff-Com:  0.346D-03 0.620D-03 0.653D-02-0.694D-02-0.526D-01-0.394D-01
 Coeff-Com:  0.167D+00 0.925D+00
 Coeff:     -0.659D-05 0.142D-04 0.102D-04-0.200D-04-0.204D-03-0.179D-03
 Coeff:      0.346D-03 0.620D-03 0.653D-02-0.694D-02-0.526D-01-0.394D-01
 Coeff:      0.167D+00 0.925D+00
 Gap=     0.279 Goal=   None    Shift=    0.000
 RMSDP=4.07D-07 MaxDP=4.48D-05 DE=-1.78D-10 OVMax= 4.25D-06

 Cycle  15  Pass 1  IDiag  1:
 RMSU=  3.72D-08    CP:  6.65D-01  1.88D+00  3.78D-01  1.18D+00  1.33D+00
                    CP:  1.02D+00  1.62D+00  1.43D+00  1.27D+00  1.38D+00
                    CP:  1.11D+00  1.60D+00  1.41D+00  1.45D+00
 E= -632.145595946485     Delta-E=        0.000000000035 Rises=F Damp=F
 DIIS: error= 9.53D-08 at cycle  15 NSaved=  15.
 NSaved=15 IEnMin=14 EnMin= -632.145595946520     IErMin=15 ErrMin= 9.53D-08
 ErrMax= 9.53D-08  0.00D+00 EMaxC= 1.00D-01 BMatC= 1.65D-12 BMatP= 5.32D-12
 IDIUse=1 WtCom= 1.00D+00 WtEn= 0.00D+00
 Coeff-Com: -0.263D-05 0.549D-05 0.815D-05 0.903D-05-0.733D-05-0.892D-04
 Coeff-Com: -0.699D-03-0.416D-03 0.469D-02 0.784D-02-0.994D-02-0.756D-01
 Coeff-Com: -0.942D-01 0.374D+00 0.794D+00
 Coeff:     -0.263D-05 0.549D-05 0.815D-05 0.903D-05-0.733D-05-0.892D-04
 Coeff:     -0.699D-03-0.416D-03 0.469D-02 0.784D-02-0.994D-02-0.756D-01
 Coeff:     -0.942D-01 0.374D+00 0.794D+00
 Gap=     0.279 Goal=   None    Shift=    0.000
 RMSDP=1.69D-07 MaxDP=2.12D-05 DE= 3.46D-11 OVMax= 1.32D-06

 Cycle  16  Pass 1  IDiag  1:
 RMSU=  2.12D-08    CP:  6.65D-01  1.88D+00  3.78D-01  1.18D+00  1.33D+00
                    CP:  1.02D+00  1.62D+00  1.43D+00  1.27D+00  1.38D+00
                    CP:  1.10D+00  1.64D+00  1.48D+00  1.69D+00  1.18D+00
 E= -632.145595946501     Delta-E=       -0.000000000016 Rises=F Damp=F
 DIIS: error= 2.89D-08 at cycle  16 NSaved=  16.
 NSaved=16 IEnMin=14 EnMin= -632.145595946520     IErMin=16 ErrMin= 2.89D-08
 ErrMax= 2.89D-08  0.00D+00 EMaxC= 1.00D-01 BMatC= 2.05D-13 BMatP= 1.65D-12
 IDIUse=1 WtCom= 1.00D+00 WtEn= 0.00D+00
 Coeff-Com:  0.256D-06-0.609D-06 0.389D-06 0.584D-05 0.320D-04 0.240D-06
 Coeff-Com: -0.237D-03-0.359D-03 0.189D-03 0.381D-02 0.708D-02-0.139D-01
 Coeff-Com: -0.707D-01-0.596D-01 0.232D+00 0.902D+00
 Coeff:      0.256D-06-0.609D-06 0.389D-06 0.584D-05 0.320D-04 0.240D-06
 Coeff:     -0.237D-03-0.359D-03 0.189D-03 0.381D-02 0.708D-02-0.139D-01
 Coeff:     -0.707D-01-0.596D-01 0.232D+00 0.902D+00
 Gap=     0.279 Goal=   None    Shift=    0.000
 RMSDP=5.81D-08 MaxDP=7.44D-06 DE=-1.59D-11 OVMax= 5.60D-07

 Cycle  17  Pass 1  IDiag  1:
 RMSU=  6.55D-09    CP:  6.65D-01  1.88D+00  3.78D-01  1.18D+00  1.33D+00
                    CP:  1.02D+00  1.62D+00  1.43D+00  1.27D+00  1.38D+00
                    CP:  1.09D+00  1.64D+00  1.49D+00  1.80D+00  1.39D+00
                    CP:  1.27D+00
 E= -632.145595946495     Delta-E=        0.000000000007 Rises=F Damp=F
 DIIS: error= 1.46D-08 at cycle  17 NSaved=  17.
 NSaved=17 IEnMin=14 EnMin= -632.145595946520     IErMin=17 ErrMin= 1.46D-08
 ErrMax= 1.46D-08  0.00D+00 EMaxC= 1.00D-01 BMatC= 2.49D-14 BMatP= 2.05D-13
 IDIUse=1 WtCom= 1.00D+00 WtEn= 0.00D+00
 Coeff-Com:  0.249D-06-0.529D-06-0.520D-06 0.120D-05 0.116D-04 0.952D-05
 Coeff-Com:  0.546D-05-0.927D-04-0.385D-03 0.361D-03 0.312D-02 0.400D-02
 Coeff-Com: -0.142D-01-0.568D-01-0.586D-02 0.332D+00 0.738D+00
 Coeff:      0.249D-06-0.529D-06-0.520D-06 0.120D-05 0.116D-04 0.952D-05
 Coeff:      0.546D-05-0.927D-04-0.385D-03 0.361D-03 0.312D-02 0.400D-02
 Coeff:     -0.142D-01-0.568D-01-0.586D-02 0.332D+00 0.738D+00
 Gap=     0.279 Goal=   None    Shift=    0.000
 RMSDP=1.43D-08 MaxDP=1.35D-06 DE= 6.59D-12 OVMax= 1.19D-07

 Cycle  18  Pass 1  IDiag  1:
 RMSU=  1.96D-09    CP:  6.65D-01  1.88D+00  3.78D-01  1.18D+00  1.33D+00
                    CP:  1.02D+00  1.62D+00  1.43D+00  1.27D+00  1.38D+00
                    CP:  1.10D+00  1.64D+00  1.49D+00  1.82D+00  1.44D+00
                    CP:  1.34D+00  1.17D+00
 E= -632.145595946442     Delta-E=        0.000000000053 Rises=F Damp=F
 DIIS: error= 4.82D-09 at cycle  18 NSaved=  18.
 NSaved=18 IEnMin=14 EnMin= -632.145595946520     IErMin=18 ErrMin= 4.82D-09
 ErrMax= 4.82D-09  0.00D+00 EMaxC= 1.00D-01 BMatC= 2.85D-15 BMatP= 2.49D-14
 IDIUse=1 WtCom= 1.00D+00 WtEn= 0.00D+00
 Coeff-Com:  0.495D-07-0.984D-07-0.257D-06-0.497D-06-0.652D-06 0.380D-05
 Coeff-Com:  0.346D-04 0.115D-04-0.171D-03-0.378D-03 0.140D-03 0.302D-02
 Coeff-Com:  0.428D-02-0.979D-02-0.367D-01-0.196D-01 0.242D+00 0.817D+00
 Coeff:      0.495D-07-0.984D-07-0.257D-06-0.497D-06-0.652D-06 0.380D-05
 Coeff:      0.346D-04 0.115D-04-0.171D-03-0.378D-03 0.140D-03 0.302D-02
 Coeff:      0.428D-02-0.979D-02-0.367D-01-0.196D-01 0.242D+00 0.817D+00
 Gap=     0.279 Goal=   None    Shift=    0.000
 RMSDP=3.43D-09 MaxDP=2.51D-07 DE= 5.30D-11 OVMax= 4.68D-08

 SCF Done:  E(RwB97XD) =  -632.145595946     A.U. after   18 cycles
            NFock= 18  Conv=0.34D-08     -V/T= 2.0047
 KE= 6.292153288526D+02 PE=-3.141840519499D+03 EE= 1.046325333951D+03
 Leave Link  502 at Thu Nov  2 21:58:25 2017, MaxMem=  3758096384 cpu:      2823.8
 (Enter /share/apps/gaussian/g09_D01/g09/l801.exe)
 DoSCS=F DFT=T ScalE2(SS,OS)=  1.000000  1.000000
 ExpMin= 3.60D-02 ExpMax= 8.59D+03 ExpMxC= 1.30D+03 IAcc=3 IRadAn=         5 AccDes= 0.00D+00
 HarFok:  IExCor=  205 AccDes= 0.00D+00 IRadAn=         5 IDoV=-2 UseB2=F ITyADJ=14
 ICtDFT= 12500011 ScaDFX=  1.000000  1.000000  1.000000  1.000000
 Largest valence mixing into a core orbital is  5.73D-05
 Largest core mixing into a valence orbital is  1.49D-05
 Range of M.O.s used for correlation:    15   397
 NBasis=   399 NAE=    51 NBE=    51 NFC=    14 NFV=     0
 NROrb=    383 NOA=    37 NOB=    37 NVA=   346 NVB=   346

 **** Warning!!: The largest alpha MO coefficient is  0.15576669D+03

 Leave Link  801 at Thu Nov  2 21:58:28 2017, MaxMem=  3758096384 cpu:         6.8
 (Enter /share/apps/gaussian/g09_D01/g09/l914.exe)
 RHF ground state
 MDV=  3758096384 DFT=T DoStab=F Mixed=T DoRPA=T DoScal=F NonHer=T
 Would need an additional         15405800000 words for in-memory AO integral storage.
 Making orbital integer symmetry assigments:
    16 initial guesses have been made.
 Convergence on wavefunction:    0.001000000000000
 Davidson Disk Diagonalization:  ConvIn= 1.00D-03 SkipCon=T Conv= 1.00D-03.
 Max sub-space:   200 roots to seek:    16 dimension of matrix:        25604
 Iteration     1 Dimension    16 NMult     0 NNew     16
 CISAX will form    16 AO SS matrices at one time.
 NMat=    16 NSing=    16 JSym2X= 0.
 FoFJK:  IHMeth= 1 ICntrl=       0 DoSepK=T KAlg= 0 I1Cent=   0 FoldK=F
 IRaf=         1 NMat=  32 IRICut=       1 DoRegI=T DoRafI=F ISym2E= 0.
 FoFCou: FMM=F IPFlag=           0 FMFlag=      100000 FMFlg1=           0
         NFxFlg=           0 DoJE=F BraDBF=F KetDBF=F FulRan=T
         wScrn=  0.000000 ICntrl=     500 IOpCl=  0 I1Cent=           0 NGrid=           0
         NMat0=   16 NMatS0=     16 NMatT0=    0 NMatD0=   16 NMtDS0=    0 NMtDT0=    0
 Symmetry not used in FoFCou.
 New state      1 was old state      7
 New state      2 was old state      1
 New state      3 was old state      2
 New state      4 was old state      3
 Excitation Energies [eV] at current iteration:
 Root      1 :     4.425233755091508
 Root      2 :     4.499879994772519
 Root      3 :     5.221252692245957
 Root      4 :     5.804413036036205
 Root      5 :     5.992025378521042
 Root      6 :     6.158797779661418
 Root      7 :     6.447833520934561
 Root      8 :     6.630244836910460
 Root      9 :     6.650959150616803
 Root     10 :     6.786814146026130
 Root     11 :     6.905810847538277
 Root     12 :     7.083567153331132
 Root     13 :     7.333813798895759
 Root     14 :     7.549100020468861
 Root     15 :     7.599688734576837
 Root     16 :     7.876059107726826
 Iteration     2 Dimension    24 NMult    16 NNew      8
 CISAX will form     8 AO SS matrices at one time.
 NMat=     8 NSing=     8 JSym2X= 0.
 Root      1 not converged, maximum delta is    0.463061736154575
 Root      2 not converged, maximum delta is    0.422640300763267
 Root      3 not converged, maximum delta is    0.063486932978934
 Root      4 not converged, maximum delta is    0.068923513521892
 Excitation Energies [eV] at current iteration:
 Root      1 :     3.931460208233784   Change is   -0.493773546857725
 Root      2 :     4.167820133812535   Change is   -0.332059860959983
 Root      3 :     4.526589691879380   Change is   -0.694663000366578
 Root      4 :     5.533676665041603   Change is   -0.270736370994601
 Iteration     3 Dimension    32 NMult    24 NNew      8
 CISAX will form     8 AO SS matrices at one time.
 NMat=     8 NSing=     8 JSym2X= 0.
 Root      1 not converged, maximum delta is    0.025943380394807
 Root      2 not converged, maximum delta is    0.012305724023773
 Root      3 not converged, maximum delta is    0.033865616092639
 Root      4 not converged, maximum delta is    0.037957074617053
 Excitation Energies [eV] at current iteration:
 Root      1 :     3.887206030064152   Change is   -0.044254178169631
 Root      2 :     4.150998866218799   Change is   -0.016821267593736
 Root      3 :     4.470477728137327   Change is   -0.056111963742053
 Root      4 :     5.495172958580516   Change is   -0.038503706461087
 Iteration     4 Dimension    40 NMult    32 NNew      8
 CISAX will form     8 AO SS matrices at one time.
 NMat=     8 NSing=     8 JSym2X= 0.
 Root      1 not converged, maximum delta is    0.011712246025067
 Root      2 not converged, maximum delta is    0.004794533061429
 Root      3 not converged, maximum delta is    0.009183324129318
 Root      4 not converged, maximum delta is    0.059362234931143
 Excitation Energies [eV] at current iteration:
 Root      1 :     3.878575654370434   Change is   -0.008630375693719
 Root      2 :     4.149253065078143   Change is   -0.001745801140656
 Root      3 :     4.460591794782656   Change is   -0.009885933354672
 Root      4 :     5.487421871244667   Change is   -0.007751087335849
 Iteration     5 Dimension    48 NMult    40 NNew      8
 CISAX will form     8 AO SS matrices at one time.
 NMat=     8 NSing=     8 JSym2X= 0.
 Root      1 not converged, maximum delta is    0.003191231295976
 Root      2 not converged, maximum delta is    0.001914092631385
 Root      3 not converged, maximum delta is    0.004866805474893
 Root      4 not converged, maximum delta is    0.493214821075330
 Excitation Energies [eV] at current iteration:
 Root      1 :     3.877573755157066   Change is   -0.001001899213367
 Root      2 :     4.149046546905570   Change is   -0.000206518172573
 Root      3 :     4.459467683515800   Change is   -0.001124111266855
 Root      4 :     5.325585105083927   Change is   -0.161836766160740
 Iteration     6 Dimension    56 NMult    48 NNew      8
 CISAX will form     8 AO SS matrices at one time.
 NMat=     8 NSing=     8 JSym2X= 0.
 Root      1 has converged.
 Root      2 has converged.
 Root      3 not converged, maximum delta is    0.001253197762302
 Root      4 not converged, maximum delta is    0.047335933910195
 Excitation Energies [eV] at current iteration:
 Root      1 :     3.877494228606738   Change is   -0.000079526550329
 Root      2 :     4.149028970061578   Change is   -0.000017576843992
 Root      3 :     4.459346074109158   Change is   -0.000121609406643
 Root      4 :     5.216198106695680   Change is   -0.109386998388246
 Iteration     7 Dimension    60 NMult    56 NNew      4
 CISAX will form     4 AO SS matrices at one time.
 NMat=     4 NSing=     4 JSym2X= 0.
 Root      1 has converged.
 Root      2 has converged.
 Root      3 has converged.
 Root      4 not converged, maximum delta is    0.020457664708213
 Excitation Energies [eV] at current iteration:
 Root      1 :     3.877491027593927   Change is   -0.000003201012810
 Root      2 :     4.149028657531763   Change is   -0.000000312529815
 Root      3 :     4.459334251446379   Change is   -0.000011822662779
 Root      4 :     5.195504876668190   Change is   -0.020693230027490
 Iteration     8 Dimension    62 NMult    60 NNew      2
 CISAX will form     2 AO SS matrices at one time.
 NMat=     2 NSing=     2 JSym2X= 0.
 Root      1 has converged.
 Root      2 has converged.
 Root      3 has converged.
 Root      4 not converged, maximum delta is    0.005510767118056
 Excitation Energies [eV] at current iteration:
 Root      1 :     3.877490870495191   Change is   -0.000000157098736
 Root      2 :     4.149028655773676   Change is   -0.000000001758087
 Root      3 :     4.459334030671327   Change is   -0.000000220775052
 Root      4 :     5.193138760746193   Change is   -0.002366115921996
 Iteration     9 Dimension    64 NMult    62 NNew      2
 CISAX will form     2 AO SS matrices at one time.
 NMat=     2 NSing=     2 JSym2X= 0.
 Root      1 has converged.
 Root      2 has converged.
 Root      3 has converged.
 Root      4 not converged, maximum delta is    0.001853994384429
 Excitation Energies [eV] at current iteration:
 Root      1 :     3.877490811025047   Change is   -0.000000059470144
 Root      2 :     4.149028653445014   Change is   -0.000000002328662
 Root      3 :     4.459333975880725   Change is   -0.000000054790602
 Root      4 :     5.192866183343770   Change is   -0.000272577402424
 Iteration    10 Dimension    66 NMult    64 NNew      2
 CISAX will form     2 AO SS matrices at one time.
 NMat=     2 NSing=     2 JSym2X= 0.
 Root      1 has converged.
 Root      2 has converged.
 Root      3 has converged.
 Root      4 has converged.
 Excitation Energies [eV] at current iteration:
 Root      1 :     3.877490704051908   Change is   -0.000000106973139
 Root      2 :     4.149028644516773   Change is   -0.000000008928241
 Root      3 :     4.459333970862387   Change is   -0.000000005018338
 Root      4 :     5.192832754604087   Change is   -0.000033428739683
 Convergence achieved on expansion vectors.
 ***********************************************************************
 Excited states from <AA,BB:AA,BB> singles matrix:
 ***********************************************************************
 
 1PDM for each excited state written to RWF  633
 Ground to excited state transition densities written to RWF  633
 Ground to excited state transition electric dipole moments (Au):
       state          X           Y           Z        Dip. S.      Osc.
         1        -1.9251      1.0563     -0.1290      4.8384      0.4596
         2         0.1458     -0.0560      0.0032      0.0244      0.0025
         3        -1.4999      0.6959      0.0017      2.7339      0.2987
         4         0.2223      0.1259     -0.4615      0.2782      0.0354
 Ground to excited state transition velocity dipole moments (Au):
       state          X           Y           Z        Dip. S.      Osc.
         1         0.2728     -0.1522      0.0224      0.0981      0.4591
         2        -0.0217      0.0083     -0.0014      0.0005      0.0024
         3         0.2411     -0.1105     -0.0035      0.0703      0.2861
         4        -0.0339     -0.0273      0.0854      0.0092      0.0321
 Ground to excited state transition magnetic dipole moments (Au):
       state          X           Y           Z
         1        -1.0456     -1.5543      1.7870
         2         0.0098     -0.0790      0.2529
         3         0.0532      0.0451      2.4715
         4        -1.3452     -1.0479     -0.8821
 Ground to excited state transition velocity quadrupole moments (Au):
       state          XX          YY          ZZ          XY          XZ          YZ
         1         5.9384      4.1531     -0.0583     -5.3670     -0.6592      0.1120
         2        -0.5583     -0.2489     -0.0135      0.4659      0.0323     -0.0201
         3         3.9750      2.5173      0.2598     -3.6339     -1.1610      0.4320
         4        -1.3336      0.6335     -0.5102      0.4058      1.1193     -1.1121
 <0|del|b> * <b|rxdel|0> + <0|del|b> * <b|delr+rdel|0>
 Rotatory Strengths (R) in cgs (10**-40 erg-esu-cm/Gauss)
       state          XX          YY          ZZ    R(velocity)    E-M Angle
         1       138.8349   -233.7807     52.5326    -14.1377       90.60
         2        -4.4341      1.1970     -2.4040     -1.8804      101.35
         3      -278.8491    206.8159     68.9815     -1.0172       90.06
         4        34.0799    -49.2738     11.0457     -1.3827       90.35
 1/2[<0|r|b>*<b|rxdel|0> + (<0|rxdel|b>*<b|r|0>)*]
 Rotatory Strengths (R) in cgs (10**-40 erg-esu-cm/Gauss)
       state          XX          YY          ZZ     R(length)
         1     -1423.4145   1161.0452    163.0255    -33.1146
         2        -1.0142     -3.1271     -0.5687     -1.5700
         3        56.4280    -22.2177     -3.0400     10.3901
         4       211.5023     93.2865   -287.8464      5.6475
  1/2[<0|del|b>*<b|r|0> + (<0|r|b>*<b|del|0>)*] (Au)
       state          X           Y           Z        Dip. S.   Osc.(frdel)
         1        -0.5252     -0.1608     -0.0029      0.6890      0.4593
         2        -0.0032     -0.0005      0.0000      0.0036      0.0024
         3        -0.3616     -0.0769      0.0000      0.4385      0.2923
         4        -0.0075     -0.0034     -0.0394      0.0504      0.0336

 Excitation energies and oscillator strengths:
 
 Excited state symmetry could not be determined.
 Excited State   1:      Singlet-?Sym    3.8775 eV  319.75 nm  f=0.4596  <S**2>=0.000
      51 -> 52         0.67838
 This state for optimization and/or second-order correction.
 Total Energy, E(TD-HF/TD-KS) =  -632.003100779    
 Copying the excited state density for this state as the 1-particle RhoCI density.
 
 Excited state symmetry could not be determined.
 Excited State   2:      Singlet-?Sym    4.1490 eV  298.83 nm  f=0.0025  <S**2>=0.000
      48 -> 52         0.67038
      49 -> 52         0.11288
 
 Excited state symmetry could not be determined.
 Excited State   3:      Singlet-?Sym    4.4593 eV  278.03 nm  f=0.2987  <S**2>=0.000
      50 -> 52         0.67670
 
 Excited state symmetry could not be determined.
 Excited State   4:      Singlet-?Sym    5.1928 eV  238.76 nm  f=0.0354  <S**2>=0.000
      49 -> 52         0.56300
      50 -> 58         0.13542
      51 -> 57        -0.10762
      51 -> 58        -0.24061
      51 -> 62        -0.14746
 SavETr:  write IOETrn=   770 NScale= 10 NData=  16 NLR=1 NState=    4 LETran=      82.
 Leave Link  914 at Thu Nov  2 22:37:22 2017, MaxMem=  3758096384 cpu:      7142.5
 (Enter /share/apps/gaussian/g09_D01/g09/l601.exe)
 Copying SCF densities to generalized density rwf, IOpCl= 0 IROHF=0.

 **********************************************************************

            Population analysis using the SCF density.

 **********************************************************************

 Alpha  occ. eigenvalues --  -19.23445 -19.22396 -14.50205 -10.37674 -10.35914
 Alpha  occ. eigenvalues --  -10.34869 -10.34828 -10.34597 -10.29595 -10.29359
 Alpha  occ. eigenvalues --  -10.29203 -10.28082 -10.27984 -10.27764  -1.14067
 Alpha  occ. eigenvalues --   -1.10295  -1.09651  -0.95047  -0.89882  -0.86156
 Alpha  occ. eigenvalues --   -0.85794  -0.83059  -0.80827  -0.73387  -0.70014
 Alpha  occ. eigenvalues --   -0.68172  -0.65480  -0.63094  -0.59465  -0.59326
 Alpha  occ. eigenvalues --   -0.58980  -0.58288  -0.55006  -0.53116  -0.52335
 Alpha  occ. eigenvalues --   -0.51936  -0.51213  -0.50690  -0.50381  -0.50088
 Alpha  occ. eigenvalues --   -0.46935  -0.46370  -0.45879  -0.44887  -0.42276
 Alpha  occ. eigenvalues --   -0.41733  -0.41258  -0.33601  -0.33313  -0.30296
 Alpha  occ. eigenvalues --   -0.28276
 Alpha virt. eigenvalues --   -0.00414   0.02393   0.04001   0.04914   0.05360
 Alpha virt. eigenvalues --    0.05849   0.05964   0.06547   0.07546   0.07734
 Alpha virt. eigenvalues --    0.08085   0.08224   0.08278   0.09962   0.10248
 Alpha virt. eigenvalues --    0.11737   0.12094   0.12500   0.13027   0.13329
 Alpha virt. eigenvalues --    0.13530   0.14377   0.15048   0.15264   0.15855
 Alpha virt. eigenvalues --    0.16143   0.16321   0.16560   0.16862   0.17306
 Alpha virt. eigenvalues --    0.17430   0.17869   0.18311   0.18454   0.19110
 Alpha virt. eigenvalues --    0.19469   0.19855   0.20351   0.20613   0.21329
 Alpha virt. eigenvalues --    0.21654   0.21855   0.22206   0.22834   0.23077
 Alpha virt. eigenvalues --    0.23742   0.24150   0.24410   0.25510   0.25690
 Alpha virt. eigenvalues --    0.25849   0.26416   0.26659   0.27279   0.27698
 Alpha virt. eigenvalues --    0.27909   0.28216   0.28841   0.29428   0.29978
 Alpha virt. eigenvalues --    0.30398   0.30454   0.31635   0.32029   0.32700
 Alpha virt. eigenvalues --    0.33140   0.33534   0.34470   0.34701   0.35473
 Alpha virt. eigenvalues --    0.35769   0.36484   0.36746   0.37693   0.37826
 Alpha virt. eigenvalues --    0.38321   0.38563   0.39216   0.39724   0.40518
 Alpha virt. eigenvalues --    0.40788   0.41208   0.42198   0.42865   0.43163
 Alpha virt. eigenvalues --    0.43798   0.44380   0.45400   0.46549   0.48297
 Alpha virt. eigenvalues --    0.48344   0.49672   0.50083   0.51245   0.52080
 Alpha virt. eigenvalues --    0.52861   0.54539   0.56121   0.57246   0.59105
 Alpha virt. eigenvalues --    0.60500   0.62345   0.62746   0.63163   0.63765
 Alpha virt. eigenvalues --    0.64122   0.64841   0.65336   0.66108   0.67053
 Alpha virt. eigenvalues --    0.67570   0.68678   0.68772   0.69498   0.69855
 Alpha virt. eigenvalues --    0.70387   0.70799   0.71497   0.72062   0.73398
 Alpha virt. eigenvalues --    0.74997   0.75683   0.75788   0.76684   0.77458
 Alpha virt. eigenvalues --    0.78137   0.79636   0.80259   0.80646   0.81599
 Alpha virt. eigenvalues --    0.82924   0.84310   0.85468   0.85806   0.86654
 Alpha virt. eigenvalues --    0.90125   0.91507   0.93824   0.94392   0.94549
 Alpha virt. eigenvalues --    0.95488   0.96195   0.97671   0.98256   0.98583
 Alpha virt. eigenvalues --    1.00244   1.01342   1.03373   1.04194   1.04714
 Alpha virt. eigenvalues --    1.07120   1.08276   1.08354   1.09493   1.10079
 Alpha virt. eigenvalues --    1.11717   1.12780   1.13701   1.15172   1.15974
 Alpha virt. eigenvalues --    1.17732   1.18580   1.18877   1.20562   1.20981
 Alpha virt. eigenvalues --    1.22000   1.23516   1.29506   1.31986   1.32589
 Alpha virt. eigenvalues --    1.34880   1.35302   1.37363   1.38575   1.40335
 Alpha virt. eigenvalues --    1.41359   1.43897   1.48583   1.49535   1.50199
 Alpha virt. eigenvalues --    1.53859   1.55372   1.56115   1.57272   1.58940
 Alpha virt. eigenvalues --    1.59275   1.60505   1.61539   1.62315   1.63534
 Alpha virt. eigenvalues --    1.64216   1.65082   1.65631   1.66135   1.66486
 Alpha virt. eigenvalues --    1.69471   1.71567   1.71958   1.73941   1.74165
 Alpha virt. eigenvalues --    1.75203   1.76077   1.78088   1.80272   1.81397
 Alpha virt. eigenvalues --    1.82026   1.83000   1.83610   1.83779   1.85597
 Alpha virt. eigenvalues --    1.87170   1.88428   1.91158   1.91319   1.95995
 Alpha virt. eigenvalues --    1.98016   1.99110   2.00071   2.01196   2.01493
 Alpha virt. eigenvalues --    2.01993   2.04334   2.04626   2.05984   2.07191
 Alpha virt. eigenvalues --    2.07602   2.08859   2.09763   2.11293   2.14025
 Alpha virt. eigenvalues --    2.14859   2.16929   2.19711   2.21203   2.22846
 Alpha virt. eigenvalues --    2.23213   2.24964   2.26836   2.30202   2.35218
 Alpha virt. eigenvalues --    2.37494   2.39108   2.42169   2.45157   2.45604
 Alpha virt. eigenvalues --    2.46837   2.50019   2.51586   2.53765   2.54790
 Alpha virt. eigenvalues --    2.56767   2.57290   2.59111   2.60249   2.61386
 Alpha virt. eigenvalues --    2.64335   2.65284   2.68382   2.70460   2.70769
 Alpha virt. eigenvalues --    2.73552   2.74542   2.76205   2.79828   2.80627
 Alpha virt. eigenvalues --    2.81468   2.83493   2.83866   2.84576   2.85248
 Alpha virt. eigenvalues --    2.86107   2.86630   2.87990   2.90184   2.91712
 Alpha virt. eigenvalues --    2.93574   2.94896   2.95315   2.97818   2.98333
 Alpha virt. eigenvalues --    2.99092   3.00403   3.04561   3.06355   3.09839
 Alpha virt. eigenvalues --    3.12409   3.15667   3.19086   3.20573   3.21795
 Alpha virt. eigenvalues --    3.22562   3.28375   3.30939   3.31295   3.34798
 Alpha virt. eigenvalues --    3.38329   3.39965   3.46918   3.50031   3.54063
 Alpha virt. eigenvalues --    3.57700   3.62098   3.63333   3.66886   3.67307
 Alpha virt. eigenvalues --    3.70582   3.73853   3.77648   3.79368   3.80413
 Alpha virt. eigenvalues --    3.84150   3.88054   3.91030   3.92193   4.02521
 Alpha virt. eigenvalues --    4.08243   4.12353   4.14146   4.17796   4.28995
 Alpha virt. eigenvalues --    4.31186   4.40421   4.64098   4.93807   4.95030
 Alpha virt. eigenvalues --    5.15976   5.17269   5.19167   5.37690   5.66131
 Alpha virt. eigenvalues --    5.84480   5.97114  23.72793  23.91698  24.01872
 Alpha virt. eigenvalues --   24.03693  24.04288  24.05769  24.08280  24.14978
 Alpha virt. eigenvalues --   24.22714  24.23925  24.31311  35.68744  50.14329
 Alpha virt. eigenvalues --   50.18470
          Condensed to atoms (all electrons):
               1          2          3          4          5          6
     1  H    0.555372   0.405724  -0.020129  -0.064477  -0.044502  -0.060338
     2  C    0.405724   5.209955   0.412364   0.398415   0.270463   0.037103
     3  H   -0.020129   0.412364   0.526867  -0.030291  -0.087188   0.073286
     4  H   -0.064477   0.398415  -0.030291   0.559223  -0.053608  -0.023758
     5  N   -0.044502   0.270463  -0.087188  -0.053608   6.837394   0.281576
     6  C   -0.060338   0.037103   0.073286  -0.023758   0.281576  18.033456
     7  C   -0.011383  -0.078379  -0.004696   0.018110   0.214516  -0.173721
     8  C    0.051176  -0.197456  -0.053256   0.022745  -0.313244  -7.742107
     9  H    0.000900  -0.043807  -0.006919   0.003744  -0.068605   0.358771
    10  H   -0.003128   0.005773  -0.002129   0.002619  -0.043397   0.079873
    11  H   -0.004601   0.009624   0.003532  -0.003961  -0.057501   0.026813
    12  H    0.003775  -0.003750  -0.001664  -0.001247  -0.039718  -0.050718
    13  C    0.003506  -0.117991   0.020477  -0.006196  -0.007766  -4.277628
    14  H    0.001887  -0.009292  -0.001260  -0.000209  -0.033330  -0.104005
    15  C   -0.001445   0.029352   0.021976  -0.003516   0.001671   2.052486
    16  O    0.000045   0.001069   0.001678  -0.000161   0.003472   0.247806
    17  C   -0.000064  -0.000610   0.004544  -0.000604   0.000158  -1.038387
    18  C    0.001418  -0.016339  -0.004666   0.000322  -0.000835  -1.325597
    19  H    0.000067  -0.000016   0.000076  -0.000012   0.000094  -0.029023
    20  C   -0.000169   0.000050   0.000707  -0.000020   0.001832   0.250553
    21  O    0.000007   0.000290  -0.000025  -0.000003  -0.000079   0.034961
    22  C    0.000416  -0.001007  -0.001145   0.000081  -0.003276  -0.686238
    23  H   -0.000210  -0.001879   0.000311   0.000056  -0.003564  -0.092024
    24  C    0.000050  -0.000482  -0.000012  -0.000030  -0.000156  -0.174429
    25  H   -0.000001   0.000014   0.000007   0.000000   0.000006   0.002187
    26  H    0.000003   0.000084   0.000001   0.000002   0.000087   0.004350
    27  H    0.000001  -0.000001   0.000000   0.000000  -0.000012  -0.001942
               7          8          9         10         11         12
     1  H   -0.011383   0.051176   0.000900  -0.003128  -0.004601   0.003775
     2  C   -0.078379  -0.197456  -0.043807   0.005773   0.009624  -0.003750
     3  H   -0.004696  -0.053256  -0.006919  -0.002129   0.003532  -0.001664
     4  H    0.018110   0.022745   0.003744   0.002619  -0.003961  -0.001247
     5  N    0.214516  -0.313244  -0.068605  -0.043397  -0.057501  -0.039718
     6  C   -0.173721  -7.742107   0.358771   0.079873   0.026813  -0.050718
     7  C    5.275976   0.596013   0.005873   0.412618   0.394755   0.410311
     8  C    0.596013  29.398000   0.016008  -0.068010   0.025502   0.000817
     9  H    0.005873   0.016008   0.463784   0.003768  -0.001310  -0.002044
    10  H    0.412618  -0.068010   0.003768   0.533930  -0.025762  -0.040150
    11  H    0.394755   0.025502  -0.001310  -0.025762   0.508718  -0.026924
    12  H    0.410311   0.000817  -0.002044  -0.040150  -0.026924   0.502052
    13  C   -0.325367   1.269077   0.102914  -0.027065  -0.023821   0.025720
    14  H    0.023507   0.993653   0.003291  -0.003680   0.000695  -0.000006
    15  C   -0.286580 -12.563912  -0.059657  -0.004136  -0.007523   0.008198
    16  O   -0.003218  -0.500176   0.005718   0.001039  -0.000071   0.000111
    17  C   -0.021681  -2.397491  -0.047765  -0.003285  -0.000076  -0.000573
    18  C   -0.008937  -1.350465   0.029877  -0.000143  -0.004627   0.005190
    19  H   -0.001123   0.009465   0.000637   0.000016  -0.000113   0.000085
    20  C   -0.004473  -1.193609  -0.000229  -0.001051   0.000026  -0.000042
    21  O   -0.000206  -0.069753   0.000143   0.000113  -0.000012   0.000035
    22  C    0.019917   0.794435   0.001271   0.001278   0.000066  -0.000192
    23  H   -0.003597  -0.281279   0.001128  -0.000775   0.000004  -0.001830
    24  C   -0.002595  -0.363769  -0.000457   0.000521  -0.000194   0.000393
    25  H   -0.000007  -0.007013  -0.000202  -0.000025   0.000002  -0.000006
    26  H   -0.000105   0.010723  -0.000166  -0.000132  -0.000012   0.000055
    27  H   -0.000066  -0.006716   0.000020   0.000038  -0.000004   0.000008
              13         14         15         16         17         18
     1  H    0.003506   0.001887  -0.001445   0.000045  -0.000064   0.001418
     2  C   -0.117991  -0.009292   0.029352   0.001069  -0.000610  -0.016339
     3  H    0.020477  -0.001260   0.021976   0.001678   0.004544  -0.004666
     4  H   -0.006196  -0.000209  -0.003516  -0.000161  -0.000604   0.000322
     5  N   -0.007766  -0.033330   0.001671   0.003472   0.000158  -0.000835
     6  C   -4.277628  -0.104005   2.052486   0.247806  -1.038387  -1.325597
     7  C   -0.325367   0.023507  -0.286580  -0.003218  -0.021681  -0.008937
     8  C    1.269077   0.993653 -12.563912  -0.500176  -2.397491  -1.350465
     9  H    0.102914   0.003291  -0.059657   0.005718  -0.047765   0.029877
    10  H   -0.027065  -0.003680  -0.004136   0.001039  -0.003285  -0.000143
    11  H   -0.023821   0.000695  -0.007523  -0.000071  -0.000076  -0.004627
    12  H    0.025720  -0.000006   0.008198   0.000111  -0.000573   0.005190
    13  C   21.200282  -0.083896  -6.468126   0.863700  -0.284864  -2.315553
    14  H   -0.083896   0.766364  -0.388255  -0.011536   0.045317  -0.188235
    15  C   -6.468126  -0.388255  26.544755  -0.092678  -1.629000  -0.062431
    16  O    0.863700  -0.011536  -0.092678   8.159150  -0.120261  -0.196396
    17  C   -0.284864   0.045317  -1.629000  -0.120261  19.897023  -6.796609
    18  C   -2.315553  -0.188235  -0.062431  -0.196396  -6.796609  17.676369
    19  H    0.073261  -0.001620  -0.137823   0.088025   0.001228   0.037251
    20  C   -4.583068  -0.025647   1.015280  -0.074642  -3.808547   4.227008
    21  O   -0.214072  -0.002706   0.225800   0.018584   0.316927  -0.007735
    22  C    2.388399  -0.009492  -4.134025  -0.005570   1.941109  -2.631770
    23  H   -0.053449  -0.052335   0.080174  -0.002100  -0.048525   0.839434
    24  C   -0.269327  -0.012972  -0.173562  -0.020613  -0.108204  -0.519473
    25  H   -0.059342   0.000386  -0.039666   0.000421  -0.191986   0.065791
    26  H    0.009085   0.005179   0.019695   0.000632   0.046925  -0.108042
    27  H    0.006486  -0.001481   0.080467  -0.000325   0.023888  -0.049818
              19         20         21         22         23         24
     1  H    0.000067  -0.000169   0.000007   0.000416  -0.000210   0.000050
     2  C   -0.000016   0.000050   0.000290  -0.001007  -0.001879  -0.000482
     3  H    0.000076   0.000707  -0.000025  -0.001145   0.000311  -0.000012
     4  H   -0.000012  -0.000020  -0.000003   0.000081   0.000056  -0.000030
     5  N    0.000094   0.001832  -0.000079  -0.003276  -0.003564  -0.000156
     6  C   -0.029023   0.250553   0.034961  -0.686238  -0.092024  -0.174429
     7  C   -0.001123  -0.004473  -0.000206   0.019917  -0.003597  -0.002595
     8  C    0.009465  -1.193609  -0.069753   0.794435  -0.281279  -0.363769
     9  H    0.000637  -0.000229   0.000143   0.001271   0.001128  -0.000457
    10  H    0.000016  -0.001051   0.000113   0.001278  -0.000775   0.000521
    11  H   -0.000113   0.000026  -0.000012   0.000066   0.000004  -0.000194
    12  H    0.000085  -0.000042   0.000035  -0.000192  -0.001830   0.000393
    13  C    0.073261  -4.583068  -0.214072   2.388399  -0.053449  -0.269327
    14  H   -0.001620  -0.025647  -0.002706  -0.009492  -0.052335  -0.012972
    15  C   -0.137823   1.015280   0.225800  -4.134025   0.080174  -0.173562
    16  O    0.088025  -0.074642   0.018584  -0.005570  -0.002100  -0.020613
    17  C    0.001228  -3.808547   0.316927   1.941109  -0.048525  -0.108204
    18  C    0.037251   4.227008  -0.007735  -2.631770   0.839434  -0.519473
    19  H    0.273611   0.026559   0.226159   0.019038   0.001827  -0.003951
    20  C    0.026559  11.802197  -0.314540  -1.895210   0.116057   0.472632
    21  O    0.226159  -0.314540   8.163995  -0.014972  -0.001212   0.020637
    22  C    0.019038  -1.895210  -0.014972   9.989206  -0.196659   0.785053
    23  H    0.001827   0.116057  -0.001212  -0.196659   0.611308   0.023752
    24  C   -0.003951   0.472632   0.020637   0.785053   0.023752   6.302648
    25  H    0.000881   0.609332  -0.022160  -0.026774   0.000465  -0.017023
    26  H    0.000287  -0.003295   0.000067   0.404073  -0.023424  -0.061983
    27  H   -0.000228  -0.081122   0.000991  -0.063005   0.002445   0.422304
              25         26         27
     1  H   -0.000001   0.000003   0.000001
     2  C    0.000014   0.000084  -0.000001
     3  H    0.000007   0.000001   0.000000
     4  H    0.000000   0.000002   0.000000
     5  N    0.000006   0.000087  -0.000012
     6  C    0.002187   0.004350  -0.001942
     7  C   -0.000007  -0.000105  -0.000066
     8  C   -0.007013   0.010723  -0.006716
     9  H   -0.000202  -0.000166   0.000020
    10  H   -0.000025  -0.000132   0.000038
    11  H    0.000002  -0.000012  -0.000004
    12  H   -0.000006   0.000055   0.000008
    13  C   -0.059342   0.009085   0.006486
    14  H    0.000386   0.005179  -0.001481
    15  C   -0.039666   0.019695   0.080467
    16  O    0.000421   0.000632  -0.000325
    17  C   -0.191986   0.046925   0.023888
    18  C    0.065791  -0.108042  -0.049818
    19  H    0.000881   0.000287  -0.000228
    20  C    0.609332  -0.003295  -0.081122
    21  O   -0.022160   0.000067   0.000991
    22  C   -0.026774   0.404073  -0.063005
    23  H    0.000465  -0.023424   0.002445
    24  C   -0.017023  -0.061983   0.422304
    25  H    0.462510   0.000871  -0.010260
    26  H    0.000871   0.489204  -0.011370
    27  H   -0.010260  -0.011370   0.485723
 Mulliken charges:
               1
     1  H    0.186102
     2  C   -0.309269
     3  H    0.147555
     4  H    0.182776
     5  N    0.145510
     6  C    0.296696
     7  C   -0.445465
     8  C   -0.079357
     9  H    0.233312
    10  H    0.181282
    11  H    0.186777
    12  H    0.212113
    13  C   -0.845376
    14  H    0.089679
    15  C    1.972479
    16  O   -0.363702
    17  C    0.221413
    18  C   -1.294986
    19  H    0.415345
    20  C   -0.536572
    21  O   -0.361234
    22  C   -0.675006
    23  H    0.085901
    24  C   -0.298757
    25  H    0.231590
    26  H    0.217210
    27  H    0.203983
 Sum of Mulliken charges =   0.00000
 Mulliken charges with hydrogens summed into heavy atoms:
               1
     2  C    0.207165
     5  N    0.145510
     6  C    0.530008
     7  C    0.134707
     8  C    0.010322
    13  C   -0.845376
    15  C    1.972479
    16  O   -0.363702
    17  C    0.221413
    18  C   -1.209085
    20  C   -0.304981
    21  O    0.054111
    22  C   -0.457796
    24  C   -0.094774
 Electronic spatial extent (au):  <R**2>=          35766.8497
 Charge=              0.0000 electrons
 Dipole moment (field-independent basis, Debye):
    X=             -5.6806    Y=              4.7519    Z=             -3.5966  Tot=              8.2332
 Quadrupole moment (field-independent basis, Debye-Ang):
   XX=           -125.5108   YY=           -151.6478   ZZ=            -72.6758
   XY=             56.9853   XZ=            -15.4007   YZ=             19.1264
 Traceless Quadrupole moment (field-independent basis, Debye-Ang):
   XX=             -8.8993   YY=            -35.0363   ZZ=             43.9357
   XY=             56.9853   XZ=            -15.4007   YZ=             19.1264
 Octapole moment (field-independent basis, Debye-Ang**2):
  XXX=          -1683.2319  YYY=           2546.8087  ZZZ=            405.8711  XYY=          -1036.4631
  XXY=            961.0859  XXZ=             36.8089  XZZ=           -436.3933  YZZ=            548.1379
  YYZ=             50.2333  XYZ=             98.2533
 Hexadecapole moment (field-independent basis, Debye-Ang**3):
 XXXX=         -21232.0398 YYYY=         -34273.6243 ZZZZ=          -2197.2396 XXXY=          12944.8568
 XXXZ=           1676.4899 YYYX=          16459.9750 YYYZ=          -2626.7922 ZZZX=           2519.1009
 ZZZY=          -2909.0424 XXYY=         -11121.6607 XXZZ=          -3443.8287 YYZZ=          -4666.0062
 XXYZ=           -187.4806 YYXZ=            284.8162 ZZXY=           3494.2024
 N-N= 8.341542607488D+02 E-N=-3.141840519693D+03  KE= 6.292153288526D+02
 Leave Link  601 at Thu Nov  2 22:37:28 2017, MaxMem=  3758096384 cpu:         2.4
 (Enter /share/apps/gaussian/g09_D01/g09/l9999.exe)
 1\1\GINC-SM2\SP\RwB97XD TD-FC\6-311++G(d,p)\C11H13N1O2\BTX008\02-Nov-2
 017\0\\#p wb97xd 6-311++G** td=(nstates=4) nosymm\\Title\\0,1\H,0,0.43
 3308,-5.648799,-1.480377\C,0,1.319203,-5.182804,-1.020786\H,0,1.431529
 ,-5.542138,0.007956\H,0,1.185153,-4.090391,-1.009865\N,0,2.502652,-5.5
 31956,-1.791767\C,0,3.511478,-6.21569,-1.250017\C,0,2.51781,-5.091084,
 -3.178332\C,0,4.700006,-6.567836,-1.86393\H,0,3.354274,-6.51405,-0.211
 815\H,0,2.912771,-5.884357,-3.823351\H,0,1.492967,-4.863322,-3.491161\
 H,0,3.127881,-4.181816,-3.297179\C,0,5.667812,-7.360004,-1.179567\H,0,
 4.904648,-6.244331,-2.8792\C,0,6.968676,-7.69291,-1.813118\O,0,5.44677
 9,-7.822733,0.004446\C,0,7.865521,-8.583573,-1.143648\C,0,7.384494,-7.
 151431,-3.044341\H,0,6.608559,-8.659062,0.253102\C,0,9.110772,-8.90156
 7,-1.712336\O,0,7.52891,-9.126371,0.045324\C,0,8.623319,-7.458124,-3.5
 92445\H,0,6.729246,-6.476223,-3.588784\C,0,9.487705,-8.337179,-2.92346
 9\H,0,9.754833,-9.59827,-1.17381\H,0,8.926685,-7.013164,-4.540066\H,0,
 10.456188,-8.573545,-3.369065\\Version=ES64L-G09RevD.01\HF=-632.145595
 9\RMSD=3.432e-09\PG=C01 [X(C11H13N1O2)]\\@


 ASKING DUMB QUESTIONS IS EASIER THAN CORECTING DUMB MISTAKES.
 Job cpu time:       0 days  2 hours 47 minutes 39.7 seconds.
 File lengths (MBytes):  RWF=    237 Int=      0 D2E=      0 Chk=     27 Scr=      1
 Normal termination of Gaussian 09 at Thu Nov  2 22:37:30 2017.
