 Entering Gaussian System, Link 0=g09
 Input=1.com
 Output=1.out
 Initial command:
 /share/apps/gaussian/g09_D01/g09/l1.exe "/tmp/177521.1.all.q/Gau-5605.inp" -scrdir="/tmp/177521.1.all.q/"
 Entering Link 1 = /share/apps/gaussian/g09_D01/g09/l1.exe PID=      5606.
  
 Copyright (c) 1988,1990,1992,1993,1995,1998,2003,2009,2013,
            Gaussian, Inc.  All Rights Reserved.
  
 This is part of the Gaussian(R) 09 program.  It is based on
 the Gaussian(R) 03 system (copyright 2003, Gaussian, Inc.),
 the Gaussian(R) 98 system (copyright 1998, Gaussian, Inc.),
 the Gaussian(R) 94 system (copyright 1995, Gaussian, Inc.),
 the Gaussian 92(TM) system (copyright 1992, Gaussian, Inc.),
 the Gaussian 90(TM) system (copyright 1990, Gaussian, Inc.),
 the Gaussian 88(TM) system (copyright 1988, Gaussian, Inc.),
 the Gaussian 86(TM) system (copyright 1986, Carnegie Mellon
 University), and the Gaussian 82(TM) system (copyright 1983,
 Carnegie Mellon University). Gaussian is a federally registered
 trademark of Gaussian, Inc.
  
 This software contains proprietary and confidential information,
 including trade secrets, belonging to Gaussian, Inc.
  
 This software is provided under written license and may be
 used, copied, transmitted, or stored only in accord with that
 written license.
  
 The following legend is applicable only to US Government
 contracts under FAR:
  
                    RESTRICTED RIGHTS LEGEND
  
 Use, reproduction and disclosure by the US Government is
 subject to restrictions as set forth in subparagraphs (a)
 and (c) of the Commercial Computer Software - Restricted
 Rights clause in FAR 52.227-19.
  
 Gaussian, Inc.
 340 Quinnipiac St., Bldg. 40, Wallingford CT 06492
  
  
 ---------------------------------------------------------------
 Warning -- This program may not be used in any manner that
 competes with the business of Gaussian, Inc. or will provide
 assistance to any competitor of Gaussian, Inc.  The licensee
 of this program is prohibited from giving any competitor of
 Gaussian, Inc. access to this program.  By using this program,
 the user acknowledges that Gaussian, Inc. is engaged in the
 business of creating and licensing software in the field of
 computational chemistry and represents and warrants to the
 licensee that it is not a competitor of Gaussian, Inc. and that
 it will not use this program in any manner prohibited above.
 ---------------------------------------------------------------
  

 Cite this work as:
 Gaussian 09, Revision D.01,
 M. J. Frisch, G. W. Trucks, H. B. Schlegel, G. E. Scuseria, 
 M. A. Robb, J. R. Cheeseman, G. Scalmani, V. Barone, B. Mennucci, 
 G. A. Petersson, H. Nakatsuji, M. Caricato, X. Li, H. P. Hratchian, 
 A. F. Izmaylov, J. Bloino, G. Zheng, J. L. Sonnenberg, M. Hada, 
 M. Ehara, K. Toyota, R. Fukuda, J. Hasegawa, M. Ishida, T. Nakajima, 
 Y. Honda, O. Kitao, H. Nakai, T. Vreven, J. A. Montgomery, Jr., 
 J. E. Peralta, F. Ogliaro, M. Bearpark, J. J. Heyd, E. Brothers, 
 K. N. Kudin, V. N. Staroverov, T. Keith, R. Kobayashi, J. Normand, 
 K. Raghavachari, A. Rendell, J. C. Burant, S. S. Iyengar, J. Tomasi, 
 M. Cossi, N. Rega, J. M. Millam, M. Klene, J. E. Knox, J. B. Cross, 
 V. Bakken, C. Adamo, J. Jaramillo, R. Gomperts, R. E. Stratmann, 
 O. Yazyev, A. J. Austin, R. Cammi, C. Pomelli, J. W. Ochterski, 
 R. L. Martin, K. Morokuma, V. G. Zakrzewski, G. A. Voth, 
 P. Salvador, J. J. Dannenberg, S. Dapprich, A. D. Daniels, 
 O. Farkas, J. B. Foresman, J. V. Ortiz, J. Cioslowski, 
 and D. J. Fox, Gaussian, Inc., Wallingford CT, 2013.
 
 ******************************************
 Gaussian 09:  ES64L-G09RevD.01 24-Apr-2013
                28-Nov-2017 
 ******************************************
 %chk=1.chk
 %nproc=2
 Will use up to    2 processors via shared memory.
 %mem=8GB
 -----------------------------------
 #p HF 3-21G pop=ESP density=current
 -----------------------------------
 1/30=1,38=1/1;
 2/12=2,17=6,18=5,40=1/2;
 3/5=5,11=9,16=1,25=1,30=1/1,2,3;
 4//1;
 5/5=2,38=5/2;
 6/7=2,8=2,9=2,10=2,15=8,22=-1,28=1/1,2;
 99/5=1,9=1/99;
 Leave Link    1 at Tue Nov 28 17:19:52 2017, MaxMem=  1073741824 cpu:         0.1
 (Enter /share/apps/gaussian/g09_D01/g09/l101.exe)
 -----
 title
 -----
 Symbolic Z-matrix:
 Charge =  0 Multiplicity = 1
 C                    -0.01852  -0.16759  -8.62423 
 H                    -1.04186  -0.39632  -8.94095 
 H                     0.5962   -1.07256  -8.74992 
 H                     0.37315   0.63369  -9.2601 
 N                    -0.03672   0.25941  -7.23324 
 C                    -1.22111  -0.09482  -6.46412 
 C                     0.97373   0.93661  -6.6852 
 H                    -1.35133  -1.18749  -6.45259 
 H                    -1.10974   0.26455  -5.43503 
 H                    -2.10842   0.36969  -6.92243 
 C                     2.16225   1.29227  -7.29601 
 H                     0.8173    1.22821  -5.64484 
 H                     2.36926   0.97222  -8.3116 
 C                     3.12594   2.08453  -6.60679 
 C                     4.42441   2.42137  -7.23598 
 O                     2.90199   2.54916  -5.42199 
 C                     5.31002   3.31655  -6.55822 
 C                     4.84538   1.88884  -8.4718 
 H                     4.04483   3.39405  -5.17178 
 C                     6.55319   3.64264  -7.12301 
 O                     4.96937   3.86225  -5.37344 
 C                     6.08077   2.20888  -9.0185 
 H                     4.19528   1.20876  -9.0167 
 C                     6.93354   3.08971  -8.33828 
 H                     7.19334   4.33967  -6.5802 
 H                     6.3904    1.77451  -9.96877 
 H                     7.90281   3.33455  -8.77642 
 
 NAtoms=     27 NQM=       27 NQMF=       0 NMMI=      0 NMMIF=      0
                NMic=       0 NMicF=      0.
                    Isotopes and Nuclear Properties:
 (Nuclear quadrupole moments (NQMom) in fm**2, nuclear magnetic moments (NMagM)
  in nuclear magnetons)

  Atom         1           2           3           4           5           6           7           8           9          10
 IAtWgt=          12           1           1           1          14          12          12           1           1           1
 AtmWgt=  12.0000000   1.0078250   1.0078250   1.0078250  14.0030740  12.0000000  12.0000000   1.0078250   1.0078250   1.0078250
 NucSpn=           0           1           1           1           2           0           0           1           1           1
 AtZEff=   0.0000000   0.0000000   0.0000000   0.0000000   0.0000000   0.0000000   0.0000000   0.0000000   0.0000000   0.0000000
 NQMom=    0.0000000   0.0000000   0.0000000   0.0000000   2.0440000   0.0000000   0.0000000   0.0000000   0.0000000   0.0000000
 NMagM=    0.0000000   2.7928460   2.7928460   2.7928460   0.4037610   0.0000000   0.0000000   2.7928460   2.7928460   2.7928460
 AtZNuc=   6.0000000   1.0000000   1.0000000   1.0000000   7.0000000   6.0000000   6.0000000   1.0000000   1.0000000   1.0000000

  Atom        11          12          13          14          15          16          17          18          19          20
 IAtWgt=          12           1           1          12          12          16          12          12           1          12
 AtmWgt=  12.0000000   1.0078250   1.0078250  12.0000000  12.0000000  15.9949146  12.0000000  12.0000000   1.0078250  12.0000000
 NucSpn=           0           1           1           0           0           0           0           0           1           0
 AtZEff=   0.0000000   0.0000000   0.0000000   0.0000000   0.0000000   0.0000000   0.0000000   0.0000000   0.0000000   0.0000000
 NQMom=    0.0000000   0.0000000   0.0000000   0.0000000   0.0000000   0.0000000   0.0000000   0.0000000   0.0000000   0.0000000
 NMagM=    0.0000000   2.7928460   2.7928460   0.0000000   0.0000000   0.0000000   0.0000000   0.0000000   2.7928460   0.0000000
 AtZNuc=   6.0000000   1.0000000   1.0000000   6.0000000   6.0000000   8.0000000   6.0000000   6.0000000   1.0000000   6.0000000

  Atom        21          22          23          24          25          26          27
 IAtWgt=          16          12           1          12           1           1           1
 AtmWgt=  15.9949146  12.0000000   1.0078250  12.0000000   1.0078250   1.0078250   1.0078250
 NucSpn=           0           0           1           0           1           1           1
 AtZEff=   0.0000000   0.0000000   0.0000000   0.0000000   0.0000000   0.0000000   0.0000000
 NQMom=    0.0000000   0.0000000   0.0000000   0.0000000   0.0000000   0.0000000   0.0000000
 NMagM=    0.0000000   0.0000000   2.7928460   0.0000000   2.7928460   2.7928460   2.7928460
 AtZNuc=   8.0000000   6.0000000   1.0000000   6.0000000   1.0000000   1.0000000   1.0000000
 Leave Link  101 at Tue Nov 28 17:19:53 2017, MaxMem=  1073741824 cpu:         0.1
 (Enter /share/apps/gaussian/g09_D01/g09/l202.exe)
                          Input orientation:                          
 ---------------------------------------------------------------------
 Center     Atomic      Atomic             Coordinates (Angstroms)
 Number     Number       Type             X           Y           Z
 ---------------------------------------------------------------------
      1          6           0       -0.018523   -0.167594   -8.624227
      2          1           0       -1.041859   -0.396318   -8.940951
      3          1           0        0.596200   -1.072565   -8.749918
      4          1           0        0.373154    0.633692   -9.260104
      5          7           0       -0.036716    0.259407   -7.233244
      6          6           0       -1.221106   -0.094821   -6.464118
      7          6           0        0.973728    0.936608   -6.685196
      8          1           0       -1.351330   -1.187488   -6.452592
      9          1           0       -1.109743    0.264547   -5.435025
     10          1           0       -2.108423    0.369690   -6.922430
     11          6           0        2.162250    1.292265   -7.296006
     12          1           0        0.817300    1.228212   -5.644838
     13          1           0        2.369255    0.972216   -8.311599
     14          6           0        3.125938    2.084530   -6.606786
     15          6           0        4.424405    2.421374   -7.235977
     16          8           0        2.901988    2.549157   -5.421988
     17          6           0        5.310019    3.316548   -6.558221
     18          6           0        4.845380    1.888840   -8.471795
     19          1           0        4.044833    3.394053   -5.171782
     20          6           0        6.553187    3.642642   -7.123008
     21          8           0        4.969374    3.862250   -5.373442
     22          6           0        6.080774    2.208877   -9.018501
     23          1           0        4.195278    1.208760   -9.016695
     24          6           0        6.933539    3.089708   -8.338279
     25          1           0        7.193340    4.339668   -6.580197
     26          1           0        6.390400    1.774510   -9.968770
     27          1           0        7.902810    3.334553   -8.776421
 ---------------------------------------------------------------------
                    Distance matrix (angstroms):
                    1          2          3          4          5
     1  C    0.000000
     2  H    1.095375   0.000000
     3  H    1.101206   1.782426   0.000000
     4  H    1.095358   1.779056   1.794813   0.000000
     5  N    1.455161   2.087235   2.115427   2.101486   0.000000
     6  C    2.473373   2.501546   3.079524   3.299990   1.455957
     7  C    2.442062   3.305709   2.905577   2.661315   1.334149
     8  H    2.744550   2.629383   3.013932   3.764660   2.105026
     9  H    3.398311   3.568314   3.960634   4.119039   2.094040
    10  H    2.748176   2.408060   3.568585   3.419450   2.097794
    11  C    2.941280   3.977873   3.187286   2.737200   2.430265
    12  H    3.394648   4.118244   3.870915   3.690646   2.047183
    13  H    2.664280   3.728896   2.741711   2.235773   2.731235
    14  C    4.362312   5.382701   4.578192   4.089358   3.704849
    15  C    5.326312   6.381721   5.399517   4.868833   4.957389
    16  O    5.115120   6.050856   5.432186   4.979472   4.142413
    17  C    6.693354   7.733636   6.803524   6.234623   6.195913
    18  C    5.282964   6.332585   5.186791   4.711436   5.293763
    19  H    6.412142   7.378888   6.681826   6.149406   5.543886
    20  C    7.743315   8.792203   7.769537   7.198178   7.408458
    21  O    7.189323   8.185197   7.407944   6.830444   6.442071
    22  C    6.557781   7.584521   6.396917   5.925918   6.664177
    23  H    4.450225   5.478103   4.269541   3.872800   4.689535
    24  C    7.682639   8.724825   7.593144   7.065439   7.603694
    25  H    8.746682   9.788832   8.804670   8.211644   8.327587
    26  H    6.830363   7.810722   6.569946   6.165300   7.147479
    27  H    8.662316   9.692965   8.532874   8.014008   8.652976
                    6          7          8          9         10
     6  C    0.000000
     7  C    2.435163   0.000000
     8  H    1.100460   3.157813   0.000000
     9  H    1.095710   2.521001   1.789473   0.000000
    10  H    1.101432   3.142822   1.794085   1.794656   0.000000
    11  C    3.750086   1.382811   4.382438   3.901973   4.385128
    12  H    2.564515   1.091718   3.345300   2.164756   3.305927
    13  H    4.176415   2.143350   4.686468   4.569344   4.726778
    14  C    4.864845   2.440467   5.547595   4.756717   5.517141
    15  C    6.228868   3.796717   6.855413   6.206619   6.854601
    16  O    5.007650   2.813218   5.754596   4.616665   5.666182
    17  C    7.368981   4.948096   8.041832   7.196501   7.990613
    18  C    6.690884   4.369024   7.206954   6.879229   7.284485
    19  H    6.447673   4.214397   7.193717   6.035955   7.076305
    20  C    8.651150   6.216483   9.287680   8.542910   9.261530
    21  O    7.427653   5.123013   8.161845   7.064200   8.043168
    22  C    8.071515   5.757161   8.564774   8.265909   8.650958
    23  H    6.127984   3.986018   6.563649   6.470174   6.695269
    24  C    8.952762   6.548883   9.512585   9.005821   9.547785
    25  H    9.512154   7.090516  10.177285   9.319829  10.119320
    26  H    8.585570   6.389388   9.003962   8.893086   9.136941
    27  H   10.017644   7.624667  10.558795  10.090390  10.604361
                   11         12         13         14         15
    11  C    0.000000
    12  H    2.130575   0.000000
    13  H    1.084763   3.096080   0.000000
    14  C    1.425273   2.643565   2.171681   0.000000
    15  C    2.528999   4.119049   2.735080   1.481675   0.000000
    16  O    2.374644   2.478000   3.334726   1.292199   2.371632
    17  C    3.814512   5.037851   4.149496   2.508074   1.430036
    18  C    2.989577   4.965234   2.645195   2.544216   1.409985
    19  H    3.531849   3.915561   4.304800   2.149059   2.313240
    20  C    4.983425   6.396472   5.103843   3.800031   2.456821
    21  O    4.263921   4.924584   4.872954   2.842478   2.417054
    22  C    4.377442   6.328307   3.975477   3.816135   2.442561
    23  H    2.664760   4.772896   1.971668   2.778151   2.166538
    24  C    5.204069   6.937447   5.031617   4.301892   2.820903
    25  H    5.925446   7.156112   6.132641   4.650819   3.431749
    26  H    5.025284   7.074904   4.422612   4.696356   3.428079
    27  H    6.270295   8.027947   6.034644   5.393364   3.912309
                   16         17         18         19         20
    16  O    0.000000
    17  C    2.771016   0.000000
    18  C    3.676155   2.432284   0.000000
    19  H    1.443103   1.878541   3.714381   0.000000
    20  C    4.173779   1.403848   2.794933   3.187620   0.000000
    21  O    2.449623   1.348158   3.675529   1.055770   2.370163
    22  C    4.812003   2.806061   1.388348   4.510759   2.423169
    23  H    4.048602   3.424838   1.087225   4.425098   3.881954
    24  C    5.005033   2.419893   2.412534   4.296970   1.388268
    25  H    4.791981   2.143398   3.885565   3.576439   1.091002
    26  H    5.782934   3.895760   2.154319   5.579937   3.408046
    27  H    6.072667   3.412228   3.395697   5.280241   2.156427
                   21         22         23         24         25
    21  O    0.000000
    22  C    4.153951   0.000000
    23  H    4.573131   2.134322   0.000000
    24  C    3.639371   1.402060   3.390617   0.000000
    25  H    2.574919   3.423945   4.972674   2.172728   0.000000
    26  H    5.243569   1.089750   2.458675   2.164081   4.325179
    27  H    4.523691   2.155357   4.280481   1.091514   2.517341
                   26         27
    26  H    0.000000
    27  H    2.478470   0.000000
 Stoichiometry    C11H13NO2
 Framework group  C1[X(C11H13NO2)]
 Deg. of freedom    75
 Full point group                 C1      NOp   1
 Largest Abelian subgroup         C1      NOp   1
 Largest concise Abelian subgroup C1      NOp   1
                         Standard orientation:                         
 ---------------------------------------------------------------------
 Center     Atomic      Atomic             Coordinates (Angstroms)
 Number     Number       Type             X           Y           Z
 ---------------------------------------------------------------------
      1          6           0       -3.737233    1.621333    0.243209
      2          1           0       -4.749347    1.837466    0.602038
      3          1           0       -3.568474    2.186653   -0.686624
      4          1           0       -3.019891    1.944946    1.005117
      5          7           0       -3.611576    0.190232    0.011572
      6          6           0       -4.855586   -0.553918   -0.124412
      7          6           0       -2.424980   -0.413473   -0.074947
      8          1           0       -5.443764   -0.156307   -0.965224
      9          1           0       -4.631309   -1.610140   -0.310625
     10          1           0       -5.442333   -0.459956    0.802977
     11          6           0       -1.181378    0.187267   -0.006167
     12          1           0       -2.471788   -1.495369   -0.213359
     13          1           0       -1.101932    1.265810    0.078356
     14          6           0        0.008334   -0.596860   -0.039833
     15          6           0        1.343572    0.045177   -0.022794
     16          8           0       -0.029240   -1.888129   -0.071302
     17          6           0        2.507495   -0.781172    0.063414
     18          6           0        1.531183    1.440250   -0.104226
     19          1           0        1.357921   -2.266848    0.050785
     20          6           0        3.786287   -0.201976    0.066804
     21          8           0        2.399550   -2.122537    0.144768
     22          6           0        2.799812    2.004213   -0.110254
     23          1           0        0.668321    2.098797   -0.166211
     24          6           0        3.927854    1.176097   -0.023542
     25          1           0        4.647532   -0.866836    0.147444
     26          1           0        2.920663    3.084487   -0.187438
     27          1           0        4.920786    1.629368   -0.029475
 ---------------------------------------------------------------------
 Rotational constants (GHZ):      1.6008456      0.3190918      0.2676011
 Leave Link  202 at Tue Nov 28 17:19:53 2017, MaxMem=  1073741824 cpu:         0.0
 (Enter /share/apps/gaussian/g09_D01/g09/l301.exe)
 Standard basis: 3-21G (6D, 7F)
 Ernie: Thresh=  0.10000D-02 Tol=  0.10000D-05 Strict=F.
 There are   152 symmetry adapted cartesian basis functions of A   symmetry.
 There are   152 symmetry adapted basis functions of A   symmetry.
   152 basis functions,   249 primitive gaussians,   152 cartesian basis functions
    51 alpha electrons       51 beta electrons
       nuclear repulsion energy       834.5224354524 Hartrees.
 IExCor=    0 DFT=F Ex=HF Corr=None ExCW=0 ScaHFX=  1.000000
 ScaDFX=  1.000000  1.000000  1.000000  1.000000 ScalE2=  1.000000  1.000000
 IRadAn=      0 IRanWt=     -1 IRanGd=            0 ICorTp=0 IEmpDi=  4
 NAtoms=   27 NActive=   27 NUniq=   27 SFac= 1.00D+00 NAtFMM=   60 NAOKFM=F Big=F
 Integral buffers will be    131072 words long.
 Raffenetti 1 integral format.
 Two-electron integral symmetry is turned on.
 Leave Link  301 at Tue Nov 28 17:19:53 2017, MaxMem=  1073741824 cpu:         0.1
 (Enter /share/apps/gaussian/g09_D01/g09/l302.exe)
 NPDir=0 NMtPBC=     1 NCelOv=     1 NCel=       1 NClECP=     1 NCelD=      1
         NCelK=      1 NCelE2=     1 NClLst=     1 CellRange=     0.0.
 One-electron integrals computed using PRISM.
 NBasis=   152 RedAO= T EigKep=  1.55D-03  NBF=   152
 NBsUse=   152 1.00D-06 EigRej= -1.00D+00 NBFU=   152
 Leave Link  302 at Tue Nov 28 17:19:54 2017, MaxMem=  1073741824 cpu:         0.4
 (Enter /share/apps/gaussian/g09_D01/g09/l303.exe)
 DipDrv:  MaxL=1.
 Leave Link  303 at Tue Nov 28 17:19:54 2017, MaxMem=  1073741824 cpu:         0.1
 (Enter /share/apps/gaussian/g09_D01/g09/l401.exe)
 ExpMin= 1.83D-01 ExpMax= 3.22D+02 ExpMxC= 3.22D+02 IAcc=1 IRadAn=         1 AccDes= 0.00D+00
 Harris functional with IExCor=  205 and IRadAn=       1 diagonalized for initial guess.
 HarFok:  IExCor=  205 AccDes= 0.00D+00 IRadAn=         1 IDoV= 1 UseB2=F ITyADJ=14
 ICtDFT=  3500011 ScaDFX=  1.000000  1.000000  1.000000  1.000000
 FoFCou: FMM=F IPFlag=           0 FMFlag=      100000 FMFlg1=           0
         NFxFlg=           0 DoJE=T BraDBF=F KetDBF=T FulRan=T
         wScrn=  0.000000 ICntrl=     500 IOpCl=  0 I1Cent=   200000004 NGrid=           0
         NMat0=    1 NMatS0=      1 NMatT0=    0 NMatD0=    1 NMtDS0=    0 NMtDT0=    0
 Petite list used in FoFCou.
 Harris En= -625.585929796096    
 JPrj=0 DoOrth=F DoCkMO=F.
 Leave Link  401 at Tue Nov 28 17:19:56 2017, MaxMem=  1073741824 cpu:         1.3
 (Enter /share/apps/gaussian/g09_D01/g09/l502.exe)
 Closed shell SCF:
 Using DIIS extrapolation, IDIIS=  1040.
 Integral symmetry usage will be decided dynamically.
 Keep R1 ints in memory in canonical form, NReq=69491678.
 IVT=       89960 IEndB=       89960 NGot=  1073741824 MDV=  1006040859
 LenX=  1006040859 LenY=  1006017314
 Requested convergence on RMS density matrix=1.00D-08 within 128 cycles.
 Requested convergence on MAX density matrix=1.00D-06.
 Requested convergence on             energy=1.00D-06.
 No special actions if energy rises.
 FoFCou: FMM=F IPFlag=           0 FMFlag=           0 FMFlg1=           0
         NFxFlg=           0 DoJE=F BraDBF=F KetDBF=F FulRan=T
         wScrn=  0.000000 ICntrl=     600 IOpCl=  0 I1Cent=           0 NGrid=           0
         NMat0=    1 NMatS0=  11628 NMatT0=    0 NMatD0=    1 NMtDS0=    0 NMtDT0=    0
 Symmetry not used in FoFCou.

 Cycle   1  Pass 1  IDiag  1:
 E= -624.355305200702    
 DIIS: error= 5.53D-02 at cycle   1 NSaved=   1.
 NSaved= 1 IEnMin= 1 EnMin= -624.355305200702     IErMin= 1 ErrMin= 5.53D-02
 ErrMax= 5.53D-02  0.00D+00 EMaxC= 1.00D-01 BMatC= 5.92D-01 BMatP= 5.92D-01
 IDIUse=3 WtCom= 4.47D-01 WtEn= 5.53D-01
 Coeff-Com:  0.100D+01
 Coeff-En:   0.100D+01
 Coeff:      0.100D+01
 Gap=     0.407 Goal=   None    Shift=    0.000
 GapD=    0.407 DampG=2.000 DampE=0.500 DampFc=1.0000 IDamp=-1.
 RMSDP=5.74D-03 MaxDP=9.37D-02              OVMax= 1.38D-01

 Cycle   2  Pass 1  IDiag  1:
 E= -624.729913248713     Delta-E=       -0.374608048012 Rises=F Damp=F
 DIIS: error= 1.28D-02 at cycle   2 NSaved=   2.
 NSaved= 2 IEnMin= 2 EnMin= -624.729913248713     IErMin= 2 ErrMin= 1.28D-02
 ErrMax= 1.28D-02  0.00D+00 EMaxC= 1.00D-01 BMatC= 5.90D-02 BMatP= 5.92D-01
 IDIUse=3 WtCom= 8.72D-01 WtEn= 1.28D-01
 Coeff-Com:  0.170D+00 0.830D+00
 Coeff-En:   0.000D+00 0.100D+01
 Coeff:      0.148D+00 0.852D+00
 Gap=     0.370 Goal=   None    Shift=    0.000
 RMSDP=1.83D-03 MaxDP=2.53D-02 DE=-3.75D-01 OVMax= 3.23D-02

 Cycle   3  Pass 1  IDiag  1:
 E= -624.774003371183     Delta-E=       -0.044090122470 Rises=F Damp=F
 DIIS: error= 6.76D-03 at cycle   3 NSaved=   3.
 NSaved= 3 IEnMin= 3 EnMin= -624.774003371183     IErMin= 3 ErrMin= 6.76D-03
 ErrMax= 6.76D-03  0.00D+00 EMaxC= 1.00D-01 BMatC= 4.62D-03 BMatP= 5.90D-02
 IDIUse=3 WtCom= 9.32D-01 WtEn= 6.76D-02
 Coeff-Com: -0.134D-01 0.171D+00 0.842D+00
 Coeff-En:   0.000D+00 0.000D+00 0.100D+01
 Coeff:     -0.125D-01 0.160D+00 0.853D+00
 Gap=     0.364 Goal=   None    Shift=    0.000
 RMSDP=6.19D-04 MaxDP=1.16D-02 DE=-4.41D-02 OVMax= 2.76D-02

 Cycle   4  Pass 1  IDiag  1:
 E= -624.778652517324     Delta-E=       -0.004649146140 Rises=F Damp=F
 DIIS: error= 1.84D-03 at cycle   4 NSaved=   4.
 NSaved= 4 IEnMin= 4 EnMin= -624.778652517324     IErMin= 4 ErrMin= 1.84D-03
 ErrMax= 1.84D-03  0.00D+00 EMaxC= 1.00D-01 BMatC= 5.94D-04 BMatP= 4.62D-03
 IDIUse=3 WtCom= 9.82D-01 WtEn= 1.84D-02
 Coeff-Com: -0.103D-01 0.608D-02 0.269D+00 0.735D+00
 Coeff-En:   0.000D+00 0.000D+00 0.000D+00 0.100D+01
 Coeff:     -0.101D-01 0.597D-02 0.264D+00 0.740D+00
 Gap=     0.365 Goal=   None    Shift=    0.000
 RMSDP=2.39D-04 MaxDP=4.45D-03 DE=-4.65D-03 OVMax= 5.73D-03

 Cycle   5  Pass 1  IDiag  1:
 E= -624.779386012398     Delta-E=       -0.000733495074 Rises=F Damp=F
 DIIS: error= 1.14D-03 at cycle   5 NSaved=   5.
 NSaved= 5 IEnMin= 5 EnMin= -624.779386012398     IErMin= 5 ErrMin= 1.14D-03
 ErrMax= 1.14D-03  0.00D+00 EMaxC= 1.00D-01 BMatC= 5.14D-05 BMatP= 5.94D-04
 IDIUse=3 WtCom= 9.89D-01 WtEn= 1.14D-02
 Coeff-Com:  0.350D-02-0.211D-01-0.140D+00-0.177D+00 0.133D+01
 Coeff-En:   0.000D+00 0.000D+00 0.000D+00 0.000D+00 0.100D+01
 Coeff:      0.346D-02-0.209D-01-0.138D+00-0.175D+00 0.133D+01
 Gap=     0.368 Goal=   None    Shift=    0.000
 RMSDP=1.43D-04 MaxDP=3.13D-03 DE=-7.33D-04 OVMax= 8.91D-03

 Cycle   6  Pass 1  IDiag  1:
 E= -624.779601392252     Delta-E=       -0.000215379854 Rises=F Damp=F
 DIIS: error= 4.10D-04 at cycle   6 NSaved=   6.
 NSaved= 6 IEnMin= 6 EnMin= -624.779601392252     IErMin= 6 ErrMin= 4.10D-04
 ErrMax= 4.10D-04  0.00D+00 EMaxC= 1.00D-01 BMatC= 1.28D-05 BMatP= 5.14D-05
 IDIUse=3 WtCom= 9.96D-01 WtEn= 4.10D-03
 Coeff-Com:  0.260D-02-0.755D-02-0.782D-01-0.177D+00 0.428D+00 0.833D+00
 Coeff-En:   0.000D+00 0.000D+00 0.000D+00 0.000D+00 0.000D+00 0.100D+01
 Coeff:      0.259D-02-0.752D-02-0.779D-01-0.177D+00 0.426D+00 0.833D+00
 Gap=     0.368 Goal=   None    Shift=    0.000
 RMSDP=5.69D-05 MaxDP=1.26D-03 DE=-2.15D-04 OVMax= 3.34D-03

 Cycle   7  Pass 1  IDiag  1:
 E= -624.779632498598     Delta-E=       -0.000031106346 Rises=F Damp=F
 DIIS: error= 1.31D-04 at cycle   7 NSaved=   7.
 NSaved= 7 IEnMin= 7 EnMin= -624.779632498598     IErMin= 7 ErrMin= 1.31D-04
 ErrMax= 1.31D-04  0.00D+00 EMaxC= 1.00D-01 BMatC= 1.51D-06 BMatP= 1.28D-05
 IDIUse=3 WtCom= 9.99D-01 WtEn= 1.31D-03
 Coeff-Com: -0.561D-03 0.364D-02 0.249D-01 0.153D-01-0.217D+00-0.118D-01
 Coeff-Com:  0.119D+01
 Coeff-En:   0.000D+00 0.000D+00 0.000D+00 0.000D+00 0.000D+00 0.000D+00
 Coeff-En:   0.100D+01
 Coeff:     -0.560D-03 0.363D-02 0.249D-01 0.153D-01-0.216D+00-0.118D-01
 Coeff:      0.118D+01
 Gap=     0.369 Goal=   None    Shift=    0.000
 RMSDP=2.75D-05 MaxDP=5.71D-04 DE=-3.11D-05 OVMax= 1.61D-03

 Cycle   8  Pass 1  IDiag  1:
 E= -624.779638040026     Delta-E=       -0.000005541428 Rises=F Damp=F
 DIIS: error= 6.09D-05 at cycle   8 NSaved=   8.
 NSaved= 8 IEnMin= 8 EnMin= -624.779638040026     IErMin= 8 ErrMin= 6.09D-05
 ErrMax= 6.09D-05  0.00D+00 EMaxC= 1.00D-01 BMatC= 2.03D-07 BMatP= 1.51D-06
 IDIUse=1 WtCom= 1.00D+00 WtEn= 0.00D+00
 Coeff-Com: -0.409D-03 0.162D-02 0.154D-01 0.239D-01-0.805D-01-0.106D+00
 Coeff-Com:  0.206D+00 0.940D+00
 Coeff:     -0.409D-03 0.162D-02 0.154D-01 0.239D-01-0.805D-01-0.106D+00
 Coeff:      0.206D+00 0.940D+00
 Gap=     0.369 Goal=   None    Shift=    0.000
 RMSDP=7.46D-06 MaxDP=1.34D-04 DE=-5.54D-06 OVMax= 4.19D-04

 Cycle   9  Pass 1  IDiag  1:
 E= -624.779638673415     Delta-E=       -0.000000633388 Rises=F Damp=F
 DIIS: error= 2.44D-05 at cycle   9 NSaved=   9.
 NSaved= 9 IEnMin= 9 EnMin= -624.779638673415     IErMin= 9 ErrMin= 2.44D-05
 ErrMax= 2.44D-05  0.00D+00 EMaxC= 1.00D-01 BMatC= 3.52D-08 BMatP= 2.03D-07
 IDIUse=1 WtCom= 1.00D+00 WtEn= 0.00D+00
 Coeff-Com:  0.248D-03-0.127D-02-0.981D-02-0.138D-01 0.672D-01 0.457D-01
 Coeff-Com: -0.288D+00-0.363D+00 0.156D+01
 Coeff:      0.248D-03-0.127D-02-0.981D-02-0.138D-01 0.672D-01 0.457D-01
 Coeff:     -0.288D+00-0.363D+00 0.156D+01
 Gap=     0.369 Goal=   None    Shift=    0.000
 RMSDP=5.51D-06 MaxDP=1.07D-04 DE=-6.33D-07 OVMax= 3.17D-04

 Cycle  10  Pass 1  IDiag  1:
 E= -624.779638869454     Delta-E=       -0.000000196039 Rises=F Damp=F
 DIIS: error= 5.00D-06 at cycle  10 NSaved=  10.
 NSaved=10 IEnMin=10 EnMin= -624.779638869454     IErMin=10 ErrMin= 5.00D-06
 ErrMax= 5.00D-06  0.00D+00 EMaxC= 1.00D-01 BMatC= 3.36D-09 BMatP= 3.52D-08
 IDIUse=1 WtCom= 1.00D+00 WtEn= 0.00D+00
 Coeff-Com:  0.792D-04-0.364D-03-0.298D-02-0.473D-02 0.185D-01 0.165D-01
 Coeff-Com: -0.608D-01-0.154D+00 0.224D+00 0.964D+00
 Coeff:      0.792D-04-0.364D-03-0.298D-02-0.473D-02 0.185D-01 0.165D-01
 Coeff:     -0.608D-01-0.154D+00 0.224D+00 0.964D+00
 Gap=     0.369 Goal=   None    Shift=    0.000
 RMSDP=1.24D-06 MaxDP=2.21D-05 DE=-1.96D-07 OVMax= 7.27D-05

 Cycle  11  Pass 1  IDiag  1:
 E= -624.779638881109     Delta-E=       -0.000000011656 Rises=F Damp=F
 DIIS: error= 2.26D-06 at cycle  11 NSaved=  11.
 NSaved=11 IEnMin=11 EnMin= -624.779638881109     IErMin=11 ErrMin= 2.26D-06
 ErrMax= 2.26D-06  0.00D+00 EMaxC= 1.00D-01 BMatC= 3.90D-10 BMatP= 3.36D-09
 IDIUse=1 WtCom= 1.00D+00 WtEn= 0.00D+00
 Coeff-Com: -0.286D-04 0.151D-03 0.114D-02 0.152D-02-0.805D-02-0.541D-02
 Coeff-Com:  0.376D-01 0.352D-01-0.208D+00 0.806D-01 0.107D+01
 Coeff:     -0.286D-04 0.151D-03 0.114D-02 0.152D-02-0.805D-02-0.541D-02
 Coeff:      0.376D-01 0.352D-01-0.208D+00 0.806D-01 0.107D+01
 Gap=     0.369 Goal=   None    Shift=    0.000
 RMSDP=4.43D-07 MaxDP=1.14D-05 DE=-1.17D-08 OVMax= 2.93D-05

 Cycle  12  Pass 1  IDiag  1:
 E= -624.779638882564     Delta-E=       -0.000000001454 Rises=F Damp=F
 DIIS: error= 8.03D-07 at cycle  12 NSaved=  12.
 NSaved=12 IEnMin=12 EnMin= -624.779638882564     IErMin=12 ErrMin= 8.03D-07
 ErrMax= 8.03D-07  0.00D+00 EMaxC= 1.00D-01 BMatC= 6.69D-11 BMatP= 3.90D-10
 IDIUse=1 WtCom= 1.00D+00 WtEn= 0.00D+00
 Coeff-Com: -0.732D-05 0.362D-04 0.270D-03 0.487D-03-0.174D-02-0.161D-02
 Coeff-Com:  0.597D-02 0.158D-01-0.201D-01-0.107D+00 0.725D-01 0.104D+01
 Coeff:     -0.732D-05 0.362D-04 0.270D-03 0.487D-03-0.174D-02-0.161D-02
 Coeff:      0.597D-02 0.158D-01-0.201D-01-0.107D+00 0.725D-01 0.104D+01
 Gap=     0.369 Goal=   None    Shift=    0.000
 RMSDP=1.43D-07 MaxDP=2.49D-06 DE=-1.45D-09 OVMax= 7.21D-06

 Cycle  13  Pass 1  IDiag  1:
 E= -624.779638882759     Delta-E=       -0.000000000195 Rises=F Damp=F
 DIIS: error= 4.02D-07 at cycle  13 NSaved=  13.
 NSaved=13 IEnMin=13 EnMin= -624.779638882759     IErMin=13 ErrMin= 4.02D-07
 ErrMax= 4.02D-07  0.00D+00 EMaxC= 1.00D-01 BMatC= 1.49D-11 BMatP= 6.69D-11
 IDIUse=1 WtCom= 1.00D+00 WtEn= 0.00D+00
 Coeff-Com:  0.655D-05-0.343D-04-0.278D-03-0.312D-03 0.188D-02 0.117D-02
 Coeff-Com: -0.955D-02-0.680D-02 0.529D-01-0.489D-01-0.240D+00 0.870D-01
 Coeff-Com:  0.116D+01
 Coeff:      0.655D-05-0.343D-04-0.278D-03-0.312D-03 0.188D-02 0.117D-02
 Coeff:     -0.955D-02-0.680D-02 0.529D-01-0.489D-01-0.240D+00 0.870D-01
 Coeff:      0.116D+01
 Gap=     0.369 Goal=   None    Shift=    0.000
 RMSDP=8.76D-08 MaxDP=2.15D-06 DE=-1.95D-10 OVMax= 5.51D-06

 Cycle  14  Pass 1  IDiag  1:
 E= -624.779638882826     Delta-E=       -0.000000000067 Rises=F Damp=F
 DIIS: error= 1.67D-07 at cycle  14 NSaved=  14.
 NSaved=14 IEnMin=14 EnMin= -624.779638882826     IErMin=14 ErrMin= 1.67D-07
 ErrMax= 1.67D-07  0.00D+00 EMaxC= 1.00D-01 BMatC= 1.88D-12 BMatP= 1.49D-11
 IDIUse=1 WtCom= 1.00D+00 WtEn= 0.00D+00
 Coeff-Com: -0.105D-05 0.567D-05 0.443D-04 0.451D-04-0.328D-03-0.169D-03
 Coeff-Com:  0.203D-02 0.333D-03-0.130D-01 0.231D-01 0.761D-01-0.205D+00
 Coeff-Com: -0.327D+00 0.144D+01
 Coeff:     -0.105D-05 0.567D-05 0.443D-04 0.451D-04-0.328D-03-0.169D-03
 Coeff:      0.203D-02 0.333D-03-0.130D-01 0.231D-01 0.761D-01-0.205D+00
 Coeff:     -0.327D+00 0.144D+01
 Gap=     0.369 Goal=   None    Shift=    0.000
 RMSDP=4.07D-08 MaxDP=7.19D-07 DE=-6.71D-11 OVMax= 1.91D-06

 Cycle  15  Pass 1  IDiag  1:
 E= -624.779638882838     Delta-E=       -0.000000000012 Rises=F Damp=F
 DIIS: error= 4.56D-08 at cycle  15 NSaved=  15.
 NSaved=15 IEnMin=15 EnMin= -624.779638882838     IErMin=15 ErrMin= 4.56D-08
 ErrMax= 4.56D-08  0.00D+00 EMaxC= 1.00D-01 BMatC= 1.82D-13 BMatP= 1.88D-12
 IDIUse=1 WtCom= 1.00D+00 WtEn= 0.00D+00
 Coeff-Com: -0.674D-06 0.358D-05 0.280D-04 0.324D-04-0.207D-03-0.883D-04
 Coeff-Com:  0.100D-02 0.733D-03-0.581D-02 0.585D-02 0.322D-01-0.318D-01
 Coeff-Com: -0.135D+00 0.150D+00 0.983D+00
 Coeff:     -0.674D-06 0.358D-05 0.280D-04 0.324D-04-0.207D-03-0.883D-04
 Coeff:      0.100D-02 0.733D-03-0.581D-02 0.585D-02 0.322D-01-0.318D-01
 Coeff:     -0.135D+00 0.150D+00 0.983D+00
 Gap=     0.369 Goal=   None    Shift=    0.000
 RMSDP=9.58D-09 MaxDP=1.98D-07 DE=-1.23D-11 OVMax= 4.08D-07

 SCF Done:  E(RHF) =  -624.779638883     A.U. after   15 cycles
            NFock= 15  Conv=0.96D-08     -V/T= 2.0033
 KE= 6.227180697433D+02 PE=-3.128834489334D+03 EE= 1.046814345256D+03
 Leave Link  502 at Tue Nov 28 17:19:58 2017, MaxMem=  1073741824 cpu:         3.6
 (Enter /share/apps/gaussian/g09_D01/g09/l601.exe)
 Copying SCF densities to generalized density rwf, IOpCl= 0 IROHF=0.

 **********************************************************************

            Population analysis using the SCF density.

 **********************************************************************

 Orbital symmetries:
       Occupied  (A) (A) (A) (A) (A) (A) (A) (A) (A) (A) (A) (A)
                 (A) (A) (A) (A) (A) (A) (A) (A) (A) (A) (A) (A)
                 (A) (A) (A) (A) (A) (A) (A) (A) (A) (A) (A) (A)
                 (A) (A) (A) (A) (A) (A) (A) (A) (A) (A) (A) (A)
                 (A) (A) (A)
       Virtual   (A) (A) (A) (A) (A) (A) (A) (A) (A) (A) (A) (A)
                 (A) (A) (A) (A) (A) (A) (A) (A) (A) (A) (A) (A)
                 (A) (A) (A) (A) (A) (A) (A) (A) (A) (A) (A) (A)
                 (A) (A) (A) (A) (A) (A) (A) (A) (A) (A) (A) (A)
                 (A) (A) (A) (A) (A) (A) (A) (A) (A) (A) (A) (A)
                 (A) (A) (A) (A) (A) (A) (A) (A) (A) (A) (A) (A)
                 (A) (A) (A) (A) (A) (A) (A) (A) (A) (A) (A) (A)
                 (A) (A) (A) (A) (A) (A) (A) (A) (A) (A) (A) (A)
                 (A) (A) (A) (A) (A)
 The electronic state is 1-A.
 Alpha  occ. eigenvalues --  -20.42942 -20.42881 -15.55207 -11.28501 -11.26839
 Alpha  occ. eigenvalues --  -11.24953 -11.23835 -11.23309 -11.19472 -11.19024
 Alpha  occ. eigenvalues --  -11.18061 -11.16836 -11.16351 -11.16298  -1.38047
 Alpha  occ. eigenvalues --   -1.33571  -1.30499  -1.14369  -1.07092  -1.02883
 Alpha  occ. eigenvalues --   -1.00629  -0.99448  -0.95594  -0.86805  -0.82229
 Alpha  occ. eigenvalues --   -0.79782  -0.75934  -0.72410  -0.68468  -0.68359
 Alpha  occ. eigenvalues --   -0.67527  -0.66708  -0.63772  -0.60861  -0.59612
 Alpha  occ. eigenvalues --   -0.58861  -0.58187  -0.57985  -0.57115  -0.56339
 Alpha  occ. eigenvalues --   -0.53788  -0.53081  -0.51938  -0.51801  -0.48049
 Alpha  occ. eigenvalues --   -0.46845  -0.46085  -0.39553  -0.34751  -0.31686
 Alpha  occ. eigenvalues --   -0.29214
 Alpha virt. eigenvalues --    0.07651   0.15773   0.17928   0.23129   0.25062
 Alpha virt. eigenvalues --    0.27106   0.27845   0.28653   0.29203   0.30427
 Alpha virt. eigenvalues --    0.31433   0.33805   0.33984   0.35240   0.36220
 Alpha virt. eigenvalues --    0.36804   0.38289   0.40835   0.41573   0.45791
 Alpha virt. eigenvalues --    0.46182   0.47086   0.49618   0.54106   0.55850
 Alpha virt. eigenvalues --    0.57382   0.62842   0.63266   0.67386   0.71498
 Alpha virt. eigenvalues --    0.83769   0.84856   0.86760   0.87040   0.89353
 Alpha virt. eigenvalues --    0.93269   0.94354   0.94544   0.95930   0.97742
 Alpha virt. eigenvalues --    0.98687   0.99926   1.02529   1.04063   1.04093
 Alpha virt. eigenvalues --    1.05029   1.07086   1.08236   1.08858   1.09081
 Alpha virt. eigenvalues --    1.09429   1.12998   1.14828   1.15729   1.18011
 Alpha virt. eigenvalues --    1.22071   1.23274   1.23891   1.25711   1.28315
 Alpha virt. eigenvalues --    1.28751   1.29506   1.30737   1.31903   1.33684
 Alpha virt. eigenvalues --    1.34434   1.37510   1.38165   1.44370   1.46085
 Alpha virt. eigenvalues --    1.47549   1.51188   1.53790   1.57661   1.61338
 Alpha virt. eigenvalues --    1.62393   1.67260   1.69912   1.73827   1.76915
 Alpha virt. eigenvalues --    1.78846   1.79637   1.84533   1.87951   1.90151
 Alpha virt. eigenvalues --    1.93161   1.98834   2.00281   2.02647   2.07721
 Alpha virt. eigenvalues --    2.08961   2.15414   2.18510   2.22109   2.25024
 Alpha virt. eigenvalues --    2.33310   2.50904   2.73806   3.06823   3.77729
 Alpha virt. eigenvalues --    3.94480
          Condensed to atoms (all electrons):
               1          2          3          4          5          6
     1  C    5.125490   0.381389   0.373898   0.374445   0.198195  -0.058397
     2  H    0.381389   0.479769  -0.029622  -0.021485  -0.030906  -0.004849
     3  H    0.373898  -0.029622   0.505333  -0.032369  -0.043699   0.001324
     4  H    0.374445  -0.021485  -0.032369   0.480446  -0.037253   0.002222
     5  N    0.198195  -0.030906  -0.043699  -0.037253   7.535037   0.208687
     6  C   -0.058397  -0.004849   0.001324   0.002222   0.208687   5.106682
     7  C   -0.062635   0.002186  -0.000413  -0.001267   0.244972  -0.062325
     8  H   -0.000974  -0.001256   0.001477  -0.000163  -0.042373   0.375388
     9  H    0.002680   0.000162  -0.000081  -0.000066  -0.031111   0.378779
    10  H   -0.001628   0.001985  -0.000345   0.000375  -0.044088   0.374925
    11  C   -0.002731   0.000110   0.001155   0.001950  -0.049703   0.001076
    12  H    0.001665  -0.000024  -0.000046   0.000048  -0.036026  -0.000989
    13  H    0.000597   0.000064  -0.000032   0.000161  -0.002233  -0.000016
    14  C   -0.000038   0.000000  -0.000011  -0.000041   0.002745  -0.000066
    15  C    0.000002   0.000000   0.000000   0.000002  -0.000032   0.000001
    16  O   -0.000001   0.000000   0.000000  -0.000001   0.000061   0.000002
    17  C    0.000000   0.000000   0.000000   0.000000   0.000000   0.000000
    18  C   -0.000004   0.000000  -0.000001  -0.000007   0.000003   0.000000
    19  H    0.000000   0.000000   0.000000   0.000000   0.000000   0.000000
    20  C    0.000000   0.000000   0.000000   0.000000   0.000000   0.000000
    21  O    0.000000   0.000000   0.000000   0.000000   0.000000   0.000000
    22  C    0.000000   0.000000   0.000000   0.000000   0.000000   0.000000
    23  H    0.000001   0.000000   0.000004  -0.000013  -0.000001   0.000000
    24  C    0.000000   0.000000   0.000000   0.000000   0.000000   0.000000
    25  H    0.000000   0.000000   0.000000   0.000000   0.000000   0.000000
    26  H    0.000000   0.000000   0.000000   0.000000   0.000000   0.000000
    27  H    0.000000   0.000000   0.000000   0.000000   0.000000   0.000000
               7          8          9         10         11         12
     1  C   -0.062635  -0.000974   0.002680  -0.001628  -0.002731   0.001665
     2  H    0.002186  -0.001256   0.000162   0.001985   0.000110  -0.000024
     3  H   -0.000413   0.001477  -0.000081  -0.000345   0.001155  -0.000046
     4  H   -0.001267  -0.000163  -0.000066   0.000375   0.001950   0.000048
     5  N    0.244972  -0.042373  -0.031111  -0.044088  -0.049703  -0.036026
     6  C   -0.062325   0.375388   0.378779   0.374925   0.001076  -0.000989
     7  C    4.821925   0.001139   0.000033   0.001305   0.448544   0.382081
     8  H    0.001139   0.506850  -0.023619  -0.036892   0.000024  -0.000058
     9  H    0.000033  -0.023619   0.469329  -0.022353   0.000246   0.001649
    10  H    0.001305  -0.036892  -0.022353   0.506636  -0.000005   0.000060
    11  C    0.448544   0.000024   0.000246  -0.000005   5.683148  -0.044574
    12  H    0.382081  -0.000058   0.001649   0.000060  -0.044574   0.378794
    13  H   -0.037830   0.000001   0.000001   0.000000   0.395860   0.001121
    14  C   -0.092182   0.000001  -0.000010   0.000001   0.270111   0.002912
    15  C    0.008508   0.000000   0.000000   0.000000  -0.132082   0.000766
    16  O    0.007986   0.000000  -0.000002   0.000000  -0.108669   0.010147
    17  C   -0.000033   0.000000   0.000000   0.000000   0.003601  -0.000002
    18  C   -0.000483   0.000000   0.000000   0.000000  -0.003954  -0.000016
    19  H   -0.000067   0.000000   0.000000   0.000000   0.002330   0.000002
    20  C    0.000000   0.000000   0.000000   0.000000  -0.000033   0.000000
    21  O    0.000002   0.000000   0.000000   0.000000  -0.000082   0.000002
    22  C   -0.000002   0.000000   0.000000   0.000000   0.000118   0.000000
    23  H    0.000029   0.000000   0.000000   0.000000  -0.000469   0.000003
    24  C    0.000000   0.000000   0.000000   0.000000  -0.000001   0.000000
    25  H    0.000000   0.000000   0.000000   0.000000   0.000000   0.000000
    26  H    0.000000   0.000000   0.000000   0.000000   0.000002   0.000000
    27  H    0.000000   0.000000   0.000000   0.000000   0.000000   0.000000
              13         14         15         16         17         18
     1  C    0.000597  -0.000038   0.000002  -0.000001   0.000000  -0.000004
     2  H    0.000064   0.000000   0.000000   0.000000   0.000000   0.000000
     3  H   -0.000032  -0.000011   0.000000   0.000000   0.000000  -0.000001
     4  H    0.000161  -0.000041   0.000002  -0.000001   0.000000  -0.000007
     5  N   -0.002233   0.002745  -0.000032   0.000061   0.000000   0.000003
     6  C   -0.000016  -0.000066   0.000001   0.000002   0.000000   0.000000
     7  C   -0.037830  -0.092182   0.008508   0.007986  -0.000033  -0.000483
     8  H    0.000001   0.000001   0.000000   0.000000   0.000000   0.000000
     9  H    0.000001  -0.000010   0.000000  -0.000002   0.000000   0.000000
    10  H    0.000000   0.000001   0.000000   0.000000   0.000000   0.000000
    11  C    0.395860   0.270111  -0.132082  -0.108669   0.003601  -0.003954
    12  H    0.001121   0.002912   0.000766   0.010147  -0.000002  -0.000016
    13  H    0.427876  -0.020275  -0.004327   0.001114  -0.000040   0.001859
    14  C   -0.020275   4.708859   0.180679   0.484229  -0.096121  -0.020054
    15  C   -0.004327   0.180679   6.057025  -0.094983   0.239075   0.327545
    16  O    0.001114   0.484229  -0.094983   8.379259  -0.000524   0.002238
    17  C   -0.000040  -0.096121   0.239075  -0.000524   4.858420  -0.030896
    18  C    0.001859  -0.020054   0.327545   0.002238  -0.030896   5.182187
    19  H   -0.000033  -0.014185  -0.007786   0.091138  -0.044043  -0.000139
    20  C    0.000001   0.002491  -0.102929   0.000148   0.411893  -0.004356
    21  O    0.000000  -0.009252  -0.073161  -0.033741   0.320257   0.002823
    22  C    0.000042   0.002200  -0.092355   0.000001  -0.011334   0.480882
    23  H    0.005167  -0.001292  -0.033737  -0.000011   0.001686   0.392301
    24  C    0.000001  -0.000122  -0.001697  -0.000003  -0.089832  -0.108944
    25  H    0.000000  -0.000003   0.004485   0.000002  -0.036895  -0.000444
    26  H   -0.000004  -0.000024   0.002479   0.000000  -0.000141  -0.033813
    27  H    0.000000  -0.000001  -0.000210   0.000000   0.002399   0.002565
              19         20         21         22         23         24
     1  C    0.000000   0.000000   0.000000   0.000000   0.000001   0.000000
     2  H    0.000000   0.000000   0.000000   0.000000   0.000000   0.000000
     3  H    0.000000   0.000000   0.000000   0.000000   0.000004   0.000000
     4  H    0.000000   0.000000   0.000000   0.000000  -0.000013   0.000000
     5  N    0.000000   0.000000   0.000000   0.000000  -0.000001   0.000000
     6  C    0.000000   0.000000   0.000000   0.000000   0.000000   0.000000
     7  C   -0.000067   0.000000   0.000002  -0.000002   0.000029   0.000000
     8  H    0.000000   0.000000   0.000000   0.000000   0.000000   0.000000
     9  H    0.000000   0.000000   0.000000   0.000000   0.000000   0.000000
    10  H    0.000000   0.000000   0.000000   0.000000   0.000000   0.000000
    11  C    0.002330  -0.000033  -0.000082   0.000118  -0.000469  -0.000001
    12  H    0.000002   0.000000   0.000002   0.000000   0.000003   0.000000
    13  H   -0.000033   0.000001   0.000000   0.000042   0.005167   0.000001
    14  C   -0.014185   0.002491  -0.009252   0.002200  -0.001292  -0.000122
    15  C   -0.007786  -0.102929  -0.073161  -0.092355  -0.033737  -0.001697
    16  O    0.091138   0.000148  -0.033741   0.000001  -0.000011  -0.000003
    17  C   -0.044043   0.411893   0.320257  -0.011334   0.001686  -0.089832
    18  C   -0.000139  -0.004356   0.002823   0.480882   0.392301  -0.108944
    19  H    0.287043   0.003874   0.217556   0.000031  -0.000002  -0.000225
    20  C    0.003874   5.319709  -0.058614  -0.105402  -0.000029   0.436909
    21  O    0.217556  -0.058614   8.423484  -0.000239  -0.000001   0.002878
    22  C    0.000031  -0.105402  -0.000239   5.209719  -0.028406   0.448349
    23  H   -0.000002  -0.000029  -0.000001  -0.028406   0.420955   0.002221
    24  C   -0.000225   0.436909   0.002878   0.448349   0.002221   5.182906
    25  H    0.000065   0.390180  -0.001168   0.002227   0.000001  -0.030701
    26  H    0.000000   0.002190   0.000000   0.400325  -0.001202  -0.031453
    27  H    0.000001  -0.028901  -0.000005  -0.033034  -0.000036   0.392865
              25         26         27
     1  C    0.000000   0.000000   0.000000
     2  H    0.000000   0.000000   0.000000
     3  H    0.000000   0.000000   0.000000
     4  H    0.000000   0.000000   0.000000
     5  N    0.000000   0.000000   0.000000
     6  C    0.000000   0.000000   0.000000
     7  C    0.000000   0.000000   0.000000
     8  H    0.000000   0.000000   0.000000
     9  H    0.000000   0.000000   0.000000
    10  H    0.000000   0.000000   0.000000
    11  C    0.000000   0.000002   0.000000
    12  H    0.000000   0.000000   0.000000
    13  H    0.000000  -0.000004   0.000000
    14  C   -0.000003  -0.000024  -0.000001
    15  C    0.004485   0.002479  -0.000210
    16  O    0.000002   0.000000   0.000000
    17  C   -0.036895  -0.000141   0.002399
    18  C   -0.000444  -0.033813   0.002565
    19  H    0.000065   0.000000   0.000001
    20  C    0.390180   0.002190  -0.028901
    21  O   -0.001168   0.000000  -0.000005
    22  C    0.002227   0.400325  -0.033034
    23  H    0.000001  -0.001202  -0.000036
    24  C   -0.030701  -0.031453   0.392865
    25  H    0.413859  -0.000025  -0.001456
    26  H   -0.000025   0.431177  -0.001235
    27  H   -0.001456  -0.001235   0.421858
 Mulliken charges:
               1
     1  C   -0.331954
     2  H    0.222476
     3  H    0.223428
     4  H    0.233017
     5  N   -0.872274
     6  C   -0.322442
     7  C    0.338527
     8  H    0.220456
     9  H    0.224364
    10  H    0.220022
    11  C   -0.465972
    12  H    0.302485
    13  H    0.230924
    14  C    0.599448
    15  C   -0.277268
    16  O   -0.738390
    17  C    0.472529
    18  C   -0.189290
    19  H    0.464440
    20  C   -0.267133
    21  O   -0.790739
    22  C   -0.273122
    23  H    0.242829
    24  C   -0.203149
    25  H    0.259874
    26  H    0.231724
    27  H    0.245190
 Sum of Mulliken charges =   0.00000
 Mulliken charges with hydrogens summed into heavy atoms:
               1
     1  C    0.346967
     5  N   -0.872274
     6  C    0.342401
     7  C    0.641012
    11  C   -0.235048
    14  C    0.599448
    15  C   -0.277268
    16  O   -0.738390
    17  C    0.472529
    18  C    0.053539
    20  C   -0.007259
    21  O   -0.326299
    22  C   -0.041399
    24  C    0.042041
 Electronic spatial extent (au):  <R**2>=           3971.5864
 Charge=              0.0000 electrons
 Dipole moment (field-independent basis, Debye):
    X=             -7.0337    Y=              4.6132    Z=             -0.1176  Tot=              8.4124
 Quadrupole moment (field-independent basis, Debye-Ang):
   XX=            -56.8159   YY=            -86.2123   ZZ=            -89.2618
   XY=              6.5597   XZ=             -0.3664   YZ=              0.8541
 Traceless Quadrupole moment (field-independent basis, Debye-Ang):
   XX=             20.6140   YY=             -8.7823   ZZ=            -11.8318
   XY=              6.5597   XZ=             -0.3664   YZ=              0.8541
 Octapole moment (field-independent basis, Debye-Ang**2):
  XXX=           -106.5602  YYY=             19.9251  ZZZ=              0.9760  XYY=            -27.3756
  XXY=             19.3070  XXZ=             -0.0217  XZZ=            -13.8545  YZZ=             -9.0630
  YYZ=             -1.6665  XYZ=             -2.9997
 Hexadecapole moment (field-independent basis, Debye-Ang**3):
 XXXX=          -3573.6643 YYYY=           -875.1179 ZZZZ=           -107.4605 XXXY=             67.2804
 XXXZ=              0.7292 YYYX=             31.3035 YYYZ=              0.2353 ZZZX=              2.3157
 ZZZY=              0.7812 XXYY=           -833.2032 XXZZ=           -788.9183 YYZZ=           -169.9831
 XXYZ=             11.8989 YYXZ=             -6.4618 ZZXY=            -21.5482
 N-N= 8.345224354524D+02 E-N=-3.128834489545D+03  KE= 6.227180697433D+02
 No NMR shielding tensors so no spin-rotation constants.
 Leave Link  601 at Tue Nov 28 17:19:59 2017, MaxMem=  1073741824 cpu:         0.4
 (Enter /share/apps/gaussian/g09_D01/g09/l602.exe)
 FitSet:  NAtFit=    27 NAtPot=    27 NAtFrz=     0 MDM=    31 TotChg=   0.00000
 Merz-Kollman atomic radii used.

 **********************************************************************

            Electrostatic Properties Using The SCF Density

 **********************************************************************

       Atomic Center    1 is at  -3.737233  1.621333  0.243209
       Atomic Center    2 is at  -4.749347  1.837466  0.602038
       Atomic Center    3 is at  -3.568474  2.186653 -0.686624
       Atomic Center    4 is at  -3.019891  1.944946  1.005117
       Atomic Center    5 is at  -3.611576  0.190232  0.011572
       Atomic Center    6 is at  -4.855586 -0.553918 -0.124412
       Atomic Center    7 is at  -2.424980 -0.413473 -0.074947
       Atomic Center    8 is at  -5.443764 -0.156307 -0.965224
       Atomic Center    9 is at  -4.631309 -1.610140 -0.310625
       Atomic Center   10 is at  -5.442333 -0.459956  0.802977
       Atomic Center   11 is at  -1.181378  0.187267 -0.006167
       Atomic Center   12 is at  -2.471788 -1.495369 -0.213359
       Atomic Center   13 is at  -1.101932  1.265810  0.078356
       Atomic Center   14 is at   0.008334 -0.596860 -0.039833
       Atomic Center   15 is at   1.343572  0.045177 -0.022794
       Atomic Center   16 is at  -0.029240 -1.888129 -0.071302
       Atomic Center   17 is at   2.507495 -0.781172  0.063414
       Atomic Center   18 is at   1.531183  1.440250 -0.104226
       Atomic Center   19 is at   1.357921 -2.266848  0.050785
       Atomic Center   20 is at   3.786287 -0.201976  0.066804
       Atomic Center   21 is at   2.399550 -2.122537  0.144768
       Atomic Center   22 is at   2.799812  2.004213 -0.110254
       Atomic Center   23 is at   0.668321  2.098797 -0.166211
       Atomic Center   24 is at   3.927854  1.176097 -0.023542
       Atomic Center   25 is at   4.647532 -0.866836  0.147444
       Atomic Center   26 is at   2.920663  3.084487 -0.187438
       Atomic Center   27 is at   4.920786  1.629368 -0.029475
    1167 points will be used for fitting atomic charges
 Fitting point charges to electrostatic potential
 Charges from ESP fit, RMS=   0.00087 RRMS=   0.03544:
 ESP charges:
               1
     1  C   -0.319631
     2  H    0.145208
     3  H    0.135848
     4  H    0.144557
     5  N   -0.001024
     6  C   -0.370116
     7  C    0.187024
     8  H    0.147748
     9  H    0.153115
    10  H    0.143815
    11  C   -0.838468
    12  H    0.172839
    13  H    0.264509
    14  C    0.965353
    15  C   -0.665466
    16  O   -0.715468
    17  C    0.806481
    18  C    0.067962
    19  H    0.523854
    20  C   -0.550701
    21  O   -0.763121
    22  C   -0.397156
    23  H    0.136456
    24  C    0.042379
    25  H    0.240313
    26  H    0.189423
    27  H    0.154267
 Sum of ESP charges =   0.00000
 ESP charges with hydrogens summed into heavy atoms:
               1
     1  C    0.105982
     5  N   -0.001024
     6  C    0.074562
     7  C    0.359863
    11  C   -0.573959
    14  C    0.965353
    15  C   -0.665466
    16  O   -0.715468
    17  C    0.806481
    18  C    0.204417
    20  C   -0.310388
    21  O   -0.239267
    22  C   -0.207733
    24  C    0.196647
 Charge=   0.00000 Dipole=    -7.0233     4.6180    -0.1217 Tot=     8.4064
 -----------------------------------------------------------------

              Electrostatic Properties (Atomic Units)

 -----------------------------------------------------------------
    Center     Electric         -------- Electric Field --------
               Potential          X             Y             Z
 -----------------------------------------------------------------
    1 Atom    -14.568797
    2 Atom     -1.058998
    3 Atom     -1.069158
    4 Atom     -1.064416
    5 Atom    -18.164247
    6 Atom    -14.563869
    7 Atom    -14.538237
    8 Atom     -1.065601
    9 Atom     -1.054231
   10 Atom     -1.065750
   11 Atom    -14.642219
   12 Atom     -1.045889
   13 Atom     -1.081918
   14 Atom    -14.524087
   15 Atom    -14.627682
   16 Atom    -22.224316
   17 Atom    -14.558762
   18 Atom    -14.614062
   19 Atom     -0.975117
   20 Atom    -14.644493
   21 Atom    -22.220750
   22 Atom    -14.638397
   23 Atom     -1.079233
   24 Atom    -14.618738
   25 Atom     -1.100593
   26 Atom     -1.095693
   27 Atom     -1.086686
 -----------------------------------------------------------------
 Leave Link  602 at Tue Nov 28 17:19:59 2017, MaxMem=  1073741824 cpu:         0.3
 (Enter /share/apps/gaussian/g09_D01/g09/l9999.exe)
 1\1\GINC-NXN32\SP\RHF\3-21G\C11H13N1O2\BTX008\28-Nov-2017\0\\#p HF 3-2
 1G pop=ESP density=current\\title\\0,1\C,0,-0.018523,-0.167594,-8.6242
 27\H,0,-1.041859,-0.396318,-8.940951\H,0,0.5962,-1.072565,-8.749918\H,
 0,0.373154,0.633692,-9.260104\N,0,-0.036716,0.259407,-7.233244\C,0,-1.
 221106,-0.094821,-6.464118\C,0,0.973728,0.936608,-6.685196\H,0,-1.3513
 3,-1.187488,-6.452592\H,0,-1.109743,0.264547,-5.435025\H,0,-2.108423,0
 .36969,-6.92243\C,0,2.16225,1.292265,-7.296006\H,0,0.8173,1.228212,-5.
 644838\H,0,2.369255,0.972216,-8.311599\C,0,3.125938,2.08453,-6.606786\
 C,0,4.424405,2.421374,-7.235977\O,0,2.901988,2.549157,-5.421988\C,0,5.
 310019,3.316548,-6.558221\C,0,4.84538,1.88884,-8.471795\H,0,4.044833,3
 .394053,-5.171782\C,0,6.553187,3.642642,-7.123008\O,0,4.969374,3.86225
 ,-5.373442\C,0,6.080774,2.208877,-9.018501\H,0,4.195278,1.20876,-9.016
 695\C,0,6.933539,3.089708,-8.338279\H,0,7.19334,4.339668,-6.580197\H,0
 ,6.3904,1.77451,-9.96877\H,0,7.90281,3.334553,-8.776421\\Version=ES64L
 -G09RevD.01\State=1-A\HF=-624.7796389\RMSD=9.584e-09\Dipole=-2.192856,
 -1.9405754,-1.5425747\Quadrupole=12.3889376,-6.2201411,-6.1687965,7.86
 0605,-4.6967815,-1.6581327\PG=C01 [X(C11H13N1O2)]\\@


 I DO NOT DEFINE TIME, SPACE, PLACE, AND MOTION, AS BEING WELL KNOWN TO ALL.
                                            -- NEWTON (1642-1726), PRINCIPIA
 Job cpu time:       0 days  0 hours  0 minutes  6.7 seconds.
 File lengths (MBytes):  RWF=     11 Int=      0 D2E=      0 Chk=      3 Scr=      1
 Normal termination of Gaussian 09 at Tue Nov 28 17:19:59 2017.
