 Entering Gaussian System, Link 0=g09
 Input=2hc_3_666-mega_dimer_0_mon-1.com
 Output=2hc_3_666-mega_dimer_0_mon-1.out
 Initial command:
 /share/apps/gaussian/g09_D01/g09/l1.exe "/tmp/159661.1.all.q/Gau-2164.inp" -scrdir="/tmp/159661.1.all.q/"
 Entering Link 1 = /share/apps/gaussian/g09_D01/g09/l1.exe PID=      2165.
  
 Copyright (c) 1988,1990,1992,1993,1995,1998,2003,2009,2013,
            Gaussian, Inc.  All Rights Reserved.
  
 This is part of the Gaussian(R) 09 program.  It is based on
 the Gaussian(R) 03 system (copyright 2003, Gaussian, Inc.),
 the Gaussian(R) 98 system (copyright 1998, Gaussian, Inc.),
 the Gaussian(R) 94 system (copyright 1995, Gaussian, Inc.),
 the Gaussian 92(TM) system (copyright 1992, Gaussian, Inc.),
 the Gaussian 90(TM) system (copyright 1990, Gaussian, Inc.),
 the Gaussian 88(TM) system (copyright 1988, Gaussian, Inc.),
 the Gaussian 86(TM) system (copyright 1986, Carnegie Mellon
 University), and the Gaussian 82(TM) system (copyright 1983,
 Carnegie Mellon University). Gaussian is a federally registered
 trademark of Gaussian, Inc.
  
 This software contains proprietary and confidential information,
 including trade secrets, belonging to Gaussian, Inc.
  
 This software is provided under written license and may be
 used, copied, transmitted, or stored only in accord with that
 written license.
  
 The following legend is applicable only to US Government
 contracts under FAR:
  
                    RESTRICTED RIGHTS LEGEND
  
 Use, reproduction and disclosure by the US Government is
 subject to restrictions as set forth in subparagraphs (a)
 and (c) of the Commercial Computer Software - Restricted
 Rights clause in FAR 52.227-19.
  
 Gaussian, Inc.
 340 Quinnipiac St., Bldg. 40, Wallingford CT 06492
  
  
 ---------------------------------------------------------------
 Warning -- This program may not be used in any manner that
 competes with the business of Gaussian, Inc. or will provide
 assistance to any competitor of Gaussian, Inc.  The licensee
 of this program is prohibited from giving any competitor of
 Gaussian, Inc. access to this program.  By using this program,
 the user acknowledges that Gaussian, Inc. is engaged in the
 business of creating and licensing software in the field of
 computational chemistry and represents and warrants to the
 licensee that it is not a competitor of Gaussian, Inc. and that
 it will not use this program in any manner prohibited above.
 ---------------------------------------------------------------
  

 Cite this work as:
 Gaussian 09, Revision D.01,
 M. J. Frisch, G. W. Trucks, H. B. Schlegel, G. E. Scuseria, 
 M. A. Robb, J. R. Cheeseman, G. Scalmani, V. Barone, B. Mennucci, 
 G. A. Petersson, H. Nakatsuji, M. Caricato, X. Li, H. P. Hratchian, 
 A. F. Izmaylov, J. Bloino, G. Zheng, J. L. Sonnenberg, M. Hada, 
 M. Ehara, K. Toyota, R. Fukuda, J. Hasegawa, M. Ishida, T. Nakajima, 
 Y. Honda, O. Kitao, H. Nakai, T. Vreven, J. A. Montgomery, Jr., 
 J. E. Peralta, F. Ogliaro, M. Bearpark, J. J. Heyd, E. Brothers, 
 K. N. Kudin, V. N. Staroverov, T. Keith, R. Kobayashi, J. Normand, 
 K. Raghavachari, A. Rendell, J. C. Burant, S. S. Iyengar, J. Tomasi, 
 M. Cossi, N. Rega, J. M. Millam, M. Klene, J. E. Knox, J. B. Cross, 
 V. Bakken, C. Adamo, J. Jaramillo, R. Gomperts, R. E. Stratmann, 
 O. Yazyev, A. J. Austin, R. Cammi, C. Pomelli, J. W. Ochterski, 
 R. L. Martin, K. Morokuma, V. G. Zakrzewski, G. A. Voth, 
 P. Salvador, J. J. Dannenberg, S. Dapprich, A. D. Daniels, 
 O. Farkas, J. B. Foresman, J. V. Ortiz, J. Cioslowski, 
 and D. J. Fox, Gaussian, Inc., Wallingford CT, 2013.
 
 ******************************************
 Gaussian 09:  ES64L-G09RevD.01 24-Apr-2013
                 2-Nov-2017 
 ******************************************
 %chk=2hc_3_666-mega_dimer_0.chk
 %nproc=4
 Will use up to    4 processors via shared memory.
 %mem=28GB
 ------------------------------------------
 #p wb97xd/6-311++G** td=(nstates=2) nosymm
 ------------------------------------------
 1/38=1/1;
 2/12=2,15=1,17=6,18=5,40=1/2;
 3/5=4,6=6,7=1111,11=9,16=1,25=1,30=1,74=-58/1,2,8,3;
 4//1;
 5/5=2,38=5/2;
 8/6=1,10=2,108=2/1;
 9/41=2,42=1,70=2/14;
 6/7=2,8=2,9=2,10=2/1;
 99/5=1,9=1/99;
 Leave Link    1 at Thu Nov  2 09:26:22 2017, MaxMem=  3758096384 cpu:         0.2
 (Enter /share/apps/gaussian/g09_D01/g09/l101.exe)
 -----
 Title
 -----
 Symbolic Z-matrix:
 Charge =  0 Multiplicity = 1
 H                     0.53927  -0.75728  -1.51802 
 C                     1.31672  -1.38164  -1.96855 
 C                     1.40669  -1.35272  -3.39677 
 C                     2.10795  -2.10545  -1.11989 
 C                     0.52876  -0.53164  -4.13992 
 C                     2.35563  -2.10114  -4.13374 
 H                     2.89147  -2.74081  -1.52655 
 C                     1.94011  -2.07289   0.31152 
 C                     0.59631  -0.44087  -5.51502 
 H                    -0.2292    0.04262  -3.60766 
 C                     2.43787  -2.02858  -5.50526 
 H                     3.04636  -2.75996  -3.60941 
 C                     2.79848  -2.87877   1.18174 
 O                     1.03805  -1.32811   0.84865 
 C                     1.55452  -1.19386  -6.24569 
 H                    -0.09795   0.21578  -6.03564 
 H                     3.19059  -2.62068  -6.02031 
 C                     2.62223  -2.79418   2.59711 
 C                     3.81294  -3.73925   0.70458 
 H                     1.20915  -1.58669   2.24094 
 N                     1.61757  -1.13023  -7.60105 
 C                     3.44877  -3.51243   3.47332 
 O                     1.64461  -2.02665   3.10786 
 H                     3.94817  -3.88086  -0.36579 
 C                     4.63318  -4.44373   1.55751 
 C                     2.57987  -1.93902  -8.33128 
 C                     0.73254  -0.23275  -8.32413 
 H                     3.28674  -3.4075    4.54338 
 C                     4.45312  -4.32618   2.95318 
 H                     5.41845  -5.09794   1.18227 
 H                     2.50476  -3.       -8.05072 
 H                     2.36944  -1.85719  -9.40052 
 H                     3.61296  -1.60041  -8.14707 
 H                     0.95215  -0.29669  -9.3946 
 H                    -0.32519  -0.49982  -8.16616 
 H                     0.87607   0.81066  -8.00256 
 O                     5.30616  -5.05631   3.70983 
 C                     5.10541  -5.08623   5.12879 
 H                     4.10264  -5.48218   5.35917 
 H                     5.87537  -5.75701   5.5211 
 H                     5.22226  -4.0806    5.56032 
 
 NAtoms=     41 NQM=       41 NQMF=       0 NMMI=      0 NMMIF=      0
                NMic=       0 NMicF=      0.
                    Isotopes and Nuclear Properties:
 (Nuclear quadrupole moments (NQMom) in fm**2, nuclear magnetic moments (NMagM)
  in nuclear magnetons)

  Atom         1           2           3           4           5           6           7           8           9          10
 IAtWgt=           1          12          12          12          12          12           1          12          12           1
 AtmWgt=   1.0078250  12.0000000  12.0000000  12.0000000  12.0000000  12.0000000   1.0078250  12.0000000  12.0000000   1.0078250
 NucSpn=           1           0           0           0           0           0           1           0           0           1
 AtZEff=   0.0000000   0.0000000   0.0000000   0.0000000   0.0000000   0.0000000   0.0000000   0.0000000   0.0000000   0.0000000
 NQMom=    0.0000000   0.0000000   0.0000000   0.0000000   0.0000000   0.0000000   0.0000000   0.0000000   0.0000000   0.0000000
 NMagM=    2.7928460   0.0000000   0.0000000   0.0000000   0.0000000   0.0000000   2.7928460   0.0000000   0.0000000   2.7928460
 AtZNuc=   1.0000000   6.0000000   6.0000000   6.0000000   6.0000000   6.0000000   1.0000000   6.0000000   6.0000000   1.0000000

  Atom        11          12          13          14          15          16          17          18          19          20
 IAtWgt=          12           1          12          16          12           1           1          12          12           1
 AtmWgt=  12.0000000   1.0078250  12.0000000  15.9949146  12.0000000   1.0078250   1.0078250  12.0000000  12.0000000   1.0078250
 NucSpn=           0           1           0           0           0           1           1           0           0           1
 AtZEff=   0.0000000   0.0000000   0.0000000   0.0000000   0.0000000   0.0000000   0.0000000   0.0000000   0.0000000   0.0000000
 NQMom=    0.0000000   0.0000000   0.0000000   0.0000000   0.0000000   0.0000000   0.0000000   0.0000000   0.0000000   0.0000000
 NMagM=    0.0000000   2.7928460   0.0000000   0.0000000   0.0000000   2.7928460   2.7928460   0.0000000   0.0000000   2.7928460
 AtZNuc=   6.0000000   1.0000000   6.0000000   8.0000000   6.0000000   1.0000000   1.0000000   6.0000000   6.0000000   1.0000000

  Atom        21          22          23          24          25          26          27          28          29          30
 IAtWgt=          14          12          16           1          12          12          12           1          12           1
 AtmWgt=  14.0030740  12.0000000  15.9949146   1.0078250  12.0000000  12.0000000  12.0000000   1.0078250  12.0000000   1.0078250
 NucSpn=           2           0           0           1           0           0           0           1           0           1
 AtZEff=   0.0000000   0.0000000   0.0000000   0.0000000   0.0000000   0.0000000   0.0000000   0.0000000   0.0000000   0.0000000
 NQMom=    2.0440000   0.0000000   0.0000000   0.0000000   0.0000000   0.0000000   0.0000000   0.0000000   0.0000000   0.0000000
 NMagM=    0.4037610   0.0000000   0.0000000   2.7928460   0.0000000   0.0000000   0.0000000   2.7928460   0.0000000   2.7928460
 AtZNuc=   7.0000000   6.0000000   8.0000000   1.0000000   6.0000000   6.0000000   6.0000000   1.0000000   6.0000000   1.0000000

  Atom        31          32          33          34          35          36          37          38          39          40
 IAtWgt=           1           1           1           1           1           1          16          12           1           1
 AtmWgt=   1.0078250   1.0078250   1.0078250   1.0078250   1.0078250   1.0078250  15.9949146  12.0000000   1.0078250   1.0078250
 NucSpn=           1           1           1           1           1           1           0           0           1           1
 AtZEff=   0.0000000   0.0000000   0.0000000   0.0000000   0.0000000   0.0000000   0.0000000   0.0000000   0.0000000   0.0000000
 NQMom=    0.0000000   0.0000000   0.0000000   0.0000000   0.0000000   0.0000000   0.0000000   0.0000000   0.0000000   0.0000000
 NMagM=    2.7928460   2.7928460   2.7928460   2.7928460   2.7928460   2.7928460   0.0000000   0.0000000   2.7928460   2.7928460
 AtZNuc=   1.0000000   1.0000000   1.0000000   1.0000000   1.0000000   1.0000000   8.0000000   6.0000000   1.0000000   1.0000000

  Atom        41
 IAtWgt=           1
 AtmWgt=   1.0078250
 NucSpn=           1
 AtZEff=   0.0000000
 NQMom=    0.0000000
 NMagM=    2.7928460
 AtZNuc=   1.0000000
 Leave Link  101 at Thu Nov  2 09:26:22 2017, MaxMem=  3758096384 cpu:         0.2
 (Enter /share/apps/gaussian/g09_D01/g09/l202.exe)
                          Input orientation:                          
 ---------------------------------------------------------------------
 Center     Atomic      Atomic             Coordinates (Angstroms)
 Number     Number       Type             X           Y           Z
 ---------------------------------------------------------------------
      1          1           0        0.539269   -0.757276   -1.518015
      2          6           0        1.316716   -1.381636   -1.968554
      3          6           0        1.406691   -1.352716   -3.396768
      4          6           0        2.107951   -2.105446   -1.119894
      5          6           0        0.528755   -0.531643   -4.139920
      6          6           0        2.355633   -2.101138   -4.133738
      7          1           0        2.891473   -2.740814   -1.526547
      8          6           0        1.940107   -2.072893    0.311518
      9          6           0        0.596312   -0.440871   -5.515017
     10          1           0       -0.229195    0.042620   -3.607661
     11          6           0        2.437872   -2.028575   -5.505255
     12          1           0        3.046357   -2.759955   -3.609406
     13          6           0        2.798479   -2.878770    1.181744
     14          8           0        1.038050   -1.328111    0.848651
     15          6           0        1.554518   -1.193862   -6.245691
     16          1           0       -0.097949    0.215782   -6.035640
     17          1           0        3.190590   -2.620676   -6.020314
     18          6           0        2.622229   -2.794178    2.597110
     19          6           0        3.812938   -3.739251    0.704584
     20          1           0        1.209147   -1.586690    2.240938
     21          7           0        1.617571   -1.130231   -7.601046
     22          6           0        3.448765   -3.512435    3.473315
     23          8           0        1.644609   -2.026650    3.107859
     24          1           0        3.948167   -3.880855   -0.365788
     25          6           0        4.633175   -4.443732    1.557505
     26          6           0        2.579873   -1.939015   -8.331282
     27          6           0        0.732543   -0.232747   -8.324129
     28          1           0        3.286739   -3.407499    4.543375
     29          6           0        4.453123   -4.326179    2.953178
     30          1           0        5.418454   -5.097941    1.182270
     31          1           0        2.504764   -2.999998   -8.050717
     32          1           0        2.369440   -1.857185   -9.400518
     33          1           0        3.612955   -1.600405   -8.147074
     34          1           0        0.952148   -0.296688   -9.394601
     35          1           0       -0.325191   -0.499819   -8.166162
     36          1           0        0.876069    0.810662   -8.002562
     37          8           0        5.306155   -5.056311    3.709831
     38          6           0        5.105413   -5.086228    5.128793
     39          1           0        4.102643   -5.482180    5.359169
     40          1           0        5.875374   -5.757014    5.521101
     41          1           0        5.222262   -4.080597    5.560317
 ---------------------------------------------------------------------
                    Distance matrix (angstroms):
                    1          2          3          4          5
     1  H    0.000000
     2  C    1.094182   0.000000
     3  C    2.153296   1.431338   0.000000
     4  C    2.106377   1.367544   2.498504   0.000000
     5  C    2.631617   2.461341   1.413226   3.753834   0.000000
     6  C    3.456465   2.507001   1.415539   3.024007   2.408492
     7  H    3.076907   2.126639   2.762086   1.087642   4.158436
     8  C    2.653373   2.462759   3.815046   1.441586   4.917587
     9  C    4.009912   3.739174   2.444413   4.936899   1.379745
    10  H    2.365796   2.665524   2.160454   4.033041   1.089755
    11  C    4.595539   3.766135   2.442506   4.398426   2.783823
    12  H    3.830161   2.753873   2.171184   2.739828   3.403695
    13  C    4.110166   3.789645   5.022817   2.524361   6.243457
    14  O    2.485104   2.831460   4.261465   2.371520   5.077360
    15  C    4.855127   4.287856   2.857175   5.235558   2.434131
    16  H    4.664957   4.592843   3.418739   5.866741   2.131937
    17  H    5.547293   4.632859   3.416579   5.044966   3.871086
    18  C    5.042018   4.954284   6.283464   3.815095   7.408729
    19  C    4.954698   4.351453   5.320401   2.984128   6.674116
    20  H    3.907223   4.215856   5.646016   3.517406   6.503184
    21  N    6.189111   5.646121   4.215439   6.572431   3.677393
    22  C    6.400738   6.220922   7.485485   4.987481   8.681758
    23  O    4.922580   5.127721   6.543773   4.253797   7.484015
    24  H    4.764972   3.967302   4.694404   2.665923   6.095381
    25  C    6.309425   5.727864   6.671537   4.360367   8.038119
    26  C    7.209797   6.510802   5.105833   7.228729   4.873941
    27  C    6.829032   6.484947   5.097813   7.569660   4.199818
    28  H    7.163290   7.098615   8.414427   5.929376   9.553881
    29  C    6.931586   6.536882   7.644870   5.198211   8.950486
    30  H    7.066778   6.368899   7.147625   5.021396   8.549032
    31  H    7.181168   6.404940   5.057523   6.999571   5.029088
    32  H    8.166589   7.521201   6.101343   8.288471   5.728793
    33  H    7.355463   6.595050   5.243506   7.204260   5.168348
    34  H    7.900836   7.513734   6.107029   8.548582   5.276944
    35  H    6.709056   6.471770   5.145286   7.625491   4.115928
    36  H    6.679911   6.435029   5.116161   7.575773   4.103951
    37  O    8.278604   7.852574   8.912137   6.500950  10.242791
    38  C    9.152571   8.857232  10.015231   7.544265  11.295976
    39  H    9.072927   8.847111  10.049232   7.573598  11.292174
    40  H   10.149904   9.798991  10.903915   8.463465  12.215816
    41  H    9.114695   8.900650  10.110850   7.630555  11.345426
                    6          7          8          9         10
     6  C    0.000000
     7  H    2.737472   0.000000
     8  C    4.464724   2.174787   0.000000
     9  C    2.785611   5.144453   6.198209   0.000000
    10  H    3.399087   4.670879   4.953911   2.133830   0.000000
    11  C    1.375895   4.067328   5.838200   2.431510   3.873494
    12  H    1.089065   2.088697   4.131524   3.874561   4.310878
    13  C    5.390285   2.713396   1.464081   7.459189   6.374930
    14  O    5.211314   3.327532   1.287214   6.440388   4.831514
    15  C    2.434190   5.143037   6.627093   1.420929   3.416097
    16  H    3.873682   6.165227   7.048271   1.088228   2.437682
    17  H    2.127497   4.505313   6.477335   3.425953   4.960743
    18  C    6.771683   4.132782   2.491881   8.686138   7.394405
    19  C    5.311922   2.612263   2.537468   7.740118   7.016897
    20  H    6.497352   4.284410   2.119754   7.864051   6.239358
    21  N    3.675544   6.412203   7.975043   2.422747   4.553378
    22  C    7.813703   5.089656   3.787518   9.917717   8.735332
    23  O    7.276801   4.852053   2.812291   8.829927   7.272636
    24  H    4.461054   1.940015   2.785637   7.041518   6.584356
    25  C    6.562407   3.929991   3.798154   9.074124   8.393386
    26  C    4.206655   6.858892   8.667480   3.756368   5.842117
    27  C    4.866691   7.560324   8.911720   2.820104   4.821394
    28  H    8.824162   6.119204   4.637155  10.826381   9.523891
    29  C    7.718462   5.002006   4.286131  10.083697   9.168158
    30  H    6.828004   4.390828   4.691271   9.476023   9.014696
    31  H    4.021556   6.540758   8.432398   4.076898   6.039272
    32  H    5.272445   7.940575   9.723914   4.499672   6.627168
    33  H    4.235382   6.756659   8.635360   4.168018   6.169920
    34  H    5.736069   8.464101   9.916638   3.898536   5.916027
    35  H    5.100145   7.710608   8.914998   2.807350   4.591665
    36  H    5.063150   7.655952   8.864028   2.798657   4.596374
    37  O    8.885955   6.213845   5.637339  11.339432  10.496899
    38  C   10.112692   7.395678   6.504267  12.458010  11.449400
    39  H   10.227354   7.509667   6.463635  12.488277  11.388252
    40  H   10.907333   8.226206   7.496588  13.338882  12.419171
    41  H   10.300996   7.579659   6.507942  12.542330  11.435520
                   11         12         13         14         15
    11  C    0.000000
    12  H    2.121182   0.000000
    13  C    6.750468   4.799029   0.000000
    14  O    6.543873   5.094875   2.369516   0.000000
    15  C    1.423132   3.410019   7.717068   7.114383   0.000000
    16  H    3.427657   4.962689   8.369957   7.146157   2.182170
    17  H    1.087407   2.419231   7.217340   7.313469   2.182504
    18  C    8.140544   6.221085   1.428804   2.777784   9.049649
    19  C    6.586298   4.489674   1.413236   3.678907   7.738591
    20  H    7.855478   6.243270   2.305936   1.426394   8.502733
    21  N    2.423274   4.542094   9.032681   8.471858   1.358312
    22  C    9.156335   7.133940   2.464894   4.179914  10.169711
    23  O    8.649567   6.901035   2.401550   2.441289   9.390982
    24  H    5.667985   3.548343   2.172743   4.057110   6.893674
    25  C    7.780419   5.661278   2.440576   4.809833   8.996091
    26  C    2.831009   4.815357   9.561830   9.328536   2.440552
    27  C    3.752225   5.828304  10.081228   9.243000   2.432959
    28  H   10.178260   8.181988   3.437807   4.799108  11.149203
    29  C    8.993626   6.891992   2.823264   5.008011  10.140637
    30  H    7.939009   5.835510   3.433510   5.788856   9.238314
    31  H    2.725347   4.480646   9.237927   9.173070   2.724558
    32  H    3.899632   5.900016  10.640112  10.348816   3.325211
    33  H    2.922902   4.717629   9.451160   9.360948   2.831554
    34  H    4.509304   6.627358  11.042425  10.295408   3.329175
    35  H    4.129411   6.102424  10.139037   9.154854   2.775466
    36  H    4.091092   6.062943  10.082611   9.107390   2.750455
    37  O   10.114942   7.996947   4.173889   6.348429  11.318379
    38  C   11.381915   9.274016   5.076811   6.999036  12.535480
    39  H   11.521049   9.431945   5.092098   6.855129  12.631524
    40  H   12.136647  10.017577   6.048272   8.052743  13.339773
    41  H   11.593554   9.516432   5.146942   6.876308  12.695173
                   16         17         18         19         20
    16  H    0.000000
    17  H    4.342835   0.000000
    18  C    9.538532   8.637889   0.000000
    19  C    8.738875   6.845640   2.427469   0.000000
    20  H    8.570831   8.558243   1.892534   3.711284   0.000000
    21  N    2.684261   2.682262  10.381736   8.978313   9.861025
    22  C   10.811984   9.538914   1.402423   2.801774   3.200490
    23  O    9.574371   9.277201   1.343765   3.662019   1.065244
    24  H    8.080886   5.842571   3.423119   1.088134   4.422719
    25  C   10.087143   7.926407   2.801020   1.377155   4.511512
    26  C    4.133262   2.485601  10.961882   9.295600  10.666530
    27  C    2.475495   4.129378  11.375645  10.163762  10.662127
    28  H   11.683314  10.593388   2.146086   3.888864   3.596241
    29  C   11.051720   9.220970   2.413708   2.410497   4.305284
    30  H   10.524475   7.935832   3.889469   2.156827   5.582824
    31  H    4.601727   2.176414  10.650464   8.883305  10.468726
    32  H    4.659142   3.561318  12.036816  10.379737  11.702262
    33  H    4.639773   2.396342  10.855603   9.108595  10.662517
    34  H    3.556395   4.668764  12.362353  11.046669  11.709651
    35  H    2.258948   4.632862  11.392954  10.310585  10.575595
    36  H    2.274066   4.589161  11.331240  10.253843  10.525566
    37  O   12.327754  10.251032   3.682235   3.604976   5.566093
    38  C   13.410103  11.577913   4.222454   4.801923   5.980582
    39  H   13.414672  11.769141   4.128674   4.978644   5.768061
    40  H   14.314788  12.257607   5.283093   5.614610   7.065745
    41  H   13.462159  11.847788   4.146763   5.067628   5.774335
                   21         22         23         24         25
    21  N    0.000000
    22  C   11.474739   0.000000
    23  O   10.746392   2.365606   0.000000
    24  H    8.083722   3.888939   4.561872   0.000000
    25  C   10.195696   2.437308   4.144564   2.117811   0.000000
    26  C    1.453754  11.940650  11.477645   8.312164  10.405660
    27  C    1.453135  12.542484  11.607769   9.326528  11.427774
    28  H   12.468321   1.087333   2.581480   4.976086   3.435417
    29  C   11.386223   1.393362   3.633113   3.386566   1.412140
    30  H   10.360312   3.412095   5.232841   2.457545   1.088785
    31  H    2.117863  11.573981  11.233926   7.868765   9.946478
    32  H    2.081314  13.024606  12.530507   9.392229  11.484467
    33  H    2.121501  11.777787  11.433704   8.115493  10.163868
    34  H    2.086725  13.496569  12.640561  10.165719  12.275853
    35  H    2.119221  12.601429  11.546206   9.515189  11.605582
    36  H    2.116154  12.530111  11.492713   9.474621  11.537737
    37  O   12.528196   2.426807   4.790421   4.453818   2.336806
    38  C   13.779106   2.821686   5.042059   5.743045   3.659222
    39  H   13.895403   2.804264   4.801147   5.946700   3.976492
    40  H   14.550833   3.888444   6.135041   6.472215   4.356359
    41  H   13.961373   2.797084   4.799255   6.064811   4.062191
                   26         27         28         29         30
    26  C    0.000000
    27  C    2.514762   0.000000
    28  H   12.977399  13.497245   0.000000
    29  C   11.685318  12.560914   2.175581   0.000000
    30  H   10.418446  11.661882   4.324214   2.159536   0.000000
    31  H    1.100020   3.297453  12.624924  11.253469   9.906513
    32  H    1.092815   2.544964  14.059768  12.769161  11.480174
    33  H    1.102655   3.193526  12.822617  11.460860  10.125673
    34  H    2.545069   1.094635  14.470475  13.452185  12.444682
    35  H    3.246220   1.102308  13.528968  12.693031  11.896443
    36  H    3.251419   1.101230  13.453800  12.617872  11.828186
    37  O   12.733364  13.747759   2.737045   1.353987   2.530397
    38  C   14.051937  14.955246   2.543309   2.395090   3.958936
    39  H   14.223266  15.038177   2.373925   2.692205   4.396076
    40  H   14.741979  15.768850   3.630041   3.265626   4.412325
    41  H   14.301927  15.091102   2.287680   2.729296   4.498975
                   31         32         33         34         35
    31  H    0.000000
    32  H    1.773780   0.000000
    33  H    1.787801   1.784205   0.000000
    34  H    3.394779   2.108057   3.214949   0.000000
    35  H    3.777945   3.259925   4.089089   1.783794   0.000000
    36  H    4.144405   3.361822   3.650298   1.780389   1.785259
    37  O   12.263226  13.810864  12.465810  14.606078  13.910891
    38  C   13.594676  15.133180  13.806775  15.846712  15.075889
    39  H   13.730968  15.296828  14.061528  15.952701  15.078601
    40  H   14.253294  15.816288  14.464264  16.629236  15.919368
    41  H   13.921664  15.391840  14.022617  16.006293  15.231954
                   36         37         38         39         40
    36  H    0.000000
    37  O   13.828492   0.000000
    38  C   15.003105   1.433403   0.000000
    39  H   15.117754   2.085694   1.102451   0.000000
    40  H   15.843512   2.023782   1.093938   1.801203   0.000000
    41  H   15.058735   2.093646   1.100527   1.805116   1.799574
                   41
    41  H    0.000000
 Symmetry turned off by external request.
 Stoichiometry    C18H19NO3
 Framework group  C1[X(C18H19NO3)]
 Deg. of freedom   117
 Full point group                 C1      NOp   1
 Rotational constants (GHZ):      0.8506551      0.0817862      0.0747293
 Leave Link  202 at Thu Nov  2 09:26:22 2017, MaxMem=  3758096384 cpu:         0.1
 (Enter /share/apps/gaussian/g09_D01/g09/l301.exe)
 Standard basis: 6-311++G(d,p) (5D, 7F)
 Ernie: Thresh=  0.10000D-02 Tol=  0.10000D-05 Strict=F.
   617 basis functions,   963 primitive gaussians,   639 cartesian basis functions
    79 alpha electrons       79 beta electrons
       nuclear repulsion energy      1595.5256480790 Hartrees.
 IExCor= 4639 DFT=T Ex+Corr=wB97XD ExCW=0 ScaHFX=  1.000000
 ScaDFX=  1.000000  1.000000  1.000000  1.000000 ScalE2=  1.000000  1.000000
 IRadAn=      0 IRanWt=     -1 IRanGd=            0 ICorTp=0 IEmpDi=121
  HFx wShort=  0.000000 wLong=  0.200000 cFull=  0.222036 cShort=  0.000000 cLong=  0.777964
  DFx wShort=  0.000000 wLong=  0.200000 cFull=  0.000000 cShort=  0.000000 cLong=  1.000000
 NAtoms=   41 NActive=   41 NUniq=   41 SFac= 1.00D+00 NAtFMM=   60 NAOKFM=F Big=F
 Integral buffers will be    131072 words long.
 Raffenetti 1 integral format.
 Two-electron integral symmetry is turned off.
 R6Disp:  Grimme-D2 Dispersion energy=       -0.0257157923 Hartrees.
 Nuclear repulsion after empirical dispersion term =     1595.4999322867 Hartrees.
 Leave Link  301 at Thu Nov  2 09:26:23 2017, MaxMem=  3758096384 cpu:         0.1
 (Enter /share/apps/gaussian/g09_D01/g09/l302.exe)
 NPDir=0 NMtPBC=     1 NCelOv=     1 NCel=       1 NClECP=     1 NCelD=      1
         NCelK=      1 NCelE2=     1 NClLst=     1 CellRange=     0.0.
 One-electron integrals computed using PRISM.
 NBasis=   617 RedAO= T EigKep=  1.51D-06  NBF=   617
 NBsUse=   609 1.00D-06 EigRej=  9.23D-07 NBFU=   609
 Precomputing XC quadrature grid using
 IXCGrd= 4 IRadAn=           0 IRanWt=          -1 IRanGd=           0 AccXCQ= 0.00D+00.
 Generated NRdTot=       0 NPtTot=           0 NUsed=           0 NTot=          32
 NSgBfM=   619   619   619   619   619 MxSgAt=    41 MxSgA2=    41.
 Leave Link  302 at Thu Nov  2 09:26:27 2017, MaxMem=  3758096384 cpu:         8.4
 (Enter /share/apps/gaussian/g09_D01/g09/l308.exe)
 Leave Link  308 at Thu Nov  2 09:26:27 2017, MaxMem=  3758096384 cpu:         1.0
 (Enter /share/apps/gaussian/g09_D01/g09/l303.exe)
 DipDrv:  MaxL=1.
 Leave Link  303 at Thu Nov  2 09:26:28 2017, MaxMem=  3758096384 cpu:         0.6
 (Enter /share/apps/gaussian/g09_D01/g09/l401.exe)
 ExpMin= 3.60D-02 ExpMax= 8.59D+03 ExpMxC= 1.30D+03 IAcc=3 IRadAn=         5 AccDes= 0.00D+00
 Harris functional with IExCor= 4639 and IRadAn=       5 diagonalized for initial guess.
 HarFok:  IExCor= 4639 AccDes= 0.00D+00 IRadAn=         5 IDoV= 1 UseB2=F ITyADJ=14
 ICtDFT=  3500011 ScaDFX=  1.000000  1.000000  1.000000  1.000000
 FoFCou: FMM=F IPFlag=           0 FMFlag=      100000 FMFlg1=           0
         NFxFlg=           0 DoJE=T BraDBF=F KetDBF=T FulRan=T
         wScrn=  0.000000 ICntrl=     500 IOpCl=  0 I1Cent=   200000004 NGrid=           0
         NMat0=    1 NMatS0=      1 NMatT0=    0 NMatD0=    1 NMtDS0=    0 NMtDT0=    0
 Symmetry not used in FoFCou.
 Harris En= -935.539785473776    
 JPrj=0 DoOrth=F DoCkMO=F.
 Leave Link  401 at Thu Nov  2 09:26:55 2017, MaxMem=  3758096384 cpu:        54.4
 (Enter /share/apps/gaussian/g09_D01/g09/l502.exe)
 Closed shell SCF:
 Using DIIS extrapolation, IDIIS=  1040.
 Two-electron integral symmetry not used.
 IVT=     1251263 IEndB=     1251263 NGot=  3758096384 MDV=  3757270722
 LenX=  3757270722 LenY=  3756861762
 Requested convergence on RMS density matrix=1.00D-08 within 128 cycles.
 Requested convergence on MAX density matrix=1.00D-06.
 Requested convergence on             energy=1.00D-06.
 No special actions if energy rises.
 Fock matrices will be formed incrementally for  20 cycles.

 Cycle   1  Pass 1  IDiag  1:
 FoFJK:  IHMeth= 1 ICntrl=       0 DoSepK=T KAlg= 0 I1Cent=   0 FoldK=F
 IRaf=         1 NMat=   1 IRICut=       1 DoRegI=T DoRafI=F ISym2E= 0.
 FoFCou: FMM=F IPFlag=           0 FMFlag=      100000 FMFlg1=           0
         NFxFlg=           0 DoJE=T BraDBF=F KetDBF=F FulRan=T
         wScrn=  0.000000 ICntrl=     500 IOpCl=  0 I1Cent=           0 NGrid=           0
         NMat0=    1 NMatS0=      1 NMatT0=    0 NMatD0=    1 NMtDS0=    0 NMtDT0=    0
 Symmetry not used in FoFCou.
 E= -977.329699549677    
 DIIS: error= 9.34D-02 at cycle   1 NSaved=   1.
 NSaved= 1 IEnMin= 1 EnMin= -977.329699549677     IErMin= 1 ErrMin= 9.34D-02
 ErrMax= 9.34D-02  0.00D+00 EMaxC= 1.00D-01 BMatC= 2.16D+00 BMatP= 2.16D+00
 IDIUse=3 WtCom= 6.57D-02 WtEn= 9.34D-01
 Coeff-Com:  0.100D+01
 Coeff-En:   0.100D+01
 Coeff:      0.100D+01
 Gap=     0.282 Goal=   None    Shift=    0.000
 GapD=    0.282 DampG=1.000 DampE=0.500 DampFc=0.5000 IDamp=-1.
 Damping current iteration by 5.00D-01
 RMSDP=1.88D-02 MaxDP=1.80D+00              OVMax= 1.76D-01

 Cycle   2  Pass 1  IDiag  1:
 RMSU=  2.99D-03    CP:  8.17D-01
 E= -977.488168909911     Delta-E=       -0.158469360234 Rises=F Damp=T
 DIIS: error= 4.19D-02 at cycle   2 NSaved=   2.
 NSaved= 2 IEnMin= 2 EnMin= -977.488168909911     IErMin= 2 ErrMin= 4.19D-02
 ErrMax= 4.19D-02  0.00D+00 EMaxC= 1.00D-01 BMatC= 4.43D-01 BMatP= 2.16D+00
 IDIUse=3 WtCom= 5.81D-01 WtEn= 4.19D-01
 Coeff-Com: -0.512D+00 0.151D+01
 Coeff-En:   0.000D+00 0.100D+01
 Coeff:     -0.298D+00 0.130D+01
 Gap=     0.269 Goal=   None    Shift=    0.000
 RMSDP=9.07D-03 MaxDP=1.01D+00 DE=-1.58D-01 OVMax= 2.04D-01

 Cycle   3  Pass 1  IDiag  1:
 RMSU=  3.22D-03    CP:  6.44D-01  1.31D+00
 E= -977.594803151147     Delta-E=       -0.106634241236 Rises=F Damp=F
 DIIS: error= 1.60D-02 at cycle   3 NSaved=   3.
 NSaved= 3 IEnMin= 3 EnMin= -977.594803151147     IErMin= 3 ErrMin= 1.60D-02
 ErrMax= 1.60D-02  0.00D+00 EMaxC= 1.00D-01 BMatC= 1.13D-01 BMatP= 4.43D-01
 IDIUse=3 WtCom= 8.40D-01 WtEn= 1.60D-01
 Coeff-Com: -0.317D+00 0.689D+00 0.627D+00
 Coeff-En:   0.000D+00 0.000D+00 0.100D+01
 Coeff:     -0.266D+00 0.579D+00 0.687D+00
 Gap=     0.264 Goal=   None    Shift=    0.000
 RMSDP=3.12D-03 MaxDP=2.63D-01 DE=-1.07D-01 OVMax= 8.55D-02

 Cycle   4  Pass 1  IDiag  1:
 RMSU=  1.23D-03    CP:  5.96D-01  1.60D+00  5.74D-01
 E= -977.677251981575     Delta-E=       -0.082448830428 Rises=F Damp=F
 DIIS: error= 5.36D-03 at cycle   4 NSaved=   4.
 NSaved= 4 IEnMin= 4 EnMin= -977.677251981575     IErMin= 4 ErrMin= 5.36D-03
 ErrMax= 5.36D-03  0.00D+00 EMaxC= 1.00D-01 BMatC= 1.10D-02 BMatP= 1.13D-01
 IDIUse=3 WtCom= 9.46D-01 WtEn= 5.36D-02
 Coeff-Com: -0.122D+00 0.264D+00 0.372D+00 0.485D+00
 Coeff-En:   0.000D+00 0.000D+00 0.246D-01 0.975D+00
 Coeff:     -0.115D+00 0.250D+00 0.354D+00 0.511D+00
 Gap=     0.241 Goal=   None    Shift=    0.000
 RMSDP=7.25D-04 MaxDP=4.19D-02 DE=-8.24D-02 OVMax= 2.05D-02

 Cycle   5  Pass 1  IDiag  1:
 RMSU=  2.96D-04    CP:  6.05D-01  1.58D+00  6.69D-01  7.06D-01
 E= -977.685863224346     Delta-E=       -0.008611242771 Rises=F Damp=F
 DIIS: error= 7.27D-04 at cycle   5 NSaved=   5.
 NSaved= 5 IEnMin= 5 EnMin= -977.685863224346     IErMin= 5 ErrMin= 7.27D-04
 ErrMax= 7.27D-04  0.00D+00 EMaxC= 1.00D-01 BMatC= 1.89D-04 BMatP= 1.10D-02
 IDIUse=3 WtCom= 9.93D-01 WtEn= 7.27D-03
 Coeff-Com:  0.896D-02-0.197D-01 0.276D-01 0.167D+00 0.816D+00
 Coeff-En:   0.000D+00 0.000D+00 0.000D+00 0.000D+00 0.100D+01
 Coeff:      0.889D-02-0.196D-01 0.274D-01 0.166D+00 0.818D+00
 Gap=     0.241 Goal=   None    Shift=    0.000
 RMSDP=2.45D-04 MaxDP=1.85D-02 DE=-8.61D-03 OVMax= 6.94D-03

 Cycle   6  Pass 1  IDiag  1:
 RMSU=  1.38D-04    CP:  6.02D-01  1.57D+00  6.73D-01  8.08D-01  8.63D-01
 E= -977.686096774486     Delta-E=       -0.000233550140 Rises=F Damp=F
 DIIS: error= 5.25D-04 at cycle   6 NSaved=   6.
 NSaved= 6 IEnMin= 6 EnMin= -977.686096774486     IErMin= 6 ErrMin= 5.25D-04
 ErrMax= 5.25D-04  0.00D+00 EMaxC= 1.00D-01 BMatC= 5.95D-05 BMatP= 1.89D-04
 IDIUse=3 WtCom= 9.95D-01 WtEn= 5.25D-03
 Coeff-Com:  0.239D-01-0.519D-01-0.457D-01-0.359D-02 0.423D+00 0.654D+00
 Coeff-En:   0.000D+00 0.000D+00 0.000D+00 0.000D+00 0.000D+00 0.100D+01
 Coeff:      0.238D-01-0.517D-01-0.454D-01-0.357D-02 0.421D+00 0.656D+00
 Gap=     0.242 Goal=   None    Shift=    0.000
 RMSDP=6.63D-05 MaxDP=5.50D-03 DE=-2.34D-04 OVMax= 4.07D-03

 Cycle   7  Pass 1  IDiag  1:
 RMSU=  4.48D-05    CP:  6.01D-01  1.57D+00  6.74D-01  8.25D-01  9.91D-01
                    CP:  1.01D+00
 E= -977.686170683965     Delta-E=       -0.000073909479 Rises=F Damp=F
 DIIS: error= 1.44D-04 at cycle   7 NSaved=   7.
 NSaved= 7 IEnMin= 7 EnMin= -977.686170683965     IErMin= 7 ErrMin= 1.44D-04
 ErrMax= 1.44D-04  0.00D+00 EMaxC= 1.00D-01 BMatC= 4.59D-06 BMatP= 5.95D-05
 IDIUse=3 WtCom= 9.99D-01 WtEn= 1.44D-03
 Coeff-Com:  0.388D-02-0.834D-02-0.124D-01-0.204D-01-0.952D-02 0.189D+00
 Coeff-Com:  0.858D+00
 Coeff-En:   0.000D+00 0.000D+00 0.000D+00 0.000D+00 0.000D+00 0.000D+00
 Coeff-En:   0.100D+01
 Coeff:      0.388D-02-0.833D-02-0.124D-01-0.204D-01-0.951D-02 0.189D+00
 Coeff:      0.858D+00
 Gap=     0.242 Goal=   None    Shift=    0.000
 RMSDP=3.01D-05 MaxDP=3.23D-03 DE=-7.39D-05 OVMax= 2.07D-03

 Cycle   8  Pass 1  IDiag  1:
 RMSU=  1.97D-05    CP:  6.01D-01  1.57D+00  6.72D-01  8.32D-01  1.01D+00
                    CP:  1.14D+00  1.05D+00
 E= -977.686181251192     Delta-E=       -0.000010567227 Rises=F Damp=F
 DIIS: error= 7.07D-05 at cycle   8 NSaved=   8.
 NSaved= 8 IEnMin= 8 EnMin= -977.686181251192     IErMin= 8 ErrMin= 7.07D-05
 ErrMax= 7.07D-05  0.00D+00 EMaxC= 1.00D-01 BMatC= 1.10D-06 BMatP= 4.59D-06
 IDIUse=1 WtCom= 1.00D+00 WtEn= 0.00D+00
 Coeff-Com: -0.194D-02 0.427D-02 0.152D-02-0.959D-02-0.795D-01-0.185D-01
 Coeff-Com:  0.381D+00 0.723D+00
 Coeff:     -0.194D-02 0.427D-02 0.152D-02-0.959D-02-0.795D-01-0.185D-01
 Coeff:      0.381D+00 0.723D+00
 Gap=     0.242 Goal=   None    Shift=    0.000
 RMSDP=1.13D-05 MaxDP=1.74D-03 DE=-1.06D-05 OVMax= 1.13D-03

 Cycle   9  Pass 1  IDiag  1:
 RMSU=  6.42D-06    CP:  6.01D-01  1.57D+00  6.72D-01  8.34D-01  1.01D+00
                    CP:  1.19D+00  1.17D+00  1.17D+00
 E= -977.686183800701     Delta-E=       -0.000002549509 Rises=F Damp=F
 DIIS: error= 3.77D-05 at cycle   9 NSaved=   9.
 NSaved= 9 IEnMin= 9 EnMin= -977.686183800701     IErMin= 9 ErrMin= 3.77D-05
 ErrMax= 3.77D-05  0.00D+00 EMaxC= 1.00D-01 BMatC= 1.36D-07 BMatP= 1.10D-06
 IDIUse=1 WtCom= 1.00D+00 WtEn= 0.00D+00
 Coeff-Com: -0.131D-02 0.284D-02 0.319D-02 0.148D-02-0.224D-01-0.372D-01
 Coeff-Com: -0.614D-01 0.179D+00 0.936D+00
 Coeff:     -0.131D-02 0.284D-02 0.319D-02 0.148D-02-0.224D-01-0.372D-01
 Coeff:     -0.614D-01 0.179D+00 0.936D+00
 Gap=     0.242 Goal=   None    Shift=    0.000
 RMSDP=6.84D-06 MaxDP=7.35D-04 DE=-2.55D-06 OVMax= 5.86D-04

 Cycle  10  Pass 1  IDiag  1:
 RMSU=  3.67D-06    CP:  6.01D-01  1.57D+00  6.73D-01  8.34D-01  1.01D+00
                    CP:  1.22D+00  1.19D+00  1.34D+00  1.33D+00
 E= -977.686184270351     Delta-E=       -0.000000469650 Rises=F Damp=F
 DIIS: error= 1.08D-05 at cycle  10 NSaved=  10.
 NSaved=10 IEnMin=10 EnMin= -977.686184270351     IErMin=10 ErrMin= 1.08D-05
 ErrMax= 1.08D-05  0.00D+00 EMaxC= 1.00D-01 BMatC= 2.14D-08 BMatP= 1.36D-07
 IDIUse=1 WtCom= 1.00D+00 WtEn= 0.00D+00
 Coeff-Com:  0.317D-04-0.774D-04 0.506D-03 0.185D-02 0.548D-02-0.573D-02
 Coeff-Com: -0.787D-01-0.525D-01 0.298D+00 0.831D+00
 Coeff:      0.317D-04-0.774D-04 0.506D-03 0.185D-02 0.548D-02-0.573D-02
 Coeff:     -0.787D-01-0.525D-01 0.298D+00 0.831D+00
 Gap=     0.242 Goal=   None    Shift=    0.000
 RMSDP=2.33D-06 MaxDP=1.95D-04 DE=-4.70D-07 OVMax= 2.33D-04

 Cycle  11  Pass 1  IDiag  1:
 RMSU=  1.18D-06    CP:  6.01D-01  1.57D+00  6.73D-01  8.34D-01  1.01D+00
                    CP:  1.22D+00  1.20D+00  1.40D+00  1.48D+00  1.12D+00
 E= -977.686184333667     Delta-E=       -0.000000063316 Rises=F Damp=F
 DIIS: error= 5.12D-06 at cycle  11 NSaved=  11.
 NSaved=11 IEnMin=11 EnMin= -977.686184333667     IErMin=11 ErrMin= 5.12D-06
 ErrMax= 5.12D-06  0.00D+00 EMaxC= 1.00D-01 BMatC= 4.08D-09 BMatP= 2.14D-08
 IDIUse=1 WtCom= 1.00D+00 WtEn= 0.00D+00
 Coeff-Com:  0.196D-03-0.424D-03-0.264D-03 0.568D-03 0.541D-02 0.356D-02
 Coeff-Com: -0.187D-01-0.446D-01-0.535D-01 0.285D+00 0.823D+00
 Coeff:      0.196D-03-0.424D-03-0.264D-03 0.568D-03 0.541D-02 0.356D-02
 Coeff:     -0.187D-01-0.446D-01-0.535D-01 0.285D+00 0.823D+00
 Gap=     0.242 Goal=   None    Shift=    0.000
 RMSDP=1.07D-06 MaxDP=1.07D-04 DE=-6.33D-08 OVMax= 8.22D-05

 Cycle  12  Pass 1  IDiag  1:
 RMSU=  5.69D-07    CP:  6.01D-01  1.57D+00  6.73D-01  8.34D-01  1.01D+00
                    CP:  1.22D+00  1.20D+00  1.42D+00  1.54D+00  1.19D+00
                    CP:  1.24D+00
 E= -977.686184344550     Delta-E=       -0.000000010883 Rises=F Damp=F
 DIIS: error= 2.14D-06 at cycle  12 NSaved=  12.
 NSaved=12 IEnMin=12 EnMin= -977.686184344550     IErMin=12 ErrMin= 2.14D-06
 ErrMax= 2.14D-06  0.00D+00 EMaxC= 1.00D-01 BMatC= 6.19D-10 BMatP= 4.08D-09
 IDIUse=1 WtCom= 1.00D+00 WtEn= 0.00D+00
 Coeff-Com:  0.475D-04-0.102D-03-0.140D-03-0.563D-04 0.951D-03 0.181D-02
 Coeff-Com:  0.739D-02-0.473D-02-0.654D-01-0.523D-01 0.252D+00 0.861D+00
 Coeff:      0.475D-04-0.102D-03-0.140D-03-0.563D-04 0.951D-03 0.181D-02
 Coeff:      0.739D-02-0.473D-02-0.654D-01-0.523D-01 0.252D+00 0.861D+00
 Gap=     0.242 Goal=   None    Shift=    0.000
 RMSDP=3.95D-07 MaxDP=2.82D-05 DE=-1.09D-08 OVMax= 3.15D-05

 Cycle  13  Pass 1  IDiag  1:
 RMSU=  2.02D-07    CP:  6.01D-01  1.57D+00  6.73D-01  8.34D-01  1.01D+00
                    CP:  1.22D+00  1.20D+00  1.43D+00  1.56D+00  1.20D+00
                    CP:  1.42D+00  1.20D+00
 E= -977.686184346203     Delta-E=       -0.000000001653 Rises=F Damp=F
 DIIS: error= 7.16D-07 at cycle  13 NSaved=  13.
 NSaved=13 IEnMin=13 EnMin= -977.686184346203     IErMin=13 ErrMin= 7.16D-07
 ErrMax= 7.16D-07  0.00D+00 EMaxC= 1.00D-01 BMatC= 1.59D-10 BMatP= 6.19D-10
 IDIUse=1 WtCom= 1.00D+00 WtEn= 0.00D+00
 Coeff-Com: -0.131D-04 0.289D-04-0.197D-04-0.140D-03-0.548D-03 0.757D-04
 Coeff-Com:  0.682D-02 0.566D-02-0.180D-01-0.784D-01-0.351D-01 0.395D+00
 Coeff-Com:  0.724D+00
 Coeff:     -0.131D-04 0.289D-04-0.197D-04-0.140D-03-0.548D-03 0.757D-04
 Coeff:      0.682D-02 0.566D-02-0.180D-01-0.784D-01-0.351D-01 0.395D+00
 Coeff:      0.724D+00
 Gap=     0.242 Goal=   None    Shift=    0.000
 RMSDP=1.48D-07 MaxDP=1.07D-05 DE=-1.65D-09 OVMax= 1.13D-05

 Cycle  14  Pass 1  IDiag  1:
 RMSU=  8.00D-08    CP:  6.01D-01  1.57D+00  6.73D-01  8.34D-01  1.01D+00
                    CP:  1.22D+00  1.20D+00  1.43D+00  1.57D+00  1.21D+00
                    CP:  1.47D+00  1.30D+00  1.20D+00
 E= -977.686184346371     Delta-E=       -0.000000000168 Rises=F Damp=F
 DIIS: error= 2.20D-07 at cycle  14 NSaved=  14.
 NSaved=14 IEnMin=14 EnMin= -977.686184346371     IErMin=14 ErrMin= 2.20D-07
 ErrMax= 2.20D-07  0.00D+00 EMaxC= 1.00D-01 BMatC= 1.23D-11 BMatP= 1.59D-10
 IDIUse=1 WtCom= 1.00D+00 WtEn= 0.00D+00
 Coeff-Com: -0.823D-05 0.178D-04 0.116D-04-0.362D-04-0.239D-03-0.195D-03
 Coeff-Com:  0.577D-03 0.135D-02 0.593D-02-0.128D-01-0.367D-01-0.153D-01
 Coeff-Com:  0.147D+00 0.910D+00
 Coeff:     -0.823D-05 0.178D-04 0.116D-04-0.362D-04-0.239D-03-0.195D-03
 Coeff:      0.577D-03 0.135D-02 0.593D-02-0.128D-01-0.367D-01-0.153D-01
 Coeff:      0.147D+00 0.910D+00
 Gap=     0.242 Goal=   None    Shift=    0.000
 RMSDP=6.79D-08 MaxDP=4.28D-06 DE=-1.68D-10 OVMax= 4.43D-06

 Cycle  15  Pass 1  IDiag  1:
 RMSU=  2.69D-08    CP:  6.01D-01  1.57D+00  6.73D-01  8.34D-01  1.01D+00
                    CP:  1.22D+00  1.20D+00  1.43D+00  1.57D+00  1.20D+00
                    CP:  1.49D+00  1.33D+00  1.39D+00  1.24D+00
 E= -977.686184346419     Delta-E=       -0.000000000048 Rises=F Damp=F
 DIIS: error= 1.01D-07 at cycle  15 NSaved=  15.
 NSaved=15 IEnMin=15 EnMin= -977.686184346419     IErMin=15 ErrMin= 1.01D-07
 ErrMax= 1.01D-07  0.00D+00 EMaxC= 1.00D-01 BMatC= 2.82D-12 BMatP= 1.23D-11
 IDIUse=1 WtCom= 1.00D+00 WtEn= 0.00D+00
 Coeff-Com: -0.200D-05 0.418D-05 0.791D-05 0.221D-05-0.166D-04-0.917D-04
 Coeff-Com: -0.753D-03-0.450D-03 0.521D-02 0.564D-02-0.936D-02-0.624D-01
 Coeff-Com: -0.608D-01 0.329D+00 0.794D+00
 Coeff:     -0.200D-05 0.418D-05 0.791D-05 0.221D-05-0.166D-04-0.917D-04
 Coeff:     -0.753D-03-0.450D-03 0.521D-02 0.564D-02-0.936D-02-0.624D-01
 Coeff:     -0.608D-01 0.329D+00 0.794D+00
 Gap=     0.242 Goal=   None    Shift=    0.000
 RMSDP=3.07D-08 MaxDP=1.75D-06 DE=-4.77D-11 OVMax= 1.58D-06

 Cycle  16  Pass 1  IDiag  1:
 RMSU=  1.18D-08    CP:  6.01D-01  1.57D+00  6.73D-01  8.34D-01  1.01D+00
                    CP:  1.22D+00  1.20D+00  1.43D+00  1.57D+00  1.20D+00
                    CP:  1.49D+00  1.34D+00  1.46D+00  1.40D+00  1.09D+00
 E= -977.686184346421     Delta-E=       -0.000000000002 Rises=F Damp=F
 DIIS: error= 6.00D-08 at cycle  16 NSaved=  16.
 NSaved=16 IEnMin=16 EnMin= -977.686184346421     IErMin=16 ErrMin= 6.00D-08
 ErrMax= 6.00D-08  0.00D+00 EMaxC= 1.00D-01 BMatC= 3.45D-13 BMatP= 2.82D-12
 IDIUse=1 WtCom= 1.00D+00 WtEn= 0.00D+00
 Coeff-Com:  0.157D-06-0.387D-06 0.473D-06 0.491D-05 0.329D-04 0.138D-05
 Coeff-Com: -0.204D-03-0.313D-03 0.269D-03 0.273D-02 0.319D-02-0.639D-02
 Coeff-Com: -0.362D-01-0.929D-01 0.157D+00 0.973D+00
 Coeff:      0.157D-06-0.387D-06 0.473D-06 0.491D-05 0.329D-04 0.138D-05
 Coeff:     -0.204D-03-0.313D-03 0.269D-03 0.273D-02 0.319D-02-0.639D-02
 Coeff:     -0.362D-01-0.929D-01 0.157D+00 0.973D+00
 Gap=     0.242 Goal=   None    Shift=    0.000
 RMSDP=1.15D-08 MaxDP=6.38D-07 DE=-2.27D-12 OVMax= 1.10D-06

 Cycle  17  Pass 1  IDiag  1:
 RMSU=  4.83D-09    CP:  6.01D-01  1.57D+00  6.73D-01  8.34D-01  1.01D+00
                    CP:  1.22D+00  1.20D+00  1.43D+00  1.57D+00  1.20D+00
                    CP:  1.49D+00  1.34D+00  1.47D+00  1.45D+00  1.23D+00
                    CP:  1.16D+00
 E= -977.686184346480     Delta-E=       -0.000000000059 Rises=F Damp=F
 DIIS: error= 1.56D-08 at cycle  17 NSaved=  17.
 NSaved=17 IEnMin=17 EnMin= -977.686184346480     IErMin=17 ErrMin= 1.56D-08
 ErrMax= 1.56D-08  0.00D+00 EMaxC= 1.00D-01 BMatC= 1.13D-13 BMatP= 3.45D-13
 IDIUse=1 WtCom= 1.00D+00 WtEn= 0.00D+00
 Coeff-Com:  0.353D-06-0.765D-06-0.104D-05 0.195D-05 0.202D-04 0.155D-04
 Coeff-Com:  0.153D-04-0.105D-03-0.632D-03 0.587D-03 0.295D-02 0.655D-02
 Coeff-Com: -0.869D-02-0.954D-01-0.514D-01 0.474D+00 0.672D+00
 Coeff:      0.353D-06-0.765D-06-0.104D-05 0.195D-05 0.202D-04 0.155D-04
 Coeff:      0.153D-04-0.105D-03-0.632D-03 0.587D-03 0.295D-02 0.655D-02
 Coeff:     -0.869D-02-0.954D-01-0.514D-01 0.474D+00 0.672D+00
 Gap=     0.242 Goal=   None    Shift=    0.000
 RMSDP=3.62D-09 MaxDP=1.52D-07 DE=-5.91D-11 OVMax= 2.45D-07

 SCF Done:  E(RwB97XD) =  -977.686184346     A.U. after   17 cycles
            NFock= 17  Conv=0.36D-08     -V/T= 2.0045
 KE= 9.732728607213D+02 PE=-5.469130946512D+03 EE= 1.922671969158D+03
 Leave Link  502 at Thu Nov  2 09:53:55 2017, MaxMem=  3758096384 cpu:      3239.4
 (Enter /share/apps/gaussian/g09_D01/g09/l801.exe)
 DoSCS=F DFT=T ScalE2(SS,OS)=  1.000000  1.000000
 ExpMin= 3.60D-02 ExpMax= 8.59D+03 ExpMxC= 1.30D+03 IAcc=3 IRadAn=         5 AccDes= 0.00D+00
 HarFok:  IExCor=  205 AccDes= 0.00D+00 IRadAn=         5 IDoV=-2 UseB2=F ITyADJ=14
 ICtDFT= 12500011 ScaDFX=  1.000000  1.000000  1.000000  1.000000
 Largest valence mixing into a core orbital is  5.70D-05
 Largest core mixing into a valence orbital is  1.73D-05
 Range of M.O.s used for correlation:    23   609
 NBasis=   617 NAE=    79 NBE=    79 NFC=    22 NFV=     0
 NROrb=    587 NOA=    57 NOB=    57 NVA=   530 NVB=   530

 **** Warning!!: The largest alpha MO coefficient is  0.13646180D+03

 Leave Link  801 at Thu Nov  2 09:53:57 2017, MaxMem=  3758096384 cpu:         3.7
 (Enter /share/apps/gaussian/g09_D01/g09/l914.exe)
 RHF ground state
 MDV=  3758096384 DFT=T DoStab=F Mixed=T DoRPA=T DoScal=F NonHer=T
 Would need an additional        105419300000 words for in-memory AO integral storage.
 Making orbital integer symmetry assigments:
     8 initial guesses have been made.
 Convergence on wavefunction:    0.001000000000000
 Davidson Disk Diagonalization:  ConvIn= 1.00D-03 SkipCon=T Conv= 1.00D-03.
 Max sub-space:   200 roots to seek:     8 dimension of matrix:        60420
 Iteration     1 Dimension     8 NMult     0 NNew      8
 CISAX will form     8 AO SS matrices at one time.
 NMat=     8 NSing=     8 JSym2X= 0.
 FoFJK:  IHMeth= 1 ICntrl=       0 DoSepK=T KAlg= 0 I1Cent=   0 FoldK=F
 IRaf=         1 NMat=  16 IRICut=       1 DoRegI=T DoRafI=F ISym2E= 0.
 FoFCou: FMM=F IPFlag=           0 FMFlag=      100000 FMFlg1=           0
         NFxFlg=           0 DoJE=F BraDBF=F KetDBF=F FulRan=T
         wScrn=  0.000000 ICntrl=     500 IOpCl=  0 I1Cent=           0 NGrid=           0
         NMat0=    8 NMatS0=      8 NMatT0=    0 NMatD0=    8 NMtDS0=    0 NMtDT0=    0
 Symmetry not used in FoFCou.
 Excitation Energies [eV] at current iteration:
 Root      1 :     3.924253065867229
 Root      2 :     4.720808114323345
 Root      3 :     5.415452590559275
 Root      4 :     5.503395315314618
 Root      5 :     5.691687355496135
 Root      6 :     5.944920214806544
 Root      7 :     6.152012439065212
 Root      8 :     7.040783591839261
 Iteration     2 Dimension    12 NMult     8 NNew      4
 CISAX will form     4 AO SS matrices at one time.
 NMat=     4 NSing=     4 JSym2X= 0.
 Root      1 not converged, maximum delta is    0.089690615956184
 Root      2 not converged, maximum delta is    0.076313160248387
 Excitation Energies [eV] at current iteration:
 Root      1 :     3.410537704312237   Change is   -0.513715361554992
 Root      2 :     4.115682206556529   Change is   -0.605125907766817
 Iteration     3 Dimension    16 NMult    12 NNew      4
 CISAX will form     4 AO SS matrices at one time.
 NMat=     4 NSing=     4 JSym2X= 0.
 Root      1 not converged, maximum delta is    0.019890971437737
 Root      2 not converged, maximum delta is    0.034336473043339
 Excitation Energies [eV] at current iteration:
 Root      1 :     3.366874634841378   Change is   -0.043663069470858
 Root      2 :     4.050384695047606   Change is   -0.065297511508922
 Iteration     4 Dimension    20 NMult    16 NNew      4
 CISAX will form     4 AO SS matrices at one time.
 NMat=     4 NSing=     4 JSym2X= 0.
 Root      1 not converged, maximum delta is    0.009077711583596
 Root      2 not converged, maximum delta is    0.019231370680234
 Excitation Energies [eV] at current iteration:
 Root      1 :     3.359517263335171   Change is   -0.007357371506208
 Root      2 :     4.032237155508588   Change is   -0.018147539539019
 Iteration     5 Dimension    24 NMult    20 NNew      4
 CISAX will form     4 AO SS matrices at one time.
 NMat=     4 NSing=     4 JSym2X= 0.
 Root      1 not converged, maximum delta is    0.003647674744618
 Root      2 not converged, maximum delta is    0.005168095996907
 Excitation Energies [eV] at current iteration:
 Root      1 :     3.358592789852298   Change is   -0.000924473482873
 Root      2 :     4.029762311513271   Change is   -0.002474843995317
 Iteration     6 Dimension    28 NMult    24 NNew      4
 CISAX will form     4 AO SS matrices at one time.
 NMat=     4 NSing=     4 JSym2X= 0.
 Root      1 not converged, maximum delta is    0.001126226738927
 Root      2 not converged, maximum delta is    0.003246972903083
 Excitation Energies [eV] at current iteration:
 Root      1 :     3.358482832371492   Change is   -0.000109957480806
 Root      2 :     4.029319168076062   Change is   -0.000443143437208
 Iteration     7 Dimension    32 NMult    28 NNew      4
 CISAX will form     4 AO SS matrices at one time.
 NMat=     4 NSing=     4 JSym2X= 0.
 Root      1 has converged.
 Root      2 not converged, maximum delta is    0.006249656973255
 Excitation Energies [eV] at current iteration:
 Root      1 :     3.358468580113177   Change is   -0.000014252258315
 Root      2 :     4.029140657812345   Change is   -0.000178510263717
 Iteration     8 Dimension    34 NMult    32 NNew      2
 CISAX will form     2 AO SS matrices at one time.
 NMat=     2 NSing=     2 JSym2X= 0.
 Root      1 has converged.
 Root      2 not converged, maximum delta is    0.061295244576502
 Excitation Energies [eV] at current iteration:
 Root      1 :     3.358468226510009   Change is   -0.000000353603168
 Root      2 :     4.028090873206178   Change is   -0.001049784606167
 Iteration     9 Dimension    36 NMult    34 NNew      2
 CISAX will form     2 AO SS matrices at one time.
 NMat=     2 NSing=     2 JSym2X= 0.
 Root      1 has converged.
 Root      2 not converged, maximum delta is    0.556393690052373
 Excitation Energies [eV] at current iteration:
 Root      1 :     3.358467932532747   Change is   -0.000000293977262
 Root      2 :     3.970886267075103   Change is   -0.057204606131075
 Iteration    10 Dimension    38 NMult    36 NNew      2
 CISAX will form     2 AO SS matrices at one time.
 NMat=     2 NSing=     2 JSym2X= 0.
 Root      1 has converged.
 Root      2 not converged, maximum delta is    0.036366061367508
 Excitation Energies [eV] at current iteration:
 Root      1 :     3.358467795379448   Change is   -0.000000137153299
 Root      2 :     3.943578866875781   Change is   -0.027307400199321
 Iteration    11 Dimension    40 NMult    38 NNew      2
 CISAX will form     2 AO SS matrices at one time.
 NMat=     2 NSing=     2 JSym2X= 0.
 Root      1 has converged.
 Root      2 not converged, maximum delta is    0.022588516374969
 Excitation Energies [eV] at current iteration:
 Root      1 :     3.358467593483061   Change is   -0.000000201896387
 Root      2 :     3.937025620332241   Change is   -0.006553246543540
 Iteration    12 Dimension    42 NMult    40 NNew      2
 CISAX will form     2 AO SS matrices at one time.
 NMat=     2 NSing=     2 JSym2X= 0.
 Root      1 has converged.
 Root      2 not converged, maximum delta is    0.014275072352818
 Excitation Energies [eV] at current iteration:
 Root      1 :     3.358467395152130   Change is   -0.000000198330931
 Root      2 :     3.934885379363437   Change is   -0.002140240968804
 Iteration    13 Dimension    44 NMult    42 NNew      2
 CISAX will form     2 AO SS matrices at one time.
 NMat=     2 NSing=     2 JSym2X= 0.
 Root      1 has converged.
 Root      2 not converged, maximum delta is    0.007725477964642
 Excitation Energies [eV] at current iteration:
 Root      1 :     3.358467145875802   Change is   -0.000000249276328
 Root      2 :     3.934377316640689   Change is   -0.000508062722748
 Iteration    14 Dimension    46 NMult    44 NNew      2
 CISAX will form     2 AO SS matrices at one time.
 NMat=     2 NSing=     2 JSym2X= 0.
 Root      1 has converged.
 Root      2 not converged, maximum delta is    0.002592049871618
 Excitation Energies [eV] at current iteration:
 Root      1 :     3.358467018954535   Change is   -0.000000126921266
 Root      2 :     3.934292180839051   Change is   -0.000085135801638
 Iteration    15 Dimension    48 NMult    46 NNew      2
 CISAX will form     2 AO SS matrices at one time.
 NMat=     2 NSing=     2 JSym2X= 0.
 Root      1 has converged.
 Root      2 has converged.
 Excitation Energies [eV] at current iteration:
 Root      1 :     3.358466888279121   Change is   -0.000000130675414
 Root      2 :     3.934278435961974   Change is   -0.000013744877077
 Convergence achieved on expansion vectors.
 ***********************************************************************
 Excited states from <AA,BB:AA,BB> singles matrix:
 ***********************************************************************
 
 1PDM for each excited state written to RWF  633
 Ground to excited state transition densities written to RWF  633
 Ground to excited state transition electric dipole moments (Au):
       state          X           Y           Z        Dip. S.      Osc.
         1        -0.7416      0.9348     -3.8219     16.0304      1.3190
         2         0.0067     -0.0348     -0.0740      0.0067      0.0006
 Ground to excited state transition velocity dipole moments (Au):
       state          X           Y           Z        Dip. S.      Osc.
         1         0.0877     -0.1116      0.4653      0.2367      1.2785
         2         0.0005      0.0064      0.0108      0.0002      0.0007
 Ground to excited state transition magnetic dipole moments (Au):
       state          X           Y           Z
         1        -1.7348     -1.5671     -0.0443
         2         0.2897     -0.2031     -0.1995
 Ground to excited state transition velocity quadrupole moments (Au):
       state          XX          YY          ZZ          XY          XZ          YZ
         1         0.9131      1.0359     -3.7022     -1.0005      1.9436     -1.6602
         2        -0.0325     -0.0341     -0.2881      0.0279      0.0243      0.0102
 <0|del|b> * <b|rxdel|0> + <0|del|b> * <b|delr+rdel|0>
 Rotatory Strengths (R) in cgs (10**-40 erg-esu-cm/Gauss)
       state          XX          YY          ZZ    R(velocity)    E-M Angle
         1      -270.3294    421.2706   -139.1355      3.9352       89.90
         2        -8.0675     -5.6222     -2.4338     -5.3745      130.35
 1/2[<0|r|b>*<b|rxdel|0> + (<0|rxdel|b>*<b|r|0>)*]
 Rotatory Strengths (R) in cgs (10**-40 erg-esu-cm/Gauss)
       state          XX          YY          ZZ     R(length)
         1      -909.7970   1035.9589   -119.6938      2.1560
         2        -1.3740     -5.0019    -10.4347     -5.6035
  1/2[<0|del|b>*<b|r|0> + (<0|r|b>*<b|del|0>)*] (Au)
       state          X           Y           Z        Dip. S.   Osc.(frdel)
         1        -0.0651     -0.1043     -1.7784      1.9478      1.2986
         2         0.0000     -0.0002     -0.0008      0.0010      0.0007

 Excitation energies and oscillator strengths:
 
 Excited state symmetry could not be determined.
 Excited State   1:      Singlet-?Sym    3.3585 eV  369.17 nm  f=1.3190  <S**2>=0.000
      74 -> 80        -0.10092
      78 -> 80        -0.11365
      78 -> 82        -0.11915
      79 -> 80         0.66826
 This state for optimization and/or second-order correction.
 Total Energy, E(TD-HF/TD-KS) =  -977.562762954    
 Copying the excited state density for this state as the 1-particle RhoCI density.
 
 Excited state symmetry could not be determined.
 Excited State   2:      Singlet-?Sym    3.9343 eV  315.14 nm  f=0.0006  <S**2>=0.000
      76 -> 80        -0.66293
      76 -> 82        -0.13677
 SavETr:  write IOETrn=   770 NScale= 10 NData=  16 NLR=1 NState=    2 LETran=      46.
 Leave Link  914 at Thu Nov  2 11:16:25 2017, MaxMem=  3758096384 cpu:      9897.2
 (Enter /share/apps/gaussian/g09_D01/g09/l601.exe)
 Copying SCF densities to generalized density rwf, IOpCl= 0 IROHF=0.

 **********************************************************************

            Population analysis using the SCF density.

 **********************************************************************

 Alpha  occ. eigenvalues --  -19.28790 -19.24001 -19.22960 -14.47596 -10.37759
 Alpha  occ. eigenvalues --  -10.36174 -10.35710 -10.35174 -10.34361 -10.33530
 Alpha  occ. eigenvalues --  -10.33483 -10.31341 -10.30545 -10.30480 -10.30247
 Alpha  occ. eigenvalues --  -10.29813 -10.29732 -10.29510 -10.28930 -10.28695
 Alpha  occ. eigenvalues --  -10.28072 -10.28001  -1.17883  -1.14743  -1.10709
 Alpha  occ. eigenvalues --   -1.07953  -0.96949  -0.95494  -0.90806  -0.87432
 Alpha  occ. eigenvalues --   -0.86943  -0.84849  -0.84530  -0.84017  -0.81052
 Alpha  occ. eigenvalues --   -0.78678  -0.73591  -0.71720  -0.70931  -0.69905
 Alpha  occ. eigenvalues --   -0.67804  -0.64483  -0.63357  -0.62294  -0.61125
 Alpha  occ. eigenvalues --   -0.59010  -0.58854  -0.57677  -0.56818  -0.56464
 Alpha  occ. eigenvalues --   -0.55423  -0.54299  -0.54016  -0.53155  -0.52506
 Alpha  occ. eigenvalues --   -0.51383  -0.51260  -0.51066  -0.50586  -0.49845
 Alpha  occ. eigenvalues --   -0.49141  -0.48483  -0.48047  -0.47252  -0.46825
 Alpha  occ. eigenvalues --   -0.46557  -0.45577  -0.44427  -0.43265  -0.42460
 Alpha  occ. eigenvalues --   -0.41804  -0.41125  -0.39263  -0.34904  -0.34731
 Alpha  occ. eigenvalues --   -0.33947  -0.31498  -0.29264  -0.26664
 Alpha virt. eigenvalues --   -0.02445   0.02706   0.03861   0.03975   0.04394
 Alpha virt. eigenvalues --    0.04658   0.04764   0.05530   0.06168   0.06490
 Alpha virt. eigenvalues --    0.06633   0.06929   0.07534   0.07933   0.08130
 Alpha virt. eigenvalues --    0.08193   0.08662   0.09274   0.09827   0.10041
 Alpha virt. eigenvalues --    0.10205   0.10942   0.11121   0.11749   0.11842
 Alpha virt. eigenvalues --    0.12322   0.12972   0.13260   0.13727   0.14178
 Alpha virt. eigenvalues --    0.14413   0.14526   0.14748   0.14894   0.15505
 Alpha virt. eigenvalues --    0.15859   0.16018   0.16567   0.16687   0.16727
 Alpha virt. eigenvalues --    0.16955   0.17117   0.17476   0.17557   0.18172
 Alpha virt. eigenvalues --    0.18584   0.18770   0.19197   0.19397   0.19522
 Alpha virt. eigenvalues --    0.19664   0.20150   0.20487   0.20844   0.20980
 Alpha virt. eigenvalues --    0.21245   0.21444   0.21815   0.21936   0.22025
 Alpha virt. eigenvalues --    0.22238   0.22606   0.22764   0.22982   0.23399
 Alpha virt. eigenvalues --    0.23744   0.23872   0.24059   0.24272   0.24730
 Alpha virt. eigenvalues --    0.25117   0.25268   0.25622   0.25665   0.25994
 Alpha virt. eigenvalues --    0.26618   0.26813   0.27096   0.27403   0.27805
 Alpha virt. eigenvalues --    0.28279   0.28423   0.28609   0.28970   0.29347
 Alpha virt. eigenvalues --    0.29749   0.30268   0.30563   0.30893   0.31239
 Alpha virt. eigenvalues --    0.31316   0.31786   0.31829   0.32218   0.32492
 Alpha virt. eigenvalues --    0.32847   0.33335   0.33825   0.34527   0.34588
 Alpha virt. eigenvalues --    0.34676   0.35179   0.35453   0.35942   0.36632
 Alpha virt. eigenvalues --    0.36993   0.37277   0.37389   0.37535   0.37840
 Alpha virt. eigenvalues --    0.37996   0.38464   0.38686   0.39014   0.39446
 Alpha virt. eigenvalues --    0.39779   0.39822   0.40595   0.41023   0.41481
 Alpha virt. eigenvalues --    0.42252   0.42340   0.42656   0.42977   0.43274
 Alpha virt. eigenvalues --    0.43497   0.44303   0.45104   0.45432   0.45668
 Alpha virt. eigenvalues --    0.46298   0.47292   0.47887   0.48415   0.49587
 Alpha virt. eigenvalues --    0.50188   0.50428   0.51216   0.51721   0.52385
 Alpha virt. eigenvalues --    0.52618   0.53197   0.54220   0.55081   0.55783
 Alpha virt. eigenvalues --    0.56437   0.56770   0.58629   0.60086   0.60396
 Alpha virt. eigenvalues --    0.61113   0.61865   0.62115   0.62354   0.62821
 Alpha virt. eigenvalues --    0.63615   0.64012   0.64424   0.64838   0.65322
 Alpha virt. eigenvalues --    0.66553   0.66914   0.67009   0.67452   0.67840
 Alpha virt. eigenvalues --    0.68314   0.68604   0.69269   0.69743   0.71341
 Alpha virt. eigenvalues --    0.71602   0.71986   0.72240   0.72543   0.72751
 Alpha virt. eigenvalues --    0.72922   0.73239   0.73388   0.73960   0.74746
 Alpha virt. eigenvalues --    0.75190   0.76215   0.76473   0.76546   0.77064
 Alpha virt. eigenvalues --    0.77577   0.78011   0.78584   0.79075   0.79344
 Alpha virt. eigenvalues --    0.79533   0.80187   0.80686   0.81255   0.82445
 Alpha virt. eigenvalues --    0.83368   0.83574   0.84157   0.85027   0.85871
 Alpha virt. eigenvalues --    0.86752   0.87706   0.88183   0.89448   0.90446
 Alpha virt. eigenvalues --    0.90950   0.91687   0.92649   0.94417   0.94735
 Alpha virt. eigenvalues --    0.95499   0.96084   0.97159   0.97414   0.97549
 Alpha virt. eigenvalues --    0.98513   0.99181   0.99586   1.00201   1.01232
 Alpha virt. eigenvalues --    1.01627   1.03208   1.03467   1.04352   1.05071
 Alpha virt. eigenvalues --    1.05615   1.05711   1.06026   1.06889   1.07386
 Alpha virt. eigenvalues --    1.07835   1.08733   1.08854   1.09490   1.10286
 Alpha virt. eigenvalues --    1.10446   1.10683   1.11867   1.13724   1.14024
 Alpha virt. eigenvalues --    1.14885   1.15032   1.15621   1.15848   1.16416
 Alpha virt. eigenvalues --    1.17591   1.18688   1.19095   1.20054   1.20885
 Alpha virt. eigenvalues --    1.21482   1.22310   1.23636   1.24060   1.26059
 Alpha virt. eigenvalues --    1.27463   1.30464   1.32322   1.33598   1.34349
 Alpha virt. eigenvalues --    1.35654   1.36696   1.37836   1.38413   1.39162
 Alpha virt. eigenvalues --    1.39929   1.41205   1.42240   1.47297   1.48058
 Alpha virt. eigenvalues --    1.48562   1.51089   1.51307   1.52126   1.52818
 Alpha virt. eigenvalues --    1.53926   1.54227   1.55954   1.56544   1.57584
 Alpha virt. eigenvalues --    1.58253   1.59428   1.60484   1.61507   1.61880
 Alpha virt. eigenvalues --    1.62336   1.62714   1.62983   1.63166   1.63591
 Alpha virt. eigenvalues --    1.64274   1.64389   1.65094   1.65455   1.65801
 Alpha virt. eigenvalues --    1.67806   1.68152   1.68548   1.69011   1.69142
 Alpha virt. eigenvalues --    1.69525   1.70677   1.74403   1.75836   1.76251
 Alpha virt. eigenvalues --    1.77446   1.78141   1.78463   1.79571   1.80065
 Alpha virt. eigenvalues --    1.80407   1.80544   1.80855   1.81367   1.82052
 Alpha virt. eigenvalues --    1.82861   1.84221   1.84839   1.85065   1.86560
 Alpha virt. eigenvalues --    1.88174   1.88754   1.89495   1.91435   1.93259
 Alpha virt. eigenvalues --    1.93674   1.94010   1.95264   1.96555   1.97437
 Alpha virt. eigenvalues --    1.98179   1.99775   2.00559   2.01267   2.01859
 Alpha virt. eigenvalues --    2.02572   2.03685   2.04460   2.04776   2.05477
 Alpha virt. eigenvalues --    2.06687   2.07493   2.07754   2.08762   2.09137
 Alpha virt. eigenvalues --    2.10181   2.12511   2.14130   2.14200   2.15188
 Alpha virt. eigenvalues --    2.15532   2.16402   2.17613   2.18770   2.19145
 Alpha virt. eigenvalues --    2.19672   2.20818   2.21512   2.23158   2.23765
 Alpha virt. eigenvalues --    2.25058   2.25749   2.28334   2.29118   2.29550
 Alpha virt. eigenvalues --    2.31712   2.36160   2.36790   2.37043   2.40030
 Alpha virt. eigenvalues --    2.40993   2.42872   2.43457   2.43790   2.47817
 Alpha virt. eigenvalues --    2.48335   2.49399   2.50318   2.52873   2.54107
 Alpha virt. eigenvalues --    2.54726   2.55131   2.55669   2.56940   2.57030
 Alpha virt. eigenvalues --    2.57724   2.58639   2.61336   2.61650   2.63667
 Alpha virt. eigenvalues --    2.65089   2.65356   2.68233   2.68736   2.70515
 Alpha virt. eigenvalues --    2.71193   2.72881   2.74222   2.74903   2.76710
 Alpha virt. eigenvalues --    2.76884   2.77928   2.78445   2.79325   2.79674
 Alpha virt. eigenvalues --    2.81476   2.82389   2.82791   2.82951   2.83793
 Alpha virt. eigenvalues --    2.84736   2.85631   2.86590   2.87045   2.88582
 Alpha virt. eigenvalues --    2.90163   2.90348   2.91070   2.91338   2.91991
 Alpha virt. eigenvalues --    2.94007   2.94591   2.95625   2.96261   2.97482
 Alpha virt. eigenvalues --    2.98167   3.00294   3.01201   3.01833   3.02832
 Alpha virt. eigenvalues --    3.03872   3.05006   3.07076   3.07652   3.09195
 Alpha virt. eigenvalues --    3.13346   3.13742   3.17909   3.18164   3.19028
 Alpha virt. eigenvalues --    3.20653   3.21899   3.22553   3.23142   3.23817
 Alpha virt. eigenvalues --    3.27091   3.29740   3.31232   3.31914   3.33119
 Alpha virt. eigenvalues --    3.34570   3.35557   3.38271   3.39193   3.42389
 Alpha virt. eigenvalues --    3.44854   3.46199   3.47674   3.50096   3.54415
 Alpha virt. eigenvalues --    3.57586   3.60757   3.61069   3.62109   3.64176
 Alpha virt. eigenvalues --    3.66465   3.67374   3.71997   3.75929   3.76365
 Alpha virt. eigenvalues --    3.78030   3.78156   3.78787   3.79904   3.85762
 Alpha virt. eigenvalues --    3.86351   3.88601   3.90304   3.92529   3.93073
 Alpha virt. eigenvalues --    4.02807   4.05566   4.08322   4.09845   4.13017
 Alpha virt. eigenvalues --    4.16753   4.18563   4.26568   4.27374   4.29040
 Alpha virt. eigenvalues --    4.31303   4.34725   4.38459   4.54379   4.79111
 Alpha virt. eigenvalues --    4.93268   4.94386   5.00681   5.14230   5.15693
 Alpha virt. eigenvalues --    5.18228   5.19257   5.37237   5.49866   5.66202
 Alpha virt. eigenvalues --    5.83534   5.90529   5.98400  23.72408  23.80136
 Alpha virt. eigenvalues --   23.94685  24.02163  24.03220  24.03543  24.04004
 Alpha virt. eigenvalues --   24.04501  24.06625  24.08378  24.09438  24.12609
 Alpha virt. eigenvalues --   24.14218  24.23187  24.25456  24.29014  24.30860
 Alpha virt. eigenvalues --   24.31243  35.74458  50.09933  50.14393  50.18682
          Condensed to atoms (all electrons):
               1          2          3          4          5          6
     1  H    0.461047   0.348328  -0.141154   0.016742   0.044554  -0.006786
     2  C    0.348328   6.984298  -0.147394   0.717828  -0.924855  -0.130263
     3  C   -0.141154  -0.147394  10.744634  -1.287680  -0.025551   0.668705
     4  C    0.016742   0.717828  -1.287680  10.044238   0.015726  -1.137404
     5  C    0.044554  -0.924855  -0.025551   0.015726   9.986467  -0.859784
     6  C   -0.006786  -0.130263   0.668705  -1.137404  -0.859784   9.414249
     7  H    0.007166  -0.009003   0.013325   0.776666   0.015561  -0.108208
     8  C    0.018705  -0.953615   0.595570   0.052286   0.088903  -0.600384
     9  C    0.036370   0.448300  -2.557022   0.640110   0.826991  -1.729702
    10  H   -0.003189   0.048102  -0.037838   0.010578   0.308879  -0.013865
    11  C    0.009475  -0.221844  -0.941998  -0.693411  -1.288699   1.634201
    12  H   -0.001468  -0.085663  -0.107441  -0.171629   0.058773   0.375205
    13  C   -0.041229   0.186080   0.033941  -1.610232  -0.106123   0.447330
    14  O   -0.000480   0.122647   0.062892  -0.403286  -0.028316   0.023199
    15  C   -0.001670  -0.392923  -1.225061  -0.184880  -1.917688  -1.396129
    16  H    0.001987   0.000234  -0.036935  -0.009901  -0.004288  -0.015576
    17  H    0.000889   0.041458   0.109729   0.034046  -0.049237   0.065338
    18  C    0.003148   0.350828  -0.065877   0.044726  -0.039750   0.328263
    19  C    0.003433  -0.569414  -0.088739  -0.361693   0.151659  -0.349343
    20  H    0.000080  -0.018543  -0.001578  -0.002085   0.002536  -0.003782
    21  N   -0.000516  -0.004240  -0.036152  -0.000457   0.060379  -0.030688
    22  C    0.002808   0.165071  -0.070589   0.313162   0.000298   0.041907
    23  O   -0.002023   0.052138  -0.001453  -0.055508  -0.001130   0.000758
    24  H    0.001824  -0.003570  -0.013264   0.013852   0.003374   0.005341
    25  C   -0.002816  -0.109543  -0.014744  -0.953535   0.023860  -0.053536
    26  C    0.000414  -0.004674  -0.011338   0.004402  -0.035159  -0.010262
    27  C   -0.000841   0.021718  -0.131236  -0.003750  -0.053747  -0.058956
    28  H   -0.000112   0.003582  -0.000888  -0.002534  -0.000025   0.000835
    29  C    0.001721  -0.012156  -0.006171   0.035679   0.008218  -0.011693
    30  H   -0.000203   0.000349  -0.000479  -0.010166  -0.000443   0.000073
    31  H    0.000027  -0.001796  -0.014929  -0.000481  -0.001586  -0.032789
    32  H    0.000010  -0.001231   0.004781   0.000171   0.009045   0.001555
    33  H    0.000007  -0.000233  -0.001412  -0.000349  -0.003869   0.007667
    34  H   -0.000003   0.002725  -0.004598   0.000188  -0.015788   0.005107
    35  H   -0.000111  -0.002481   0.007276   0.000624  -0.007748  -0.000492
    36  H   -0.000117  -0.000669   0.003477  -0.000285   0.007747  -0.007732
    37  O    0.000008   0.000115   0.000007  -0.002700  -0.000004  -0.000016
    38  C    0.000007   0.000997  -0.000291  -0.004284   0.000040  -0.000024
    39  H    0.000003  -0.000125   0.000038   0.000474   0.000000  -0.000010
    40  H   -0.000001   0.000028  -0.000014  -0.000105   0.000001  -0.000004
    41  H    0.000006  -0.000076   0.000004  -0.000451   0.000005  -0.000011
               7          8          9         10         11         12
     1  H    0.007166   0.018705   0.036370  -0.003189   0.009475  -0.001468
     2  C   -0.009003  -0.953615   0.448300   0.048102  -0.221844  -0.085663
     3  C    0.013325   0.595570  -2.557022  -0.037838  -0.941998  -0.107441
     4  C    0.776666   0.052286   0.640110   0.010578  -0.693411  -0.171629
     5  C    0.015561   0.088903   0.826991   0.308879  -1.288699   0.058773
     6  C   -0.108208  -0.600384  -1.729702  -0.013865   1.634201   0.375205
     7  H    0.881515   0.118275   0.048664   0.000330  -0.157821  -0.055102
     8  C    0.118275   9.438818   0.018995  -0.001864   0.030657  -0.028299
     9  C    0.048664   0.018995  10.136663  -0.032831  -1.608947  -0.037045
    10  H    0.000330  -0.001864  -0.032831   0.486072  -0.004572  -0.001900
    11  C   -0.157821   0.030657  -1.608947  -0.004572   8.673590   0.080133
    12  H   -0.055102  -0.028299  -0.037045  -0.001900   0.080133   0.599591
    13  C   -0.231550   0.216582  -0.116284   0.003026   0.220771   0.067869
    14  O   -0.008337   0.676710  -0.005594   0.000639   0.002306   0.002626
    15  C   -0.064882  -0.003365  -0.209104   0.032397   0.638563   0.201967
    16  H   -0.000361   0.003601   0.489029  -0.012480  -0.011702   0.000874
    17  H    0.013741   0.000081  -0.008794   0.000196   0.378285  -0.045882
    18  C   -0.104233  -3.245376  -0.020705   0.001581   0.033368   0.033895
    19  C    0.133371   0.538311   0.067598  -0.001193  -0.098013  -0.041559
    20  H    0.001397   0.037459  -0.000093   0.000018   0.000345   0.000098
    21  N   -0.000905   0.000325  -0.233099  -0.000898  -0.317941  -0.001348
    22  C   -0.015511  -0.125846  -0.000787   0.000265  -0.003322   0.001209
    23  O    0.000162  -0.083418  -0.000291   0.000082   0.000201   0.000156
    24  H   -0.033578  -0.026507   0.000414   0.000213   0.001545  -0.007781
    25  C   -0.042568  -1.034393   0.005499   0.000047  -0.008722   0.004159
    26  C   -0.001011  -0.000162  -0.147860  -0.000745   0.072882   0.004787
    27  C   -0.000030   0.001312   0.202214   0.003621  -0.121391   0.000065
    28  H   -0.001778  -0.033148  -0.000036   0.000015   0.000054   0.000078
    29  C    0.030151   0.274064   0.001802  -0.000142  -0.006693  -0.004162
    30  H    0.004215  -0.016510  -0.000145   0.000003   0.001282   0.000735
    31  H   -0.000292  -0.000066  -0.013437  -0.000057   0.005305   0.001923
    32  H   -0.000058   0.000022   0.009725  -0.000180   0.015156   0.000114
    33  H   -0.000289  -0.000058  -0.007398  -0.000066   0.036780   0.001972
    34  H    0.000071  -0.000005   0.016802  -0.000101   0.020486  -0.000594
    35  H   -0.000031  -0.000074   0.002534   0.000664  -0.002611   0.000225
    36  H    0.000005  -0.000019   0.035224   0.000656  -0.013165  -0.000174
    37  O   -0.000160   0.006007   0.000000   0.000000   0.000004   0.000015
    38  C    0.000648   0.034810   0.000003   0.000000  -0.000020  -0.000025
    39  H    0.000011   0.000869   0.000000   0.000000   0.000001  -0.000002
    40  H    0.000035   0.001607   0.000000   0.000000  -0.000002  -0.000003
    41  H    0.000017   0.001403   0.000001   0.000000  -0.000002   0.000000
              13         14         15         16         17         18
     1  H   -0.041229  -0.000480  -0.001670   0.001987   0.000889   0.003148
     2  C    0.186080   0.122647  -0.392923   0.000234   0.041458   0.350828
     3  C    0.033941   0.062892  -1.225061  -0.036935   0.109729  -0.065877
     4  C   -1.610232  -0.403286  -0.184880  -0.009901   0.034046   0.044726
     5  C   -0.106123  -0.028316  -1.917688  -0.004288  -0.049237  -0.039750
     6  C    0.447330   0.023199  -1.396129  -0.015576   0.065338   0.328263
     7  H   -0.231550  -0.008337  -0.064882  -0.000361   0.013741  -0.104233
     8  C    0.216582   0.676710  -0.003365   0.003601   0.000081  -3.245376
     9  C   -0.116284  -0.005594  -0.209104   0.489029  -0.008794  -0.020705
    10  H    0.003026   0.000639   0.032397  -0.012480   0.000196   0.001581
    11  C    0.220771   0.002306   0.638563  -0.011702   0.378285   0.033368
    12  H    0.067869   0.002626   0.201967   0.000874  -0.045882   0.033895
    13  C   14.741545  -0.089322   0.072784  -0.000803  -0.009958  -1.704928
    14  O   -0.089322   8.152567  -0.000758   0.000037   0.000010  -0.224727
    15  C    0.072784  -0.000758  11.326017  -0.066874  -0.251906   0.017353
    16  H   -0.000803   0.000037  -0.066874   0.510856   0.000636  -0.000271
    17  H   -0.009958   0.000010  -0.251906   0.000636   0.542527  -0.002612
    18  C   -1.704928  -0.224727   0.017353  -0.000271  -0.002612  11.284900
    19  C    0.273837  -0.078444  -0.026386   0.000202   0.003795  -0.702741
    20  H   -0.099085   0.097330  -0.000075   0.000004  -0.000024   0.003715
    21  N   -0.000153   0.000000   0.273700  -0.036308  -0.034768  -0.000032
    22  C   -4.292762   0.059928   0.000624  -0.000054  -0.000169   1.928835
    23  O    0.045534   0.035496  -0.000045  -0.000001  -0.000001   0.305908
    24  H   -0.014637  -0.000002   0.000407  -0.000035   0.000039   0.063574
    25  C   -2.314490  -0.021328  -0.002005  -0.000016  -0.000107   0.283213
    26  C    0.000254   0.000006  -0.121163  -0.003289   0.009524  -0.000119
    27  C   -0.000394   0.000002  -0.167872   0.012662  -0.003906   0.000012
    28  H   -0.146335  -0.000329   0.000019  -0.000001  -0.000005   0.048302
    29  C   -0.747234   0.006661  -0.000864   0.000002   0.000180  -2.367630
    30  H    0.005114   0.000149   0.000284   0.000000  -0.000071  -0.003777
    31  H    0.000152  -0.000001   0.064489  -0.001195  -0.011890   0.000030
    32  H    0.000021   0.000000  -0.017404   0.001882   0.005973  -0.000007
    33  H    0.000050  -0.000001  -0.039392  -0.000093  -0.012252   0.000024
    34  H   -0.000038   0.000000  -0.005970   0.006287   0.002791   0.000000
    35  H    0.000055  -0.000001   0.006213  -0.009148  -0.000717   0.000001
    36  H    0.000051  -0.000001  -0.037248  -0.009215  -0.000386   0.000009
    37  O    0.032030  -0.000058   0.000000   0.000000   0.000000   0.051719
    38  C   -0.094013   0.000345  -0.000001   0.000000   0.000000  -0.174362
    39  H    0.011288  -0.000053   0.000000   0.000000   0.000000  -0.003769
    40  H   -0.002836   0.000021   0.000000   0.000000   0.000000  -0.012847
    41  H    0.004983  -0.000017   0.000000   0.000000   0.000000   0.017000
              19         20         21         22         23         24
     1  H    0.003433   0.000080  -0.000516   0.002808  -0.002023   0.001824
     2  C   -0.569414  -0.018543  -0.004240   0.165071   0.052138  -0.003570
     3  C   -0.088739  -0.001578  -0.036152  -0.070589  -0.001453  -0.013264
     4  C   -0.361693  -0.002085  -0.000457   0.313162  -0.055508   0.013852
     5  C    0.151659   0.002536   0.060379   0.000298  -0.001130   0.003374
     6  C   -0.349343  -0.003782  -0.030688   0.041907   0.000758   0.005341
     7  H    0.133371   0.001397  -0.000905  -0.015511   0.000162  -0.033578
     8  C    0.538311   0.037459   0.000325  -0.125846  -0.083418  -0.026507
     9  C    0.067598  -0.000093  -0.233099  -0.000787  -0.000291   0.000414
    10  H   -0.001193   0.000018  -0.000898   0.000265   0.000082   0.000213
    11  C   -0.098013   0.000345  -0.317941  -0.003322   0.000201   0.001545
    12  H   -0.041559   0.000098  -0.001348   0.001209   0.000156  -0.007781
    13  C    0.273837  -0.099085  -0.000153  -4.292762   0.045534  -0.014637
    14  O   -0.078444   0.097330   0.000000   0.059928   0.035496  -0.000002
    15  C   -0.026386  -0.000075   0.273700   0.000624  -0.000045   0.000407
    16  H    0.000202   0.000004  -0.036308  -0.000054  -0.000001  -0.000035
    17  H    0.003795  -0.000024  -0.034768  -0.000169  -0.000001   0.000039
    18  C   -0.702741   0.003715  -0.000032   1.928835   0.305908   0.063574
    19  C    8.003075   0.032652   0.000092  -0.786390  -0.052382   0.416323
    20  H    0.032652   0.263372   0.000001   0.012548   0.198907   0.000075
    21  N    0.000092   0.000001   7.003019  -0.000001   0.000000   0.000044
    22  C   -0.786390   0.012548  -0.000001  12.733704  -0.266482   0.106853
    23  O   -0.052382   0.198907   0.000000  -0.266482   8.184482  -0.002574
    24  H    0.416323   0.000075   0.000044   0.106853  -0.002574   0.609647
    25  C    1.409934   0.033099   0.000019  -2.688852  -0.006239  -0.182962
    26  C   -0.000269   0.000000   0.298975  -0.000008   0.000000   0.000004
    27  C    0.000118  -0.000002   0.315106  -0.000001   0.000000   0.000010
    28  H    0.029150   0.000444   0.000000   0.735999  -0.032379   0.005338
    29  C   -1.307669  -0.000467   0.000001  -1.472948   0.037037  -0.058679
    30  H    0.020329   0.000902  -0.000001  -0.115508   0.000558  -0.031831
    31  H   -0.000071   0.000000  -0.056909   0.000003   0.000000   0.000029
    32  H   -0.000014   0.000000  -0.048726  -0.000001   0.000000  -0.000003
    33  H   -0.000001   0.000000  -0.055707   0.000002   0.000000   0.000009
    34  H    0.000014   0.000000  -0.046828   0.000000   0.000000   0.000001
    35  H    0.000003   0.000001  -0.060515   0.000000   0.000000   0.000000
    36  H   -0.000025   0.000000  -0.050455   0.000001   0.000000   0.000001
    37  O   -0.126324  -0.000367   0.000000   0.235370  -0.000377  -0.000351
    38  C   -0.015582   0.000333   0.000000  -0.374265   0.005326  -0.003756
    39  H   -0.001133  -0.000084   0.000000  -0.012382   0.000043   0.000134
    40  H    0.003325   0.000089   0.000000  -0.023969   0.000317  -0.000252
    41  H   -0.018905   0.000007   0.000000   0.034805   0.000380  -0.000281
              25         26         27         28         29         30
     1  H   -0.002816   0.000414  -0.000841  -0.000112   0.001721  -0.000203
     2  C   -0.109543  -0.004674   0.021718   0.003582  -0.012156   0.000349
     3  C   -0.014744  -0.011338  -0.131236  -0.000888  -0.006171  -0.000479
     4  C   -0.953535   0.004402  -0.003750  -0.002534   0.035679  -0.010166
     5  C    0.023860  -0.035159  -0.053747  -0.000025   0.008218  -0.000443
     6  C   -0.053536  -0.010262  -0.058956   0.000835  -0.011693   0.000073
     7  H   -0.042568  -0.001011  -0.000030  -0.001778   0.030151   0.004215
     8  C   -1.034393  -0.000162   0.001312  -0.033148   0.274064  -0.016510
     9  C    0.005499  -0.147860   0.202214  -0.000036   0.001802  -0.000145
    10  H    0.000047  -0.000745   0.003621   0.000015  -0.000142   0.000003
    11  C   -0.008722   0.072882  -0.121391   0.000054  -0.006693   0.001282
    12  H    0.004159   0.004787   0.000065   0.000078  -0.004162   0.000735
    13  C   -2.314490   0.000254  -0.000394  -0.146335  -0.747234   0.005114
    14  O   -0.021328   0.000006   0.000002  -0.000329   0.006661   0.000149
    15  C   -0.002005  -0.121163  -0.167872   0.000019  -0.000864   0.000284
    16  H   -0.000016  -0.003289   0.012662  -0.000001   0.000002   0.000000
    17  H   -0.000107   0.009524  -0.003906  -0.000005   0.000180  -0.000071
    18  C    0.283213  -0.000119   0.000012   0.048302  -2.367630  -0.003777
    19  C    1.409934  -0.000269   0.000118   0.029150  -1.307669   0.020329
    20  H    0.033099   0.000000  -0.000002   0.000444  -0.000467   0.000902
    21  N    0.000019   0.298975   0.315106   0.000000   0.000001  -0.000001
    22  C   -2.688852  -0.000008  -0.000001   0.735999  -1.472948  -0.115508
    23  O   -0.006239   0.000000   0.000000  -0.032379   0.037037   0.000558
    24  H   -0.182962   0.000004   0.000010   0.005338  -0.058679  -0.031831
    25  C   11.312529  -0.000030   0.000006  -0.033587   1.054206   0.527002
    26  C   -0.000030   5.223036  -0.110459   0.000000  -0.000003   0.000002
    27  C    0.000006  -0.110459   5.260632   0.000000   0.000002   0.000000
    28  H   -0.033587   0.000000   0.000000   0.509434  -0.260472  -0.002090
    29  C    1.054206  -0.000003   0.000002  -0.260472  10.829178  -0.081031
    30  H    0.527002   0.000002   0.000000  -0.002090  -0.081031   0.486472
    31  H   -0.000017   0.409071   0.000088   0.000000  -0.000001   0.000000
    32  H   -0.000001   0.401788  -0.014675   0.000000   0.000000   0.000000
    33  H    0.000009   0.425156  -0.000647   0.000000   0.000000   0.000000
    34  H    0.000001  -0.011029   0.397262   0.000000   0.000000   0.000000
    35  H    0.000002   0.005290   0.407129   0.000000   0.000000   0.000000
    36  H   -0.000002  -0.006096   0.432576   0.000000   0.000000   0.000000
    37  O   -0.531601   0.000000   0.000000  -0.014015   0.271973  -0.022225
    38  C    0.123281   0.000000   0.000000  -0.024413   0.234812   0.004354
    39  H    0.010030   0.000000   0.000000  -0.008493  -0.026274  -0.001075
    40  H    0.014933   0.000000   0.000000  -0.001723   0.055281   0.000870
    41  H   -0.033625   0.000000   0.000000  -0.008409  -0.025434  -0.000072
              31         32         33         34         35         36
     1  H    0.000027   0.000010   0.000007  -0.000003  -0.000111  -0.000117
     2  C   -0.001796  -0.001231  -0.000233   0.002725  -0.002481  -0.000669
     3  C   -0.014929   0.004781  -0.001412  -0.004598   0.007276   0.003477
     4  C   -0.000481   0.000171  -0.000349   0.000188   0.000624  -0.000285
     5  C   -0.001586   0.009045  -0.003869  -0.015788  -0.007748   0.007747
     6  C   -0.032789   0.001555   0.007667   0.005107  -0.000492  -0.007732
     7  H   -0.000292  -0.000058  -0.000289   0.000071  -0.000031   0.000005
     8  C   -0.000066   0.000022  -0.000058  -0.000005  -0.000074  -0.000019
     9  C   -0.013437   0.009725  -0.007398   0.016802   0.002534   0.035224
    10  H   -0.000057  -0.000180  -0.000066  -0.000101   0.000664   0.000656
    11  C    0.005305   0.015156   0.036780   0.020486  -0.002611  -0.013165
    12  H    0.001923   0.000114   0.001972  -0.000594   0.000225  -0.000174
    13  C    0.000152   0.000021   0.000050  -0.000038   0.000055   0.000051
    14  O   -0.000001   0.000000  -0.000001   0.000000  -0.000001  -0.000001
    15  C    0.064489  -0.017404  -0.039392  -0.005970   0.006213  -0.037248
    16  H   -0.001195   0.001882  -0.000093   0.006287  -0.009148  -0.009215
    17  H   -0.011890   0.005973  -0.012252   0.002791  -0.000717  -0.000386
    18  C    0.000030  -0.000007   0.000024   0.000000   0.000001   0.000009
    19  C   -0.000071  -0.000014  -0.000001   0.000014   0.000003  -0.000025
    20  H    0.000000   0.000000   0.000000   0.000000   0.000001   0.000000
    21  N   -0.056909  -0.048726  -0.055707  -0.046828  -0.060515  -0.050455
    22  C    0.000003  -0.000001   0.000002   0.000000   0.000000   0.000001
    23  O    0.000000   0.000000   0.000000   0.000000   0.000000   0.000000
    24  H    0.000029  -0.000003   0.000009   0.000001   0.000000   0.000001
    25  C   -0.000017  -0.000001   0.000009   0.000001   0.000002  -0.000002
    26  C    0.409071   0.401788   0.425156  -0.011029   0.005290  -0.006096
    27  C    0.000088  -0.014675  -0.000647   0.397262   0.407129   0.432576
    28  H    0.000000   0.000000   0.000000   0.000000   0.000000   0.000000
    29  C   -0.000001   0.000000   0.000000   0.000000   0.000000   0.000000
    30  H    0.000000   0.000000   0.000000   0.000000   0.000000   0.000000
    31  H    0.579170  -0.024686  -0.059590  -0.001163  -0.003305   0.002190
    32  H   -0.024686   0.513371  -0.022024   0.013037  -0.000180  -0.003173
    33  H   -0.059590  -0.022024   0.543150  -0.003159   0.001595  -0.000783
    34  H   -0.001163   0.013037  -0.003159   0.507433  -0.022952  -0.018790
    35  H   -0.003305  -0.000180   0.001595  -0.022952   0.567142  -0.064013
    36  H    0.002190  -0.003173  -0.000783  -0.018790  -0.064013   0.554254
    37  O    0.000000   0.000000   0.000000   0.000000   0.000000   0.000000
    38  C    0.000000   0.000000   0.000000   0.000000   0.000000   0.000000
    39  H    0.000000   0.000000   0.000000   0.000000   0.000000   0.000000
    40  H    0.000000   0.000000   0.000000   0.000000   0.000000   0.000000
    41  H    0.000000   0.000000   0.000000   0.000000   0.000000   0.000000
              37         38         39         40         41
     1  H    0.000008   0.000007   0.000003  -0.000001   0.000006
     2  C    0.000115   0.000997  -0.000125   0.000028  -0.000076
     3  C    0.000007  -0.000291   0.000038  -0.000014   0.000004
     4  C   -0.002700  -0.004284   0.000474  -0.000105  -0.000451
     5  C   -0.000004   0.000040   0.000000   0.000001   0.000005
     6  C   -0.000016  -0.000024  -0.000010  -0.000004  -0.000011
     7  H   -0.000160   0.000648   0.000011   0.000035   0.000017
     8  C    0.006007   0.034810   0.000869   0.001607   0.001403
     9  C    0.000000   0.000003   0.000000   0.000000   0.000001
    10  H    0.000000   0.000000   0.000000   0.000000   0.000000
    11  C    0.000004  -0.000020   0.000001  -0.000002  -0.000002
    12  H    0.000015  -0.000025  -0.000002  -0.000003   0.000000
    13  C    0.032030  -0.094013   0.011288  -0.002836   0.004983
    14  O   -0.000058   0.000345  -0.000053   0.000021  -0.000017
    15  C    0.000000  -0.000001   0.000000   0.000000   0.000000
    16  H    0.000000   0.000000   0.000000   0.000000   0.000000
    17  H    0.000000   0.000000   0.000000   0.000000   0.000000
    18  C    0.051719  -0.174362  -0.003769  -0.012847   0.017000
    19  C   -0.126324  -0.015582  -0.001133   0.003325  -0.018905
    20  H   -0.000367   0.000333  -0.000084   0.000089   0.000007
    21  N    0.000000   0.000000   0.000000   0.000000   0.000000
    22  C    0.235370  -0.374265  -0.012382  -0.023969   0.034805
    23  O   -0.000377   0.005326   0.000043   0.000317   0.000380
    24  H   -0.000351  -0.003756   0.000134  -0.000252  -0.000281
    25  C   -0.531601   0.123281   0.010030   0.014933  -0.033625
    26  C    0.000000   0.000000   0.000000   0.000000   0.000000
    27  C    0.000000   0.000000   0.000000   0.000000   0.000000
    28  H   -0.014015  -0.024413  -0.008493  -0.001723  -0.008409
    29  C    0.271973   0.234812  -0.026274   0.055281  -0.025434
    30  H   -0.022225   0.004354  -0.001075   0.000870  -0.000072
    31  H    0.000000   0.000000   0.000000   0.000000   0.000000
    32  H    0.000000   0.000000   0.000000   0.000000   0.000000
    33  H    0.000000   0.000000   0.000000   0.000000   0.000000
    34  H    0.000000   0.000000   0.000000   0.000000   0.000000
    35  H    0.000000   0.000000   0.000000   0.000000   0.000000
    36  H    0.000000   0.000000   0.000000   0.000000   0.000000
    37  O    8.171045   0.192249  -0.031587  -0.064066  -0.037042
    38  C    0.192249   5.259621   0.413850   0.393210   0.400144
    39  H   -0.031587   0.413850   0.548748  -0.016475  -0.058071
    40  H   -0.064066   0.393210  -0.016475   0.454561  -0.021071
    41  H   -0.037042   0.400144  -0.058071  -0.021071   0.578048
 Mulliken charges:
               1
     1  H    0.243960
     2  C    0.099487
     3  C    0.727448
     4  C    0.175305
     5  C   -0.249227
     6  C   -0.462294
     7  H   -0.209617
     8  C   -0.002260
     9  C   -0.257767
    10  H    0.214539
    11  C   -0.354512
    12  H    0.153612
    13  C    1.259110
    14  O   -0.382520
    15  C   -0.501150
    16  H    0.190251
    17  H    0.223446
    18  C   -0.126640
    19  C   -0.460929
    20  H    0.440773
    21  N    0.064982
    22  C   -0.123546
    23  O   -0.363182
    24  H    0.151015
    25  C   -0.767109
    26  C   -0.391914
    27  C   -0.386625
    28  H    0.237523
    29  C   -0.451243
    30  H    0.232933
    31  H    0.161788
    32  H    0.155711
    33  H    0.190902
    34  H    0.158815
    35  H    0.175625
    36  H    0.176155
    37  O   -0.129649
    38  C   -0.372996
    39  H    0.174046
    40  H    0.219090
    41  H    0.166666
 Sum of Mulliken charges =   0.00000
 Mulliken charges with hydrogens summed into heavy atoms:
               1
     2  C    0.343447
     3  C    0.727448
     4  C   -0.034312
     5  C   -0.034688
     6  C   -0.308682
     8  C   -0.002260
     9  C   -0.067516
    11  C   -0.131066
    13  C    1.259110
    14  O   -0.382520
    15  C   -0.501150
    18  C   -0.126640
    19  C   -0.309914
    21  N    0.064982
    22  C    0.113976
    23  O    0.077591
    25  C   -0.534175
    26  C    0.116487
    27  C    0.123970
    29  C   -0.451243
    37  O   -0.129649
    38  C    0.186805
 Electronic spatial extent (au):  <R**2>=          21277.1788
 Charge=              0.0000 electrons
 Dipole moment (field-independent basis, Debye):
    X=              1.5505    Y=             -0.8539    Z=             -7.4296  Tot=              7.6376
 Quadrupole moment (field-independent basis, Debye-Ang):
   XX=           -122.8841   YY=           -124.6843   ZZ=            -57.9928
   XY=            -13.1548   XZ=             -5.0180   YZ=              0.6144
 Traceless Quadrupole moment (field-independent basis, Debye-Ang):
   XX=            -21.0304   YY=            -22.8305   ZZ=             43.8609
   XY=            -13.1548   XZ=             -5.0180   YZ=              0.6144
 Octapole moment (field-independent basis, Debye-Ang**2):
  XXX=           -946.9977  YYY=            897.8257  ZZZ=            105.7399  XYY=           -272.3707
  XXY=            257.2607  XXZ=            198.0122  XZZ=           -133.9303  YZZ=            163.2961
  YYZ=            224.6352  XYZ=             -3.8109
 Hexadecapole moment (field-independent basis, Debye-Ang**3):
 XXXX=          -6598.9703 YYYY=          -6115.3337 ZZZZ=         -10660.9500 XXXY=           2936.5085
 XXXZ=            -70.2190 YYYX=           2910.3354 YYYZ=            314.5785 ZZZX=           -547.7896
 ZZZY=            568.8677 XXYY=          -1916.0169 XXZZ=          -3131.9182 YYZZ=          -3197.6419
 XXYZ=             83.7014 YYXZ=            102.7635 ZZXY=            298.8918
 N-N= 1.595499932287D+03 E-N=-5.469130944832D+03  KE= 9.732728607213D+02
 Leave Link  601 at Thu Nov  2 11:16:26 2017, MaxMem=  3758096384 cpu:         0.5
 (Enter /share/apps/gaussian/g09_D01/g09/l9999.exe)
 1\1\GINC-NXV30\SP\RwB97XD TD-FC\6-311++G(d,p)\C18H19N1O3\BTX008\02-Nov
 -2017\0\\#p wb97xd/6-311++G** td=(nstates=2) nosymm\\Title\\0,1\H,0,0.
 539269,-0.757276,-1.518015\C,0,1.316716,-1.381636,-1.968554\C,0,1.4066
 91,-1.352716,-3.396768\C,0,2.107951,-2.105446,-1.119894\C,0,0.528755,-
 0.531643,-4.13992\C,0,2.355633,-2.101138,-4.133738\H,0,2.891473,-2.740
 814,-1.526547\C,0,1.940107,-2.072893,0.311518\C,0,0.596312,-0.440871,-
 5.515017\H,0,-0.229195,0.04262,-3.607661\C,0,2.437872,-2.028575,-5.505
 255\H,0,3.046357,-2.759955,-3.609406\C,0,2.798479,-2.87877,1.181744\O,
 0,1.03805,-1.328111,0.848651\C,0,1.554518,-1.193862,-6.245691\H,0,-0.0
 97949,0.215782,-6.03564\H,0,3.19059,-2.620676,-6.020314\C,0,2.622229,-
 2.794178,2.59711\C,0,3.812938,-3.739251,0.704584\H,0,1.209147,-1.58669
 ,2.240938\N,0,1.617571,-1.130231,-7.601046\C,0,3.448765,-3.512435,3.47
 3315\O,0,1.644609,-2.02665,3.107859\H,0,3.948167,-3.880855,-0.365788\C
 ,0,4.633175,-4.443732,1.557505\C,0,2.579873,-1.939015,-8.331282\C,0,0.
 732543,-0.232747,-8.324129\H,0,3.286739,-3.407499,4.543375\C,0,4.45312
 3,-4.326179,2.953178\H,0,5.418454,-5.097941,1.18227\H,0,2.504764,-2.99
 9998,-8.050717\H,0,2.36944,-1.857185,-9.400518\H,0,3.612955,-1.600405,
 -8.147074\H,0,0.952148,-0.296688,-9.394601\H,0,-0.325191,-0.499819,-8.
 166162\H,0,0.876069,0.810662,-8.002562\O,0,5.306155,-5.056311,3.709831
 \C,0,5.105413,-5.086228,5.128793\H,0,4.102643,-5.48218,5.359169\H,0,5.
 875374,-5.757014,5.521101\H,0,5.222262,-4.080597,5.560317\\Version=ES6
 4L-G09RevD.01\HF=-977.6861843\RMSD=3.615e-09\PG=C01 [X(C18H19N1O3)]\\@


 ONE BIG VICE IN A MAN IS APT TO KEEP OUT MANY SMALLER ONES.

                           -- BRET HARTE
 Job cpu time:       0 days  3 hours 40 minutes  7.2 seconds.
 File lengths (MBytes):  RWF=    368 Int=      0 D2E=      0 Chk=    158 Scr=      1
 Normal termination of Gaussian 09 at Thu Nov  2 11:16:26 2017.
