
     Program PWSCF v.6.1 (svn rev. 13369) starts on 10Oct2017 at 17: 2:29 

     This program is part of the open-source Quantum ESPRESSO suite
     for quantum simulation of materials; please cite
         "P. Giannozzi et al., J. Phys.:Condens. Matter 21 395502 (2009);
          URL http://www.quantum-espresso.org", 
     in publications or presentations arising from this work. More details at
     http://www.quantum-espresso.org/quote

     Parallel version (MPI), running on     1 processors
     Waiting for input...
     Reading input from standard input

     Current dimensions of program PWSCF are:
     Max number of different atomic species (ntypx) = 10
     Max number of k-points (npk) =  40000
     Max angular momentum in pseudopotentials (lmaxx) =  3
     Message from routine iosys:
     london is obsolete, use "vdw_corr='grimme-d2'" instead

     IMPORTANT: XC functional enforced from input :
     Exchange-correlation      = PBE ( 1  4  3  4 0 0)
     Any further DFT definition will be discarded
     Please, verify this is what you really want

               file C.pbe-rrkjus.UPF: wavefunction(s)  2S 2P renormalized
               file H.pbe-rrkjus.UPF: wavefunction(s)  1S renormalized
               file O.pbe-rrkjus.UPF: wavefunction(s)  2S renormalized
               file N.pbe-rrkjus.UPF: wavefunction(s)  2S renormalized

     -------------------------------------
     Parameters for Dispersion Correction:
     -------------------------------------
       atom      VdW radius       C_6     

        C          2.744         60.710
        H          1.892          4.857
        O          2.536         24.284
        N          2.640         42.670

     Subspace diagonalization in iterative solution of the eigenvalue problem:
     a serial algorithm will be used

 
     G-vector sticks info
     --------------------
     sticks:   dense  smooth     PW     G-vecs:    dense   smooth      PW
     Sum        4711    4711   1317               233651   233651   34375
 


     bravais-lattice index     =            0
     lattice parameter (alat)  =      19.2639  a.u.
     unit-cell volume          =   10526.7386 (a.u.)^3
     number of atoms/cell      =          164
     number of atomic types    =            4
     number of electrons       =       456.00
     number of Kohn-Sham states=          228
     kinetic-energy cutoff     =      30.0000  Ry
     charge density cutoff     =     120.0000  Ry
     convergence threshold     =      1.0E-07
     mixing beta               =       0.7000
     number of iterations used =            8  plain     mixing
     Exchange-correlation      = PBE ( 1  4  3  4 0 0)
     nstep                     =           50


     celldm(1)=  19.263869  celldm(2)=   0.000000  celldm(3)=   0.000000
     celldm(4)=   0.000000  celldm(5)=   0.000000  celldm(6)=   0.000000

     crystal axes: (cart. coord. in units of alat)
               a(1) = (   1.000000   0.000000   0.000000 )  
               a(2) = (   0.000000   1.329606   0.000000 )  
               a(3) = (  -0.551692   0.000000   1.107492 )  

     reciprocal axes: (cart. coord. in units 2 pi/alat)
               b(1) = (  1.000000  0.000000  0.498146 )  
               b(2) = (  0.000000  0.752103  0.000000 )  
               b(3) = (  0.000000  0.000000  0.902941 )  


     PseudoPot. # 1 for C  read from file:
     /data/home/btx156/espresso/pseudo/C.pbe-rrkjus.UPF
     MD5 check sum: 00fb224312de0c5b6853bd333518df6f
     Pseudo is Ultrasoft, Zval =  4.0
     Generated by new atomic code, or converted to UPF format
     Using radial grid of  627 points,  4 beta functions with: 
                l(1) =   0
                l(2) =   0
                l(3) =   1
                l(4) =   1
     Q(r) pseudized with 0 coefficients 


     PseudoPot. # 2 for H  read from file:
     /data/home/btx156/espresso/pseudo/H.pbe-rrkjus.UPF
     MD5 check sum: 7cc9d459525c9a0585f487a71c3c9563
     Pseudo is Ultrasoft, Zval =  1.0
     Generated by new atomic code, or converted to UPF format
     Using radial grid of 1061 points,  2 beta functions with: 
                l(1) =   0
                l(2) =   0
     Q(r) pseudized with 0 coefficients 


     PseudoPot. # 3 for O  read from file:
     /data/home/btx156/espresso/pseudo/O.pbe-rrkjus.UPF
     MD5 check sum: 390ba29e75625707450f3bd3f0eb6be9
     Pseudo is Ultrasoft, Zval =  6.0
     Generated by new atomic code, or converted to UPF format
     Using radial grid of 1269 points,  4 beta functions with: 
                l(1) =   0
                l(2) =   0
                l(3) =   1
                l(4) =   1
     Q(r) pseudized with 0 coefficients 


     PseudoPot. # 4 for N  read from file:
     /data/home/btx156/espresso/pseudo/N.pbe-rrkjus.UPF
     MD5 check sum: 0c3fbe5807a93f9ba59d5a7019aa238b
     Pseudo is Ultrasoft, Zval =  5.0
     Generated by new atomic code, or converted to UPF format
     Using radial grid of 1257 points,  4 beta functions with: 
                l(1) =   0
                l(2) =   0
                l(3) =   1
                l(4) =   1
     Q(r) pseudized with 0 coefficients 


     atomic species   valence    mass     pseudopotential
        C              4.00    12.00000     C ( 1.00)
        H              1.00     1.00790     H ( 1.00)
        O              6.00    15.99940     O ( 1.00)
        N              5.00    14.00670     N ( 1.00)

      4 Sym. Ops., with inversion, found ( 2 have fractional translation)



   Cartesian axes

     site n.     atom                  positions (alat units)
         1           C   tau(   1) = (   0.1881862   0.2713724   0.8562017  )
         2           C   tau(   2) = (   0.1101913   0.3426398   0.7714783  )
         3           H   tau(   3) = (   0.1209094   0.3353267   0.6811075  )
         4           C   tau(   4) = (   0.0170581   0.4240112   0.8225338  )
         5           C   tau(   5) = (   0.0017344   0.4358446   0.9558760  )
         6           H   tau(   6) = (  -0.0614921   0.4922199   0.9896547  )
         7           C   tau(   7) = (   0.0791887   0.3651099   1.0382735  )
         8           H   tau(   8) = (   0.6187286   0.3734864   0.0208211  )
         9           C   tau(   9) = (   0.1755837   0.2809456   0.9923121  )
        10           C   tau(  10) = (   0.2609133   0.2034295   1.0773680  )
        11           C   tau(  11) = (   0.7956553   0.2070198   0.1113027  )
        12           H   tau(  12) = (   0.7290210   0.2587414   0.1462998  )
        13           C   tau(  13) = (   0.8714155   0.1393427   0.1924818  )
        14           H   tau(  14) = (  -0.0633853   0.0885521   0.1539415  )
        15           C   tau(  15) = (  -0.1357593   0.1354866   0.3333549  )
        16           C   tau(  16) = (   0.7747704   0.2072857   0.4055631  )
        17           H   tau(  17) = (   0.7172935   0.2624642   0.3611526  )
        18           C   tau(  18) = (  -0.2328742   0.2006376   0.5393486  )
        19           H   tau(  19) = (   0.7052786   0.2512959   0.5832048  )
        20           C   tau(  20) = (  -0.1494889   0.1188670   0.6114459  )
        21           C   tau(  21) = (  -0.0568638   0.0477330   0.5391269  )
        22           H   tau(  22) = (   0.0018550   1.3226917   0.5826515  )
        23           C   tau(  23) = (  -0.0517059   0.0573063   0.4061173  )
        24           H   tau(  24) = (   0.0117177   0.0090416   0.3617069  )
        25           C   tau(  25) = (  -0.2523798   0.1876074   0.8179929  )
        26           H   tau(  26) = (  -0.2491289   0.2777546   0.7911919  )
        27           H   tau(  27) = (  -0.2328703   0.1814911   0.9099156  )
        28           H   tau(  28) = (  -0.3385805   0.1531705   0.8019345  )
        29           C   tau(  29) = (  -0.0728252   0.0245978   0.8178830  )
        30           H   tau(  30) = (  -0.0888532   1.2653855   0.7906386  )
        31           H   tau(  31) = (  -0.0914155   0.0331067   0.9098048  )
        32           H   tau(  32) = (   0.0173200   0.0465362   0.8019345  )
        33           C   tau(  33) = (  -0.0460928   0.5005964   0.6104493  )
        34           H   tau(  34) = (   0.0394477   0.5343682   0.5902933  )
        35           H   tau(  35) = (  -0.1116323   0.5551108   0.5705797  )
        36           H   tau(  36) = (  -0.0538425   0.4128428   0.5772248  )
        37           N   tau(  37) = (  -0.1568825   0.1126172   0.7441240  )
        38           O   tau(  38) = (   0.2808054   0.1938562   0.8011595  )
        39           H   tau(  39) = (   0.3222523   0.1564950   0.8590818  )
        40           O   tau(  40) = (   0.3495497   0.1339043   1.0273092  )
        41           O   tau(  41) = (  -0.0642231   0.4996655   0.7482215  )
        42           C   tau(  42) = (  -0.0157249   0.9361752   0.8050353  )
        43           C   tau(  43) = (   0.2601207   1.0582332   0.2512900  )
        44           C   tau(  44) = (   0.4640328   0.3934304   0.3024563  )
        45           C   tau(  45) = (   0.0622700   1.0074426   0.8897587  )
        46           C   tau(  46) = (   0.3381165   0.9869658   0.3360133  )
        47           C   tau(  47) = (   0.3860369   0.3221630   0.2177330  )
        48           H   tau(  48) = (   0.0515519   1.0001295   0.9801304  )
        49           H   tau(  49) = (   0.3273985   0.9942790   0.4263841  )
        50           H   tau(  50) = (   0.3967549   0.3294762   0.1273612  )
        51           C   tau(  51) = (   0.1554032   1.0888140   0.8387031  )
        52           C   tau(  52) = (   0.4312497   0.9055944   0.2849578  )
        53           C   tau(  53) = (   0.2929046   0.2407916   0.2687885  )
        54           C   tau(  54) = (   0.1707269   1.1006474   0.7053620  )
        55           C   tau(  55) = (   0.4465735   0.8937610   0.1516157  )
        56           C   tau(  56) = (   0.2775809   0.2289582   0.4021307  )
        57           H   tau(  57) = (   0.2339533   1.1570227   0.6715833  )
        58           H   tau(  58) = (   0.5097999   0.8373857   0.1178370  )
        59           H   tau(  59) = (   0.2143535   0.1725829   0.4359084  )
        60           C   tau(  60) = (   0.0932735   1.0299127   0.6229645  )
        61           C   tau(  61) = (   0.3691191   0.9644958   0.0692182  )
        62           C   tau(  62) = (   0.3550343   0.2996929   0.4845272  )
        63           H   tau(  63) = (   0.1054257   1.0382892   0.5329252  )
        64           H   tau(  64) = (  -0.1704208   0.9561193   1.0866706  )
        65           H   tau(  65) = (   0.3428821   0.2913165   0.5745664  )
        66           C   tau(  66) = (  -0.0031224   0.9457485   0.6689248  )
        67           C   tau(  67) = (   0.2727241   1.0486600   0.1151795  )
        68           C   tau(  68) = (   0.4514302   0.3838572   0.4385668  )
        69           C   tau(  69) = (  -0.0884520   0.8682323   0.5838699  )
        70           C   tau(  70) = (   0.1873936   1.1261762   0.0301236  )
        71           C   tau(  71) = (   0.5367598   0.4613733   0.5236217  )
        72           C   tau(  72) = (  -0.0715009   0.8718226   0.4424426  )
        73           C   tau(  73) = (  -0.3473475   1.1225858   0.9961889  )
        74           C   tau(  74) = (   0.5198087   0.4577830   0.6650490  )
        75           H   tau(  75) = (  -0.0048676   0.9235442   0.4074465  )
        76           H   tau(  76) = (  -0.2807141   1.0708642   0.9611919  )
        77           H   tau(  77) = (   0.4531754   0.4060614   0.7000451  )
        78           C   tau(  78) = (  -0.1472621   0.8041456   0.3612635  )
        79           C   tau(  79) = (  -0.4231087   1.1902629   0.9150098  )
        80           C   tau(  80) = (   0.5955699   0.5254601   0.7462282  )
        81           H   tau(  81) = (   0.7875387   0.7533549   0.3998048  )
        82           H   tau(  82) = (   0.5116931   1.2410535   0.9535501  )
        83           H   tau(  83) = (  -0.3392319   0.5762507   0.7076869  )
        84           C   tau(  84) = (   0.8599137   0.8002894   0.2203904  )
        85           C   tau(  85) = (   0.5840671   1.1941191   0.7741367  )
        86           C   tau(  86) = (  -0.4116058   0.5293163   0.8871012  )
        87           C   tau(  87) = (  -0.0506160   0.8720885   0.1481823  )
        88           C   tau(  88) = (  -0.3264626   1.1223200   0.7019286  )
        89           C   tau(  89) = (   0.4989239   0.4575172   0.9593094  )
        90           C   tau(  90) = (   0.2185540   1.1653992   1.0507877  )
        91           C   tau(  91) = (   0.4944006   0.8290092   0.4970424  )
        92           C   tau(  92) = (   0.2297538   0.1642064   0.0567039  )
        93           H   tau(  93) = (   0.0068609   0.9272670   0.1925927  )
        94           H   tau(  94) = (  -0.2689857   1.0671414   0.7463390  )
        95           H   tau(  95) = (   0.4414469   0.4023386   0.9148989  )
        96           C   tau(  96) = (   0.9570276   0.8654404   0.0143977  )
        97           C   tau(  97) = (   0.6811821   1.1289680   0.5681430  )
        98           C   tau(  98) = (  -0.5087208   0.4641652   1.0930940  )
        99           H   tau(  99) = (  -0.5328173   0.9160987   1.0780321  )
       100           H   tau( 100) = (  -0.2569708   1.0783098   0.5242868  )
       101           H   tau( 101) = (   0.9811251   0.4135070   0.0294595  )
       102           C   tau( 102) = (   0.3219511   0.7836698   1.0497910  )
       103           C   tau( 103) = (   0.5977967   1.2107386   0.4960457  )
       104           C   tau( 104) = (   0.1263567   0.5459358   0.0577006  )
       105           C   tau( 105) = (   0.7810172   0.7125358   0.0146184  )
       106           C   tau( 106) = (   0.5051717   1.2818726   0.5683647  )
       107           C   tau( 107) = (  -0.3327104   0.6170698   1.0928732  )
       108           H   tau( 108) = (   0.1706072   0.6578889   1.0785864  )
       109           H   tau( 109) = (   0.4464528   0.0069139   0.5248401  )
       110           H   tau( 110) = (   0.2777006   0.6717167   0.0289052  )
       111           C   tau( 111) = (   0.7758593   0.7221091   0.1476290  )
       112           C   tau( 112) = (   0.5000127   1.2722994   0.7013743  )
       113           C   tau( 113) = (  -0.3275515   0.6074966   0.9598626  )
       114           H   tau( 114) = (   0.7124367   0.6738444   0.1920394  )
       115           H   tau( 115) = (   0.4365901   1.3205640   0.7457848  )
       116           H   tau( 116) = (  -0.2641289   0.6557612   0.9154522  )
       117           C   tau( 117) = (   0.4248411   0.8524102   0.8432440  )
       118           C   tau( 118) = (   0.7006876   1.1419982   0.2894987  )
       119           C   tau( 119) = (   0.0234658   0.4771954   0.2642476  )
       120           H   tau( 120) = (   0.4215901   0.9425574   0.8700451  )
       121           H   tau( 121) = (   0.6974367   1.0518511   0.3162998  )
       122           H   tau( 122) = (   0.0267167   0.3870483   0.2374465  )
       123           H   tau( 123) = (   0.4053316   0.8462939   0.7513223  )
       124           H   tau( 124) = (   0.6811781   1.1481145   0.1975770  )
       125           H   tau( 125) = (   0.0429753   0.4833117   0.3561693  )
       126           H   tau( 126) = (   0.5110418   0.8179733   0.8593025  )
       127           H   tau( 127) = (   0.7868883   1.1764351   0.3055572  )
       128           H   tau( 128) = (  -0.0627340   0.5116323   0.2481891  )
       129           C   tau( 129) = (   0.2452864   0.6894006   0.8433549  )
       130           C   tau( 130) = (   0.5211320   1.3050078   0.2896096  )
       131           C   tau( 131) = (   0.2030214   0.6402050   0.2641367  )
       132           H   tau( 132) = (   0.2613145   0.6005827   0.8705994  )
       133           H   tau( 133) = (   0.5371611   0.0642201   0.3168530  )
       134           H   tau( 134) = (   0.1869933   0.7290229   0.2368923  )
       135           H   tau( 135) = (   0.2638768   0.6979095   0.7514332  )
       136           H   tau( 136) = (   0.5397234   1.2964989   0.1976869  )
       137           H   tau( 137) = (   0.1844310   0.6316961   0.3560585  )
       138           H   tau( 138) = (   0.1551422   0.7113390   0.8593025  )
       139           H   tau( 139) = (   0.4309878   1.2830694   0.3055572  )
       140           H   tau( 140) = (   0.2931656   0.6182666   0.2481891  )
       141           H   tau( 141) = (   0.1330135   1.1991711   1.0709446  )
       142           H   tau( 142) = (   0.4088601   0.7952374   0.5171983  )
       143           H   tau( 143) = (   0.3152943   0.1304346   0.0365470  )
       144           H   tau( 144) = (   0.2840936   1.2199136   1.0906582  )
       145           H   tau( 145) = (   0.5599392   0.7744958   0.5369119  )
       146           H   tau( 146) = (   0.1642142   0.1096930   0.0168334  )
       147           H   tau( 147) = (   0.2263037   1.0776456   1.0840131  )
       148           H   tau( 148) = (   0.5021493   0.9167628   0.5302668  )
       149           H   tau( 149) = (   0.2220041   0.2519600   0.0234785  )
       150           N   tau( 150) = (   0.3293437   0.7774200   0.9171140  )
       151           N   tau( 151) = (   0.6051893   1.2169884   0.3633677  )
       152           N   tau( 152) = (   0.1189641   0.5521856   0.1903777  )
       153           O   tau( 153) = (  -0.1083441   0.8586590   0.8600785  )
       154           O   tau( 154) = (   0.1675015   1.1357494   0.3063321  )
       155           O   tau( 155) = (   0.5566519   0.4709466   0.2474132  )
       156           H   tau( 156) = (  -0.1497910   0.8212978   0.8021562  )
       157           H   tau( 157) = (   0.1260555   1.1731106   0.2484108  )
       158           H   tau( 158) = (   0.5980989   0.5083078   0.3053355  )
       159           O   tau( 159) = (  -0.1770885   0.7987071   0.6339278  )
       160           O   tau( 160) = (   0.0987571   1.1957014   0.0801825  )
       161           O   tau( 161) = (   0.6253963   0.5308986   0.4735638  )
       162           O   tau( 162) = (   0.2366843   1.1644683   0.9130165  )
       163           O   tau( 163) = (   0.5125309   0.8299401   0.3592702  )
       164           O   tau( 164) = (   0.2116225   0.1651373   0.1944752  )

     number of k points=     8
                       cart. coord. in units 2pi/alat
        k(    1) = (   0.0000000   0.0000000   0.0000000), wk =   0.2500000
        k(    2) = (   0.0000000   0.0000000  -0.4514707), wk =   0.2500000
        k(    3) = (   0.0000000  -0.3760514   0.0000000), wk =   0.2500000
        k(    4) = (   0.0000000  -0.3760514  -0.4514707), wk =   0.2500000
        k(    5) = (  -0.5000000   0.0000000  -0.2490730), wk =   0.2500000
        k(    6) = (  -0.5000000   0.0000000  -0.7005436), wk =   0.2500000
        k(    7) = (  -0.5000000  -0.3760514  -0.2490730), wk =   0.2500000
        k(    8) = (  -0.5000000  -0.3760514  -0.7005436), wk =   0.2500000

     Dense  grid:   233651 G-vectors     FFT dimensions: (  72,  90,  90)

     Estimated max dynamical RAM per process >    2281.79MB

     Initial potential from superposition of free atoms

     starting charge  448.68464, renormalised to  456.00000
     Starting wfc are  428 randomized atomic wfcs

     total cpu time spent up to now is      136.9 secs

     per-process dynamical memory:  1504.5 Mb

     Self-consistent Calculation

     iteration #  1     ecut=    30.00 Ry     beta=0.70
     Davidson diagonalization with overlap
     ethr =  1.00E-02,  avg # of iterations =  2.0

     total cpu time spent up to now is      411.0 secs

     total energy              =   -1358.24818637 Ry
     Harris-Foulkes estimate   =   -1386.19964078 Ry
     estimated scf accuracy    <      41.99193881 Ry

     iteration #  2     ecut=    30.00 Ry     beta=0.70
     Davidson diagonalization with overlap
     ethr =  9.21E-03,  avg # of iterations =  3.0

     total cpu time spent up to now is      679.4 secs

     total energy              =   -1364.70583084 Ry
     Harris-Foulkes estimate   =   -1373.67161769 Ry
     estimated scf accuracy    <      15.45053276 Ry

     iteration #  3     ecut=    30.00 Ry     beta=0.70
     Davidson diagonalization with overlap
     ethr =  3.39E-03,  avg # of iterations =  4.0

     total cpu time spent up to now is      947.6 secs

     total energy              =   -1368.49167829 Ry
     Harris-Foulkes estimate   =   -1369.80903478 Ry
     estimated scf accuracy    <       2.44437089 Ry

     iteration #  4     ecut=    30.00 Ry     beta=0.70
     Davidson diagonalization with overlap
     ethr =  5.36E-04,  avg # of iterations =  4.0

     total cpu time spent up to now is     1194.5 secs

     total energy              =   -1369.06951737 Ry
     Harris-Foulkes estimate   =   -1369.27321559 Ry
     estimated scf accuracy    <       0.39691590 Ry

     iteration #  5     ecut=    30.00 Ry     beta=0.70
     Davidson diagonalization with overlap
     ethr =  8.70E-05,  avg # of iterations =  4.0

     total cpu time spent up to now is     1441.0 secs

     total energy              =   -1369.15606591 Ry
     Harris-Foulkes estimate   =   -1369.18603454 Ry
     estimated scf accuracy    <       0.06161155 Ry

     iteration #  6     ecut=    30.00 Ry     beta=0.70
     Davidson diagonalization with overlap
     ethr =  1.35E-05,  avg # of iterations =  4.0

     negative rho (up, down):  5.895E-07 0.000E+00

     total cpu time spent up to now is     1687.7 secs

     total energy              =   -1369.17029637 Ry
     Harris-Foulkes estimate   =   -1369.17408018 Ry
     estimated scf accuracy    <       0.00842780 Ry

     iteration #  7     ecut=    30.00 Ry     beta=0.70
     Davidson diagonalization with overlap
     ethr =  1.85E-06,  avg # of iterations =  4.9

     negative rho (up, down):  1.711E-06 0.000E+00

     total cpu time spent up to now is     1945.1 secs

     total energy              =   -1369.17197495 Ry
     Harris-Foulkes estimate   =   -1369.17294065 Ry
     estimated scf accuracy    <       0.00220677 Ry

     iteration #  8     ecut=    30.00 Ry     beta=0.70
     Davidson diagonalization with overlap
     ethr =  4.84E-07,  avg # of iterations =  5.0

     negative rho (up, down):  2.668E-06 0.000E+00

     total cpu time spent up to now is     2186.4 secs

     total energy              =   -1369.17242951 Ry
     Harris-Foulkes estimate   =   -1369.17255150 Ry
     estimated scf accuracy    <       0.00027423 Ry

     iteration #  9     ecut=    30.00 Ry     beta=0.70
     Davidson diagonalization with overlap
     ethr =  6.01E-08,  avg # of iterations =  5.0

     negative rho (up, down):  3.040E-06 0.000E+00

     total cpu time spent up to now is     2439.4 secs

     total energy              =   -1369.17249455 Ry
     Harris-Foulkes estimate   =   -1369.17251126 Ry
     estimated scf accuracy    <       0.00003752 Ry

     iteration # 10     ecut=    30.00 Ry     beta=0.70
     Davidson diagonalization with overlap
     ethr =  8.23E-09,  avg # of iterations =  4.0

     negative rho (up, down):  3.118E-06 0.000E+00

     total cpu time spent up to now is     2687.1 secs

     total energy              =   -1369.17250269 Ry
     Harris-Foulkes estimate   =   -1369.17250467 Ry
     estimated scf accuracy    <       0.00000418 Ry

     iteration # 11     ecut=    30.00 Ry     beta=0.70
     Davidson diagonalization with overlap
     ethr =  9.17E-10,  avg # of iterations =  3.0

     negative rho (up, down):  3.135E-06 0.000E+00

     total cpu time spent up to now is     2932.2 secs

     total energy              =   -1369.17250371 Ry
     Harris-Foulkes estimate   =   -1369.17250390 Ry
     estimated scf accuracy    <       0.00000044 Ry

     iteration # 12     ecut=    30.00 Ry     beta=0.70
     Davidson diagonalization with overlap
     ethr =  9.73E-11,  avg # of iterations =  4.0

     negative rho (up, down):  3.138E-06 0.000E+00

     total cpu time spent up to now is     3189.6 secs

     End of self-consistent calculation

          k = 0.0000 0.0000 0.0000 ( 29151 PWs)   bands (ev):

   -21.5720 -21.5713 -21.5709 -21.5706 -20.9003 -20.9000 -20.8994 -20.8991
   -19.3064 -19.3058 -19.3008 -19.3001 -18.0358 -18.0350 -18.0195 -18.0188
   -15.7473 -15.7449 -15.7392 -15.7363 -15.4328 -15.4269 -15.4219 -15.4177
   -14.0170 -14.0168 -13.9936 -13.9877 -13.4640 -13.4435 -13.4212 -13.4166
   -13.2689 -13.2647 -13.2207 -13.2165 -13.1525 -13.1413 -13.0825 -13.0742
   -12.7000 -12.6791 -12.6702 -12.6420 -12.5840 -12.5608 -12.5440 -12.5237
   -12.0432 -12.0344 -12.0271 -12.0260 -11.1366 -11.1334 -11.1012 -11.0848
   -10.2667 -10.2384 -10.2352 -10.2329  -9.8721  -9.8678  -9.7620  -9.7617
    -9.7219  -9.7022  -9.7001  -9.6985  -9.5623  -9.4999  -9.4857  -9.4427
    -8.6768  -8.6765  -8.6515  -8.6504  -8.1824  -8.1619  -8.1581  -8.1459
    -7.5955  -7.5654  -7.5458  -7.5292  -7.5228  -7.4905  -7.4884  -7.4803
    -7.1555  -7.1531  -7.1510  -7.1482  -6.5018  -6.4983  -6.4474  -6.4426
    -6.4309  -6.4080  -6.3917  -6.3875  -6.2151  -6.1948  -6.1932  -6.1523
    -6.1394  -6.1327  -6.0991  -6.0947  -5.8924  -5.8840  -5.8827  -5.8648
    -5.6859  -5.6835  -5.6696  -5.6546  -5.6381  -5.6369  -5.3992  -5.3558
    -5.3508  -5.3480  -5.3179  -5.3159  -5.0452  -4.8974  -4.8641  -4.8605
    -4.8408  -4.8396  -4.8257  -4.7344  -4.7141  -4.6926  -4.6841  -4.6770
    -4.6564  -4.6363  -4.6348  -4.5783  -4.5102  -4.4594  -4.4442  -4.4310
    -4.4221  -4.3856  -4.3756  -4.3578  -4.1107  -4.0675  -4.0547  -4.0524
    -4.0245  -3.9878  -3.9775  -3.9589  -3.7920  -3.7755  -3.7753  -3.7322
    -3.7016  -3.6950  -3.6844  -3.6331  -3.5207  -3.4820  -3.4761  -3.4392
    -3.4002  -3.3432  -3.3374  -3.3259  -3.2542  -3.2243  -3.2147  -3.1837
    -3.0264  -3.0199  -3.0104  -2.9964  -2.9019  -2.8431  -2.7793  -2.7607
    -2.5523  -2.5074  -2.3996  -2.3876  -2.1294  -2.1275  -2.0987  -2.0965
    -1.9786  -1.9771  -1.9702  -1.9475  -1.9289  -1.8515  -1.7720  -1.7036
    -1.6309  -1.6262  -1.5846  -1.5436  -0.4391  -0.4094  -0.3743  -0.3605
    -0.3430  -0.3319  -0.1563  -0.1471  -0.1272  -0.0904  -0.0446  -0.0423
     0.3494   0.3511   0.4045   0.4050   0.4265   0.4323   0.4513   0.4536
     1.3045   1.3496   1.4830   1.5267

          k = 0.0000 0.0000-0.4515 ( 29196 PWs)   bands (ev):

   -21.5717 -21.5716 -21.5709 -21.5708 -20.9003 -20.9000 -20.8994 -20.8991
   -19.3062 -19.3061 -19.3005 -19.3004 -18.0354 -18.0353 -18.0192 -18.0191
   -15.7443 -15.7441 -15.7415 -15.7413 -15.4284 -15.4284 -15.4179 -15.4179
   -14.0277 -14.0276 -13.9901 -13.9900 -13.4382 -13.4380 -13.4159 -13.4158
   -13.2449 -13.2448 -13.2433 -13.2432 -13.1503 -13.1503 -13.0859 -13.0858
   -12.6871 -12.6871 -12.6638 -12.6637 -12.5673 -12.5672 -12.5258 -12.5257
   -12.0519 -12.0518 -12.0203 -12.0202 -11.1210 -11.1209 -11.1040 -11.1040
   -10.2481 -10.2481 -10.2348 -10.2347  -9.8011  -9.8010  -9.7892  -9.7891
    -9.7539  -9.7539  -9.7078  -9.7078  -9.5106  -9.5106  -9.4927  -9.4927
    -8.6868  -8.6867  -8.6399  -8.6398  -8.1792  -8.1792  -8.1363  -8.1363
    -7.5676  -7.5675  -7.5505  -7.5504  -7.5114  -7.5114  -7.4725  -7.4725
    -7.1671  -7.1671  -7.1492  -7.1492  -6.4691  -6.4691  -6.4551  -6.4550
    -6.4110  -6.4110  -6.3882  -6.3880  -6.2168  -6.2168  -6.1731  -6.1731
    -6.1316  -6.1315  -6.1026  -6.1026  -5.8951  -5.8950  -5.8674  -5.8674
    -5.6818  -5.6818  -5.6530  -5.6529  -5.5125  -5.5125  -5.5010  -5.5009
    -5.3747  -5.3747  -5.3369  -5.3368  -4.9865  -4.9864  -4.8698  -4.8698
    -4.8432  -4.8432  -4.7627  -4.7626  -4.7076  -4.7075  -4.6667  -4.6667
    -4.6436  -4.6435  -4.5974  -4.5973  -4.4913  -4.4913  -4.4300  -4.4299
    -4.3889  -4.3888  -4.3732  -4.3731  -4.0910  -4.0909  -4.0631  -4.0631
    -3.9988  -3.9988  -3.9600  -3.9600  -3.7962  -3.7962  -3.7432  -3.7431
    -3.7153  -3.7152  -3.6760  -3.6760  -3.5708  -3.5708  -3.4818  -3.4817
    -3.3223  -3.3222  -3.2988  -3.2988  -3.1997  -3.1997  -3.1574  -3.1573
    -3.0639  -3.0639  -3.0293  -3.0292  -2.8125  -2.8125  -2.7931  -2.7931
    -2.4785  -2.4785  -2.4529  -2.4529  -2.1230  -2.1230  -2.0959  -2.0958
    -1.9845  -1.9845  -1.9570  -1.9569  -1.8826  -1.8825  -1.7518  -1.7518
    -1.5982  -1.5982  -1.5768  -1.5768  -0.4241  -0.4241  -0.4000  -0.3999
    -0.3346  -0.3345  -0.1541  -0.1541  -0.0852  -0.0852  -0.0764  -0.0763
     0.3519   0.3519   0.4076   0.4078   0.4335   0.4337   0.4516   0.4517
     1.3408   1.3409   1.5213   1.5214

          k = 0.0000-0.3761 0.0000 ( 29204 PWs)   bands (ev):

   -21.5717 -21.5716 -21.5709 -21.5708 -20.8999 -20.8998 -20.8997 -20.8994
   -19.3062 -19.3061 -19.3005 -19.3004 -18.0355 -18.0353 -18.0192 -18.0191
   -15.7461 -15.7461 -15.7378 -15.7377 -15.4305 -15.4305 -15.4192 -15.4191
   -14.0168 -14.0168 -13.9908 -13.9907 -13.4547 -13.4546 -13.4180 -13.4179
   -13.2672 -13.2672 -13.2180 -13.2180 -13.1478 -13.1478 -13.0778 -13.0777
   -12.6936 -12.6936 -12.6521 -12.6521 -12.5750 -12.5749 -12.5314 -12.5313
   -12.0360 -12.0360 -12.0293 -12.0293 -11.1353 -11.1353 -11.0929 -11.0929
   -10.2548 -10.2548 -10.2320 -10.2320  -9.8703  -9.8703  -9.7542  -9.7542
    -9.7273  -9.7273  -9.6913  -9.6913  -9.5407  -9.5407  -9.4544  -9.4544
    -8.6766  -8.6766  -8.6512  -8.6511  -8.1713  -8.1712  -8.1531  -8.1531
    -7.5842  -7.5842  -7.5359  -7.5359  -7.5065  -7.5065  -7.4824  -7.4824
    -7.1531  -7.1531  -7.1511  -7.1511  -6.4976  -6.4976  -6.4464  -6.4464
    -6.4087  -6.4087  -6.4009  -6.4009  -6.1953  -6.1953  -6.1828  -6.1828
    -6.1408  -6.1407  -6.0919  -6.0919  -5.8881  -5.8881  -5.8725  -5.8725
    -5.6858  -5.6857  -5.6612  -5.6612  -5.6376  -5.6376  -5.3761  -5.3761
    -5.3561  -5.3561  -5.3170  -5.3170  -4.9778  -4.9778  -4.8780  -4.8780
    -4.8270  -4.8270  -4.7954  -4.7954  -4.7073  -4.7072  -4.6603  -4.6603
    -4.6502  -4.6501  -4.5788  -4.5788  -4.4887  -4.4887  -4.4390  -4.4389
    -4.4055  -4.4055  -4.3745  -4.3745  -4.0888  -4.0887  -4.0446  -4.0445
    -4.0201  -4.0200  -3.9606  -3.9606  -3.7899  -3.7899  -3.7377  -3.7377
    -3.7172  -3.7171  -3.6576  -3.6575  -3.5094  -3.5094  -3.4383  -3.4383
    -3.3937  -3.3936  -3.2898  -3.2898  -3.2366  -3.2366  -3.2312  -3.2311
    -3.0286  -3.0285  -2.9942  -2.9941  -2.8738  -2.8737  -2.7695  -2.7695
    -2.5281  -2.5281  -2.3955  -2.3954  -2.1168  -2.1167  -2.1086  -2.1085
    -1.9862  -1.9862  -1.9487  -1.9487  -1.9014  -1.9014  -1.7279  -1.7278
    -1.6080  -1.6079  -1.5854  -1.5853  -0.4249  -0.4248  -0.3706  -0.3706
    -0.3343  -0.3343  -0.1493  -0.1492  -0.1061  -0.1061  -0.0487  -0.0486
     0.3517   0.3518   0.4151   0.4151   0.4187   0.4187   0.4517   0.4518
     1.3248   1.3248   1.5069   1.5069

          k = 0.0000-0.3761-0.4515 ( 29216 PWs)   bands (ev):

   -21.5715 -21.5713 -21.5711 -21.5710 -20.8999 -20.8998 -20.8997 -20.8995
   -19.3062 -19.3061 -19.3005 -19.3004 -18.0354 -18.0353 -18.0192 -18.0191
   -15.7434 -15.7432 -15.7425 -15.7423 -15.4284 -15.4283 -15.4179 -15.4179
   -14.0278 -14.0277 -13.9901 -13.9900 -13.4291 -13.4290 -13.4251 -13.4250
   -13.2446 -13.2446 -13.2434 -13.2434 -13.1501 -13.1500 -13.0862 -13.0861
   -12.6861 -12.6861 -12.6650 -12.6649 -12.5670 -12.5669 -12.5259 -12.5258
   -12.0377 -12.0377 -12.0344 -12.0344 -11.1183 -11.1183 -11.1066 -11.1065
   -10.2479 -10.2478 -10.2349 -10.2349  -9.7981  -9.7981  -9.7929  -9.7929
    -9.7517  -9.7517  -9.7098  -9.7098  -9.5111  -9.5110  -9.4918  -9.4918
    -8.6858  -8.6858  -8.6411  -8.6411  -8.1797  -8.1797  -8.1355  -8.1355
    -7.5698  -7.5697  -7.5483  -7.5483  -7.5076  -7.5076  -7.4766  -7.4766
    -7.1671  -7.1671  -7.1495  -7.1495  -6.4719  -6.4719  -6.4522  -6.4521
    -6.4098  -6.4097  -6.3889  -6.3888  -6.1958  -6.1957  -6.1849  -6.1848
    -6.1500  -6.1500  -6.0935  -6.0935  -5.8857  -5.8857  -5.8751  -5.8751
    -5.6752  -5.6752  -5.6622  -5.6621  -5.5125  -5.5125  -5.5011  -5.5010
    -5.3756  -5.3755  -5.3359  -5.3358  -4.9637  -4.9637  -4.9089  -4.9089
    -4.8514  -4.8514  -4.7761  -4.7760  -4.6798  -4.6798  -4.6622  -4.6622
    -4.6396  -4.6395  -4.5822  -4.5821  -4.4887  -4.4887  -4.4328  -4.4327
    -4.3891  -4.3890  -4.3815  -4.3814  -4.0870  -4.0869  -4.0786  -4.0785
    -3.9900  -3.9900  -3.9593  -3.9593  -3.8235  -3.8234  -3.7459  -3.7459
    -3.7074  -3.7073  -3.6441  -3.6441  -3.5412  -3.5412  -3.5338  -3.5338
    -3.3239  -3.3239  -3.2515  -3.2515  -3.2456  -3.2456  -3.1464  -3.1464
    -3.0523  -3.0522  -3.0428  -3.0427  -2.8094  -2.8094  -2.7941  -2.7941
    -2.4772  -2.4772  -2.4569  -2.4569  -2.1168  -2.1168  -2.1008  -2.1007
    -1.9846  -1.9846  -1.9557  -1.9556  -1.8845  -1.8845  -1.7476  -1.7476
    -1.5982  -1.5982  -1.5802  -1.5801  -0.4331  -0.4330  -0.3838  -0.3837
    -0.3429  -0.3429  -0.1480  -0.1480  -0.0880  -0.0880  -0.0794  -0.0794
     0.3526   0.3527   0.4199   0.4200   0.4208   0.4209   0.4515   0.4515
     1.3413   1.3413   1.5210   1.5210

          k =-0.5000 0.0000-0.2491 ( 29296 PWs)   bands (ev):

   -21.5718 -21.5715 -21.5712 -21.5705 -20.9003 -20.9000 -20.8994 -20.8991
   -19.3066 -19.3058 -19.3008 -19.3002 -18.0358 -18.0350 -18.0195 -18.0188
   -15.7483 -15.7443 -15.7401 -15.7383 -15.4307 -15.4256 -15.4208 -15.4161
   -14.0316 -14.0118 -14.0023 -13.9898 -13.4518 -13.4236 -13.4199 -13.4140
   -13.2675 -13.2648 -13.2264 -13.2151 -13.1488 -13.1438 -13.0906 -13.0784
   -12.7059 -12.6791 -12.6773 -12.6507 -12.5680 -12.5649 -12.5273 -12.5247
   -12.0729 -12.0387 -12.0301 -12.0037 -11.1349 -11.1181 -11.1038 -11.0983
   -10.2525 -10.2416 -10.2396 -10.2294  -9.8582  -9.8531  -9.7547  -9.7458
    -9.7424  -9.7218  -9.7053  -9.7024  -9.5668  -9.5120  -9.4880  -9.4568
    -8.6877  -8.6613  -8.6489  -8.6459  -8.1986  -8.1804  -8.1290  -8.1096
    -7.5860  -7.5600  -7.5454  -7.5437  -7.5243  -7.4880  -7.4851  -7.4838
    -7.1727  -7.1700  -7.1487  -7.1421  -6.5006  -6.4720  -6.4508  -6.4353
    -6.4231  -6.4105  -6.4081  -6.3598  -6.1980  -6.1961  -6.1951  -6.1938
    -6.1542  -6.1445  -6.1022  -6.0810  -5.8983  -5.8825  -5.8786  -5.8615
    -5.7033  -5.6879  -5.6672  -5.6652  -5.6360  -5.6128  -5.3976  -5.3843
    -5.3541  -5.3490  -5.3284  -5.3253  -5.0390  -4.9219  -4.8975  -4.8778
    -4.8332  -4.8159  -4.7936  -4.7418  -4.7154  -4.6724  -4.6715  -4.6694
    -4.6501  -4.6229  -4.6224  -4.5522  -4.4904  -4.4689  -4.4507  -4.4304
    -4.4049  -4.4007  -4.3770  -4.3460  -4.1156  -4.0926  -4.0697  -4.0559
    -3.9978  -3.9919  -3.9816  -3.9452  -3.8000  -3.7918  -3.7760  -3.7726
    -3.7629  -3.6981  -3.6385  -3.6286  -3.5443  -3.5345  -3.5210  -3.5002
    -3.3074  -3.3074  -3.3024  -3.2638  -3.2240  -3.1921  -3.1627  -3.1342
    -3.0721  -3.0585  -3.0494  -3.0409  -2.8964  -2.8419  -2.7820  -2.7609
    -2.5844  -2.5459  -2.3648  -2.3495  -2.1296  -2.1058  -2.0950  -2.0937
    -1.9952  -1.9865  -1.9710  -1.9578  -1.9159  -1.8522  -1.7770  -1.7142
    -1.6125  -1.5971  -1.5875  -1.5536  -0.4413  -0.4193  -0.3972  -0.3714
    -0.3373  -0.3294  -0.1680  -0.1294  -0.1279  -0.0992  -0.0482  -0.0440
     0.3535   0.3550   0.3836   0.4064   0.4120   0.4449   0.4524   0.4547
     1.3227   1.3578   1.4874   1.5377

          k =-0.5000 0.0000-0.7005 ( 29160 PWs)   bands (ev):

   -21.5717 -21.5715 -21.5709 -21.5708 -20.9003 -20.9000 -20.8993 -20.8991
   -19.3062 -19.3061 -19.3005 -19.3004 -18.0355 -18.0353 -18.0192 -18.0191
   -15.7435 -15.7433 -15.7403 -15.7401 -15.4299 -15.4299 -15.4200 -15.4200
   -14.0229 -14.0229 -13.9849 -13.9848 -13.4413 -13.4412 -13.4303 -13.4302
   -13.2441 -13.2441 -13.2393 -13.2392 -13.1510 -13.1510 -13.0807 -13.0806
   -12.6835 -12.6834 -12.6615 -12.6614 -12.5729 -12.5729 -12.5303 -12.5302
   -12.0410 -12.0409 -12.0242 -12.0241 -11.1242 -11.1241 -11.1053 -11.1052
   -10.2559 -10.2558 -10.2358 -10.2358  -9.8110  -9.8109  -9.7946  -9.7945
    -9.7381  -9.7381  -9.6946  -9.6946  -9.5100  -9.5100  -9.4856  -9.4856
    -8.6885  -8.6885  -8.6402  -8.6402  -8.1864  -8.1864  -8.1395  -8.1394
    -7.5694  -7.5694  -7.5530  -7.5530  -7.5143  -7.5142  -7.4753  -7.4753
    -7.1646  -7.1646  -7.1440  -7.1440  -6.4839  -6.4839  -6.4473  -6.4472
    -6.4012  -6.4011  -6.3955  -6.3954  -6.1938  -6.1938  -6.1786  -6.1785
    -6.1395  -6.1395  -6.0991  -6.0990  -5.8914  -5.8913  -5.8751  -5.8750
    -5.6729  -5.6729  -5.6538  -5.6538  -5.5075  -5.5074  -5.5022  -5.5021
    -5.3725  -5.3724  -5.3376  -5.3375  -4.9927  -4.9927  -4.9061  -4.9061
    -4.8393  -4.8392  -4.7864  -4.7864  -4.6817  -4.6817  -4.6621  -4.6621
    -4.6470  -4.6470  -4.5772  -4.5772  -4.4839  -4.4838  -4.4193  -4.4193
    -4.4070  -4.4070  -4.3858  -4.3858  -4.0906  -4.0905  -4.0607  -4.0606
    -3.9943  -3.9943  -3.9540  -3.9540  -3.8197  -3.8197  -3.7732  -3.7731
    -3.6994  -3.6994  -3.6196  -3.6196  -3.5026  -3.5025  -3.4574  -3.4573
    -3.3879  -3.3878  -3.3135  -3.3135  -3.2471  -3.2471  -3.1819  -3.1819
    -3.0432  -3.0431  -2.9983  -2.9982  -2.8170  -2.8170  -2.7976  -2.7976
    -2.4798  -2.4798  -2.4641  -2.4640  -2.1173  -2.1173  -2.0875  -2.0875
    -1.9862  -1.9862  -1.9555  -1.9555  -1.8951  -1.8951  -1.7365  -1.7365
    -1.6189  -1.6189  -1.5676  -1.5675  -0.4284  -0.4283  -0.3952  -0.3952
    -0.3247  -0.3246  -0.1447  -0.1446  -0.0905  -0.0904  -0.0614  -0.0613
     0.3539   0.3539   0.4001   0.4002   0.4275   0.4277   0.4563   0.4564
     1.3272   1.3272   1.5089   1.5090

          k =-0.5000-0.3761-0.2491 ( 29220 PWs)   bands (ev):

   -21.5717 -21.5716 -21.5709 -21.5708 -20.8999 -20.8998 -20.8996 -20.8994
   -19.3062 -19.3061 -19.3005 -19.3004 -18.0355 -18.0353 -18.0192 -18.0191
   -15.7463 -15.7463 -15.7392 -15.7392 -15.4288 -15.4288 -15.4178 -15.4178
   -14.0242 -14.0242 -13.9936 -13.9936 -13.4383 -13.4382 -13.4164 -13.4164
   -13.2662 -13.2662 -13.2204 -13.2203 -13.1473 -13.1473 -13.0838 -13.0837
   -12.6979 -12.6979 -12.6588 -12.6588 -12.5664 -12.5663 -12.5260 -12.5259
   -12.0557 -12.0557 -12.0168 -12.0168 -11.1268 -11.1268 -11.1006 -11.1006
   -10.2472 -10.2471 -10.2344 -10.2343  -9.8556  -9.8556  -9.7489  -9.7489
    -9.7361  -9.7360  -9.7012  -9.7012  -9.5457  -9.5457  -9.4661  -9.4661
    -8.6762  -8.6761  -8.6457  -8.6457  -8.1904  -8.1904  -8.1182  -8.1182
    -7.5780  -7.5779  -7.5332  -7.5332  -7.5135  -7.5135  -7.4832  -7.4832
    -7.1712  -7.1712  -7.1452  -7.1452  -6.4924  -6.4924  -6.4389  -6.4389
    -6.4144  -6.4144  -6.3866  -6.3865  -6.2163  -6.2163  -6.1768  -6.1767
    -6.1353  -6.1353  -6.1074  -6.1073  -5.8816  -5.8816  -5.8729  -5.8729
    -5.6960  -5.6960  -5.6685  -5.6685  -5.6226  -5.6225  -5.3928  -5.3928
    -5.3470  -5.3470  -5.3272  -5.3272  -4.9890  -4.9890  -4.8566  -4.8566
    -4.8426  -4.8426  -4.7849  -4.7849  -4.6927  -4.6927  -4.6595  -4.6595
    -4.6506  -4.6506  -4.5879  -4.5878  -4.4782  -4.4782  -4.4433  -4.4432
    -4.3854  -4.3854  -4.3601  -4.3600  -4.1094  -4.1093  -4.0659  -4.0658
    -4.0010  -4.0010  -3.9548  -3.9548  -3.8004  -3.8004  -3.7707  -3.7707
    -3.7154  -3.7153  -3.6340  -3.6340  -3.5889  -3.5889  -3.4680  -3.4680
    -3.3356  -3.3355  -3.2432  -3.2431  -3.2093  -3.2093  -3.1684  -3.1684
    -3.0579  -3.0578  -3.0473  -3.0472  -2.8692  -2.8692  -2.7747  -2.7746
    -2.5621  -2.5621  -2.3559  -2.3559  -2.1132  -2.1132  -2.1046  -2.1045
    -1.9913  -1.9912  -1.9589  -1.9589  -1.8937  -1.8937  -1.7286  -1.7286
    -1.6202  -1.6201  -1.5624  -1.5624  -0.4212  -0.4211  -0.3968  -0.3968
    -0.3308  -0.3308  -0.1502  -0.1501  -0.1133  -0.1132  -0.0440  -0.0439
     0.3536   0.3537   0.3954   0.3954   0.4267   0.4267   0.4554   0.4555
     1.3379   1.3379   1.5152   1.5152

          k =-0.5000-0.3761-0.7005 ( 29208 PWs)   bands (ev):

   -21.5716 -21.5713 -21.5711 -21.5710 -20.8999 -20.8998 -20.8997 -20.8995
   -19.3062 -19.3061 -19.3005 -19.3004 -18.0355 -18.0353 -18.0192 -18.0191
   -15.7420 -15.7418 -15.7418 -15.7416 -15.4299 -15.4298 -15.4201 -15.4200
   -14.0230 -14.0229 -13.9849 -13.9848 -13.4378 -13.4377 -13.4337 -13.4336
   -13.2422 -13.2422 -13.2412 -13.2412 -13.1511 -13.1510 -13.0808 -13.0807
   -12.6838 -12.6838 -12.6608 -12.6607 -12.5738 -12.5737 -12.5300 -12.5299
   -12.0328 -12.0327 -12.0323 -12.0323 -11.1215 -11.1215 -11.1081 -11.1080
   -10.2527 -10.2527 -10.2393 -10.2392  -9.8085  -9.8085  -9.7982  -9.7982
    -9.7342  -9.7342  -9.6972  -9.6972  -9.5084  -9.5084  -9.4872  -9.4872
    -8.6883  -8.6882  -8.6402  -8.6402  -8.1834  -8.1834  -8.1428  -8.1428
    -7.5684  -7.5684  -7.5562  -7.5562  -7.5102  -7.5102  -7.4769  -7.4769
    -7.1622  -7.1622  -7.1465  -7.1465  -6.4803  -6.4803  -6.4499  -6.4499
    -6.4152  -6.4152  -6.3817  -6.3817  -6.2026  -6.2026  -6.1793  -6.1793
    -6.1341  -6.1341  -6.0984  -6.0984  -5.8898  -5.8898  -5.8738  -5.8737
    -5.6701  -5.6701  -5.6558  -5.6557  -5.5065  -5.5064  -5.5045  -5.5045
    -5.3754  -5.3754  -5.3356  -5.3355  -4.9805  -4.9805  -4.8703  -4.8703
    -4.8521  -4.8521  -4.8289  -4.8289  -4.6715  -4.6715  -4.6651  -4.6651
    -4.6396  -4.6396  -4.5987  -4.5987  -4.4792  -4.4792  -4.4227  -4.4226
    -4.3957  -4.3956  -4.3886  -4.3886  -4.0771  -4.0770  -4.0740  -4.0739
    -3.9743  -3.9743  -3.9720  -3.9720  -3.8015  -3.8015  -3.7774  -3.7773
    -3.6649  -3.6649  -3.6645  -3.6645  -3.5100  -3.5100  -3.4661  -3.4661
    -3.3725  -3.3725  -3.3027  -3.3027  -3.2733  -3.2733  -3.1656  -3.1656
    -3.0271  -3.0271  -3.0153  -3.0152  -2.8170  -2.8169  -2.7997  -2.7997
    -2.4747  -2.4747  -2.4652  -2.4652  -2.1146  -2.1146  -2.0941  -2.0941
    -1.9781  -1.9781  -1.9597  -1.9596  -1.9013  -1.9013  -1.7324  -1.7324
    -1.5936  -1.5936  -1.5934  -1.5934  -0.4385  -0.4384  -0.3725  -0.3724
    -0.3372  -0.3372  -0.1439  -0.1439  -0.0785  -0.0785  -0.0742  -0.0742
     0.3539   0.3540   0.4124   0.4125   0.4144   0.4145   0.4573   0.4573
     1.3275   1.3276   1.5086   1.5086

     highest occupied level (ev):     1.5377

!    total energy              =   -1369.17250378 Ry
     Harris-Foulkes estimate   =   -1369.17250385 Ry
     estimated scf accuracy    <       0.00000009 Ry

     The total energy is the sum of the following terms:

     one-electron contribution =   -1291.59082025 Ry
     hartree contribution      =     799.40128946 Ry
     xc contribution           =    -420.63992772 Ry
     ewald contribution        =    -455.64889628 Ry
     Dispersion Correction     =      -0.69414899 Ry

     convergence has been achieved in  12 iterations

     Forces acting on atoms (cartesian axes, Ry/au):

     atom    1 type  1   force =     0.02769510   -0.01401242   -0.01851967
     atom    2 type  1   force =    -0.02201597    0.01245782    0.27722509
     atom    3 type  2   force =     0.04468382   -0.03310656   -0.32378569
     atom    4 type  1   force =    -0.03110729    0.03518123   -0.03133536
     atom    5 type  1   force =     0.18946644   -0.17263140   -0.08473841
     atom    6 type  2   force =    -0.23299690    0.20673305    0.12189831
     atom    7 type  1   force =     0.04154218   -0.03232689   -0.27930973
     atom    8 type  2   force =    -0.04444942    0.03524161    0.32837243
     atom    9 type  1   force =     0.01120957   -0.01761467    0.00504687
     atom   10 type  1   force =     0.00860401   -0.00539882    0.01636359
     atom   11 type  1   force =     0.16850505   -0.12891604   -0.14931287
     atom   12 type  2   force =    -0.24413535    0.19143848    0.11931796
     atom   13 type  1   force =    -0.17820252    0.13567550    0.17404006
     atom   14 type  2   force =     0.24820141   -0.19373979   -0.13786985
     atom   15 type  1   force =    -0.00369389    0.00247445   -0.02565755
     atom   16 type  1   force =     0.16486589   -0.16396756    0.15146560
     atom   17 type  2   force =    -0.21464817    0.20586879   -0.15766579
     atom   18 type  1   force =     0.19571796   -0.15984562   -0.14236456
     atom   19 type  2   force =    -0.22806674    0.18615267    0.15644119
     atom   20 type  1   force =    -0.00214783    0.00467081    0.02040422
     atom   21 type  1   force =    -0.19027936    0.17211528   -0.11692578
     atom   22 type  2   force =     0.21439129   -0.20050418    0.15518882
     atom   23 type  1   force =    -0.18569024    0.14164171    0.12714371
     atom   24 type  2   force =     0.23446683   -0.17876198   -0.16170087
     atom   25 type  1   force =     0.15010788   -0.12001592   -0.13377845
     atom   26 type  2   force =     0.00708510    0.24929008   -0.06962227
     atom   27 type  2   force =     0.05567098   -0.01638806    0.24206713
     atom   28 type  2   force =    -0.23904251   -0.09203135   -0.04174400
     atom   29 type  1   force =    -0.13533590    0.13848115   -0.13370973
     atom   30 type  2   force =    -0.04098444   -0.24273565   -0.07133168
     atom   31 type  2   force =    -0.05150284    0.02440431    0.24339474
     atom   32 type  2   force =     0.25007713    0.05796410   -0.04166928
     atom   33 type  1   force =    -0.01783209   -0.01348088    0.20699039
     atom   34 type  2   force =     0.23846540    0.09498558   -0.05468209
     atom   35 type  2   force =    -0.18458097    0.15059858   -0.09227426
     atom   36 type  2   force =    -0.02353694   -0.24218699   -0.09387200
     atom   37 type  4   force =     0.00780870   -0.00514185    0.00101013
     atom   38 type  3   force =    -0.30185130    0.27403863   -0.43553310
     atom   39 type  2   force =     0.30220985   -0.27246480    0.42109991
     atom   40 type  3   force =     0.01843710   -0.01256853   -0.00589496
     atom   41 type  3   force =    -0.01112954    0.00074679    0.03794561
     atom   42 type  1   force =    -0.02769510   -0.01401242    0.01851967
     atom   43 type  1   force =    -0.02769510    0.01401242    0.01851967
     atom   44 type  1   force =     0.02769510    0.01401242   -0.01851967
     atom   45 type  1   force =     0.02201597    0.01245782   -0.27722509
     atom   46 type  1   force =     0.02201597   -0.01245782   -0.27722509
     atom   47 type  1   force =    -0.02201597   -0.01245782    0.27722509
     atom   48 type  2   force =    -0.04468382   -0.03310656    0.32378569
     atom   49 type  2   force =    -0.04468382    0.03310656    0.32378569
     atom   50 type  2   force =     0.04468382    0.03310656   -0.32378569
     atom   51 type  1   force =     0.03110729    0.03518123    0.03133536
     atom   52 type  1   force =     0.03110729   -0.03518123    0.03133536
     atom   53 type  1   force =    -0.03110729   -0.03518123   -0.03133536
     atom   54 type  1   force =    -0.18946644   -0.17263140    0.08473841
     atom   55 type  1   force =    -0.18946644    0.17263140    0.08473841
     atom   56 type  1   force =     0.18946644    0.17263140   -0.08473841
     atom   57 type  2   force =     0.23299690    0.20673305   -0.12189831
     atom   58 type  2   force =     0.23299690   -0.20673305   -0.12189831
     atom   59 type  2   force =    -0.23299690   -0.20673305    0.12189831
     atom   60 type  1   force =    -0.04154218   -0.03232689    0.27930973
     atom   61 type  1   force =    -0.04154218    0.03232689    0.27930973
     atom   62 type  1   force =     0.04154218    0.03232689   -0.27930973
     atom   63 type  2   force =     0.04444942    0.03524161   -0.32837243
     atom   64 type  2   force =     0.04444942   -0.03524161   -0.32837243
     atom   65 type  2   force =    -0.04444942   -0.03524161    0.32837243
     atom   66 type  1   force =    -0.01120957   -0.01761467   -0.00504687
     atom   67 type  1   force =    -0.01120957    0.01761467   -0.00504687
     atom   68 type  1   force =     0.01120957    0.01761467    0.00504687
     atom   69 type  1   force =    -0.00860401   -0.00539882   -0.01636359
     atom   70 type  1   force =    -0.00860401    0.00539882   -0.01636359
     atom   71 type  1   force =     0.00860401    0.00539882    0.01636359
     atom   72 type  1   force =    -0.16850505   -0.12891604    0.14931287
     atom   73 type  1   force =    -0.16850505    0.12891604    0.14931287
     atom   74 type  1   force =     0.16850505    0.12891604   -0.14931287
     atom   75 type  2   force =     0.24413535    0.19143848   -0.11931796
     atom   76 type  2   force =     0.24413535   -0.19143848   -0.11931796
     atom   77 type  2   force =    -0.24413535   -0.19143848    0.11931796
     atom   78 type  1   force =     0.17820252    0.13567550   -0.17404006
     atom   79 type  1   force =     0.17820252   -0.13567550   -0.17404006
     atom   80 type  1   force =    -0.17820252   -0.13567550    0.17404006
     atom   81 type  2   force =    -0.24820141   -0.19373979    0.13786985
     atom   82 type  2   force =    -0.24820141    0.19373979    0.13786985
     atom   83 type  2   force =     0.24820141    0.19373979   -0.13786985
     atom   84 type  1   force =     0.00369389    0.00247445    0.02565755
     atom   85 type  1   force =     0.00369389   -0.00247445    0.02565755
     atom   86 type  1   force =    -0.00369389   -0.00247445   -0.02565755
     atom   87 type  1   force =    -0.16486589   -0.16396756   -0.15146560
     atom   88 type  1   force =    -0.16486589    0.16396756   -0.15146560
     atom   89 type  1   force =     0.16486589    0.16396756    0.15146560
     atom   90 type  1   force =     0.01783209   -0.01348088   -0.20699039
     atom   91 type  1   force =     0.01783209    0.01348088   -0.20699039
     atom   92 type  1   force =    -0.01783209    0.01348088    0.20699039
     atom   93 type  2   force =     0.21464817    0.20586879    0.15766579
     atom   94 type  2   force =     0.21464817   -0.20586879    0.15766579
     atom   95 type  2   force =    -0.21464817   -0.20586879   -0.15766579
     atom   96 type  1   force =    -0.19571796   -0.15984562    0.14236456
     atom   97 type  1   force =    -0.19571796    0.15984562    0.14236456
     atom   98 type  1   force =     0.19571796    0.15984562   -0.14236456
     atom   99 type  2   force =     0.22806674    0.18615267   -0.15644119
     atom  100 type  2   force =     0.22806674   -0.18615267   -0.15644119
     atom  101 type  2   force =    -0.22806674   -0.18615267    0.15644119
     atom  102 type  1   force =     0.00214783    0.00467081   -0.02040422
     atom  103 type  1   force =     0.00214783   -0.00467081   -0.02040422
     atom  104 type  1   force =    -0.00214783   -0.00467081    0.02040422
     atom  105 type  1   force =     0.19027936    0.17211528    0.11692578
     atom  106 type  1   force =     0.19027936   -0.17211528    0.11692578
     atom  107 type  1   force =    -0.19027936   -0.17211528   -0.11692578
     atom  108 type  2   force =    -0.21439129   -0.20050418   -0.15518882
     atom  109 type  2   force =    -0.21439129    0.20050418   -0.15518882
     atom  110 type  2   force =     0.21439129    0.20050418    0.15518882
     atom  111 type  1   force =     0.18569024    0.14164171   -0.12714371
     atom  112 type  1   force =     0.18569024   -0.14164171   -0.12714371
     atom  113 type  1   force =    -0.18569024   -0.14164171    0.12714371
     atom  114 type  2   force =    -0.23446683   -0.17876198    0.16170087
     atom  115 type  2   force =    -0.23446683    0.17876198    0.16170087
     atom  116 type  2   force =     0.23446683    0.17876198   -0.16170087
     atom  117 type  1   force =    -0.15010788   -0.12001592    0.13377845
     atom  118 type  1   force =    -0.15010788    0.12001592    0.13377845
     atom  119 type  1   force =     0.15010788    0.12001592   -0.13377845
     atom  120 type  2   force =    -0.00708510    0.24929008    0.06962227
     atom  121 type  2   force =    -0.00708510   -0.24929008    0.06962227
     atom  122 type  2   force =     0.00708510   -0.24929008   -0.06962227
     atom  123 type  2   force =    -0.05567098   -0.01638806   -0.24206713
     atom  124 type  2   force =    -0.05567098    0.01638806   -0.24206713
     atom  125 type  2   force =     0.05567098    0.01638806    0.24206713
     atom  126 type  2   force =     0.23904251   -0.09203135    0.04174400
     atom  127 type  2   force =     0.23904251    0.09203135    0.04174400
     atom  128 type  2   force =    -0.23904251    0.09203135   -0.04174400
     atom  129 type  1   force =     0.13533590    0.13848115    0.13370973
     atom  130 type  1   force =     0.13533590   -0.13848115    0.13370973
     atom  131 type  1   force =    -0.13533590   -0.13848115   -0.13370973
     atom  132 type  2   force =     0.04098444   -0.24273565    0.07133168
     atom  133 type  2   force =     0.04098444    0.24273565    0.07133168
     atom  134 type  2   force =    -0.04098444    0.24273565   -0.07133168
     atom  135 type  2   force =     0.05150284    0.02440431   -0.24339474
     atom  136 type  2   force =     0.05150284   -0.02440431   -0.24339474
     atom  137 type  2   force =    -0.05150284   -0.02440431    0.24339474
     atom  138 type  2   force =    -0.25007713    0.05796410    0.04166928
     atom  139 type  2   force =    -0.25007713   -0.05796410    0.04166928
     atom  140 type  2   force =     0.25007713   -0.05796410   -0.04166928
     atom  141 type  2   force =    -0.23846540    0.09498558    0.05468209
     atom  142 type  2   force =    -0.23846540   -0.09498558    0.05468209
     atom  143 type  2   force =     0.23846540   -0.09498558   -0.05468209
     atom  144 type  2   force =     0.18458097    0.15059858    0.09227426
     atom  145 type  2   force =     0.18458097   -0.15059858    0.09227426
     atom  146 type  2   force =    -0.18458097   -0.15059858   -0.09227426
     atom  147 type  2   force =     0.02353694   -0.24218699    0.09387200
     atom  148 type  2   force =     0.02353694    0.24218699    0.09387200
     atom  149 type  2   force =    -0.02353694    0.24218699   -0.09387200
     atom  150 type  4   force =    -0.00780870   -0.00514185   -0.00101013
     atom  151 type  4   force =    -0.00780870    0.00514185   -0.00101013
     atom  152 type  4   force =     0.00780870    0.00514185    0.00101013
     atom  153 type  3   force =     0.30185130    0.27403863    0.43553310
     atom  154 type  3   force =     0.30185130   -0.27403863    0.43553310
     atom  155 type  3   force =    -0.30185130   -0.27403863   -0.43553310
     atom  156 type  2   force =    -0.30220985   -0.27246480   -0.42109991
     atom  157 type  2   force =    -0.30220985    0.27246480   -0.42109991
     atom  158 type  2   force =     0.30220985    0.27246480    0.42109991
     atom  159 type  3   force =    -0.01843710   -0.01256853    0.00589496
     atom  160 type  3   force =    -0.01843710    0.01256853    0.00589496
     atom  161 type  3   force =     0.01843710    0.01256853   -0.00589496
     atom  162 type  3   force =     0.01112954    0.00074679   -0.03794561
     atom  163 type  3   force =     0.01112954   -0.00074679   -0.03794561
     atom  164 type  3   force =    -0.01112954   -0.00074679    0.03794561

     Total force =     3.551254     Total SCF correction =     0.000585

     BFGS Geometry Optimization

     number of scf cycles    =   1
     number of bfgs steps    =   0

     energy   new            =   -1369.1725037816 Ry

     new trust radius        =       0.5000000000 bohr
     new conv_thr            =       0.0000001000 Ry


ATOMIC_POSITIONS (angstrom)
C        1.930653154   2.760155304   8.719906277
C        1.113525619   3.498395213   7.987403074
H        1.252367876   3.403636792   6.799606669
C        0.160093497   4.337973351   8.371012344
C        0.101710927   4.366435639   9.706617368
H       -0.730187277   5.109378904  10.142603549
C        0.825674520   3.707592586  10.460282357
H        6.287606080   3.822950130   0.357887613
C        1.794871596   2.856147654  10.117868354
C        2.663565993   2.071365551  10.989947472
C        8.185644266   2.053183993   1.068397724
H        7.323362674   2.722515555   1.544299126
C        8.804174773   1.480633919   2.039349120
H       -0.536069320   0.816773784   1.508132857
C       -1.385568292   1.382247454   3.386840530
C        7.971130251   2.040348171   4.201487042
H        7.216890634   2.766865593   3.611663092
C       -2.287116438   1.974406305   5.434979393
H        7.088459319   2.644271225   6.014573784
C       -1.524842592   1.213801565   6.242129548
C       -0.664061470   0.562925453   5.444001836
H        0.113995437  13.394593686   6.008378341
C       -0.609446134   0.647000015   4.196349955
H        0.223439210   0.012886645   3.615523480
C       -2.506185126   1.859241318   8.279287450
H       -2.536477663   2.941993521   8.034531581
H       -2.349189167   1.842851672   9.383040045
H       -3.557508586   1.520602854   8.156405973
C       -0.802403301   0.312168261   8.278197925
H       -0.923947154  12.791683459   8.028133437
H       -0.954732207   0.348313639   9.382498860
H        0.287472589   0.500097860   8.156439113
C       -0.477778774   5.097101046   6.314723035
H        0.507892629   5.489477391   5.993197755
H       -1.219844158   5.725592504   5.775565117
H       -0.559308950   4.101106796   5.842596498
N       -1.595796734   1.145739518   7.586048007
O        2.728654867   2.097709836   7.973855183
H        3.419074155   1.474468179   8.944243504
O        3.571487101   1.359445689  10.469775506
O       -0.659626099   5.093921210   7.644199390
C       -0.172583154   9.537155304   8.214743723
C        2.639386846  10.793844696   2.569863723
C        4.742633154   4.016844696   3.075026277
C        0.644544381  10.275395213   8.947246926
C        3.456524381  10.055604787   3.302366926
C        3.925495619   3.278604787   2.342523074
H        0.505702124  10.180636792  10.135053331
H        3.317682124  10.150363208   4.490163331
H        4.064337876   3.373363208   1.154716669
C        1.597976503  11.114973351   8.563637656
C        4.409956503   9.216026649   2.918757656
C        2.972073497   2.439026649   2.726132344
C        1.656359073  11.143435639   7.228042632
C        4.468339073   9.187564361   1.583152632
C        2.913690927   2.410564361   4.061737368
H        2.488257277  11.886378904   6.792056451
H        5.300237277   8.444621096   1.147166451
H        2.081782723   1.667621096   4.497713549
C        0.932405480  10.484592586   6.474377643
C        3.744375480   9.846407414   0.829487643
C        3.637644520   3.069407414   4.815392357
H        1.094423920  10.599950130   5.287002387
H       -1.717556080   9.731049870  10.931882387
H        3.475626080   2.954049870   6.002767613
C       -0.036801596   9.633147654   6.816781646
C        2.775178404  10.697852346   1.171901646
C        4.606851596   3.920852346   4.472988354
C       -0.905495993   8.848365551   5.944712528
C        1.906474007  11.482634449   0.299822528
C        5.475545993   4.705634449   5.345057472
C       -0.803614266   8.830183993   4.576482276
C       -3.615594266  11.500816007  10.221372276
C        5.373664266   4.723816007   6.713287724
H        0.058657326   9.499515555   4.100590874
H       -2.753322674  10.831484445   9.745470874
H        4.511392674   4.054484445   7.189179126
C       -1.422154773   8.257633919   3.605530880
C       -4.234134773  12.073366081   9.250420880
C        5.992204773   5.296366081   7.684239120
H        7.918089320   7.593773784   4.136757143
H        5.106119320  12.737226216   9.781637143
H       -3.348049320   5.960226216   7.153012857
C        8.767598292   8.159247454   2.258039470
C        5.955618292  12.171752546   7.902929470
C       -4.197548292   5.394752546   9.031730530
C       -0.589100251   8.817348171   1.443392958
C       -3.401080251  11.513651829   7.088282958
C        5.159150251   4.736651829   9.846377042
C        2.235848774  11.874101046  10.619926965
C        5.047828774   8.456898954   4.975046965
C        2.334201226   1.679898954   0.669843035
H        0.165139366   9.543865593   2.033216908
H       -2.646840634  10.787134407   7.678106908
H        4.404910634   4.010134407   9.256553092
C        9.669136438   8.751406305   0.209910607
C        6.857166438  11.579593695   5.854790607
C       -5.099096438   4.802593695  11.079859393
H       -5.330389319   9.421271225  10.920076216
H       -2.518409319  10.909728775   5.275196216
H        9.900439319   4.132728775   0.369693784
C        3.282922592   7.990801565  10.692520452
C        6.094892592  12.340198435   5.047640452
C        1.287127408   5.563198435   0.597249548
C        8.046081470   7.339925453   0.200878164
C        5.234111470  12.991074547   5.845768164
C       -3.476041470   6.214074547  11.088891836
H        1.644084563   6.617593686  10.926281659
H        4.456054563   0.159406314   5.281391659
H        2.925965437   6.936406314   0.363488341
C        7.991466134   7.424000015   1.448540045
C        5.179486134  12.906999985   7.093420045
C       -3.421416134   6.129999985   9.841229955
H        7.158590790   6.789886645   2.029366520
H        4.346610790  13.541113355   7.674246520
H       -2.588540790   6.764113355   9.260403480
C        4.264255126   8.636241318   8.655362550
C        7.076235126  11.694758682   3.010482550
C        0.305784874   4.917758682   2.634407450
H        4.294547663   9.718993521   8.900118419
H        7.106527663  10.612006479   3.255238419
H        0.275492337   3.835006479   2.389651581
H        4.107259167   8.619851672   7.551619955
H        6.919239167  11.711148328   1.906739955
H        0.462780833   4.934148328   3.738150045
H        5.315578586   8.297602854   8.778244027
H        8.127558586  12.033397146   3.133364027
H       -0.745528586   5.256397146   2.511525973
C        2.560473301   7.089168261   8.656462075
C        5.372443301  13.241831739   3.011582075
C        2.009576699   6.464831739   2.633307925
H        2.682017154   6.014683459   8.906526563
H        5.493997154   0.762316541   3.261636563
H        1.888032846   7.539316541   2.383243437
H        2.712802207   7.125313639   7.552161140
H        5.524782207  13.205686361   1.907271140
H        1.857247793   6.428686361   3.737608860
H        1.470607411   7.277097860   8.778210887
H        4.282577411  13.053902140   3.133330887
H        3.099442589   6.276902140   2.511559113
H        1.250177371  12.266477391  10.941462245
H        4.062157371   8.064522609   5.296572245
H        3.319872629   1.287522609   0.348307755
H        2.977914158  12.502592504  11.159094883
H        5.789884158   7.828417496   5.514204883
H        1.592135842   1.051417496   0.130675117
H        2.317378950  10.878106796  11.092063502
H        5.129348950   9.452893204   5.447173502
H        2.252671050   2.675893204   0.197706498
N        3.353866734   7.922739518   9.348611993
N        6.165836734  12.408260482   3.703721993
N        1.216183266   5.631260482   1.941158007
O       -0.970584867   8.874709836   8.960804817
O        1.841385133  11.456290164   3.315914817
O        5.540634867   4.679290164   2.328965183
H       -1.661004155   8.251468179   7.990416496
H        1.150975845  12.079531821   2.345536496
H        6.231054155   5.302531821   3.299353504
O       -1.813417101   8.136445689   6.464874494
O        0.998552899  12.194554311   0.819994494
O        6.383467101   5.417554311   4.824895506
O        2.417696099  11.870921210   9.290460610
O        5.229676099   8.460078790   3.645570610
O        2.152343901   1.683078790   1.999309390



     Writing output data file 2hc_3_222.save
     charge density from previous step

     negative rho (up, down):  3.138E-06 0.000E+00

     total cpu time spent up to now is     3248.3 secs

     per-process dynamical memory:  1550.8 Mb

     Self-consistent Calculation

     iteration #  1     ecut=    30.00 Ry     beta=0.70
     Davidson diagonalization with overlap
     ethr =  1.00E-06,  avg # of iterations = 17.9

     total cpu time spent up to now is     4083.4 secs

     total energy              =   -1346.83465405 Ry
     Harris-Foulkes estimate   =   -1395.68654255 Ry
     estimated scf accuracy    <      65.17118550 Ry

     iteration #  2     ecut=    30.00 Ry     beta=0.70
     Davidson diagonalization with overlap
     ethr =  1.00E-02,  avg # of iterations =  5.1

     total cpu time spent up to now is     4414.1 secs

     total energy              =   -1331.09501452 Ry
     Harris-Foulkes estimate   =   -1387.61206974 Ry
     estimated scf accuracy    <     126.27469984 Ry

     iteration #  3     ecut=    30.00 Ry     beta=0.70
     Davidson diagonalization with overlap
     ethr =  1.00E-02,  avg # of iterations =  6.5

     total cpu time spent up to now is     4790.1 secs

     total energy              =   -1357.52693777 Ry
     Harris-Foulkes estimate   =   -1378.90225403 Ry
     estimated scf accuracy    <      74.30821351 Ry

     iteration #  4     ecut=    30.00 Ry     beta=0.70
     Davidson diagonalization with overlap
     ethr =  1.00E-02,  avg # of iterations =  4.0

     total cpu time spent up to now is     5036.1 secs

     total energy              =   -1369.24945979 Ry
     Harris-Foulkes estimate   =   -1371.72668205 Ry
     estimated scf accuracy    <       6.36405141 Ry

     iteration #  5     ecut=    30.00 Ry     beta=0.70
     Davidson diagonalization with overlap
     ethr =  1.40E-03,  avg # of iterations =  3.0

     total cpu time spent up to now is     5244.3 secs

     total energy              =   -1369.91763023 Ry
     Harris-Foulkes estimate   =   -1370.08534704 Ry
     estimated scf accuracy    <       0.57425535 Ry

     iteration #  6     ecut=    30.00 Ry     beta=0.70
     Davidson diagonalization with overlap
     ethr =  1.26E-04,  avg # of iterations =  3.0

     total cpu time spent up to now is     5463.7 secs

     total energy              =   -1369.92193545 Ry
     Harris-Foulkes estimate   =   -1369.99446006 Ry
     estimated scf accuracy    <       0.21245220 Ry

     iteration #  7     ecut=    30.00 Ry     beta=0.70
     Davidson diagonalization with overlap
     ethr =  4.66E-05,  avg # of iterations =  4.0

     total cpu time spent up to now is     5678.1 secs

     total energy              =   -1369.94073564 Ry
     Harris-Foulkes estimate   =   -1369.95089210 Ry
     estimated scf accuracy    <       0.02521618 Ry

     iteration #  8     ecut=    30.00 Ry     beta=0.70
     Davidson diagonalization with overlap
     ethr =  5.53E-06,  avg # of iterations =  3.8

     total cpu time spent up to now is     5936.8 secs

     total energy              =   -1369.94520215 Ry
     Harris-Foulkes estimate   =   -1369.94753022 Ry
     estimated scf accuracy    <       0.00474723 Ry

     iteration #  9     ecut=    30.00 Ry     beta=0.70
     Davidson diagonalization with overlap
     ethr =  1.04E-06,  avg # of iterations =  4.0

     total cpu time spent up to now is     6184.3 secs

     total energy              =   -1369.94626014 Ry
     Harris-Foulkes estimate   =   -1369.94670618 Ry
     estimated scf accuracy    <       0.00102403 Ry

     iteration # 10     ecut=    30.00 Ry     beta=0.70
     Davidson diagonalization with overlap
     ethr =  2.25E-07,  avg # of iterations =  4.0

     total cpu time spent up to now is     6413.3 secs

     total energy              =   -1369.94647716 Ry
     Harris-Foulkes estimate   =   -1369.94654182 Ry
     estimated scf accuracy    <       0.00015271 Ry

     iteration # 11     ecut=    30.00 Ry     beta=0.70
     Davidson diagonalization with overlap
     ethr =  3.35E-08,  avg # of iterations =  3.4

     total cpu time spent up to now is     6647.8 secs

     total energy              =   -1369.94650708 Ry
     Harris-Foulkes estimate   =   -1369.94651288 Ry
     estimated scf accuracy    <       0.00001232 Ry

     iteration # 12     ecut=    30.00 Ry     beta=0.70
     Davidson diagonalization with overlap
     ethr =  2.70E-09,  avg # of iterations =  4.0

     total cpu time spent up to now is     6909.6 secs

     total energy              =   -1369.94650997 Ry
     Harris-Foulkes estimate   =   -1369.94651119 Ry
     estimated scf accuracy    <       0.00000260 Ry

     iteration # 13     ecut=    30.00 Ry     beta=0.70
     Davidson diagonalization with overlap
     ethr =  5.69E-10,  avg # of iterations =  4.0

     total cpu time spent up to now is     7175.5 secs

     total energy              =   -1369.94651056 Ry
     Harris-Foulkes estimate   =   -1369.94651071 Ry
     estimated scf accuracy    <       0.00000033 Ry

     iteration # 14     ecut=    30.00 Ry     beta=0.70
     Davidson diagonalization with overlap
     ethr =  7.15E-11,  avg # of iterations =  4.0

     total cpu time spent up to now is     7431.7 secs

     End of self-consistent calculation

          k = 0.0000 0.0000 0.0000 ( 29151 PWs)   bands (ev):

   -21.7533 -21.7530 -21.7529 -21.7526 -20.3470 -20.3461 -20.3458 -20.3427
   -19.7966 -19.7962 -19.7933 -19.7914 -19.1840 -19.1836 -19.1708 -19.1704
   -16.6512 -16.6501 -16.6494 -16.6483 -16.0665 -16.0647 -16.0600 -16.0581
   -14.4407 -14.4398 -14.4172 -14.4171 -13.5045 -13.4887 -13.4854 -13.4813
   -13.0176 -13.0087 -13.0045 -12.9986 -12.9789 -12.9744 -12.9242 -12.9223
   -12.3204 -12.3190 -12.3102 -12.2927 -12.2811 -12.2665 -12.2398 -12.2330
   -11.7966 -11.7908 -11.7779 -11.7742 -11.3001 -11.2994 -11.2605 -11.2323
   -10.0770 -10.0333  -9.9949  -9.9886  -9.2922  -9.2769  -9.2313  -9.2243
    -8.7840  -8.7439  -8.7144  -8.6975  -8.6938  -8.6490  -8.6082  -8.5856
    -8.4923  -8.4367  -8.4282  -8.4073  -7.7470  -7.7320  -7.6942  -7.6913
    -7.6258  -7.6060  -7.5793  -7.5638  -7.3189  -7.2973  -7.2773  -7.2543
    -6.9787  -6.9595  -6.9276  -6.9163  -6.6325  -6.6278  -6.6010  -6.5805
    -6.2670  -6.2648  -6.2415  -6.2280  -6.2219  -6.1908  -6.0953  -6.0784
    -5.7584  -5.7553  -5.7543  -5.7368  -5.6730  -5.6675  -5.6564  -5.6413
    -5.4113  -5.4106  -5.3403  -5.3329  -5.0666  -5.0154  -4.9718  -4.9548
    -4.8980  -4.8724  -4.8165  -4.7910  -4.7174  -4.6687  -4.5530  -4.5352
    -4.4542  -4.4525  -4.3430  -4.2967  -4.2718  -4.2302  -4.1820  -4.1621
    -4.1368  -4.1260  -4.1102  -4.0610  -3.9766  -3.9633  -3.9532  -3.8715
    -3.8650  -3.8433  -3.7983  -3.7872  -3.7583  -3.6459  -3.6444  -3.6156
    -3.6059  -3.6046  -3.5796  -3.5140  -3.4414  -3.4284  -3.4259  -3.4001
    -3.3664  -3.3546  -3.2427  -3.1997  -3.1886  -3.1699  -3.1240  -3.1115
    -2.9111  -2.8329  -2.8243  -2.7628  -2.7152  -2.6939  -2.6683  -2.6314
    -2.6199  -2.5270  -2.5109  -2.5029  -2.2858  -2.2554  -2.0945  -2.0635
    -1.9933  -1.9879  -1.9542  -1.7834  -1.7704  -1.6642  -1.6461  -1.6133
    -1.5043  -1.4973  -1.4871  -1.4607  -1.1706  -1.1569  -1.0923  -1.0796
    -0.8203  -0.7764  -0.6669  -0.6280  -0.6259  -0.6229  -0.6180  -0.5950
    -0.5260  -0.4703  -0.4201  -0.3919  -0.1998  -0.1102  -0.0242   0.0189
     0.1025   0.1328   0.1506   0.1721   0.5914   0.6437   0.6621   0.7018
     1.0924   1.0997   1.1412   1.1798

          k = 0.0000 0.0000-0.4515 ( 29196 PWs)   bands (ev):

   -21.7533 -21.7530 -21.7529 -21.7526 -20.3467 -20.3465 -20.3444 -20.3442
   -19.7965 -19.7964 -19.7924 -19.7923 -19.1838 -19.1837 -19.1707 -19.1705
   -16.6507 -16.6507 -16.6490 -16.6490 -16.0631 -16.0629 -16.0612 -16.0610
   -14.4480 -14.4479 -14.4127 -14.4127 -13.4911 -13.4910 -13.4773 -13.4772
   -13.0202 -13.0201 -13.0100 -13.0099 -12.9744 -12.9744 -12.9222 -12.9221
   -12.3229 -12.3228 -12.2993 -12.2992 -12.2707 -12.2706 -12.2335 -12.2334
   -11.8032 -11.8031 -11.7728 -11.7727 -11.2789 -11.2788 -11.2601 -11.2600
   -10.0333 -10.0333 -10.0251 -10.0251  -9.2661  -9.2660  -9.2314  -9.2313
    -8.7582  -8.7582  -8.7291  -8.7290  -8.6565  -8.6564  -8.6241  -8.6241
    -8.4633  -8.4633  -8.3961  -8.3961  -7.7492  -7.7492  -7.6485  -7.6484
    -7.6316  -7.6315  -7.5926  -7.5926  -7.3033  -7.3032  -7.2768  -7.2767
    -6.9663  -6.9662  -6.9198  -6.9197  -6.6268  -6.6266  -6.5968  -6.5967
    -6.2645  -6.2644  -6.2405  -6.2404  -6.1879  -6.1878  -6.0831  -6.0831
    -5.7780  -5.7779  -5.7334  -5.7333  -5.6751  -5.6751  -5.6345  -5.6345
    -5.4283  -5.4282  -5.3475  -5.3475  -5.0152  -5.0152  -4.9823  -4.9823
    -4.8785  -4.8784  -4.7591  -4.7590  -4.6914  -4.6914  -4.5192  -4.5192
    -4.4573  -4.4573  -4.3297  -4.3297  -4.3188  -4.3188  -4.2400  -4.2400
    -4.1550  -4.1550  -4.0720  -4.0720  -3.9347  -3.9347  -3.9284  -3.9284
    -3.7863  -3.7862  -3.7797  -3.7797  -3.6894  -3.6893  -3.6349  -3.6349
    -3.5988  -3.5987  -3.5187  -3.5187  -3.4318  -3.4317  -3.3756  -3.3756
    -3.3414  -3.3414  -3.2896  -3.2894  -3.2160  -3.2160  -3.1735  -3.1734
    -2.8850  -2.8850  -2.7619  -2.7619  -2.7291  -2.7291  -2.6404  -2.6403
    -2.5687  -2.5687  -2.5548  -2.5547  -2.2515  -2.2515  -2.0363  -2.0363
    -1.9766  -1.9766  -1.8513  -1.8513  -1.6468  -1.6467  -1.6130  -1.6130
    -1.5533  -1.5533  -1.4666  -1.4665  -1.1433  -1.1432  -1.1173  -1.1173
    -0.7959  -0.7958  -0.6956  -0.6956  -0.6688  -0.6688  -0.5797  -0.5796
    -0.4652  -0.4651  -0.4224  -0.4223  -0.1214  -0.1213  -0.0529  -0.0529
     0.1120   0.1121   0.1253   0.1254   0.6975   0.6976   0.7180   0.7182
     1.0707   1.0708   1.1424   1.1425

          k = 0.0000-0.3761 0.0000 ( 29204 PWs)   bands (ev):

   -21.7532 -21.7530 -21.7529 -21.7527 -20.3470 -20.3469 -20.3440 -20.3438
   -19.7966 -19.7965 -19.7923 -19.7922 -19.1838 -19.1837 -19.1707 -19.1705
   -16.6508 -16.6508 -16.6487 -16.6487 -16.0656 -16.0656 -16.0591 -16.0590
   -14.4402 -14.4402 -14.4172 -14.4171 -13.4982 -13.4981 -13.4818 -13.4818
   -13.0135 -13.0135 -13.0013 -13.0013 -12.9766 -12.9766 -12.9233 -12.9233
   -12.3206 -12.3206 -12.3020 -12.3020 -12.2726 -12.2725 -12.2362 -12.2361
   -11.7875 -11.7875 -11.7821 -11.7820 -11.3009 -11.3009 -11.2457 -11.2457
   -10.0562 -10.0562  -9.9905  -9.9904  -9.2848  -9.2848  -9.2278  -9.2278
    -8.7676  -8.7676  -8.7040  -8.7040  -8.6725  -8.6725  -8.5933  -8.5933
    -8.4719  -8.4718  -8.4114  -8.4113  -7.7473  -7.7473  -7.6749  -7.6749
    -7.6288  -7.6288  -7.5694  -7.5693  -7.3110  -7.3110  -7.2631  -7.2630
    -6.9702  -6.9701  -6.9211  -6.9210  -6.6293  -6.6293  -6.5895  -6.5894
    -6.2528  -6.2528  -6.2331  -6.2330  -6.2219  -6.2218  -6.0888  -6.0888
    -5.7775  -5.7775  -5.7108  -5.7107  -5.6894  -5.6894  -5.6463  -5.6462
    -5.4056  -5.4056  -5.3375  -5.3375  -5.0386  -5.0385  -4.9413  -4.9412
    -4.8861  -4.8861  -4.8139  -4.8139  -4.7237  -4.7237  -4.5420  -4.5420
    -4.4431  -4.4431  -4.3386  -4.3385  -4.2340  -4.2340  -4.1640  -4.1639
    -4.1520  -4.1519  -4.0850  -4.0850  -3.9595  -3.9594  -3.9260  -3.9260
    -3.8404  -3.8403  -3.7958  -3.7957  -3.6910  -3.6910  -3.6173  -3.6172
    -3.6118  -3.6118  -3.5520  -3.5520  -3.4368  -3.4367  -3.4149  -3.4148
    -3.3577  -3.3577  -3.2146  -3.2146  -3.1819  -3.1819  -3.1180  -3.1180
    -2.8648  -2.8648  -2.8106  -2.8105  -2.6651  -2.6650  -2.6467  -2.6466
    -2.6219  -2.6218  -2.5311  -2.5311  -2.2522  -2.2522  -2.0390  -2.0390
    -2.0152  -2.0152  -1.8753  -1.8752  -1.7136  -1.7136  -1.6158  -1.6158
    -1.4995  -1.4995  -1.4876  -1.4876  -1.1648  -1.1648  -1.0849  -1.0849
    -0.8041  -0.8041  -0.6518  -0.6518  -0.6203  -0.6203  -0.6106  -0.6106
    -0.4747  -0.4747  -0.4195  -0.4194  -0.1603  -0.1602   0.0039   0.0039
     0.1184   0.1184   0.1601   0.1601   0.6223   0.6223   0.6751   0.6751
     1.1021   1.1021   1.1557   1.1557

          k = 0.0000-0.3761-0.4515 ( 29216 PWs)   bands (ev):

   -21.7532 -21.7530 -21.7529 -21.7527 -20.3465 -20.3463 -20.3445 -20.3443
   -19.7965 -19.7964 -19.7924 -19.7923 -19.1838 -19.1837 -19.1707 -19.1705
   -16.6507 -16.6507 -16.6490 -16.6490 -16.0623 -16.0621 -16.0620 -16.0618
   -14.4480 -14.4479 -14.4127 -14.4126 -13.4860 -13.4859 -13.4824 -13.4824
   -13.0196 -13.0196 -13.0103 -13.0102 -12.9747 -12.9747 -12.9220 -12.9220
   -12.3217 -12.3216 -12.3013 -12.3013 -12.2696 -12.2696 -12.2336 -12.2336
   -11.7951 -11.7950 -11.7811 -11.7811 -11.2781 -11.2780 -11.2606 -11.2605
   -10.0340 -10.0340 -10.0245 -10.0245  -9.2533  -9.2533  -9.2445  -9.2445
    -8.7573  -8.7573  -8.7298  -8.7297  -8.6516  -8.6515  -8.6289  -8.6288
    -8.4609  -8.4608  -8.3989  -8.3989  -7.7425  -7.7425  -7.6604  -7.6604
    -7.6268  -7.6268  -7.5924  -7.5924  -7.3020  -7.3020  -7.2787  -7.2787
    -6.9644  -6.9644  -6.9205  -6.9205  -6.6144  -6.6144  -6.6093  -6.6092
    -6.2463  -6.2462  -6.2346  -6.2346  -6.2111  -6.2111  -6.0891  -6.0890
    -5.7470  -5.7470  -5.7408  -5.7407  -5.6783  -5.6783  -5.6556  -5.6555
    -5.4206  -5.4206  -5.3491  -5.3491  -5.0034  -5.0033  -4.9826  -4.9825
    -4.8447  -4.8446  -4.8068  -4.8068  -4.6921  -4.6921  -4.5416  -4.5416
    -4.4371  -4.4371  -4.3672  -4.3672  -4.2888  -4.2887  -4.2304  -4.2304
    -4.1491  -4.1491  -4.0843  -4.0842  -3.9373  -3.9372  -3.9244  -3.9244
    -3.7824  -3.7824  -3.7802  -3.7801  -3.6748  -3.6748  -3.6411  -3.6410
    -3.5923  -3.5923  -3.5268  -3.5267  -3.4251  -3.4251  -3.3839  -3.3838
    -3.3192  -3.3192  -3.3040  -3.3040  -3.2163  -3.2162  -3.1779  -3.1779
    -2.8705  -2.8704  -2.7815  -2.7815  -2.6885  -2.6885  -2.6871  -2.6870
    -2.5776  -2.5776  -2.5534  -2.5533  -2.2532  -2.2531  -1.9848  -1.9847
    -1.9488  -1.9487  -1.9126  -1.9126  -1.6448  -1.6448  -1.6362  -1.6362
    -1.5359  -1.5359  -1.4653  -1.4652  -1.1312  -1.1312  -1.1291  -1.1291
    -0.7989  -0.7988  -0.6891  -0.6890  -0.6663  -0.6663  -0.5848  -0.5848
    -0.4537  -0.4537  -0.4337  -0.4336  -0.1204  -0.1203  -0.0545  -0.0544
     0.1191   0.1192   0.1194   0.1194   0.7034   0.7035   0.7081   0.7081
     1.0763   1.0764   1.1392   1.1392

          k =-0.5000 0.0000-0.2491 ( 29296 PWs)   bands (ev):

   -21.7533 -21.7530 -21.7529 -21.7526 -20.3484 -20.3452 -20.3445 -20.3436
   -19.7976 -19.7953 -19.7928 -19.7919 -19.1840 -19.1835 -19.1708 -19.1704
   -16.6511 -16.6503 -16.6494 -16.6485 -16.0668 -16.0648 -16.0592 -16.0575
   -14.4446 -14.4390 -14.4214 -14.4162 -13.4968 -13.4842 -13.4806 -13.4739
   -13.0309 -13.0155 -13.0089 -13.0027 -12.9837 -12.9694 -12.9240 -12.9194
   -12.3143 -12.3048 -12.3031 -12.2982 -12.2877 -12.2837 -12.2350 -12.2262
   -11.8115 -11.7903 -11.7816 -11.7651 -11.3027 -11.2816 -11.2518 -11.2445
   -10.0659 -10.0529 -10.0077  -9.9879  -9.3023  -9.2567  -9.2381  -9.2170
    -8.7976  -8.7615  -8.7455  -8.6960  -8.6792  -8.6187  -8.5904  -8.5871
    -8.5117  -8.4335  -8.4058  -8.3962  -7.7174  -7.7037  -7.6832  -7.6626
    -7.6463  -7.6432  -7.6146  -7.5628  -7.3139  -7.2858  -7.2856  -7.2747
    -6.9974  -6.9520  -6.9405  -6.9157  -6.6460  -6.6087  -6.6077  -6.5783
    -6.2754  -6.2671  -6.2384  -6.2251  -6.2110  -6.1871  -6.0969  -6.0719
    -5.7842  -5.7683  -5.7438  -5.7195  -5.6749  -5.6584  -5.6553  -5.6403
    -5.4136  -5.3912  -5.3690  -5.3369  -5.0357  -5.0177  -5.0038  -4.9833
    -4.8595  -4.8577  -4.7895  -4.7879  -4.7178  -4.6204  -4.5855  -4.5534
    -4.5199  -4.3572  -4.3505  -4.3074  -4.3012  -4.3004  -4.2680  -4.2082
    -4.1333  -4.1297  -4.0902  -4.0780  -3.9827  -3.9467  -3.9028  -3.8960
    -3.8439  -3.7786  -3.7711  -3.7595  -3.6622  -3.6549  -3.6535  -3.6389
    -3.6248  -3.5950  -3.5642  -3.5161  -3.4390  -3.4351  -3.3753  -3.3747
    -3.3711  -3.3330  -3.2321  -3.2164  -3.2034  -3.1694  -3.1608  -3.1511
    -2.8655  -2.8609  -2.8412  -2.7996  -2.7770  -2.6597  -2.6542  -2.6384
    -2.5870  -2.5799  -2.5405  -2.4752  -2.3211  -2.2027  -2.1717  -2.0535
    -2.0351  -1.9598  -1.8877  -1.7719  -1.6989  -1.6578  -1.6565  -1.6429
    -1.4926  -1.4843  -1.4634  -1.4564  -1.2107  -1.1960  -1.0907  -1.0428
    -0.8289  -0.7347  -0.6865  -0.6719  -0.6671  -0.6326  -0.6105  -0.5570
    -0.5178  -0.4975  -0.4241  -0.3927  -0.1603  -0.1254  -0.0485   0.0308
     0.0959   0.1215   0.1336   0.1437   0.6666   0.6775   0.6932   0.7185
     1.0732   1.0793   1.1047   1.1723

          k =-0.5000 0.0000-0.7005 ( 29160 PWs)   bands (ev):

   -21.7532 -21.7530 -21.7529 -21.7526 -20.3467 -20.3465 -20.3443 -20.3442
   -19.7965 -19.7964 -19.7923 -19.7923 -19.1839 -19.1837 -19.1707 -19.1705
   -16.6505 -16.6504 -16.6490 -16.6489 -16.0634 -16.0632 -16.0616 -16.0614
   -14.4465 -14.4464 -14.4111 -14.4110 -13.4937 -13.4936 -13.4857 -13.4855
[...]
     atom   45 type  1   force =    -0.00040008   -0.00015010   -0.00003959
     atom   46 type  1   force =    -0.00040008    0.00015010   -0.00003959
     atom   47 type  1   force =     0.00040008    0.00015010    0.00003959
     atom   48 type  2   force =     0.00036436   -0.00010080    0.00005953
     atom   49 type  2   force =     0.00036436    0.00010080    0.00005953
     atom   50 type  2   force =    -0.00036436    0.00010080   -0.00005953
     atom   51 type  1   force =     0.00010943    0.00021594   -0.00005662
     atom   52 type  1   force =     0.00010943   -0.00021594   -0.00005662
     atom   53 type  1   force =    -0.00010943   -0.00021594    0.00005662
     atom   54 type  1   force =     0.00000782    0.00006017   -0.00036025
     atom   55 type  1   force =     0.00000782   -0.00006017   -0.00036025
     atom   56 type  1   force =    -0.00000782   -0.00006017    0.00036025
     atom   57 type  2   force =     0.00013409    0.00055793   -0.00022338
     atom   58 type  2   force =     0.00013409   -0.00055793   -0.00022338
     atom   59 type  2   force =    -0.00013409   -0.00055793    0.00022338
     atom   60 type  1   force =     0.00018273   -0.00035572   -0.00008376
     atom   61 type  1   force =     0.00018273    0.00035572   -0.00008376
     atom   62 type  1   force =    -0.00018273    0.00035572    0.00008376
     atom   63 type  2   force =     0.00070469   -0.00021775   -0.00004546
     atom   64 type  2   force =     0.00070469    0.00021775   -0.00004546
     atom   65 type  2   force =    -0.00070469    0.00021775    0.00004546
     atom   66 type  1   force =    -0.00025991   -0.00068209   -0.00045783
     atom   67 type  1   force =    -0.00025991    0.00068209   -0.00045783
     atom   68 type  1   force =     0.00025991    0.00068209    0.00045783
     atom   69 type  1   force =    -0.00027458   -0.00066294   -0.00016124
     atom   70 type  1   force =    -0.00027458    0.00066294   -0.00016124
     atom   71 type  1   force =     0.00027458    0.00066294    0.00016124
     atom   72 type  1   force =     0.00053641    0.00043919   -0.00009979
     atom   73 type  1   force =     0.00053641   -0.00043919   -0.00009979
     atom   74 type  1   force =    -0.00053641   -0.00043919    0.00009979
     atom   75 type  2   force =    -0.00001482    0.00063271   -0.00013502
     atom   76 type  2   force =    -0.00001482   -0.00063271   -0.00013502
     atom   77 type  2   force =     0.00001482   -0.00063271    0.00013502
     atom   78 type  1   force =    -0.00038413   -0.00014434   -0.00039362
     atom   79 type  1   force =    -0.00038413    0.00014434   -0.00039362
     atom   80 type  1   force =     0.00038413    0.00014434    0.00039362
     atom   81 type  2   force =    -0.00057067   -0.00005944   -0.00054507
     atom   82 type  2   force =    -0.00057067    0.00005944   -0.00054507
     atom   83 type  2   force =     0.00057067    0.00005944    0.00054507
     atom   84 type  1   force =     0.00035708    0.00030349    0.00004327
     atom   85 type  1   force =     0.00035708   -0.00030349    0.00004327
     atom   86 type  1   force =    -0.00035708   -0.00030349   -0.00004327
     atom   87 type  1   force =     0.00039835    0.00027548    0.00006101
     atom   88 type  1   force =     0.00039835   -0.00027548    0.00006101
     atom   89 type  1   force =    -0.00039835   -0.00027548   -0.00006101
     atom   90 type  1   force =    -0.00000916   -0.00000149    0.00061461
     atom   91 type  1   force =    -0.00000916    0.00000149    0.00061461
     atom   92 type  1   force =     0.00000916    0.00000149   -0.00061461
     atom   93 type  2   force =     0.00090450    0.00063452   -0.00031354
     atom   94 type  2   force =     0.00090450   -0.00063452   -0.00031354
     atom   95 type  2   force =    -0.00090450   -0.00063452    0.00031354
     atom   96 type  1   force =     0.00030782    0.00032868   -0.00023560
     atom   97 type  1   force =     0.00030782   -0.00032868   -0.00023560
     atom   98 type  1   force =    -0.00030782   -0.00032868    0.00023560
     atom   99 type  2   force =    -0.00016851   -0.00041507   -0.00024132
     atom  100 type  2   force =    -0.00016851    0.00041507   -0.00024132
     atom  101 type  2   force =     0.00016851    0.00041507    0.00024132
     atom  102 type  1   force =    -0.00034969    0.00004637   -0.00009978
     atom  103 type  1   force =    -0.00034969   -0.00004637   -0.00009978
     atom  104 type  1   force =     0.00034969   -0.00004637    0.00009978
     atom  105 type  1   force =    -0.00027982    0.00003550   -0.00050217
     atom  106 type  1   force =    -0.00027982   -0.00003550   -0.00050217
     atom  107 type  1   force =     0.00027982   -0.00003550    0.00050217
     atom  108 type  2   force =     0.00050623   -0.00014485    0.00010934
     atom  109 type  2   force =     0.00050623    0.00014485    0.00010934
     atom  110 type  2   force =    -0.00050623    0.00014485   -0.00010934
     atom  111 type  1   force =    -0.00033810   -0.00022430    0.00039688
     atom  112 type  1   force =    -0.00033810    0.00022430    0.00039688
     atom  113 type  1   force =     0.00033810    0.00022430   -0.00039688
     atom  114 type  2   force =    -0.00000374   -0.00040719   -0.00024208
     atom  115 type  2   force =    -0.00000374    0.00040719   -0.00024208
     atom  116 type  2   force =     0.00000374    0.00040719    0.00024208
     atom  117 type  1   force =     0.00008187    0.00028298    0.00035101
     atom  118 type  1   force =     0.00008187   -0.00028298    0.00035101
     atom  119 type  1   force =    -0.00008187   -0.00028298   -0.00035101
     atom  120 type  2   force =    -0.00027943    0.00000213    0.00011963
     atom  121 type  2   force =    -0.00027943   -0.00000213    0.00011963
     atom  122 type  2   force =     0.00027943   -0.00000213   -0.00011963
     atom  123 type  2   force =    -0.00013423   -0.00003871    0.00023741
     atom  124 type  2   force =    -0.00013423    0.00003871    0.00023741
     atom  125 type  2   force =     0.00013423    0.00003871   -0.00023741
     atom  126 type  2   force =    -0.00014717    0.00011902    0.00032597
     atom  127 type  2   force =    -0.00014717   -0.00011902    0.00032597
     atom  128 type  2   force =     0.00014717   -0.00011902   -0.00032597
     atom  129 type  1   force =    -0.00037337   -0.00032251    0.00010877
     atom  130 type  1   force =    -0.00037337    0.00032251    0.00010877
     atom  131 type  1   force =     0.00037337    0.00032251   -0.00010877
     atom  132 type  2   force =    -0.00007904    0.00003035    0.00019299
     atom  133 type  2   force =    -0.00007904   -0.00003035    0.00019299
     atom  134 type  2   force =     0.00007904   -0.00003035   -0.00019299
     atom  135 type  2   force =     0.00050881    0.00016668   -0.00001862
     atom  136 type  2   force =     0.00050881   -0.00016668   -0.00001862
     atom  137 type  2   force =    -0.00050881   -0.00016668    0.00001862
     atom  138 type  2   force =     0.00006344    0.00026165   -0.00009695
     atom  139 type  2   force =     0.00006344   -0.00026165   -0.00009695
     atom  140 type  2   force =    -0.00006344   -0.00026165    0.00009695
     atom  141 type  2   force =    -0.00054027   -0.00029140   -0.00008121
     atom  142 type  2   force =    -0.00054027    0.00029140   -0.00008121
     atom  143 type  2   force =     0.00054027    0.00029140    0.00008121
     atom  144 type  2   force =     0.00051154    0.00004726    0.00063565
     atom  145 type  2   force =     0.00051154   -0.00004726    0.00063565
     atom  146 type  2   force =    -0.00051154   -0.00004726   -0.00063565
     atom  147 type  2   force =    -0.00028079   -0.00038437    0.00024936
     atom  148 type  2   force =    -0.00028079    0.00038437    0.00024936
     atom  149 type  2   force =     0.00028079    0.00038437   -0.00024936
     atom  150 type  4   force =    -0.00007492    0.00004410   -0.00012051
     atom  151 type  4   force =    -0.00007492   -0.00004410   -0.00012051
     atom  152 type  4   force =     0.00007492   -0.00004410    0.00012051
     atom  153 type  3   force =     0.00055180   -0.00001037    0.00082168
     atom  154 type  3   force =     0.00055180    0.00001037    0.00082168
     atom  155 type  3   force =    -0.00055180    0.00001037   -0.00082168
     atom  156 type  2   force =     0.00094501    0.00068211   -0.00033699
     atom  157 type  2   force =     0.00094501   -0.00068211   -0.00033699
     atom  158 type  2   force =    -0.00094501   -0.00068211    0.00033699
     atom  159 type  3   force =    -0.00007883   -0.00019848    0.00072424
     atom  160 type  3   force =    -0.00007883    0.00019848    0.00072424
     atom  161 type  3   force =     0.00007883    0.00019848   -0.00072424
     atom  162 type  3   force =     0.00044029    0.00015186    0.00007395
     atom  163 type  3   force =     0.00044029   -0.00015186    0.00007395
     atom  164 type  3   force =    -0.00044029   -0.00015186   -0.00007395

     Total force =     0.007640     Total SCF correction =     0.000051

     bfgs converged in  34 scf cycles and  33 bfgs steps
     (criteria: energy <  1.0E-04 Ry, force <  1.0E-03 Ry/Bohr)

     End of BFGS Geometry Optimization

     Final energy   =   -1372.2282851578 Ry
Begin final coordinates

ATOMIC_POSITIONS (angstrom)
C        1.947810991   2.794177604   8.692659780
C        1.121285281   3.512434701   7.816455076
H        1.283310640   3.407498907   6.746395364
C        0.116927159   4.326179156   8.336592290
C       -0.063125126   4.443731744   9.732264799
H       -0.848403609   5.097941444  10.107500050
C        0.757111976   3.739250789  10.585186231
H        6.245836580   3.880855316   0.365786990
C        1.771570802   2.878769902  10.108026054
C        2.629932944   2.072892922  10.978251756
C        8.086052129   2.105445716   1.119893864
H        7.302520206   2.740814329   1.526546517
C        8.877277549   1.381635791   1.968553520
H       -0.539265679   0.757275851   1.518014862
C       -1.406688443   1.352715944   3.396767273
C        7.838370470   2.101138294   4.133737872
H        7.147646577   2.759955561   3.609405357
C       -2.437869446   2.028574663   5.505254383
H        7.003413014   2.620676051   6.020313163
C       -1.554514747   1.193861689   6.245690260
C       -0.596309045   0.440871138   5.515016912
H        0.097952146  13.338218038   6.035639023
C       -0.528762087   0.531642713   4.139919760
H        0.229197673  -0.042620336   3.607660485
C       -2.579870392   1.939015525   8.331281632
H       -2.504760726   2.999997624   8.050716731
H       -2.369436851   1.857184822   9.400527955
H       -3.612951782   1.600405210   8.147073485
C       -0.732550038   0.232747097   8.324138676
H       -0.876066042  12.743338347   8.002561528
H       -0.952145447   0.296688363   9.394600486
H        0.325193710   0.499818621   8.166161139
C       -0.535363250   5.086227819   6.160977231
H        0.467406624   5.482179846   5.930600514
H       -1.305333719   5.757024346   5.768668943
H       -0.652222341   4.080597298   5.729452754
N       -1.617578537   1.130230611   7.601045414
O        2.925430598   2.026650164   8.181910998
H        3.360902833   1.586690444   9.048842211
O        3.531989828   1.328110967  10.441118585
O       -0.736104523   5.056311160   7.579938696
C       -0.189740991   9.571177604   8.241990220
C        2.622229009  10.759822396   2.597110220
C        4.759790991   3.982822396   3.047779780
C        0.636784719  10.289434701   9.118194924
C        3.448764719  10.041565299   3.473314924
C        3.933255281   3.264565299   2.171575076
H        0.474759360  10.184498907  10.188264636
H        3.286739360  10.146501093   4.543374636
H        4.095280640   3.369501093   1.101505364
C        1.641142841  11.103179156   8.598057710
C        4.453122841   9.227820844   2.953177710
C        2.928907159   2.450820844   2.691712290
C        1.821195126  11.220731744   7.202395201
C        4.633175126   9.110268256   1.557505201
C        2.748854874   2.333268256   4.087384799
H        2.606473609  11.874941444   6.827159950
H        5.418453609   8.456058556   1.182269950
H        1.963566391   1.679058556   4.462610050
C        1.000968024  10.516250789   6.349473769
C        3.812938024   9.814749211   0.704583769
C        3.569081976   3.037749211   4.940296231
H        1.136193420  10.657855316   5.279103010
H       -1.675786580   9.673144684  10.923983010
H        3.433856580   2.896144684   6.010666990
C       -0.013500802   9.655769902   6.826623946
C        2.798479198  10.675230098   1.181743946
C        4.583550802   3.898230098   4.463146054
C       -0.871862944   8.849892922   5.956408244
C        1.940107056  11.481107078   0.311518244
C        5.441912944   4.704107078   5.333361756
C       -0.704022129   8.882445716   4.524986136
C       -3.516002129  11.448554284  10.169876136
C        5.274072129   4.671554284   6.764783864
H        0.079499794   9.517814329   4.118343483
H       -2.732480206  10.813185671   9.763223483
H        4.490550206   4.036185671   7.171426517
C       -1.495257549   8.158635791   3.676326480
C       -4.307237549  12.172364209   9.321216480
C        6.065307549   5.395364209   7.613443520
H        7.921285679   7.534275851   4.126875138
H        5.109315679  12.796724149   9.771755138
H       -3.351245679   6.019724149   7.162894862
C        8.788718443   8.129715944   2.248112727
C        5.976738443  12.201284056   7.893002727
C       -4.218668443   5.424284056   9.041657273
C       -0.456340470   8.878138294   1.511142128
C       -3.268320470  11.452861706   7.156032128
C        5.026390470   4.675861706   9.778627872
C        2.293433250  11.863227819  10.773672769
C        5.105413250   8.467772181   5.128792769
C        2.276616750   1.690772181   0.516097231
H        0.234383423   9.536955561   2.035474643
H       -2.577596577  10.794044439   7.680364643
H        4.335666577   4.017044439   9.254295357
C        9.819889446   8.805574663   0.139635617
C        7.007919446  11.525425337   5.784515617
C       -5.249849446   4.748425337  11.150134383
H       -5.245343014   9.397676051  10.914336837
H       -2.433363014  10.933323949   5.269456837
H        9.815393014   4.156323949   0.375433163
C        3.312594747   7.970861689  10.688959740
C        6.124564747  12.360138311   5.044079740
C        1.257455253   5.583138311   0.600810260
C        7.978329045   7.217871138   0.129863088
C        5.166359045  13.113128862   5.774753088
C       -3.408289045   6.336128862  11.159906912
H        1.660127854   6.561218038  10.899020977
H        4.472097854   0.215781962   5.254130977
H        2.909922146   6.992781962   0.390749023
C        7.910782087   7.308642713   1.504970240
C        5.098802087  13.022357287   7.149850240
C       -3.340732087   6.245357287   9.784799760
H        7.152832327   6.734379664   2.037229515
H        4.340852327  13.596620336   7.682109515
H       -2.582782327   6.819620336   9.252540485
C        4.337940392   8.716015525   8.603368368
C        7.149920392  11.614984475   2.958488368
C        0.232099608   4.837984475   2.686401632
H        4.262830726   9.776997624   8.883933269
H        7.074810726  10.554002376   3.239053269
H        0.307209274   3.777002376   2.405836731
H        4.127506851   8.634184822   7.534132045
H        6.939486851  11.696815178   1.889252045
H        0.442533149   4.919815178   3.755637955
H        5.371021782   8.377405210   8.787576515
H        8.183001782  11.953594790   3.142696515
H       -0.800971782   5.176594790   2.502193485
C        2.490620038   7.009747097   8.610521324
C        5.302590038  13.321252903   2.965641324
C        2.079429962   6.544252903   2.679248676
H        2.634136042   5.966338347   8.932098472
H        5.446116042   0.810661653   3.287208472
H        1.935913958   7.587661653   2.357671528
H        2.710215447   7.073688363   7.540059514
H        5.522195447  13.257311637   1.895169514
H        1.859834553   6.480311637   3.749710486
H        1.432886290   7.276818621   8.768488861
H        4.244856290  13.054181379   3.123608861
H        3.137163710   6.277181379   2.521281139
H        1.290663376  12.259179846  11.004059486
H        4.102643376   8.071820154   5.359169486
H        3.279386624   1.294820154   0.285710514
H        3.063403719  12.534024346  11.165991057
H        5.875373719   7.796985654   5.521101057
H        1.506646281   1.019985654   0.123778943
H        2.410292341  10.857597298  11.205207246
H        5.222262341   9.473402702   5.560317246
H        2.159757659   2.696402702   0.084562754
N        3.375648537   7.907230611   9.333614586
N        6.187618537  12.423769389   3.688724586
N        1.194401463   5.646769389   1.956155414
O       -1.167360598   8.803650164   8.752749002
O        1.644609402  11.527349836   3.107859002
O        5.737410598   4.750349836   2.537020998
H       -1.602832833   8.363690444   7.885817789
H        1.209147167  11.967309556   2.240937789
H        6.172882833   5.190309556   3.403952211
O       -1.773919828   8.105110967   6.493531415
O        1.038050172  12.225889033   0.848651415
O        6.343969828   5.448889033   4.796238585
O        2.494174523  11.833311160   9.354721304
O        5.306154523   8.497688840   3.709831304
O        2.075865477   1.720688840   1.935048696
End final coordinates



     Writing output data file 2hc_3_222.save
 
     init_run     :    133.85s CPU    136.16s WALL (       1 calls)
     electrons    :  99072.74s CPU 100086.43s WALL (      34 calls)
     update_pot   :     28.22s CPU     28.25s WALL (      33 calls)
     forces       :   1888.31s CPU   1908.02s WALL (      34 calls)

     Called by init_run:
     wfcinit      :    128.20s CPU    129.75s WALL (       1 calls)
     potinit      :      2.19s CPU      2.23s WALL (       1 calls)

     Called by electrons:
     c_bands      :  89111.00s CPU  89957.61s WALL (     367 calls)
     sum_band     :   9316.36s CPU   9400.74s WALL (     367 calls)
     v_of_rho     :    110.42s CPU    110.53s WALL (     401 calls)
     newd         :    222.10s CPU    308.04s WALL (     401 calls)
     mix_rho      :     20.35s CPU     21.81s WALL (     367 calls)

     Called by c_bands:
     init_us_2    :    671.02s CPU    671.40s WALL (    6152 calls)
     cegterg      :  86826.26s CPU  87670.63s WALL (    2936 calls)

     Called by sum_band:
     sum_band:bec :      3.19s CPU      3.20s WALL (    2936 calls)
     addusdens    :    232.38s CPU    310.89s WALL (     367 calls)

     Called by *egterg:
     h_psi        :  51591.26s CPU  51623.63s WALL (   15434 calls)
     s_psi        :  10893.31s CPU  10896.44s WALL (   15434 calls)
     g_psi        :    287.80s CPU    287.91s WALL (   12490 calls)
     cdiaghg      :   2491.54s CPU   2493.05s WALL (   15162 calls)

     Called by h_psi:
     h_psi:pot    :  51245.79s CPU  51277.59s WALL (   15434 calls)
     h_psi:calbec :  10168.80s CPU  10172.01s WALL (   15434 calls)
     vloc_psi     :  30187.72s CPU  30212.89s WALL (   15434 calls)
     add_vuspsi   :  10889.24s CPU  10892.60s WALL (   15434 calls)

     General routines
     calbec       :  14675.34s CPU  14679.79s WALL (   19458 calls)
     fft          :     46.74s CPU     47.06s WALL (    5214 calls)
     fftw         :  30643.50s CPU  30666.17s WALL ( 4709122 calls)
     davcio       :      0.02s CPU      0.97s WALL (       8 calls)
 
     Parallel routines
     fft_scatter  :   2739.27s CPU   2743.66s WALL ( 4714336 calls)
 
     PWSCF        :     1d    4h 5m CPU        1d    4h23m WALL

 
   This run was terminated on:  21:25:53  11Oct2017            

=------------------------------------------------------------------------------=
   JOB DONE.
=------------------------------------------------------------------------------=
