 Entering Gaussian System, Link 0=g09
 Input=2hc_3_666-mega_dimer_1_mon-1.com
 Output=2hc_3_666-mega_dimer_1_mon-1.out
 Initial command:
 /share/apps/gaussian/g09_D01/g09/l1.exe "/tmp/160965.1.all.q/Gau-23357.inp" -scrdir="/tmp/160965.1.all.q/"
 Entering Link 1 = /share/apps/gaussian/g09_D01/g09/l1.exe PID=     23358.
  
 Copyright (c) 1988,1990,1992,1993,1995,1998,2003,2009,2013,
            Gaussian, Inc.  All Rights Reserved.
  
 This is part of the Gaussian(R) 09 program.  It is based on
 the Gaussian(R) 03 system (copyright 2003, Gaussian, Inc.),
 the Gaussian(R) 98 system (copyright 1998, Gaussian, Inc.),
 the Gaussian(R) 94 system (copyright 1995, Gaussian, Inc.),
 the Gaussian 92(TM) system (copyright 1992, Gaussian, Inc.),
 the Gaussian 90(TM) system (copyright 1990, Gaussian, Inc.),
 the Gaussian 88(TM) system (copyright 1988, Gaussian, Inc.),
 the Gaussian 86(TM) system (copyright 1986, Carnegie Mellon
 University), and the Gaussian 82(TM) system (copyright 1983,
 Carnegie Mellon University). Gaussian is a federally registered
 trademark of Gaussian, Inc.
  
 This software contains proprietary and confidential information,
 including trade secrets, belonging to Gaussian, Inc.
  
 This software is provided under written license and may be
 used, copied, transmitted, or stored only in accord with that
 written license.
  
 The following legend is applicable only to US Government
 contracts under FAR:
  
                    RESTRICTED RIGHTS LEGEND
  
 Use, reproduction and disclosure by the US Government is
 subject to restrictions as set forth in subparagraphs (a)
 and (c) of the Commercial Computer Software - Restricted
 Rights clause in FAR 52.227-19.
  
 Gaussian, Inc.
 340 Quinnipiac St., Bldg. 40, Wallingford CT 06492
  
  
 ---------------------------------------------------------------
 Warning -- This program may not be used in any manner that
 competes with the business of Gaussian, Inc. or will provide
 assistance to any competitor of Gaussian, Inc.  The licensee
 of this program is prohibited from giving any competitor of
 Gaussian, Inc. access to this program.  By using this program,
 the user acknowledges that Gaussian, Inc. is engaged in the
 business of creating and licensing software in the field of
 computational chemistry and represents and warrants to the
 licensee that it is not a competitor of Gaussian, Inc. and that
 it will not use this program in any manner prohibited above.
 ---------------------------------------------------------------
  

 Cite this work as:
 Gaussian 09, Revision D.01,
 M. J. Frisch, G. W. Trucks, H. B. Schlegel, G. E. Scuseria, 
 M. A. Robb, J. R. Cheeseman, G. Scalmani, V. Barone, B. Mennucci, 
 G. A. Petersson, H. Nakatsuji, M. Caricato, X. Li, H. P. Hratchian, 
 A. F. Izmaylov, J. Bloino, G. Zheng, J. L. Sonnenberg, M. Hada, 
 M. Ehara, K. Toyota, R. Fukuda, J. Hasegawa, M. Ishida, T. Nakajima, 
 Y. Honda, O. Kitao, H. Nakai, T. Vreven, J. A. Montgomery, Jr., 
 J. E. Peralta, F. Ogliaro, M. Bearpark, J. J. Heyd, E. Brothers, 
 K. N. Kudin, V. N. Staroverov, T. Keith, R. Kobayashi, J. Normand, 
 K. Raghavachari, A. Rendell, J. C. Burant, S. S. Iyengar, J. Tomasi, 
 M. Cossi, N. Rega, J. M. Millam, M. Klene, J. E. Knox, J. B. Cross, 
 V. Bakken, C. Adamo, J. Jaramillo, R. Gomperts, R. E. Stratmann, 
 O. Yazyev, A. J. Austin, R. Cammi, C. Pomelli, J. W. Ochterski, 
 R. L. Martin, K. Morokuma, V. G. Zakrzewski, G. A. Voth, 
 P. Salvador, J. J. Dannenberg, S. Dapprich, A. D. Daniels, 
 O. Farkas, J. B. Foresman, J. V. Ortiz, J. Cioslowski, 
 and D. J. Fox, Gaussian, Inc., Wallingford CT, 2013.
 
 ******************************************
 Gaussian 09:  ES64L-G09RevD.01 24-Apr-2013
                 2-Nov-2017 
 ******************************************
 %chk=2hc_3_666-mega_dimer_1_mon-1.chk
 %nproc=4
 Will use up to    4 processors via shared memory.
 %mem=28GB
 ------------------------------------------
 #p wb97xd/6-311++G** td=(nstates=2) nosymm
 ------------------------------------------
 1/38=1/1;
 2/12=2,15=1,17=6,18=5,40=1/2;
 3/5=4,6=6,7=1111,11=9,16=1,25=1,30=1,74=-58/1,2,8,3;
 4//1;
 5/5=2,38=5/2;
 8/6=1,10=2,108=2/1;
 9/41=2,42=1,70=2/14;
 6/7=2,8=2,9=2,10=2/1;
 99/5=1,9=1/99;
 Leave Link    1 at Thu Nov  2 21:02:20 2017, MaxMem=  3758096384 cpu:         5.1
 (Enter /share/apps/gaussian/g09_D01/g09/l101.exe)
 -----
 Title
 -----
 Symbolic Z-matrix:
 Charge =  0 Multiplicity = 1
 C                    -1.25745  -5.58314  -0.60081 
 N                    -1.1944   -5.64677  -1.95616 
 C                    -0.37411  -4.74843   0.13964 
 C                    -2.21567  -6.33613   0.12986 
 C                    -0.23211  -4.83798  -2.6864 
 C                    -2.07943  -6.54425  -2.67925 
 H                     0.37861  -4.15632  -0.37543 
 C                    -0.45634  -4.67586   1.51114 
 H                    -2.90992  -6.99278  -0.39075 
 C                    -2.28322  -6.24536   1.50497 
 H                    -0.30722  -3.777    -2.40584 
 H                    -0.44254  -4.91982  -3.75564 
 H                     0.80098  -5.17659  -2.50219 
 H                    -1.93591  -7.58766  -2.35767 
 H                    -1.85983  -6.48031  -3.74971 
 H                    -3.13716  -6.27718  -2.52128 
 C                    -1.40528  -5.42428   2.24811 
 H                     0.23438  -4.01704   2.03547 
 H                    -3.04117  -6.81962   2.03723 
 C                    -1.49526  -5.39536   3.67633 
 H                    -2.27272  -6.01972   4.12688 
 C                    -0.70402  -4.67155   4.52499 
 C                    -0.87186  -4.70411   5.95641 
 H                     0.0795   -4.03619   4.11834 
 C                    -0.0135   -3.89823   6.82662 
 O                    -1.77392  -5.44889   6.49353 
 C                    -0.18974  -3.98282   8.24199 
 C                     1.00097  -3.03775   6.34947 
 H                    -1.60283  -5.19031   7.88582 
 C                     0.63679  -3.26457   9.1182 
 O                    -1.16736  -4.75035   8.75275 
 C                     1.8212   -2.33327   7.2024 
 H                     1.13619  -2.89615   5.2791 
 H                     0.47476  -3.3695    10.18826 
 C                     1.64114  -2.45082   8.59806 
 H                     2.60647  -1.67906   6.82716 
 O                     2.49418  -1.72069   9.35472 
 C                     2.29343  -1.69077   10.77367 
 H                     1.29066  -1.29482   11.00406 
 H                     3.0634   -1.01998   11.16599 
 H                     2.41029  -2.6964    11.20521 
 
 NAtoms=     41 NQM=       41 NQMF=       0 NMMI=      0 NMMIF=      0
                NMic=       0 NMicF=      0.
                    Isotopes and Nuclear Properties:
 (Nuclear quadrupole moments (NQMom) in fm**2, nuclear magnetic moments (NMagM)
  in nuclear magnetons)

  Atom         1           2           3           4           5           6           7           8           9          10
 IAtWgt=          12          14          12          12          12          12           1          12           1          12
 AtmWgt=  12.0000000  14.0030740  12.0000000  12.0000000  12.0000000  12.0000000   1.0078250  12.0000000   1.0078250  12.0000000
 NucSpn=           0           2           0           0           0           0           1           0           1           0
 AtZEff=   0.0000000   0.0000000   0.0000000   0.0000000   0.0000000   0.0000000   0.0000000   0.0000000   0.0000000   0.0000000
 NQMom=    0.0000000   2.0440000   0.0000000   0.0000000   0.0000000   0.0000000   0.0000000   0.0000000   0.0000000   0.0000000
 NMagM=    0.0000000   0.4037610   0.0000000   0.0000000   0.0000000   0.0000000   2.7928460   0.0000000   2.7928460   0.0000000
 AtZNuc=   6.0000000   7.0000000   6.0000000   6.0000000   6.0000000   6.0000000   1.0000000   6.0000000   1.0000000   6.0000000

  Atom        11          12          13          14          15          16          17          18          19          20
 IAtWgt=           1           1           1           1           1           1          12           1           1          12
 AtmWgt=   1.0078250   1.0078250   1.0078250   1.0078250   1.0078250   1.0078250  12.0000000   1.0078250   1.0078250  12.0000000
 NucSpn=           1           1           1           1           1           1           0           1           1           0
 AtZEff=   0.0000000   0.0000000   0.0000000   0.0000000   0.0000000   0.0000000   0.0000000   0.0000000   0.0000000   0.0000000
 NQMom=    0.0000000   0.0000000   0.0000000   0.0000000   0.0000000   0.0000000   0.0000000   0.0000000   0.0000000   0.0000000
 NMagM=    2.7928460   2.7928460   2.7928460   2.7928460   2.7928460   2.7928460   0.0000000   2.7928460   2.7928460   0.0000000
 AtZNuc=   1.0000000   1.0000000   1.0000000   1.0000000   1.0000000   1.0000000   6.0000000   1.0000000   1.0000000   6.0000000

  Atom        21          22          23          24          25          26          27          28          29          30
 IAtWgt=           1          12          12           1          12          16          12          12           1          12
 AtmWgt=   1.0078250  12.0000000  12.0000000   1.0078250  12.0000000  15.9949146  12.0000000  12.0000000   1.0078250  12.0000000
 NucSpn=           1           0           0           1           0           0           0           0           1           0
 AtZEff=   0.0000000   0.0000000   0.0000000   0.0000000   0.0000000   0.0000000   0.0000000   0.0000000   0.0000000   0.0000000
 NQMom=    0.0000000   0.0000000   0.0000000   0.0000000   0.0000000   0.0000000   0.0000000   0.0000000   0.0000000   0.0000000
 NMagM=    2.7928460   0.0000000   0.0000000   2.7928460   0.0000000   0.0000000   0.0000000   0.0000000   2.7928460   0.0000000
 AtZNuc=   1.0000000   6.0000000   6.0000000   1.0000000   6.0000000   8.0000000   6.0000000   6.0000000   1.0000000   6.0000000

  Atom        31          32          33          34          35          36          37          38          39          40
 IAtWgt=          16          12           1           1          12           1          16          12           1           1
 AtmWgt=  15.9949146  12.0000000   1.0078250   1.0078250  12.0000000   1.0078250  15.9949146  12.0000000   1.0078250   1.0078250
 NucSpn=           0           0           1           1           0           1           0           0           1           1
 AtZEff=   0.0000000   0.0000000   0.0000000   0.0000000   0.0000000   0.0000000   0.0000000   0.0000000   0.0000000   0.0000000
 NQMom=    0.0000000   0.0000000   0.0000000   0.0000000   0.0000000   0.0000000   0.0000000   0.0000000   0.0000000   0.0000000
 NMagM=    0.0000000   0.0000000   2.7928460   2.7928460   0.0000000   2.7928460   0.0000000   0.0000000   2.7928460   2.7928460
 AtZNuc=   8.0000000   6.0000000   1.0000000   1.0000000   6.0000000   1.0000000   8.0000000   6.0000000   1.0000000   1.0000000

  Atom        41
 IAtWgt=           1
 AtmWgt=   1.0078250
 NucSpn=           1
 AtZEff=   0.0000000
 NQMom=    0.0000000
 NMagM=    2.7928460
 AtZNuc=   1.0000000
 Leave Link  101 at Thu Nov  2 21:02:28 2017, MaxMem=  3758096384 cpu:         0.4
 (Enter /share/apps/gaussian/g09_D01/g09/l202.exe)
                          Input orientation:                          
 ---------------------------------------------------------------------
 Center     Atomic      Atomic             Coordinates (Angstroms)
 Number     Number       Type             X           Y           Z
 ---------------------------------------------------------------------
      1          6           0       -1.257452   -5.583138   -0.600811
      2          7           0       -1.194399   -5.646769   -1.956156
      3          6           0       -0.374111   -4.748425    0.139636
      4          6           0       -2.215671   -6.336129    0.129863
      5          6           0       -0.232107   -4.837984   -2.686402
      6          6           0       -2.079427   -6.544253   -2.679249
      7          1           0        0.378610   -4.156324   -0.375434
      8          6           0       -0.456340   -4.675862    1.511142
      9          1           0       -2.909919   -6.992782   -0.390750
     10          6           0       -2.283218   -6.245357    1.504970
     11          1           0       -0.307216   -3.777002   -2.405837
     12          1           0       -0.442540   -4.919815   -3.755638
     13          1           0        0.800975   -5.176595   -2.502194
     14          1           0       -1.935911   -7.587662   -2.357672
     15          1           0       -1.859832   -6.480312   -3.749711
     16          1           0       -3.137161   -6.277181   -2.521282
     17          6           0       -1.405282   -5.424284    2.248113
     18          1           0        0.234383   -4.017044    2.035475
     19          1           0       -3.041168   -6.819620    2.037230
     20          6           0       -1.495258   -5.395364    3.676326
     21          1           0       -2.272715   -6.019724    4.126875
     22          6           0       -0.704022   -4.671554    4.524986
     23          6           0       -0.871863   -4.704107    5.956408
     24          1           0        0.079500   -4.036186    4.118343
     25          6           0       -0.013501   -3.898230    6.826624
     26          8           0       -1.773920   -5.448889    6.493531
     27          6           0       -0.189741   -3.982822    8.241990
     28          6           0        1.000968   -3.037749    6.349474
     29          1           0       -1.602833   -5.190309    7.885818
     30          6           0        0.636785   -3.264565    9.118195
     31          8           0       -1.167361   -4.750350    8.752749
     32          6           0        1.821195   -2.333268    7.202395
     33          1           0        1.136193   -2.896145    5.279103
     34          1           0        0.474759   -3.369501   10.188265
     35          6           0        1.641143   -2.450821    8.598058
     36          1           0        2.606474   -1.679058    6.827160
     37          8           0        2.494175   -1.720689    9.354721
     38          6           0        2.293433   -1.690772   10.773673
     39          1           0        1.290663   -1.294820   11.004059
     40          1           0        3.063404   -1.019976   11.165991
     41          1           0        2.410292   -2.696403   11.205207
 ---------------------------------------------------------------------
                    Distance matrix (angstroms):
                    1          2          3          4          5
     1  C    0.000000
     2  N    1.358302   0.000000
     3  C    1.423130   2.423270   0.000000
     4  C    1.420938   2.422744   2.431510   0.000000
     5  C    2.440548   1.453753   2.831020   3.756370   0.000000
     6  C    2.432959   1.453140   3.752228   2.820104   2.514756
     7  H    2.182497   2.682250   1.087414   3.425955   2.485600
     8  C    2.434189   3.675534   1.375884   2.785617   4.206654
     9  H    2.182171   2.684261   3.427648   1.088215   4.133261
    10  C    2.434141   3.677394   2.783816   1.379754   4.873946
    11  H    2.724554   2.117861   2.725357   4.076899   1.100019
    12  H    3.325209   2.081319   3.899643   4.499673   1.092815
    13  H    2.831547   2.121494   2.922913   4.168021   1.102655
    14  H    2.750452   2.116157   4.091092   2.798648   3.251421
    15  H    3.329167   2.086728   4.509304   3.898526   2.545065
    16  H    2.775466   2.119224   4.129410   2.807345   3.246212
    17  C    2.857176   4.215430   2.442493   2.444417   5.105833
    18  H    3.410018   4.542085   2.121176   3.874568   4.815359
    19  H    3.416108   4.553380   3.873487   2.133836   5.842123
    20  C    4.287856   5.646111   3.766122   3.739176   6.510801
    21  H    4.855140   6.189114   4.595538   4.009922   7.209808
    22  C    5.235558   6.572421   4.398414   4.936902   7.228729
    23  C    6.627103   7.975043   5.838198   6.198221   8.667490
    24  H    5.143045   6.412202   4.067328   5.144465   6.858902
    25  C    7.717067   9.032670   6.750458   7.459190   9.561830
    26  O    7.114383   8.471848   6.543859   6.440389   9.328535
    27  C    9.049649  10.381726   8.140533   8.686141  10.961882
    28  C    7.738600   8.978313   6.586300   7.740132   9.295611
    29  H    8.502733   9.861015   7.855467   7.864052  10.666530
    30  C   10.169710  11.474728   9.156324   9.917718  11.940650
    31  O    9.390992  10.746392   8.649564   8.829938  11.477655
    32  C    8.996096  10.195693   7.780419   9.074133  10.405669
    33  H    6.893682   8.083722   5.667987   7.041531   8.312175
    34  H   11.149211  12.468320  10.178259  10.826391  12.977409
    35  C   10.140634  11.386212   8.993616  10.083698  11.685318
    36  H    9.238318  10.360309   7.939010   9.476032  10.418456
    37  O   11.318385  12.528193  10.114941  11.339442  12.733373
    38  C   12.535477  13.779094  11.381906  12.458012  14.051936
    39  H   12.631531  13.895401  11.521048  12.488287  14.223275
    40  H   13.339785  14.550836  12.136653  13.338899  14.741993
    41  H   12.695182  13.961373  11.593557  12.542344  14.301938
                    6          7          8          9         10
     6  C    0.000000
     7  H    4.129372   0.000000
     8  C    4.866690   2.127494   0.000000
     9  H    2.475505   4.342828   3.873675   0.000000
    10  C    4.199828   3.871086   2.408492   2.131936   0.000000
    11  H    3.297448   2.176414   4.021556   4.601726   5.029093
    12  H    2.544958   3.561318   5.272445   4.659144   5.728800
    13  H    3.193517   2.396342   4.235380   4.639770   5.168352
    14  H    1.101232   4.589156   5.063144   2.274062   4.103950
    15  H    1.094623   4.668757   5.736062   3.556392   5.276943
    16  H    1.102308   4.632855   5.100144   2.258958   4.115937
    17  C    5.097813   3.416576   1.415540   3.418730   1.413221
    18  H    5.828304   2.419232   1.089066   4.962683   3.403693
    19  H    4.821405   4.960743   3.399089   2.437683   1.089755
    20  C    6.484947   4.632857   2.507001   4.592833   2.461332
    21  H    6.829042   5.547303   3.456478   4.664955   2.631617
    22  C    7.569659   5.044965   3.024007   5.866732   3.753826
    23  C    8.911729   6.477343   4.464734   7.048271   4.917588
    24  H    7.560332   4.505323   2.737482   6.165226   4.158436
    25  C   10.081226   7.217340   5.390284   8.369945   6.243446
    26  O    9.243000   7.313466   5.211313   7.146148   5.077350
    27  C   11.375645   8.637889   6.771683   9.538523   7.408721
    28  C   10.163771   6.845650   5.311932   8.738875   6.674118
    29  H   10.662127   8.558243   6.497353   8.570820   6.503174
    30  C   12.542482   9.538914   7.813702  10.811972   8.681747
    31  O   11.607779   9.277210   7.276811   9.574371   7.484015
    32  C   11.427779   7.926416   6.562414  10.087138   8.038115
    33  H    9.326536   5.842583   4.461063   8.080884   6.095381
    34  H   13.497253  10.593398   8.824171  11.683312   9.553879
    35  C   12.560911   9.220970   7.718460  11.051708   8.950475
    36  H   11.661887   7.935842   6.828009  10.524470   8.549028
    37  O   13.747765  10.251041   8.885962  12.327749  10.242787
    38  C   14.955243  11.577913  10.112690  13.410090  11.295965
    39  H   15.038184  11.769151  10.227362  13.414669  11.292171
    40  H   15.768862  12.257622  10.907347  14.314792  12.215822
    41  H   15.091111  11.847799  10.301006  13.462159  11.345427
                   11         12         13         14         15
    11  H    0.000000
    12  H    1.773780   0.000000
    13  H    1.787801   1.784205   0.000000
    14  H    4.144405   3.361826   3.650298   0.000000
    15  H    3.394775   2.108057   3.214945   1.780389   0.000000
    16  H    3.777937   3.259917   4.089079   1.785254   1.783780
    17  C    5.057523   6.101343   5.243504   5.116154   6.107021
    18  H    4.480647   5.900018   4.717629   6.062939   6.627353
    19  H    6.039277   6.627175   6.169924   4.596373   5.916027
    20  C    6.404939   7.521200   6.595048   6.435020   7.513724
    21  H    7.181178   8.166600   7.355474   6.679911   7.900837
    22  C    6.999570   8.288470   7.204259   7.575765   8.548574
    23  C    8.432407   9.723923   8.635368   8.864029   9.916639
    24  H    6.540768   7.940586   6.756668   7.655954   8.464103
    25  C    9.237927  10.640112   9.451160  10.082602  11.042416
    26  O    9.173068  10.348814   9.360945   9.107381  10.295398
    27  C   10.650464  12.036816  10.855602  11.331232  12.362344
    28  C    8.883316  10.379748   9.108605  10.253846  11.046672
    29  H   10.468726  11.702262  10.662517  10.525556  11.709641
    30  C   11.573981  13.024606  11.777787  12.530102  13.496560
    31  O   11.233935  12.530516  11.433712  11.492713  12.640561
    32  C    9.946488  11.484477  10.163877  11.537737  12.275853
    33  H    7.868776   9.392241   8.115504   9.474623  10.165722
    34  H   12.624934  14.059777  12.822627  13.453800  14.470475
    35  C   11.253469  12.769161  11.460860  12.617863  13.452175
    36  H    9.906523  11.480183  10.125682  11.828187  12.444683
    37  O   12.263235  13.810873  12.465819  13.828492  14.606078
    38  C   13.594676  15.133180  13.806775  15.003096  15.846703
    39  H   13.730978  15.296837  14.061538  15.117754  15.952701
    40  H   14.253308  15.816302  14.464278  15.843520  16.629242
    41  H   13.921676  15.391852  14.022628  15.058738  16.006296
                   16         17         18         19         20
    16  H    0.000000
    17  C    5.145286   0.000000
    18  H    6.102423   2.171184   0.000000
    19  H    4.591676   2.160453   4.310878   0.000000
    20  C    6.471769   1.431337   2.753873   2.665517   0.000000
    21  H    6.709064   2.153308   3.830173   2.365792   1.094193
    22  C    7.625490   2.498503   2.739827   4.033035   1.367545
    23  C    8.915008   3.815055   4.131531   4.953911   2.462769
    24  H    7.710615   2.762092   2.088706   4.670878   2.126642
    25  C   10.139034   5.022814   4.799028   6.374918   3.789643
    26  O    9.154854   4.261464   5.094872   4.831505   2.831459
    27  C   11.392954   6.283464   6.221084   7.394397   4.954285
    28  C   10.310594   5.320409   4.489684   7.016898   4.351461
    29  H   10.575594   5.646015   6.243271   6.239346   4.215856
    30  C   12.601426   7.485483   7.133938   8.735320   6.220920
    31  O   11.546216   6.543782   6.901043   7.272635   5.127731
    32  C   11.605587   6.671540   5.661284   8.393382   5.727867
    33  H    9.515197   4.694410   3.548352   6.584356   3.967307
    34  H   13.528975   8.414434   8.181997   9.523888   7.098622
    35  C   12.693027   7.644867   6.891990   9.168146   6.536879
    36  H   11.896447   7.147627   5.835515   9.014692   6.368900
    37  O   13.910895   8.912141   7.996954  10.496894   7.852578
    38  C   15.075886  10.015227   9.274014  11.449388   8.857230
    39  H   15.078607  10.049238   9.431953  11.388248   8.847117
    40  H   15.919380  10.903927  10.017589  12.419177   9.799005
    41  H   15.231963  10.110859   9.516441  11.435521   8.900661
                   21         22         23         24         25
    21  H    0.000000
    22  C    2.106384   0.000000
    23  C    2.653380   1.441596   0.000000
    24  H    3.076916   1.087639   2.174786   0.000000
    25  C    4.110162   2.524359   1.464069   2.713387   0.000000
    26  O    2.485098   2.371519   1.287209   3.327524   2.369508
    27  C    5.042016   3.815096   2.491872   4.132772   1.428803
    28  C    4.954707   2.984136   2.537468   2.612264   1.413240
    29  H    3.907214   3.517408   2.119748   4.284403   2.305935
    30  C    6.400732   4.987479   3.787505   5.089645   2.464894
    31  O    4.922583   4.253807   2.812291   4.852052   2.401553
    32  C    6.309428   4.360369   3.798147   3.929988   2.440578
    33  H    4.764979   2.665926   2.785634   1.940015   2.172738
    34  H    7.163291   5.929384   4.637152   6.119204   3.437817
    35  C    6.931582   5.198208   4.286118   5.001995   2.823264
    36  H    7.066782   5.021396   4.691264   4.390824   3.433510
    37  O    8.278606   6.500954   5.637333   6.213842   4.173895
    38  C    9.152566   7.544262   6.504255   7.395667   5.076811
    39  H    9.072929   7.573605   6.463632   7.509666   5.092107
    40  H   10.149916   8.463478   7.496593   8.226211   6.048289
    41  H    9.114702   7.630565   6.507942   7.579660   5.146955
                   26         27         28         29         30
    26  O    0.000000
    27  C    2.777784   0.000000
    28  C    3.678906   2.427461   0.000000
    29  H    1.426393   1.892541   3.711286   0.000000
    30  C    4.179908   1.402417   2.801766   3.200489   0.000000
    31  O    2.441298   1.343769   3.662019   1.065255   2.365597
    32  C    4.809827   2.801009   1.377149   4.511510   2.437300
    33  H    4.057104   3.423108   1.088132   4.422716   3.888929
    34  H    4.799111   2.146092   3.888865   3.596247   1.087343
    35  C    5.008004   2.413700   2.410485   4.305283   1.393362
    36  H    5.788850   3.889459   2.156820   5.582822   3.412089
    37  O    6.348426   3.682230   3.604972   5.566095   2.426808
    38  C    6.999030   4.222448   4.801911   5.980581   2.821686
    39  H    6.855131   4.128677   4.978643   5.768066   2.804271
    40  H    8.052755   5.283104   5.614614   7.065761   3.888461
    41  H    6.876314   4.146770   5.067628   5.774347   2.797097
                   31         32         33         34         35
    31  O    0.000000
    32  C    4.144557   0.000000
    33  H    4.561870   2.117808   0.000000
    34  H    2.581474   3.435417   4.976086   0.000000
    35  C    3.633106   1.412131   3.386554   2.175588   0.000000
    36  H    5.232835   1.088786   2.457541   4.324215   2.159528
    37  O    4.790414   2.336806   4.453816   2.737045   1.353992
    38  C    5.042048   3.659213   5.743033   2.543307   2.395090
    39  H    4.801142   3.976492   5.946699   2.373925   2.692214
    40  H    6.135047   4.356365   6.472218   3.630055   3.265643
    41  H    4.799255   4.062192   6.064811   2.287689   2.729309
                   36         37         38         39         40
    36  H    0.000000
    37  O    2.530397   0.000000
    38  C    3.958926   1.433394   0.000000
    39  H    4.396076   2.085694   1.102453   0.000000
    40  H    4.412327   2.023788   1.093954   1.801214   0.000000
    41  H    4.498975   2.093646   1.100532   1.805122   1.799583
                   41
    41  H    0.000000
 Symmetry turned off by external request.
 Stoichiometry    C18H19NO3
 Framework group  C1[X(C18H19NO3)]
 Deg. of freedom   117
 Full point group                 C1      NOp   1
 Rotational constants (GHZ):      0.8506573      0.0817862      0.0747293
 Leave Link  202 at Thu Nov  2 21:02:33 2017, MaxMem=  3758096384 cpu:         4.1
 (Enter /share/apps/gaussian/g09_D01/g09/l301.exe)
 Standard basis: 6-311++G(d,p) (5D, 7F)
 Ernie: Thresh=  0.10000D-02 Tol=  0.10000D-05 Strict=F.
   617 basis functions,   963 primitive gaussians,   639 cartesian basis functions
    79 alpha electrons       79 beta electrons
       nuclear repulsion energy      1595.5262345564 Hartrees.
 IExCor= 4639 DFT=T Ex+Corr=wB97XD ExCW=0 ScaHFX=  1.000000
 ScaDFX=  1.000000  1.000000  1.000000  1.000000 ScalE2=  1.000000  1.000000
 IRadAn=      0 IRanWt=     -1 IRanGd=            0 ICorTp=0 IEmpDi=121
  HFx wShort=  0.000000 wLong=  0.200000 cFull=  0.222036 cShort=  0.000000 cLong=  0.777964
  DFx wShort=  0.000000 wLong=  0.200000 cFull=  0.000000 cShort=  0.000000 cLong=  1.000000
 NAtoms=   41 NActive=   41 NUniq=   41 SFac= 1.00D+00 NAtFMM=   60 NAOKFM=F Big=F
 Integral buffers will be    131072 words long.
 Raffenetti 1 integral format.
 Two-electron integral symmetry is turned off.
 R6Disp:  Grimme-D2 Dispersion energy=       -0.0257158050 Hartrees.
 Nuclear repulsion after empirical dispersion term =     1595.5005187514 Hartrees.
 Leave Link  301 at Thu Nov  2 21:02:46 2017, MaxMem=  3758096384 cpu:         8.5
 (Enter /share/apps/gaussian/g09_D01/g09/l302.exe)
 NPDir=0 NMtPBC=     1 NCelOv=     1 NCel=       1 NClECP=     1 NCelD=      1
         NCelK=      1 NCelE2=     1 NClLst=     1 CellRange=     0.0.
 One-electron integrals computed using PRISM.
 NBasis=   617 RedAO= T EigKep=  1.51D-06  NBF=   617
 NBsUse=   609 1.00D-06 EigRej=  9.23D-07 NBFU=   609
 Precomputing XC quadrature grid using
 IXCGrd= 4 IRadAn=           0 IRanWt=          -1 IRanGd=           0 AccXCQ= 0.00D+00.
 Generated NRdTot=       0 NPtTot=           0 NUsed=           0 NTot=          32
 NSgBfM=   619   619   619   619   619 MxSgAt=    41 MxSgA2=    41.
 Leave Link  302 at Thu Nov  2 21:03:03 2017, MaxMem=  3758096384 cpu:         6.3
 (Enter /share/apps/gaussian/g09_D01/g09/l308.exe)
 Leave Link  308 at Thu Nov  2 21:03:06 2017, MaxMem=  3758096384 cpu:         2.9
 (Enter /share/apps/gaussian/g09_D01/g09/l303.exe)
 DipDrv:  MaxL=1.
 Leave Link  303 at Thu Nov  2 21:03:09 2017, MaxMem=  3758096384 cpu:         3.8
 (Enter /share/apps/gaussian/g09_D01/g09/l401.exe)
 ExpMin= 3.60D-02 ExpMax= 8.59D+03 ExpMxC= 1.30D+03 IAcc=3 IRadAn=         5 AccDes= 0.00D+00
 Harris functional with IExCor= 4639 and IRadAn=       5 diagonalized for initial guess.
 HarFok:  IExCor= 4639 AccDes= 0.00D+00 IRadAn=         5 IDoV= 1 UseB2=F ITyADJ=14
 ICtDFT=  3500011 ScaDFX=  1.000000  1.000000  1.000000  1.000000
 FoFCou: FMM=F IPFlag=           0 FMFlag=      100000 FMFlg1=           0
         NFxFlg=           0 DoJE=T BraDBF=F KetDBF=T FulRan=T
         wScrn=  0.000000 ICntrl=     500 IOpCl=  0 I1Cent=   200000004 NGrid=           0
         NMat0=    1 NMatS0=      1 NMatT0=    0 NMatD0=    1 NMtDS0=    0 NMtDT0=    0
 Symmetry not used in FoFCou.
 Harris En= -935.539784857606    
 JPrj=0 DoOrth=F DoCkMO=F.
 Leave Link  401 at Thu Nov  2 21:03:46 2017, MaxMem=  3758096384 cpu:        81.5
 (Enter /share/apps/gaussian/g09_D01/g09/l502.exe)
 Closed shell SCF:
 Using DIIS extrapolation, IDIIS=  1040.
 Two-electron integral symmetry not used.
 IVT=     1251263 IEndB=     1251263 NGot=  3758096384 MDV=  3757270722
 LenX=  3757270722 LenY=  3756861762
 Requested convergence on RMS density matrix=1.00D-08 within 128 cycles.
 Requested convergence on MAX density matrix=1.00D-06.
 Requested convergence on             energy=1.00D-06.
 No special actions if energy rises.
 Fock matrices will be formed incrementally for  20 cycles.

 Cycle   1  Pass 1  IDiag  1:
 FoFJK:  IHMeth= 1 ICntrl=       0 DoSepK=T KAlg= 0 I1Cent=   0 FoldK=F
 IRaf=         1 NMat=   1 IRICut=       1 DoRegI=T DoRafI=F ISym2E= 0.
 FoFCou: FMM=F IPFlag=           0 FMFlag=      100000 FMFlg1=           0
         NFxFlg=           0 DoJE=T BraDBF=F KetDBF=F FulRan=T
         wScrn=  0.000000 ICntrl=     500 IOpCl=  0 I1Cent=           0 NGrid=           0
         NMat0=    1 NMatS0=      1 NMatT0=    0 NMatD0=    1 NMtDS0=    0 NMtDT0=    0
 Symmetry not used in FoFCou.
 E= -977.329700126264    
 DIIS: error= 9.34D-02 at cycle   1 NSaved=   1.
 NSaved= 1 IEnMin= 1 EnMin= -977.329700126264     IErMin= 1 ErrMin= 9.34D-02
 ErrMax= 9.34D-02  0.00D+00 EMaxC= 1.00D-01 BMatC= 2.16D+00 BMatP= 2.16D+00
 IDIUse=3 WtCom= 6.58D-02 WtEn= 9.34D-01
 Coeff-Com:  0.100D+01
 Coeff-En:   0.100D+01
 Coeff:      0.100D+01
 Gap=     0.282 Goal=   None    Shift=    0.000
 GapD=    0.282 DampG=1.000 DampE=0.500 DampFc=0.5000 IDamp=-1.
 Damping current iteration by 5.00D-01
 RMSDP=1.88D-02 MaxDP=1.80D+00              OVMax= 1.76D-01

 Cycle   2  Pass 1  IDiag  1:
 RMSU=  2.99D-03    CP:  8.17D-01
 E= -977.488169274168     Delta-E=       -0.158469147904 Rises=F Damp=T
 DIIS: error= 4.19D-02 at cycle   2 NSaved=   2.
 NSaved= 2 IEnMin= 2 EnMin= -977.488169274168     IErMin= 2 ErrMin= 4.19D-02
 ErrMax= 4.19D-02  0.00D+00 EMaxC= 1.00D-01 BMatC= 4.43D-01 BMatP= 2.16D+00
 IDIUse=3 WtCom= 5.81D-01 WtEn= 4.19D-01
 Coeff-Com: -0.512D+00 0.151D+01
 Coeff-En:   0.000D+00 0.100D+01
 Coeff:     -0.298D+00 0.130D+01
 Gap=     0.269 Goal=   None    Shift=    0.000
 RMSDP=9.07D-03 MaxDP=1.01D+00 DE=-1.58D-01 OVMax= 2.04D-01

 Cycle   3  Pass 1  IDiag  1:
 RMSU=  3.22D-03    CP:  6.44D-01  1.31D+00
 E= -977.594797209839     Delta-E=       -0.106627935671 Rises=F Damp=F
 DIIS: error= 1.60D-02 at cycle   3 NSaved=   3.
 NSaved= 3 IEnMin= 3 EnMin= -977.594797209839     IErMin= 3 ErrMin= 1.60D-02
 ErrMax= 1.60D-02  0.00D+00 EMaxC= 1.00D-01 BMatC= 1.13D-01 BMatP= 4.43D-01
 IDIUse=3 WtCom= 8.40D-01 WtEn= 1.60D-01
 Coeff-Com: -0.317D+00 0.689D+00 0.627D+00
 Coeff-En:   0.000D+00 0.000D+00 0.100D+01
 Coeff:     -0.266D+00 0.579D+00 0.687D+00
 Gap=     0.264 Goal=   None    Shift=    0.000
 RMSDP=3.12D-03 MaxDP=2.63D-01 DE=-1.07D-01 OVMax= 8.55D-02

 Cycle   4  Pass 1  IDiag  1:
 RMSU=  1.23D-03    CP:  5.96D-01  1.60D+00  5.74D-01
 E= -977.677251717713     Delta-E=       -0.082454507874 Rises=F Damp=F
 DIIS: error= 5.36D-03 at cycle   4 NSaved=   4.
 NSaved= 4 IEnMin= 4 EnMin= -977.677251717713     IErMin= 4 ErrMin= 5.36D-03
 ErrMax= 5.36D-03  0.00D+00 EMaxC= 1.00D-01 BMatC= 1.10D-02 BMatP= 1.13D-01
 IDIUse=3 WtCom= 9.46D-01 WtEn= 5.36D-02
 Coeff-Com: -0.122D+00 0.264D+00 0.372D+00 0.485D+00
 Coeff-En:   0.000D+00 0.000D+00 0.246D-01 0.975D+00
 Coeff:     -0.115D+00 0.250D+00 0.354D+00 0.511D+00
 Gap=     0.241 Goal=   None    Shift=    0.000
 RMSDP=7.25D-04 MaxDP=4.19D-02 DE=-8.25D-02 OVMax= 2.05D-02

 Cycle   5  Pass 1  IDiag  1:
 RMSU=  2.96D-04    CP:  6.05D-01  1.58D+00  6.69D-01  7.06D-01
 E= -977.685863162138     Delta-E=       -0.008611444425 Rises=F Damp=F
 DIIS: error= 7.28D-04 at cycle   5 NSaved=   5.
 NSaved= 5 IEnMin= 5 EnMin= -977.685863162138     IErMin= 5 ErrMin= 7.28D-04
 ErrMax= 7.28D-04  0.00D+00 EMaxC= 1.00D-01 BMatC= 1.89D-04 BMatP= 1.10D-02
 IDIUse=3 WtCom= 9.93D-01 WtEn= 7.28D-03
 Coeff-Com:  0.896D-02-0.197D-01 0.276D-01 0.167D+00 0.816D+00
 Coeff-En:   0.000D+00 0.000D+00 0.000D+00 0.000D+00 0.100D+01
 Coeff:      0.889D-02-0.196D-01 0.274D-01 0.166D+00 0.818D+00
 Gap=     0.241 Goal=   None    Shift=    0.000
 RMSDP=2.45D-04 MaxDP=1.85D-02 DE=-8.61D-03 OVMax= 6.94D-03

 Cycle   6  Pass 1  IDiag  1:
 RMSU=  1.38D-04    CP:  6.02D-01  1.57D+00  6.73D-01  8.08D-01  8.63D-01
 E= -977.686096722578     Delta-E=       -0.000233560441 Rises=F Damp=F
 DIIS: error= 5.25D-04 at cycle   6 NSaved=   6.
 NSaved= 6 IEnMin= 6 EnMin= -977.686096722578     IErMin= 6 ErrMin= 5.25D-04
 ErrMax= 5.25D-04  0.00D+00 EMaxC= 1.00D-01 BMatC= 5.95D-05 BMatP= 1.89D-04
 IDIUse=3 WtCom= 9.95D-01 WtEn= 5.25D-03
 Coeff-Com:  0.239D-01-0.519D-01-0.457D-01-0.359D-02 0.423D+00 0.654D+00
 Coeff-En:   0.000D+00 0.000D+00 0.000D+00 0.000D+00 0.000D+00 0.100D+01
 Coeff:      0.238D-01-0.517D-01-0.454D-01-0.357D-02 0.421D+00 0.656D+00
 Gap=     0.242 Goal=   None    Shift=    0.000
 RMSDP=6.63D-05 MaxDP=5.50D-03 DE=-2.34D-04 OVMax= 4.07D-03

 Cycle   7  Pass 1  IDiag  1:
 RMSU=  4.48D-05    CP:  6.01D-01  1.57D+00  6.74D-01  8.25D-01  9.91D-01
                    CP:  1.01D+00
 E= -977.686170631026     Delta-E=       -0.000073908448 Rises=F Damp=F
 DIIS: error= 1.44D-04 at cycle   7 NSaved=   7.
 NSaved= 7 IEnMin= 7 EnMin= -977.686170631026     IErMin= 7 ErrMin= 1.44D-04
 ErrMax= 1.44D-04  0.00D+00 EMaxC= 1.00D-01 BMatC= 4.59D-06 BMatP= 5.95D-05
 IDIUse=3 WtCom= 9.99D-01 WtEn= 1.44D-03
 Coeff-Com:  0.388D-02-0.834D-02-0.124D-01-0.204D-01-0.952D-02 0.189D+00
 Coeff-Com:  0.858D+00
 Coeff-En:   0.000D+00 0.000D+00 0.000D+00 0.000D+00 0.000D+00 0.000D+00
 Coeff-En:   0.100D+01
 Coeff:      0.388D-02-0.833D-02-0.124D-01-0.204D-01-0.951D-02 0.189D+00
 Coeff:      0.858D+00
 Gap=     0.242 Goal=   None    Shift=    0.000
 RMSDP=3.01D-05 MaxDP=3.23D-03 DE=-7.39D-05 OVMax= 2.07D-03

 Cycle   8  Pass 1  IDiag  1:
 RMSU=  1.97D-05    CP:  6.01D-01  1.57D+00  6.72D-01  8.32D-01  1.01D+00
                    CP:  1.14D+00  1.05D+00
 E= -977.686181197957     Delta-E=       -0.000010566931 Rises=F Damp=F
 DIIS: error= 7.07D-05 at cycle   8 NSaved=   8.
 NSaved= 8 IEnMin= 8 EnMin= -977.686181197957     IErMin= 8 ErrMin= 7.07D-05
 ErrMax= 7.07D-05  0.00D+00 EMaxC= 1.00D-01 BMatC= 1.10D-06 BMatP= 4.59D-06
 IDIUse=1 WtCom= 1.00D+00 WtEn= 0.00D+00
 Coeff-Com: -0.194D-02 0.427D-02 0.152D-02-0.959D-02-0.795D-01-0.185D-01
 Coeff-Com:  0.381D+00 0.723D+00
 Coeff:     -0.194D-02 0.427D-02 0.152D-02-0.959D-02-0.795D-01-0.185D-01
 Coeff:      0.381D+00 0.723D+00
 Gap=     0.242 Goal=   None    Shift=    0.000
 RMSDP=1.13D-05 MaxDP=1.74D-03 DE=-1.06D-05 OVMax= 1.13D-03

 Cycle   9  Pass 1  IDiag  1:
 RMSU=  6.42D-06    CP:  6.01D-01  1.57D+00  6.72D-01  8.34D-01  1.01D+00
                    CP:  1.19D+00  1.17D+00  1.17D+00
 E= -977.686183747648     Delta-E=       -0.000002549691 Rises=F Damp=F
 DIIS: error= 3.77D-05 at cycle   9 NSaved=   9.
 NSaved= 9 IEnMin= 9 EnMin= -977.686183747648     IErMin= 9 ErrMin= 3.77D-05
 ErrMax= 3.77D-05  0.00D+00 EMaxC= 1.00D-01 BMatC= 1.36D-07 BMatP= 1.10D-06
 IDIUse=1 WtCom= 1.00D+00 WtEn= 0.00D+00
 Coeff-Com: -0.131D-02 0.284D-02 0.319D-02 0.148D-02-0.224D-01-0.372D-01
 Coeff-Com: -0.614D-01 0.179D+00 0.936D+00
 Coeff:     -0.131D-02 0.284D-02 0.319D-02 0.148D-02-0.224D-01-0.372D-01
 Coeff:     -0.614D-01 0.179D+00 0.936D+00
 Gap=     0.242 Goal=   None    Shift=    0.000
 RMSDP=6.84D-06 MaxDP=7.35D-04 DE=-2.55D-06 OVMax= 5.86D-04

 Cycle  10  Pass 1  IDiag  1:
 RMSU=  3.67D-06    CP:  6.01D-01  1.57D+00  6.73D-01  8.34D-01  1.01D+00
                    CP:  1.22D+00  1.19D+00  1.34D+00  1.33D+00
 E= -977.686184217198     Delta-E=       -0.000000469550 Rises=F Damp=F
 DIIS: error= 1.08D-05 at cycle  10 NSaved=  10.
 NSaved=10 IEnMin=10 EnMin= -977.686184217198     IErMin=10 ErrMin= 1.08D-05
 ErrMax= 1.08D-05  0.00D+00 EMaxC= 1.00D-01 BMatC= 2.14D-08 BMatP= 1.36D-07
 IDIUse=1 WtCom= 1.00D+00 WtEn= 0.00D+00
 Coeff-Com:  0.317D-04-0.774D-04 0.506D-03 0.185D-02 0.548D-02-0.573D-02
 Coeff-Com: -0.787D-01-0.525D-01 0.298D+00 0.831D+00
 Coeff:      0.317D-04-0.774D-04 0.506D-03 0.185D-02 0.548D-02-0.573D-02
 Coeff:     -0.787D-01-0.525D-01 0.298D+00 0.831D+00
 Gap=     0.242 Goal=   None    Shift=    0.000
 RMSDP=2.33D-06 MaxDP=1.95D-04 DE=-4.70D-07 OVMax= 2.33D-04

 Cycle  11  Pass 1  IDiag  1:
 RMSU=  1.18D-06    CP:  6.01D-01  1.57D+00  6.73D-01  8.34D-01  1.01D+00
                    CP:  1.22D+00  1.20D+00  1.40D+00  1.48D+00  1.12D+00
 E= -977.686184280569     Delta-E=       -0.000000063371 Rises=F Damp=F
 DIIS: error= 5.12D-06 at cycle  11 NSaved=  11.
 NSaved=11 IEnMin=11 EnMin= -977.686184280569     IErMin=11 ErrMin= 5.12D-06
 ErrMax= 5.12D-06  0.00D+00 EMaxC= 1.00D-01 BMatC= 4.08D-09 BMatP= 2.14D-08
 IDIUse=1 WtCom= 1.00D+00 WtEn= 0.00D+00
 Coeff-Com:  0.196D-03-0.424D-03-0.264D-03 0.568D-03 0.541D-02 0.356D-02
 Coeff-Com: -0.187D-01-0.446D-01-0.535D-01 0.285D+00 0.823D+00
 Coeff:      0.196D-03-0.424D-03-0.264D-03 0.568D-03 0.541D-02 0.356D-02
 Coeff:     -0.187D-01-0.446D-01-0.535D-01 0.285D+00 0.823D+00
 Gap=     0.242 Goal=   None    Shift=    0.000
 RMSDP=1.07D-06 MaxDP=1.07D-04 DE=-6.34D-08 OVMax= 8.22D-05

 Cycle  12  Pass 1  IDiag  1:
 RMSU=  5.69D-07    CP:  6.01D-01  1.57D+00  6.73D-01  8.34D-01  1.01D+00
                    CP:  1.22D+00  1.20D+00  1.42D+00  1.54D+00  1.19D+00
                    CP:  1.24D+00
 E= -977.686184291348     Delta-E=       -0.000000010779 Rises=F Damp=F
 DIIS: error= 2.14D-06 at cycle  12 NSaved=  12.
 NSaved=12 IEnMin=12 EnMin= -977.686184291348     IErMin=12 ErrMin= 2.14D-06
 ErrMax= 2.14D-06  0.00D+00 EMaxC= 1.00D-01 BMatC= 6.19D-10 BMatP= 4.08D-09
 IDIUse=1 WtCom= 1.00D+00 WtEn= 0.00D+00
 Coeff-Com:  0.475D-04-0.102D-03-0.140D-03-0.562D-04 0.951D-03 0.181D-02
 Coeff-Com:  0.739D-02-0.473D-02-0.654D-01-0.523D-01 0.252D+00 0.861D+00
 Coeff:      0.475D-04-0.102D-03-0.140D-03-0.562D-04 0.951D-03 0.181D-02
 Coeff:      0.739D-02-0.473D-02-0.654D-01-0.523D-01 0.252D+00 0.861D+00
 Gap=     0.242 Goal=   None    Shift=    0.000
 RMSDP=3.95D-07 MaxDP=2.82D-05 DE=-1.08D-08 OVMax= 3.15D-05

 Cycle  13  Pass 1  IDiag  1:
 RMSU=  2.03D-07    CP:  6.01D-01  1.57D+00  6.73D-01  8.34D-01  1.01D+00
                    CP:  1.22D+00  1.20D+00  1.43D+00  1.56D+00  1.20D+00
                    CP:  1.42D+00  1.20D+00
 E= -977.686184293000     Delta-E=       -0.000000001652 Rises=F Damp=F
 DIIS: error= 7.16D-07 at cycle  13 NSaved=  13.
 NSaved=13 IEnMin=13 EnMin= -977.686184293000     IErMin=13 ErrMin= 7.16D-07
 ErrMax= 7.16D-07  0.00D+00 EMaxC= 1.00D-01 BMatC= 1.59D-10 BMatP= 6.19D-10
 IDIUse=1 WtCom= 1.00D+00 WtEn= 0.00D+00
 Coeff-Com: -0.131D-04 0.289D-04-0.197D-04-0.140D-03-0.548D-03 0.757D-04
 Coeff-Com:  0.682D-02 0.566D-02-0.180D-01-0.784D-01-0.351D-01 0.395D+00
 Coeff-Com:  0.724D+00
 Coeff:     -0.131D-04 0.289D-04-0.197D-04-0.140D-03-0.548D-03 0.757D-04
 Coeff:      0.682D-02 0.566D-02-0.180D-01-0.784D-01-0.351D-01 0.395D+00
 Coeff:      0.724D+00
 Gap=     0.242 Goal=   None    Shift=    0.000
 RMSDP=1.48D-07 MaxDP=1.07D-05 DE=-1.65D-09 OVMax= 1.13D-05

 Cycle  14  Pass 1  IDiag  1:
 RMSU=  8.00D-08    CP:  6.01D-01  1.57D+00  6.73D-01  8.34D-01  1.01D+00
                    CP:  1.22D+00  1.20D+00  1.43D+00  1.57D+00  1.21D+00
                    CP:  1.47D+00  1.30D+00  1.20D+00
 E= -977.686184293378     Delta-E=       -0.000000000378 Rises=F Damp=F
 DIIS: error= 2.20D-07 at cycle  14 NSaved=  14.
 NSaved=14 IEnMin=14 EnMin= -977.686184293378     IErMin=14 ErrMin= 2.20D-07
 ErrMax= 2.20D-07  0.00D+00 EMaxC= 1.00D-01 BMatC= 1.23D-11 BMatP= 1.59D-10
 IDIUse=1 WtCom= 1.00D+00 WtEn= 0.00D+00
 Coeff-Com: -0.823D-05 0.178D-04 0.116D-04-0.362D-04-0.239D-03-0.195D-03
 Coeff-Com:  0.577D-03 0.135D-02 0.593D-02-0.128D-01-0.367D-01-0.153D-01
 Coeff-Com:  0.147D+00 0.910D+00
 Coeff:     -0.823D-05 0.178D-04 0.116D-04-0.362D-04-0.239D-03-0.195D-03
 Coeff:      0.577D-03 0.135D-02 0.593D-02-0.128D-01-0.367D-01-0.153D-01
 Coeff:      0.147D+00 0.910D+00
 Gap=     0.242 Goal=   None    Shift=    0.000
 RMSDP=6.79D-08 MaxDP=4.27D-06 DE=-3.78D-10 OVMax= 4.43D-06

 Cycle  15  Pass 1  IDiag  1:
 RMSU=  2.68D-08    CP:  6.01D-01  1.57D+00  6.73D-01  8.34D-01  1.01D+00
                    CP:  1.22D+00  1.20D+00  1.43D+00  1.57D+00  1.20D+00
                    CP:  1.49D+00  1.33D+00  1.39D+00  1.24D+00
 E= -977.686184293348     Delta-E=        0.000000000030 Rises=F Damp=F
 DIIS: error= 1.01D-07 at cycle  15 NSaved=  15.
 NSaved=15 IEnMin=14 EnMin= -977.686184293378     IErMin=15 ErrMin= 1.01D-07
 ErrMax= 1.01D-07  0.00D+00 EMaxC= 1.00D-01 BMatC= 2.82D-12 BMatP= 1.23D-11
 IDIUse=1 WtCom= 1.00D+00 WtEn= 0.00D+00
 Coeff-Com: -0.200D-05 0.418D-05 0.791D-05 0.221D-05-0.166D-04-0.917D-04
 Coeff-Com: -0.753D-03-0.450D-03 0.521D-02 0.564D-02-0.936D-02-0.624D-01
 Coeff-Com: -0.608D-01 0.329D+00 0.794D+00
 Coeff:     -0.200D-05 0.418D-05 0.791D-05 0.221D-05-0.166D-04-0.917D-04
 Coeff:     -0.753D-03-0.450D-03 0.521D-02 0.564D-02-0.936D-02-0.624D-01
 Coeff:     -0.608D-01 0.329D+00 0.794D+00
 Gap=     0.242 Goal=   None    Shift=    0.000
 RMSDP=3.07D-08 MaxDP=1.75D-06 DE= 3.00D-11 OVMax= 1.58D-06

 Cycle  16  Pass 1  IDiag  1:
 RMSU=  1.18D-08    CP:  6.01D-01  1.57D+00  6.73D-01  8.34D-01  1.01D+00
                    CP:  1.22D+00  1.20D+00  1.43D+00  1.57D+00  1.20D+00
                    CP:  1.49D+00  1.34D+00  1.46D+00  1.40D+00  1.09D+00
 E= -977.686184293332     Delta-E=        0.000000000016 Rises=F Damp=F
 DIIS: error= 6.00D-08 at cycle  16 NSaved=  16.
 NSaved=16 IEnMin=14 EnMin= -977.686184293378     IErMin=16 ErrMin= 6.00D-08
 ErrMax= 6.00D-08  0.00D+00 EMaxC= 1.00D-01 BMatC= 3.45D-13 BMatP= 2.82D-12
 IDIUse=1 WtCom= 1.00D+00 WtEn= 0.00D+00
 Coeff-Com:  0.157D-06-0.387D-06 0.473D-06 0.491D-05 0.329D-04 0.138D-05
 Coeff-Com: -0.204D-03-0.313D-03 0.269D-03 0.273D-02 0.320D-02-0.639D-02
 Coeff-Com: -0.362D-01-0.929D-01 0.157D+00 0.973D+00
 Coeff:      0.157D-06-0.387D-06 0.473D-06 0.491D-05 0.329D-04 0.138D-05
 Coeff:     -0.204D-03-0.313D-03 0.269D-03 0.273D-02 0.320D-02-0.639D-02
 Coeff:     -0.362D-01-0.929D-01 0.157D+00 0.973D+00
 Gap=     0.242 Goal=   None    Shift=    0.000
 RMSDP=1.15D-08 MaxDP=6.33D-07 DE= 1.64D-11 OVMax= 1.10D-06

 Cycle  17  Pass 1  IDiag  1:
 RMSU=  4.84D-09    CP:  6.01D-01  1.57D+00  6.73D-01  8.34D-01  1.01D+00
                    CP:  1.22D+00  1.20D+00  1.43D+00  1.57D+00  1.20D+00
                    CP:  1.49D+00  1.34D+00  1.47D+00  1.45D+00  1.23D+00
                    CP:  1.16D+00
 E= -977.686184293370     Delta-E=       -0.000000000038 Rises=F Damp=F
 DIIS: error= 1.56D-08 at cycle  17 NSaved=  17.
 NSaved=17 IEnMin=14 EnMin= -977.686184293378     IErMin=17 ErrMin= 1.56D-08
 ErrMax= 1.56D-08  0.00D+00 EMaxC= 1.00D-01 BMatC= 1.13D-13 BMatP= 3.45D-13
 IDIUse=1 WtCom= 1.00D+00 WtEn= 0.00D+00
 Coeff-Com:  0.353D-06-0.765D-06-0.104D-05 0.195D-05 0.202D-04 0.155D-04
 Coeff-Com:  0.153D-04-0.105D-03-0.632D-03 0.587D-03 0.295D-02 0.655D-02
 Coeff-Com: -0.869D-02-0.954D-01-0.514D-01 0.474D+00 0.672D+00
 Coeff:      0.353D-06-0.765D-06-0.104D-05 0.195D-05 0.202D-04 0.155D-04
 Coeff:      0.153D-04-0.105D-03-0.632D-03 0.587D-03 0.295D-02 0.655D-02
 Coeff:     -0.869D-02-0.954D-01-0.514D-01 0.474D+00 0.672D+00
 Gap=     0.242 Goal=   None    Shift=    0.000
 RMSDP=3.62D-09 MaxDP=1.52D-07 DE=-3.82D-11 OVMax= 2.45D-07

 SCF Done:  E(RwB97XD) =  -977.686184293     A.U. after   17 cycles
            NFock= 17  Conv=0.36D-08     -V/T= 2.0045
 KE= 9.732728865110D+02 PE=-5.469132135273D+03 EE= 1.922672545717D+03
 Leave Link  502 at Thu Nov  2 21:18:07 2017, MaxMem=  3758096384 cpu:      3305.1
 (Enter /share/apps/gaussian/g09_D01/g09/l801.exe)
 DoSCS=F DFT=T ScalE2(SS,OS)=  1.000000  1.000000
 ExpMin= 3.60D-02 ExpMax= 8.59D+03 ExpMxC= 1.30D+03 IAcc=3 IRadAn=         5 AccDes= 0.00D+00
 HarFok:  IExCor=  205 AccDes= 0.00D+00 IRadAn=         5 IDoV=-2 UseB2=F ITyADJ=14
 ICtDFT= 12500011 ScaDFX=  1.000000  1.000000  1.000000  1.000000
 Largest valence mixing into a core orbital is  5.70D-05
 Largest core mixing into a valence orbital is  1.73D-05
 Range of M.O.s used for correlation:    23   609
 NBasis=   617 NAE=    79 NBE=    79 NFC=    22 NFV=     0
 NROrb=    587 NOA=    57 NOB=    57 NVA=   530 NVB=   530

 **** Warning!!: The largest alpha MO coefficient is  0.13647203D+03

 Leave Link  801 at Thu Nov  2 21:18:24 2017, MaxMem=  3758096384 cpu:         6.6
 (Enter /share/apps/gaussian/g09_D01/g09/l914.exe)
 RHF ground state
 MDV=  3758096384 DFT=T DoStab=F Mixed=T DoRPA=T DoScal=F NonHer=T
 Would need an additional        105419300000 words for in-memory AO integral storage.
 Making orbital integer symmetry assigments:
     8 initial guesses have been made.
 Convergence on wavefunction:    0.001000000000000
 Davidson Disk Diagonalization:  ConvIn= 1.00D-03 SkipCon=T Conv= 1.00D-03.
 Max sub-space:   200 roots to seek:     8 dimension of matrix:        60420
 Iteration     1 Dimension     8 NMult     0 NNew      8
 CISAX will form     8 AO SS matrices at one time.
 NMat=     8 NSing=     8 JSym2X= 0.
 FoFJK:  IHMeth= 1 ICntrl=       0 DoSepK=T KAlg= 0 I1Cent=   0 FoldK=F
 IRaf=         1 NMat=  16 IRICut=       1 DoRegI=T DoRafI=F ISym2E= 0.
 FoFCou: FMM=F IPFlag=           0 FMFlag=      100000 FMFlg1=           0
         NFxFlg=           0 DoJE=F BraDBF=F KetDBF=F FulRan=T
         wScrn=  0.000000 ICntrl=     500 IOpCl=  0 I1Cent=           0 NGrid=           0
         NMat0=    8 NMatS0=      8 NMatT0=    0 NMatD0=    8 NMtDS0=    0 NMtDT0=    0
 Symmetry not used in FoFCou.
 Excitation Energies [eV] at current iteration:
 Root      1 :     3.924266419400037
 Root      2 :     4.720847487309429
 Root      3 :     5.415497687896124
 Root      4 :     5.503350061840228
 Root      5 :     5.691698234419368
 Root      6 :     5.944878742276532
 Root      7 :     6.151969065384232
 Root      8 :     7.040806643857890
 Iteration     2 Dimension    12 NMult     8 NNew      4
 CISAX will form     4 AO SS matrices at one time.
 NMat=     4 NSing=     4 JSym2X= 0.
 Root      1 not converged, maximum delta is    0.089693451479384
 Root      2 not converged, maximum delta is    0.076307700422766
 Excitation Energies [eV] at current iteration:
 Root      1 :     3.410546961736023   Change is   -0.513719457664014
 Root      2 :     4.115713407542935   Change is   -0.605134079766495
 Iteration     3 Dimension    16 NMult    12 NNew      4
 CISAX will form     4 AO SS matrices at one time.
 NMat=     4 NSing=     4 JSym2X= 0.
 Root      1 not converged, maximum delta is    0.019891362625704
 Root      2 not converged, maximum delta is    0.034335291739250
 Excitation Energies [eV] at current iteration:
 Root      1 :     3.366884016959319   Change is   -0.043662944776705
 Root      2 :     4.050413011196661   Change is   -0.065300396346273
 Iteration     4 Dimension    20 NMult    16 NNew      4
 CISAX will form     4 AO SS matrices at one time.
 NMat=     4 NSing=     4 JSym2X= 0.
 Root      1 not converged, maximum delta is    0.009077210935685
 Root      2 not converged, maximum delta is    0.019233172265127
 Excitation Energies [eV] at current iteration:
 Root      1 :     3.359526791465838   Change is   -0.007357225493481
 Root      2 :     4.032264273830978   Change is   -0.018148737365684
 Iteration     5 Dimension    24 NMult    20 NNew      4
 CISAX will form     4 AO SS matrices at one time.
 NMat=     4 NSing=     4 JSym2X= 0.
 Root      1 not converged, maximum delta is    0.003647470901073
 Root      2 not converged, maximum delta is    0.005167827649367
 Excitation Energies [eV] at current iteration:
 Root      1 :     3.358602353451435   Change is   -0.000924438014403
 Root      2 :     4.029789370723350   Change is   -0.002474903107628
 Iteration     6 Dimension    28 NMult    24 NNew      4
 CISAX will form     4 AO SS matrices at one time.
 NMat=     4 NSing=     4 JSym2X= 0.
 Root      1 not converged, maximum delta is    0.001126050639350
 Root      2 not converged, maximum delta is    0.003246380821612
 Excitation Energies [eV] at current iteration:
 Root      1 :     3.358492401228516   Change is   -0.000109952222919
 Root      2 :     4.029346213541467   Change is   -0.000443157181883
 Iteration     7 Dimension    32 NMult    28 NNew      4
 CISAX will form     4 AO SS matrices at one time.
 NMat=     4 NSing=     4 JSym2X= 0.
 Root      1 has converged.
 Root      2 not converged, maximum delta is    0.006246780860348
 Excitation Energies [eV] at current iteration:
 Root      1 :     3.358478148229655   Change is   -0.000014252998862
 Root      2 :     4.029167761579832   Change is   -0.000178451961635
 Iteration     8 Dimension    34 NMult    32 NNew      2
 CISAX will form     2 AO SS matrices at one time.
 NMat=     2 NSing=     2 JSym2X= 0.
 Root      1 has converged.
 Root      2 not converged, maximum delta is    0.061222327364052
 Excitation Energies [eV] at current iteration:
 Root      1 :     3.358477794858856   Change is   -0.000000353370798
 Root      2 :     4.028119287328484   Change is   -0.001048474251349
 Iteration     9 Dimension    36 NMult    34 NNew      2
 CISAX will form     2 AO SS matrices at one time.
 NMat=     2 NSing=     2 JSym2X= 0.
 Root      1 has converged.
 Root      2 not converged, maximum delta is    0.556448733914607
 Excitation Energies [eV] at current iteration:
 Root      1 :     3.358477500572399   Change is   -0.000000294286457
 Root      2 :     3.970952091961052   Change is   -0.057167195367432
 Iteration    10 Dimension    38 NMult    36 NNew      2
 CISAX will form     2 AO SS matrices at one time.
 NMat=     2 NSing=     2 JSym2X= 0.
 Root      1 has converged.
 Root      2 not converged, maximum delta is    0.036395839945932
 Excitation Energies [eV] at current iteration:
 Root      1 :     3.358477363428792   Change is   -0.000000137143607
 Root      2 :     3.943621248975955   Change is   -0.027330842985097
 Iteration    11 Dimension    40 NMult    38 NNew      2
 CISAX will form     2 AO SS matrices at one time.
 NMat=     2 NSing=     2 JSym2X= 0.
 Root      1 has converged.
 Root      2 not converged, maximum delta is    0.022600922984445
 Excitation Energies [eV] at current iteration:
 Root      1 :     3.358477160977778   Change is   -0.000000202451013
 Root      2 :     3.937062384876157   Change is   -0.006558864099798
 Iteration    12 Dimension    42 NMult    40 NNew      2
 CISAX will form     2 AO SS matrices at one time.
 NMat=     2 NSing=     2 JSym2X= 0.
 Root      1 has converged.
 Root      2 not converged, maximum delta is    0.014285795378237
 Excitation Energies [eV] at current iteration:
 Root      1 :     3.358476962679087   Change is   -0.000000198298692
 Root      2 :     3.934919775902578   Change is   -0.002142608973579
 Iteration    13 Dimension    44 NMult    42 NNew      2
 CISAX will form     2 AO SS matrices at one time.
 NMat=     2 NSing=     2 JSym2X= 0.
 Root      1 has converged.
 Root      2 not converged, maximum delta is    0.007728050735085
 Excitation Energies [eV] at current iteration:
 Root      1 :     3.358476713876915   Change is   -0.000000248802172
 Root      2 :     3.934411258154848   Change is   -0.000508517747730
 Iteration    14 Dimension    46 NMult    44 NNew      2
 CISAX will form     2 AO SS matrices at one time.
 NMat=     2 NSing=     2 JSym2X= 0.
 Root      1 has converged.
 Root      2 not converged, maximum delta is    0.002592862119693
 Excitation Energies [eV] at current iteration:
 Root      1 :     3.358476587074996   Change is   -0.000000126801919
 Root      2 :     3.934326020788306   Change is   -0.000085237366542
 Iteration    15 Dimension    48 NMult    46 NNew      2
 CISAX will form     2 AO SS matrices at one time.
 NMat=     2 NSing=     2 JSym2X= 0.
 Root      1 has converged.
 Root      2 has converged.
 Excitation Energies [eV] at current iteration:
 Root      1 :     3.358476457386941   Change is   -0.000000129688055
 Root      2 :     3.934312261086697   Change is   -0.000013759701610
 Convergence achieved on expansion vectors.
 ***********************************************************************
 Excited states from <AA,BB:AA,BB> singles matrix:
 ***********************************************************************
 
 1PDM for each excited state written to RWF  633
 Ground to excited state transition densities written to RWF  633
 Ground to excited state transition electric dipole moments (Au):
       state          X           Y           Z        Dip. S.      Osc.
         1        -0.7416     -0.9348     -3.8219     16.0304      1.3190
         2         0.0067      0.0348     -0.0740      0.0067      0.0006
 Ground to excited state transition velocity dipole moments (Au):
       state          X           Y           Z        Dip. S.      Osc.
         1         0.0877      0.1116      0.4653      0.2367      1.2785
         2         0.0005     -0.0064      0.0108      0.0002      0.0007
 Ground to excited state transition magnetic dipole moments (Au):
       state          X           Y           Z
         1        -5.4151      1.8416      0.5750
         2        -0.3600     -0.1403      0.2399
 Ground to excited state transition velocity quadrupole moments (Au):
       state          XX          YY          ZZ          XY          XZ          YZ
         1        -0.0195     -1.8226      6.2255     -0.7163      0.4069     -3.1087
         2        -0.0379      0.1289     -0.0580     -0.0006     -0.0276     -0.2162
 <0|del|b> * <b|rxdel|0> + <0|del|b> * <b|delr+rdel|0>
 Rotatory Strengths (R) in cgs (10**-40 erg-esu-cm/Gauss)
       state          XX          YY          ZZ    R(velocity)    E-M Angle
         1       270.3247   -421.2706    139.1390     -3.9356       90.04
         2         8.0659      5.6214      2.4300      5.3724       54.68
 1/2[<0|r|b>*<b|rxdel|0> + (<0|rxdel|b>*<b|r|0>)*]
 Rotatory Strengths (R) in cgs (10**-40 erg-esu-cm/Gauss)
       state          XX          YY          ZZ     R(length)
         1     -2839.7876   1217.4211   1553.9698    -22.7989
         2         1.7057      3.4555     12.5485      5.9032
  1/2[<0|del|b>*<b|r|0> + (<0|r|b>*<b|del|0>)*] (Au)
       state          X           Y           Z        Dip. S.   Osc.(frdel)
         1        -0.0651     -0.1043     -1.7784      1.9478      1.2986
         2         0.0000     -0.0002     -0.0008      0.0010      0.0007

 Excitation energies and oscillator strengths:
 
 Excited state symmetry could not be determined.
 Excited State   1:      Singlet-?Sym    3.3585 eV  369.17 nm  f=1.3190  <S**2>=0.000
      74 -> 80        -0.10093
      78 -> 80        -0.11366
      78 -> 82         0.11915
      79 -> 80         0.66826
 This state for optimization and/or second-order correction.
 Total Energy, E(TD-HF/TD-KS) =  -977.562762549    
 Copying the excited state density for this state as the 1-particle RhoCI density.
 
 Excited state symmetry could not be determined.
 Excited State   2:      Singlet-?Sym    3.9343 eV  315.14 nm  f=0.0006  <S**2>=0.000
      76 -> 80         0.66293
      76 -> 82        -0.13678
 SavETr:  write IOETrn=   770 NScale= 10 NData=  16 NLR=1 NState=    2 LETran=      46.
 Leave Link  914 at Thu Nov  2 22:03:53 2017, MaxMem=  3758096384 cpu:     10680.3
 (Enter /share/apps/gaussian/g09_D01/g09/l601.exe)
 Copying SCF densities to generalized density rwf, IOpCl= 0 IROHF=0.

 **********************************************************************

            Population analysis using the SCF density.

 **********************************************************************

 Alpha  occ. eigenvalues --  -19.28790 -19.24001 -19.22960 -14.47596 -10.37759
 Alpha  occ. eigenvalues --  -10.36174 -10.35710 -10.35174 -10.34361 -10.33530
 Alpha  occ. eigenvalues --  -10.33483 -10.31341 -10.30545 -10.30480 -10.30247
 Alpha  occ. eigenvalues --  -10.29812 -10.29731 -10.29510 -10.28930 -10.28695
 Alpha  occ. eigenvalues --  -10.28072 -10.28001  -1.17883  -1.14743  -1.10709
 Alpha  occ. eigenvalues --   -1.07954  -0.96949  -0.95494  -0.90806  -0.87432
 Alpha  occ. eigenvalues --   -0.86943  -0.84849  -0.84530  -0.84017  -0.81052
 Alpha  occ. eigenvalues --   -0.78678  -0.73591  -0.71720  -0.70931  -0.69905
 Alpha  occ. eigenvalues --   -0.67804  -0.64483  -0.63357  -0.62294  -0.61125
 Alpha  occ. eigenvalues --   -0.59010  -0.58854  -0.57677  -0.56818  -0.56464
 Alpha  occ. eigenvalues --   -0.55422  -0.54299  -0.54016  -0.53155  -0.52506
 Alpha  occ. eigenvalues --   -0.51383  -0.51260  -0.51066  -0.50586  -0.49845
 Alpha  occ. eigenvalues --   -0.49142  -0.48483  -0.48047  -0.47252  -0.46825
 Alpha  occ. eigenvalues --   -0.46557  -0.45577  -0.44426  -0.43265  -0.42460
 Alpha  occ. eigenvalues --   -0.41804  -0.41125  -0.39263  -0.34904  -0.34731
 Alpha  occ. eigenvalues --   -0.33947  -0.31498  -0.29265  -0.26664
 Alpha virt. eigenvalues --   -0.02445   0.02706   0.03861   0.03975   0.04394
 Alpha virt. eigenvalues --    0.04658   0.04764   0.05530   0.06168   0.06490
 Alpha virt. eigenvalues --    0.06633   0.06929   0.07534   0.07933   0.08130
 Alpha virt. eigenvalues --    0.08193   0.08662   0.09274   0.09827   0.10041
 Alpha virt. eigenvalues --    0.10205   0.10942   0.11121   0.11749   0.11842
 Alpha virt. eigenvalues --    0.12322   0.12972   0.13260   0.13727   0.14178
 Alpha virt. eigenvalues --    0.14413   0.14526   0.14748   0.14894   0.15506
 Alpha virt. eigenvalues --    0.15859   0.16018   0.16567   0.16687   0.16727
 Alpha virt. eigenvalues --    0.16955   0.17117   0.17476   0.17557   0.18172
 Alpha virt. eigenvalues --    0.18584   0.18770   0.19197   0.19397   0.19522
 Alpha virt. eigenvalues --    0.19664   0.20150   0.20487   0.20844   0.20980
 Alpha virt. eigenvalues --    0.21245   0.21444   0.21815   0.21936   0.22025
 Alpha virt. eigenvalues --    0.22238   0.22606   0.22764   0.22982   0.23399
 Alpha virt. eigenvalues --    0.23744   0.23872   0.24059   0.24272   0.24730
 Alpha virt. eigenvalues --    0.25117   0.25268   0.25622   0.25665   0.25994
 Alpha virt. eigenvalues --    0.26618   0.26813   0.27096   0.27403   0.27805
 Alpha virt. eigenvalues --    0.28279   0.28423   0.28609   0.28970   0.29346
 Alpha virt. eigenvalues --    0.29749   0.30268   0.30563   0.30893   0.31239
 Alpha virt. eigenvalues --    0.31316   0.31786   0.31829   0.32218   0.32492
 Alpha virt. eigenvalues --    0.32846   0.33335   0.33825   0.34527   0.34588
 Alpha virt. eigenvalues --    0.34676   0.35179   0.35453   0.35942   0.36632
 Alpha virt. eigenvalues --    0.36993   0.37277   0.37390   0.37535   0.37840
 Alpha virt. eigenvalues --    0.37996   0.38464   0.38686   0.39014   0.39446
 Alpha virt. eigenvalues --    0.39779   0.39822   0.40595   0.41023   0.41480
 Alpha virt. eigenvalues --    0.42252   0.42340   0.42656   0.42977   0.43274
 Alpha virt. eigenvalues --    0.43497   0.44303   0.45104   0.45432   0.45668
 Alpha virt. eigenvalues --    0.46298   0.47292   0.47887   0.48415   0.49587
 Alpha virt. eigenvalues --    0.50188   0.50428   0.51216   0.51721   0.52385
 Alpha virt. eigenvalues --    0.52618   0.53197   0.54220   0.55082   0.55782
 Alpha virt. eigenvalues --    0.56437   0.56770   0.58629   0.60086   0.60396
 Alpha virt. eigenvalues --    0.61114   0.61865   0.62115   0.62354   0.62821
 Alpha virt. eigenvalues --    0.63615   0.64012   0.64424   0.64838   0.65322
 Alpha virt. eigenvalues --    0.66553   0.66914   0.67009   0.67452   0.67840
 Alpha virt. eigenvalues --    0.68314   0.68605   0.69269   0.69743   0.71341
 Alpha virt. eigenvalues --    0.71602   0.71986   0.72240   0.72543   0.72751
 Alpha virt. eigenvalues --    0.72922   0.73239   0.73388   0.73960   0.74746
 Alpha virt. eigenvalues --    0.75190   0.76215   0.76473   0.76546   0.77064
 Alpha virt. eigenvalues --    0.77577   0.78011   0.78584   0.79075   0.79345
 Alpha virt. eigenvalues --    0.79533   0.80187   0.80686   0.81255   0.82445
 Alpha virt. eigenvalues --    0.83368   0.83574   0.84157   0.85027   0.85871
 Alpha virt. eigenvalues --    0.86752   0.87706   0.88183   0.89448   0.90446
 Alpha virt. eigenvalues --    0.90950   0.91687   0.92648   0.94417   0.94735
 Alpha virt. eigenvalues --    0.95499   0.96084   0.97158   0.97414   0.97549
 Alpha virt. eigenvalues --    0.98513   0.99181   0.99586   1.00201   1.01232
 Alpha virt. eigenvalues --    1.01627   1.03208   1.03467   1.04353   1.05071
 Alpha virt. eigenvalues --    1.05615   1.05711   1.06026   1.06889   1.07387
 Alpha virt. eigenvalues --    1.07835   1.08732   1.08854   1.09490   1.10286
 Alpha virt. eigenvalues --    1.10446   1.10683   1.11867   1.13724   1.14024
 Alpha virt. eigenvalues --    1.14885   1.15032   1.15621   1.15848   1.16416
 Alpha virt. eigenvalues --    1.17591   1.18688   1.19095   1.20054   1.20885
 Alpha virt. eigenvalues --    1.21482   1.22310   1.23636   1.24060   1.26059
 Alpha virt. eigenvalues --    1.27463   1.30465   1.32322   1.33598   1.34349
 Alpha virt. eigenvalues --    1.35653   1.36696   1.37836   1.38413   1.39163
 Alpha virt. eigenvalues --    1.39929   1.41205   1.42240   1.47297   1.48058
 Alpha virt. eigenvalues --    1.48562   1.51089   1.51307   1.52125   1.52818
 Alpha virt. eigenvalues --    1.53926   1.54227   1.55954   1.56544   1.57584
 Alpha virt. eigenvalues --    1.58253   1.59429   1.60484   1.61507   1.61880
 Alpha virt. eigenvalues --    1.62337   1.62714   1.62983   1.63166   1.63591
 Alpha virt. eigenvalues --    1.64274   1.64389   1.65094   1.65455   1.65801
 Alpha virt. eigenvalues --    1.67806   1.68152   1.68548   1.69011   1.69142
 Alpha virt. eigenvalues --    1.69525   1.70677   1.74403   1.75835   1.76251
 Alpha virt. eigenvalues --    1.77446   1.78141   1.78464   1.79571   1.80065
 Alpha virt. eigenvalues --    1.80407   1.80544   1.80855   1.81367   1.82052
 Alpha virt. eigenvalues --    1.82861   1.84221   1.84839   1.85065   1.86560
 Alpha virt. eigenvalues --    1.88174   1.88754   1.89495   1.91435   1.93259
 Alpha virt. eigenvalues --    1.93674   1.94010   1.95264   1.96556   1.97437
 Alpha virt. eigenvalues --    1.98180   1.99775   2.00560   2.01267   2.01859
 Alpha virt. eigenvalues --    2.02572   2.03685   2.04460   2.04776   2.05477
 Alpha virt. eigenvalues --    2.06687   2.07493   2.07754   2.08762   2.09137
 Alpha virt. eigenvalues --    2.10181   2.12511   2.14130   2.14200   2.15188
 Alpha virt. eigenvalues --    2.15532   2.16402   2.17613   2.18769   2.19146
 Alpha virt. eigenvalues --    2.19671   2.20818   2.21512   2.23158   2.23764
 Alpha virt. eigenvalues --    2.25058   2.25749   2.28334   2.29119   2.29550
 Alpha virt. eigenvalues --    2.31713   2.36160   2.36791   2.37043   2.40030
 Alpha virt. eigenvalues --    2.40994   2.42872   2.43457   2.43790   2.47817
 Alpha virt. eigenvalues --    2.48335   2.49400   2.50318   2.52874   2.54106
 Alpha virt. eigenvalues --    2.54726   2.55131   2.55669   2.56940   2.57029
 Alpha virt. eigenvalues --    2.57724   2.58639   2.61336   2.61650   2.63668
 Alpha virt. eigenvalues --    2.65089   2.65355   2.68233   2.68736   2.70515
 Alpha virt. eigenvalues --    2.71194   2.72881   2.74222   2.74903   2.76711
 Alpha virt. eigenvalues --    2.76884   2.77928   2.78445   2.79325   2.79674
 Alpha virt. eigenvalues --    2.81476   2.82389   2.82791   2.82951   2.83793
 Alpha virt. eigenvalues --    2.84736   2.85631   2.86590   2.87046   2.88582
 Alpha virt. eigenvalues --    2.90164   2.90348   2.91070   2.91338   2.91991
 Alpha virt. eigenvalues --    2.94007   2.94591   2.95625   2.96261   2.97483
 Alpha virt. eigenvalues --    2.98167   3.00293   3.01201   3.01833   3.02832
 Alpha virt. eigenvalues --    3.03873   3.05006   3.07076   3.07652   3.09195
 Alpha virt. eigenvalues --    3.13346   3.13742   3.17909   3.18163   3.19028
 Alpha virt. eigenvalues --    3.20653   3.21899   3.22553   3.23142   3.23817
 Alpha virt. eigenvalues --    3.27091   3.29741   3.31232   3.31914   3.33119
 Alpha virt. eigenvalues --    3.34570   3.35557   3.38272   3.39193   3.42389
 Alpha virt. eigenvalues --    3.44854   3.46199   3.47674   3.50096   3.54415
 Alpha virt. eigenvalues --    3.57586   3.60758   3.61069   3.62109   3.64176
 Alpha virt. eigenvalues --    3.66466   3.67374   3.71998   3.75929   3.76365
 Alpha virt. eigenvalues --    3.78030   3.78156   3.78787   3.79904   3.85762
 Alpha virt. eigenvalues --    3.86351   3.88602   3.90304   3.92528   3.93073
 Alpha virt. eigenvalues --    4.02806   4.05566   4.08323   4.09845   4.13017
 Alpha virt. eigenvalues --    4.16753   4.18563   4.26568   4.27374   4.29040
 Alpha virt. eigenvalues --    4.31303   4.34725   4.38458   4.54379   4.79111
 Alpha virt. eigenvalues --    4.93268   4.94386   5.00680   5.14230   5.15693
 Alpha virt. eigenvalues --    5.18229   5.19257   5.37237   5.49866   5.66201
 Alpha virt. eigenvalues --    5.83533   5.90529   5.98399  23.72407  23.80136
 Alpha virt. eigenvalues --   23.94686  24.02163  24.03219  24.03543  24.04003
 Alpha virt. eigenvalues --   24.04501  24.06627  24.08378  24.09438  24.12610
 Alpha virt. eigenvalues --   24.14219  24.23187  24.25457  24.29013  24.30862
 Alpha virt. eigenvalues --   24.31244  35.74459  50.09933  50.14393  50.18682
          Condensed to atoms (all electrons):
               1          2          3          4          5          6
     1  C   11.326190   0.273711   0.638373  -0.209113  -0.121179  -0.167868
     2  N    0.273711   7.003022  -0.317944  -0.233112   0.298975   0.315108
     3  C    0.638373  -0.317944   8.673660  -1.608890   0.072892  -0.121398
     4  C   -0.209113  -0.233112  -1.608890  10.136578  -0.147864   0.202215
     5  C   -0.121179   0.298975   0.072892  -0.147864   5.223035  -0.110458
     6  C   -0.167868   0.315108  -0.121398   0.202215  -0.110458   5.260634
     7  H   -0.251932  -0.034769   0.378292  -0.008787   0.009525  -0.003906
     8  C   -1.396190  -0.030688   1.634199  -1.729672  -0.010255  -0.058958
     9  H   -0.066880  -0.036308  -0.011701   0.489037  -0.003289   0.012664
    10  C   -1.917332   0.060376  -1.288721   0.826861  -0.035161  -0.053745
    11  H    0.064489  -0.056908   0.005310  -0.013443   0.409071   0.000087
    12  H   -0.017404  -0.048726   0.015155   0.009725   0.401789  -0.014675
    13  H   -0.039391  -0.055707   0.036777  -0.007396   0.425157  -0.000647
    14  H   -0.037248  -0.050455  -0.013161   0.035220  -0.006095   0.432575
    15  H   -0.005973  -0.046827   0.020485   0.016804  -0.011029   0.397264
    16  H    0.006213  -0.060513  -0.002616   0.002539   0.005289   0.407129
    17  C   -1.225130  -0.036152  -0.941947  -2.556925  -0.011335  -0.131234
    18  H    0.201992  -0.001349   0.080130  -0.037052   0.004786   0.000065
    19  H    0.032402  -0.000898  -0.004572  -0.032837  -0.000745   0.003621
    20  C   -0.393062  -0.004240  -0.221858   0.448352  -0.004674   0.021717
    21  H   -0.001674  -0.000516   0.009475   0.036372   0.000414  -0.000841
    22  C   -0.184943  -0.000456  -0.693402   0.640113   0.004403  -0.003750
    23  C   -0.003351   0.000325   0.030676   0.018981  -0.000162   0.001312
    24  H   -0.064890  -0.000905  -0.157822   0.048667  -0.001011  -0.000030
    25  C    0.072797  -0.000153   0.220780  -0.116286   0.000254  -0.000394
    26  O   -0.000758   0.000000   0.002306  -0.005594   0.000006   0.000002
    27  C    0.017355  -0.000032   0.033371  -0.020707  -0.000119   0.000012
    28  C   -0.026387   0.000092  -0.098011   0.067598  -0.000269   0.000118
    29  H   -0.000075   0.000001   0.000346  -0.000093   0.000000  -0.000002
    30  C    0.000624  -0.000001  -0.003322  -0.000787  -0.000008  -0.000001
    31  O   -0.000045   0.000000   0.000201  -0.000291   0.000000   0.000000
    32  C   -0.002004   0.000019  -0.008718   0.005498  -0.000030   0.000006
    33  H    0.000407   0.000044   0.001544   0.000415   0.000004   0.000010
    34  H    0.000019   0.000000   0.000054  -0.000036   0.000000   0.000000
    35  C   -0.000864   0.000001  -0.006693   0.001802  -0.000003   0.000002
    36  H    0.000284  -0.000001   0.001282  -0.000145   0.000002   0.000000
    37  O    0.000000   0.000000   0.000004   0.000000   0.000000   0.000000
    38  C   -0.000001   0.000000  -0.000020   0.000003   0.000000   0.000000
    39  H    0.000000   0.000000   0.000001   0.000000   0.000000   0.000000
    40  H    0.000000   0.000000  -0.000002   0.000000   0.000000   0.000000
    41  H    0.000000   0.000000  -0.000002   0.000001   0.000000   0.000000
               7          8          9         10         11         12
     1  C   -0.251932  -1.396190  -0.066880  -1.917332   0.064489  -0.017404
     2  N   -0.034769  -0.030688  -0.036308   0.060376  -0.056908  -0.048726
     3  C    0.378292   1.634199  -0.011701  -1.288721   0.005310   0.015155
     4  C   -0.008787  -1.729672   0.489037   0.826861  -0.013443   0.009725
     5  C    0.009525  -0.010255  -0.003289  -0.035161   0.409071   0.401789
     6  C   -0.003906  -0.058958   0.012664  -0.053745   0.000087  -0.014675
     7  H    0.542531   0.065346   0.000637  -0.049238  -0.011891   0.005973
     8  C    0.065346   9.414227  -0.015578  -0.859724  -0.032787   0.001556
     9  H    0.000637  -0.015578   0.510858  -0.004293  -0.001195   0.001882
    10  C   -0.049238  -0.859724  -0.004293   9.986206  -0.001588   0.009044
    11  H   -0.011891  -0.032787  -0.001195  -0.001588   0.579169  -0.024687
    12  H    0.005973   0.001556   0.001882   0.009044  -0.024687   0.513371
    13  H   -0.012252   0.007665  -0.000093  -0.003868  -0.059590  -0.022024
    14  H   -0.000386  -0.007731  -0.009213   0.007747   0.002190  -0.003173
    15  H    0.002791   0.005107   0.006288  -0.015788  -0.001163   0.013036
    16  H   -0.000717  -0.000493  -0.009150  -0.007744  -0.003305  -0.000180
    17  C    0.109734   0.668735  -0.036938  -0.025651  -0.014928   0.004781
    18  H   -0.045883   0.375199   0.000874   0.058772   0.001923   0.000114
    19  H    0.000196  -0.013862  -0.012480   0.308879  -0.000057  -0.000180
    20  C    0.041461  -0.130317   0.000238  -0.924780  -0.001796  -0.001231
    21  H    0.000889  -0.006788   0.001987   0.044558   0.000027   0.000010
    22  C    0.034046  -1.137416  -0.009900   0.015791  -0.000481   0.000171
    23  C    0.000081  -0.600394   0.003601   0.088876  -0.000066   0.000022
    24  H    0.013740  -0.108207  -0.000361   0.015563  -0.000292  -0.000058
    25  C   -0.009959   0.447350  -0.000803  -0.106122   0.000152   0.000021
    26  O    0.000010   0.023201   0.000037  -0.028318  -0.000001   0.000000
    27  C   -0.002612   0.328280  -0.000271  -0.039751   0.000030  -0.000007
    28  C    0.003795  -0.349352   0.000202   0.151661  -0.000071  -0.000014
    29  H   -0.000024  -0.003782   0.000004   0.002536   0.000000   0.000000
    30  C   -0.000169   0.041907  -0.000054   0.000299   0.000003  -0.000001
    31  O   -0.000001   0.000758  -0.000001  -0.001130   0.000000   0.000000
    32  C   -0.000107  -0.053537  -0.000016   0.023859  -0.000017  -0.000001
    33  H    0.000039   0.005341  -0.000035   0.003375   0.000029  -0.000003
    34  H   -0.000005   0.000834  -0.000001  -0.000025   0.000000   0.000000
    35  C    0.000180  -0.011694   0.000002   0.008219  -0.000001   0.000000
    36  H   -0.000071   0.000073   0.000000  -0.000443   0.000000   0.000000
    37  O    0.000000  -0.000016   0.000000  -0.000004   0.000000   0.000000
    38  C    0.000000  -0.000024   0.000000   0.000040   0.000000   0.000000
    39  H    0.000000  -0.000010   0.000000   0.000000   0.000000   0.000000
    40  H    0.000000  -0.000004   0.000000   0.000001   0.000000   0.000000
    41  H    0.000000  -0.000011   0.000000   0.000005   0.000000   0.000000
              13         14         15         16         17         18
     1  C   -0.039391  -0.037248  -0.005973   0.006213  -1.225130   0.201992
     2  N   -0.055707  -0.050455  -0.046827  -0.060513  -0.036152  -0.001349
     3  C    0.036777  -0.013161   0.020485  -0.002616  -0.941947   0.080130
     4  C   -0.007396   0.035220   0.016804   0.002539  -2.556925  -0.037052
     5  C    0.425157  -0.006095  -0.011029   0.005289  -0.011335   0.004786
     6  C   -0.000647   0.432575   0.397264   0.407129  -0.131234   0.000065
     7  H   -0.012252  -0.000386   0.002791  -0.000717   0.109734  -0.045883
     8  C    0.007665  -0.007731   0.005107  -0.000493   0.668735   0.375199
     9  H   -0.000093  -0.009213   0.006288  -0.009150  -0.036938   0.000874
    10  C   -0.003868   0.007747  -0.015788  -0.007744  -0.025651   0.058772
    11  H   -0.059590   0.002190  -0.001163  -0.003305  -0.014928   0.001923
    12  H   -0.022024  -0.003173   0.013036  -0.000180   0.004781   0.000114
    13  H    0.543149  -0.000783  -0.003160   0.001595  -0.001413   0.001972
    14  H   -0.000783   0.554252  -0.018788  -0.064014   0.003477  -0.000174
    15  H   -0.003160  -0.018788   0.507429  -0.022953  -0.004598  -0.000594
    16  H    0.001595  -0.064014  -0.022953   0.567142   0.007276   0.000225
    17  C   -0.001413   0.003477  -0.004598   0.007276  10.744472  -0.107447
    18  H    0.001972  -0.000174  -0.000594   0.000225  -0.107447   0.599589
    19  H   -0.000066   0.000656  -0.000101   0.000664  -0.037835  -0.001900
    20  C   -0.000233  -0.000669   0.002725  -0.002482  -0.147366  -0.085669
    21  H    0.000007  -0.000117  -0.000003  -0.000111  -0.141152  -0.001468
    22  C   -0.000349  -0.000285   0.000188   0.000624  -1.287582  -0.171631
    23  C   -0.000058  -0.000019  -0.000005  -0.000074   0.595606  -0.028298
    24  H   -0.000289   0.000005   0.000071  -0.000031   0.013335  -0.055101
    25  C    0.000050   0.000051  -0.000038   0.000055   0.033911   0.067875
    26  O   -0.000001  -0.000001   0.000000  -0.000001   0.062894   0.002626
    27  C    0.000024   0.000009   0.000000   0.000001  -0.065866   0.033898
    28  C   -0.000001  -0.000025   0.000014   0.000003  -0.088745  -0.041562
    29  H    0.000000   0.000000   0.000000   0.000001  -0.001579   0.000098
    30  C    0.000002   0.000001   0.000000   0.000000  -0.070586   0.001209
    31  O    0.000000   0.000000   0.000000   0.000000  -0.001453   0.000156
    32  C    0.000009  -0.000002   0.000001   0.000002  -0.014747   0.004157
    33  H    0.000009   0.000001   0.000001   0.000000  -0.013267  -0.007781
    34  H    0.000000   0.000000   0.000000   0.000000  -0.000888   0.000078
    35  C    0.000000   0.000000   0.000000   0.000000  -0.006171  -0.004163
    36  H    0.000000   0.000000   0.000000   0.000000  -0.000479   0.000735
    37  O    0.000000   0.000000   0.000000   0.000000   0.000007   0.000015
    38  C    0.000000   0.000000   0.000000   0.000000  -0.000291  -0.000025
    39  H    0.000000   0.000000   0.000000   0.000000   0.000038  -0.000002
    40  H    0.000000   0.000000   0.000000   0.000000  -0.000014  -0.000003
    41  H    0.000000   0.000000   0.000000   0.000000   0.000004   0.000000
              19         20         21         22         23         24
     1  C    0.032402  -0.393062  -0.001674  -0.184943  -0.003351  -0.064890
     2  N   -0.000898  -0.004240  -0.000516  -0.000456   0.000325  -0.000905
     3  C   -0.004572  -0.221858   0.009475  -0.693402   0.030676  -0.157822
     4  C   -0.032837   0.448352   0.036372   0.640113   0.018981   0.048667
     5  C   -0.000745  -0.004674   0.000414   0.004403  -0.000162  -0.001011
     6  C    0.003621   0.021717  -0.000841  -0.003750   0.001312  -0.000030
     7  H    0.000196   0.041461   0.000889   0.034046   0.000081   0.013740
     8  C   -0.013862  -0.130317  -0.006788  -1.137416  -0.600394  -0.108207
     9  H   -0.012480   0.000238   0.001987  -0.009900   0.003601  -0.000361
    10  C    0.308879  -0.924780   0.044558   0.015791   0.088876   0.015563
    11  H   -0.000057  -0.001796   0.000027  -0.000481  -0.000066  -0.000292
    12  H   -0.000180  -0.001231   0.000010   0.000171   0.000022  -0.000058
    13  H   -0.000066  -0.000233   0.000007  -0.000349  -0.000058  -0.000289
    14  H    0.000656  -0.000669  -0.000117  -0.000285  -0.000019   0.000005
    15  H   -0.000101   0.002725  -0.000003   0.000188  -0.000005   0.000071
    16  H    0.000664  -0.002482  -0.000111   0.000624  -0.000074  -0.000031
    17  C   -0.037835  -0.147366  -0.141152  -1.287582   0.595606   0.013335
    18  H   -0.001900  -0.085669  -0.001468  -0.171631  -0.028298  -0.055101
    19  H    0.486073   0.048097  -0.003189   0.010578  -0.001865   0.000329
    20  C    0.048097   6.984296   0.348328   0.717945  -0.953638  -0.008993
    21  H   -0.003189   0.348328   0.461048   0.016742   0.018706   0.007167
    22  C    0.010578   0.717945   0.016742  10.044294   0.052204   0.776670
    23  C   -0.001865  -0.953638   0.018706   0.052204   9.439098   0.118270
    24  H    0.000329  -0.008993   0.007167   0.776670   0.118270   0.881513
    25  C    0.003027   0.185995  -0.041231  -1.610356   0.216678  -0.231564
    26  O    0.000639   0.122641  -0.000480  -0.403277   0.676717  -0.008336
    27  C    0.001582   0.350846   0.003147   0.044708  -3.245627  -0.104240
    28  C   -0.001193  -0.569403   0.003433  -0.361748   0.538365   0.133375
    29  H    0.000018  -0.018541   0.000080  -0.002086   0.037463   0.001397
    30  C    0.000265   0.165078   0.002807   0.313209  -0.125884  -0.015512
    31  O    0.000082   0.052134  -0.002023  -0.055507  -0.083414   0.000162
    32  C    0.000047  -0.109541  -0.002817  -0.953581  -1.034441  -0.042566
    33  H    0.000213  -0.003571   0.001824   0.013847  -0.026506  -0.033579
    34  H    0.000015   0.003582  -0.000112  -0.002533  -0.033147  -0.001778
    35  C   -0.000142  -0.012153   0.001721   0.035670   0.274059   0.030153
    36  H    0.000003   0.000349  -0.000203  -0.010166  -0.016511   0.004215
    37  O    0.000000   0.000114   0.000008  -0.002700   0.006007  -0.000160
    38  C    0.000000   0.000997   0.000007  -0.004284   0.034811   0.000648
    39  H    0.000000  -0.000125   0.000003   0.000474   0.000869   0.000011
    40  H    0.000000   0.000028  -0.000001  -0.000105   0.001607   0.000035
    41  H    0.000000  -0.000076   0.000006  -0.000451   0.001403   0.000017
              25         26         27         28         29         30
     1  C    0.072797  -0.000758   0.017355  -0.026387  -0.000075   0.000624
     2  N   -0.000153   0.000000  -0.000032   0.000092   0.000001  -0.000001
     3  C    0.220780   0.002306   0.033371  -0.098011   0.000346  -0.003322
     4  C   -0.116286  -0.005594  -0.020707   0.067598  -0.000093  -0.000787
     5  C    0.000254   0.000006  -0.000119  -0.000269   0.000000  -0.000008
     6  C   -0.000394   0.000002   0.000012   0.000118  -0.000002  -0.000001
     7  H   -0.009959   0.000010  -0.002612   0.003795  -0.000024  -0.000169
     8  C    0.447350   0.023201   0.328280  -0.349352  -0.003782   0.041907
     9  H   -0.000803   0.000037  -0.000271   0.000202   0.000004  -0.000054
    10  C   -0.106122  -0.028318  -0.039751   0.151661   0.002536   0.000299
    11  H    0.000152  -0.000001   0.000030  -0.000071   0.000000   0.000003
    12  H    0.000021   0.000000  -0.000007  -0.000014   0.000000  -0.000001
    13  H    0.000050  -0.000001   0.000024  -0.000001   0.000000   0.000002
    14  H    0.000051  -0.000001   0.000009  -0.000025   0.000000   0.000001
    15  H   -0.000038   0.000000   0.000000   0.000014   0.000000   0.000000
    16  H    0.000055  -0.000001   0.000001   0.000003   0.000001   0.000000
    17  C    0.033911   0.062894  -0.065866  -0.088745  -0.001579  -0.070586
    18  H    0.067875   0.002626   0.033898  -0.041562   0.000098   0.001209
    19  H    0.003027   0.000639   0.001582  -0.001193   0.000018   0.000265
    20  C    0.185995   0.122641   0.350846  -0.569403  -0.018541   0.165078
    21  H   -0.041231  -0.000480   0.003147   0.003433   0.000080   0.002807
    22  C   -1.610356  -0.403277   0.044708  -0.361748  -0.002086   0.313209
    23  C    0.216678   0.676717  -3.245627   0.538365   0.037463  -0.125884
    24  H   -0.231564  -0.008336  -0.104240   0.133375   0.001397  -0.015512
    25  C   14.741937  -0.089342  -1.705039   0.273803  -0.099093  -4.292863
    26  O   -0.089342   8.152565  -0.224712  -0.078455   0.097330   0.059934
    27  C   -1.705039  -0.224712  11.285217  -0.702841   0.003710   1.928911
    28  C    0.273803  -0.078455  -0.702841   8.003242   0.032652  -0.786416
    29  H   -0.099093   0.097330   0.003710   0.032652   0.263373   0.012552
    30  C   -4.292863   0.059934   1.928911  -0.786416   0.012552  12.733802
    31  O    0.045524   0.035494   0.305917  -0.052380   0.198908  -0.266482
    32  C   -2.314522  -0.021330   0.283226   1.410022   0.033099  -2.688932
    33  H   -0.014645  -0.000002   0.063571   0.416322   0.000075   0.106855
    34  H   -0.146331  -0.000329   0.048305   0.029149   0.000444   0.735998
    35  C   -0.747232   0.006662  -2.367634  -1.307721  -0.000466  -1.472934
    36  H    0.005114   0.000149  -0.003776   0.020333   0.000902  -0.115510
    37  O    0.032029  -0.000058   0.051721  -0.126332  -0.000367   0.235374
    38  C   -0.094015   0.000345  -0.174358  -0.015581   0.000333  -0.374266
    39  H    0.011288  -0.000053  -0.003771  -0.001133  -0.000084  -0.012384
    40  H   -0.002836   0.000021  -0.012847   0.003324   0.000089  -0.023969
    41  H    0.004981  -0.000017   0.017000  -0.018905   0.000007   0.034803
              31         32         33         34         35         36
     1  C   -0.000045  -0.002004   0.000407   0.000019  -0.000864   0.000284
     2  N    0.000000   0.000019   0.000044   0.000000   0.000001  -0.000001
     3  C    0.000201  -0.008718   0.001544   0.000054  -0.006693   0.001282
     4  C   -0.000291   0.005498   0.000415  -0.000036   0.001802  -0.000145
     5  C    0.000000  -0.000030   0.000004   0.000000  -0.000003   0.000002
     6  C    0.000000   0.000006   0.000010   0.000000   0.000002   0.000000
     7  H   -0.000001  -0.000107   0.000039  -0.000005   0.000180  -0.000071
     8  C    0.000758  -0.053537   0.005341   0.000834  -0.011694   0.000073
     9  H   -0.000001  -0.000016  -0.000035  -0.000001   0.000002   0.000000
    10  C   -0.001130   0.023859   0.003375  -0.000025   0.008219  -0.000443
    11  H    0.000000  -0.000017   0.000029   0.000000  -0.000001   0.000000
    12  H    0.000000  -0.000001  -0.000003   0.000000   0.000000   0.000000
    13  H    0.000000   0.000009   0.000009   0.000000   0.000000   0.000000
    14  H    0.000000  -0.000002   0.000001   0.000000   0.000000   0.000000
    15  H    0.000000   0.000001   0.000001   0.000000   0.000000   0.000000
    16  H    0.000000   0.000002   0.000000   0.000000   0.000000   0.000000
    17  C   -0.001453  -0.014747  -0.013267  -0.000888  -0.006171  -0.000479
    18  H    0.000156   0.004157  -0.007781   0.000078  -0.004163   0.000735
    19  H    0.000082   0.000047   0.000213   0.000015  -0.000142   0.000003
    20  C    0.052134  -0.109541  -0.003571   0.003582  -0.012153   0.000349
    21  H   -0.002023  -0.002817   0.001824  -0.000112   0.001721  -0.000203
    22  C   -0.055507  -0.953581   0.013847  -0.002533   0.035670  -0.010166
    23  C   -0.083414  -1.034441  -0.026506  -0.033147   0.274059  -0.016511
    24  H    0.000162  -0.042566  -0.033579  -0.001778   0.030153   0.004215
    25  C    0.045524  -2.314522  -0.014645  -0.146331  -0.747232   0.005114
    26  O    0.035494  -0.021330  -0.000002  -0.000329   0.006662   0.000149
    27  C    0.305917   0.283226   0.063571   0.048305  -2.367634  -0.003776
    28  C   -0.052380   1.410022   0.416322   0.029149  -1.307721   0.020333
    29  H    0.198908   0.033099   0.000075   0.000444  -0.000466   0.000902
    30  C   -0.266482  -2.688932   0.106855   0.735998  -1.472934  -0.115510
    31  O    8.184483  -0.006238  -0.002573  -0.032378   0.037036   0.000558
    32  C   -0.006238  11.312660  -0.182952  -0.033590   1.054174   0.527008
    33  H   -0.002573  -0.182952   0.609647   0.005338  -0.058672  -0.031831
    34  H   -0.032378  -0.033590   0.005338   0.509430  -0.260475  -0.002090
    35  C    0.037036   1.054174  -0.058672  -0.260475  10.829269  -0.081037
    36  H    0.000558   0.527008  -0.031831  -0.002090  -0.081037   0.486471
    37  O   -0.000377  -0.531610  -0.000351  -0.014015   0.271983  -0.022225
    38  C    0.005326   0.123284  -0.003756  -0.024413   0.234803   0.004354
    39  H    0.000043   0.010031   0.000134  -0.008493  -0.026273  -0.001075
    40  H    0.000317   0.014933  -0.000252  -0.001723   0.055282   0.000870
    41  H    0.000380  -0.033626  -0.000281  -0.008408  -0.025433  -0.000072
              37         38         39         40         41
     1  C    0.000000  -0.000001   0.000000   0.000000   0.000000
     2  N    0.000000   0.000000   0.000000   0.000000   0.000000
     3  C    0.000004  -0.000020   0.000001  -0.000002  -0.000002
     4  C    0.000000   0.000003   0.000000   0.000000   0.000001
     5  C    0.000000   0.000000   0.000000   0.000000   0.000000
     6  C    0.000000   0.000000   0.000000   0.000000   0.000000
     7  H    0.000000   0.000000   0.000000   0.000000   0.000000
     8  C   -0.000016  -0.000024  -0.000010  -0.000004  -0.000011
     9  H    0.000000   0.000000   0.000000   0.000000   0.000000
    10  C   -0.000004   0.000040   0.000000   0.000001   0.000005
    11  H    0.000000   0.000000   0.000000   0.000000   0.000000
    12  H    0.000000   0.000000   0.000000   0.000000   0.000000
    13  H    0.000000   0.000000   0.000000   0.000000   0.000000
    14  H    0.000000   0.000000   0.000000   0.000000   0.000000
    15  H    0.000000   0.000000   0.000000   0.000000   0.000000
    16  H    0.000000   0.000000   0.000000   0.000000   0.000000
    17  C    0.000007  -0.000291   0.000038  -0.000014   0.000004
    18  H    0.000015  -0.000025  -0.000002  -0.000003   0.000000
    19  H    0.000000   0.000000   0.000000   0.000000   0.000000
    20  C    0.000114   0.000997  -0.000125   0.000028  -0.000076
    21  H    0.000008   0.000007   0.000003  -0.000001   0.000006
    22  C   -0.002700  -0.004284   0.000474  -0.000105  -0.000451
    23  C    0.006007   0.034811   0.000869   0.001607   0.001403
    24  H   -0.000160   0.000648   0.000011   0.000035   0.000017
    25  C    0.032029  -0.094015   0.011288  -0.002836   0.004981
    26  O   -0.000058   0.000345  -0.000053   0.000021  -0.000017
    27  C    0.051721  -0.174358  -0.003771  -0.012847   0.017000
    28  C   -0.126332  -0.015581  -0.001133   0.003324  -0.018905
    29  H   -0.000367   0.000333  -0.000084   0.000089   0.000007
    30  C    0.235374  -0.374266  -0.012384  -0.023969   0.034803
    31  O   -0.000377   0.005326   0.000043   0.000317   0.000380
    32  C   -0.531610   0.123284   0.010031   0.014933  -0.033626
    33  H   -0.000351  -0.003756   0.000134  -0.000252  -0.000281
    34  H   -0.014015  -0.024413  -0.008493  -0.001723  -0.008408
    35  C    0.271983   0.234803  -0.026273   0.055282  -0.025433
    36  H   -0.022225   0.004354  -0.001075   0.000870  -0.000072
    37  O    8.171050   0.192247  -0.031587  -0.064068  -0.037042
    38  C    0.192247   5.259633   0.413849   0.393208   0.400146
    39  H   -0.031587   0.413849   0.548751  -0.016475  -0.058072
    40  H   -0.064068   0.393208  -0.016475   0.454565  -0.021071
    41  H   -0.037042   0.400146  -0.058072  -0.021071   0.578050
 Mulliken charges:
               1
     1  C   -0.501157
     2  N    0.064986
     3  C   -0.354510
     4  C   -0.257753
     5  C   -0.391916
     6  C   -0.386630
     7  H    0.223443
     8  C   -0.462289
     9  H    0.190250
    10  C   -0.249239
    11  H    0.161789
    12  H    0.155711
    13  H    0.190903
    14  H    0.176155
    15  H    0.158817
    16  H    0.175626
    17  C    0.727448
    18  H    0.153613
    19  H    0.214537
    20  C    0.099492
    21  H    0.243961
    22  C    0.175312
    23  C   -0.002277
    24  H   -0.209616
    25  C    1.259153
    26  O   -0.382516
    27  C   -0.126629
    28  C   -0.460956
    29  H    0.440773
    30  C   -0.123553
    31  O   -0.363186
    32  C   -0.767112
    33  H    0.151014
    34  H    0.237525
    35  C   -0.451256
    36  H    0.232934
    37  O   -0.129647
    38  C   -0.373001
    39  H    0.174045
    40  H    0.219088
    41  H    0.166665
 Sum of Mulliken charges =   0.00000
 Mulliken charges with hydrogens summed into heavy atoms:
               1
     1  C   -0.501157
     2  N    0.064986
     3  C   -0.131067
     4  C   -0.067504
     5  C    0.116486
     6  C    0.123968
     8  C   -0.308675
    10  C   -0.034701
    17  C    0.727448
    20  C    0.343454
    22  C   -0.034304
    23  C   -0.002277
    25  C    1.259153
    26  O   -0.382516
    27  C   -0.126629
    28  C   -0.309942
    30  C    0.113973
    31  O    0.077587
    32  C   -0.534178
    35  C   -0.451256
    37  O   -0.129647
    38  C    0.186798
 Electronic spatial extent (au):  <R**2>=          34731.4366
 Charge=              0.0000 electrons
 Dipole moment (field-independent basis, Debye):
    X=              1.5505    Y=              0.8539    Z=             -7.4297  Tot=              7.6377
 Quadrupole moment (field-independent basis, Debye-Ang):
   XX=           -131.6043   YY=           -136.2585   ZZ=           -141.8724
   XY=              0.2455   XZ=             24.6265   YZ=             54.5570
 Traceless Quadrupole moment (field-independent basis, Debye-Ang):
   XX=              4.9741   YY=              0.3199   ZZ=             -5.2940
   XY=              0.2455   XZ=             24.6265   YZ=             54.5570
 Octapole moment (field-independent basis, Debye-Ang**2):
  XXX=            126.4248  YYY=           1754.7876  ZZZ=          -1586.5971  XYY=              3.6974
  XXY=            567.3916  XXZ=           -575.4056  XZZ=            257.7599  YZZ=            818.4416
  YYZ=           -877.4298  XYZ=           -100.6536
 Hexadecapole moment (field-independent basis, Debye-Ang**3):
 XXXX=          -1915.1542 YYYY=         -17199.0147 ZZZZ=         -24706.7516 XXXY=          -1329.9914
 XXXZ=           -980.8246 YYYX=           -977.2808 YYYZ=           7251.7904 ZZZX=           1444.7196
 ZZZY=           7512.9092 XXYY=          -3016.2608 XXZZ=          -5139.9255 YYZZ=          -9211.9084
 XXYZ=           1957.8164 YYXZ=            145.9536 ZZXY=          -1181.3795
 N-N= 1.595500518751D+03 E-N=-5.469132133593D+03  KE= 9.732728865110D+02
 Leave Link  601 at Thu Nov  2 22:03:53 2017, MaxMem=  3758096384 cpu:         0.5
 (Enter /share/apps/gaussian/g09_D01/g09/l9999.exe)
 1\1\GINC-NXV21\SP\RwB97XD TD-FC\6-311++G(d,p)\C18H19N1O3\BTX008\02-Nov
 -2017\0\\#p wb97xd/6-311++G** td=(nstates=2) nosymm\\Title\\0,1\C,0,-1
 .257452,-5.583138,-0.600811\N,0,-1.194399,-5.646769,-1.956156\C,0,-0.3
 74111,-4.748425,0.139636\C,0,-2.215671,-6.336129,0.129863\C,0,-0.23210
 7,-4.837984,-2.686402\C,0,-2.079427,-6.544253,-2.679249\H,0,0.37861,-4
 .156324,-0.375434\C,0,-0.45634,-4.675862,1.511142\H,0,-2.909919,-6.992
 782,-0.39075\C,0,-2.283218,-6.245357,1.50497\H,0,-0.307216,-3.777002,-
 2.405837\H,0,-0.44254,-4.919815,-3.755638\H,0,0.800975,-5.176595,-2.50
 2194\H,0,-1.935911,-7.587662,-2.357672\H,0,-1.859832,-6.480312,-3.7497
 11\H,0,-3.137161,-6.277181,-2.521282\C,0,-1.405282,-5.424284,2.248113\
 H,0,0.234383,-4.017044,2.035475\H,0,-3.041168,-6.81962,2.03723\C,0,-1.
 495258,-5.395364,3.676326\H,0,-2.272715,-6.019724,4.126875\C,0,-0.7040
 22,-4.671554,4.524986\C,0,-0.871863,-4.704107,5.956408\H,0,0.0795,-4.0
 36186,4.118343\C,0,-0.013501,-3.89823,6.826624\O,0,-1.77392,-5.448889,
 6.493531\C,0,-0.189741,-3.982822,8.24199\C,0,1.000968,-3.037749,6.3494
 74\H,0,-1.602833,-5.190309,7.885818\C,0,0.636785,-3.264565,9.118195\O,
 0,-1.167361,-4.75035,8.752749\C,0,1.821195,-2.333268,7.202395\H,0,1.13
 6193,-2.896145,5.279103\H,0,0.474759,-3.369501,10.188265\C,0,1.641143,
 -2.450821,8.598058\H,0,2.606474,-1.679058,6.82716\O,0,2.494175,-1.7206
 89,9.354721\C,0,2.293433,-1.690772,10.773673\H,0,1.290663,-1.29482,11.
 004059\H,0,3.063404,-1.019976,11.165991\H,0,2.410292,-2.696403,11.2052
 07\\Version=ES64L-G09RevD.01\HF=-977.6861843\RMSD=3.622e-09\PG=C01 [X(
 C18H19N1O3)]\\@


 THE MOST SERIOUS THREAT TO THE SURVIVAL OF MANKIND IS NOT NOW
 IGNORANCE IN THE TRADITIONAL SENSE,
 BUT A MORALLY NEUTRAL, AN INSENSITIVE OR INHIBITED HUMAN INTELLIGENCE.

                     -- MARGO JEFFERSON IN NEWSWEEK, SEPTEMBER 2, 1974
 Job cpu time:       0 days  3 hours 55 minutes  8.6 seconds.
 File lengths (MBytes):  RWF=    368 Int=      0 D2E=      0 Chk=     41 Scr=      1
 Normal termination of Gaussian 09 at Thu Nov  2 22:03:54 2017.
