 Entering Gaussian System, Link 0=g09
 Input=2hc_3_666-mega_dimer_1.com
 Output=2hc_3_666-mega_dimer_1.out
 Initial command:
 /share/apps/gaussian/g09_D01/g09/l1.exe "/tmp/160963.1.all.q/Gau-4123.inp" -scrdir="/tmp/160963.1.all.q/"
 Entering Link 1 = /share/apps/gaussian/g09_D01/g09/l1.exe PID=      4124.
  
 Copyright (c) 1988,1990,1992,1993,1995,1998,2003,2009,2013,
            Gaussian, Inc.  All Rights Reserved.
  
 This is part of the Gaussian(R) 09 program.  It is based on
 the Gaussian(R) 03 system (copyright 2003, Gaussian, Inc.),
 the Gaussian(R) 98 system (copyright 1998, Gaussian, Inc.),
 the Gaussian(R) 94 system (copyright 1995, Gaussian, Inc.),
 the Gaussian 92(TM) system (copyright 1992, Gaussian, Inc.),
 the Gaussian 90(TM) system (copyright 1990, Gaussian, Inc.),
 the Gaussian 88(TM) system (copyright 1988, Gaussian, Inc.),
 the Gaussian 86(TM) system (copyright 1986, Carnegie Mellon
 University), and the Gaussian 82(TM) system (copyright 1983,
 Carnegie Mellon University). Gaussian is a federally registered
 trademark of Gaussian, Inc.
  
 This software contains proprietary and confidential information,
 including trade secrets, belonging to Gaussian, Inc.
  
 This software is provided under written license and may be
 used, copied, transmitted, or stored only in accord with that
 written license.
  
 The following legend is applicable only to US Government
 contracts under FAR:
  
                    RESTRICTED RIGHTS LEGEND
  
 Use, reproduction and disclosure by the US Government is
 subject to restrictions as set forth in subparagraphs (a)
 and (c) of the Commercial Computer Software - Restricted
 Rights clause in FAR 52.227-19.
  
 Gaussian, Inc.
 340 Quinnipiac St., Bldg. 40, Wallingford CT 06492
  
  
 ---------------------------------------------------------------
 Warning -- This program may not be used in any manner that
 competes with the business of Gaussian, Inc. or will provide
 assistance to any competitor of Gaussian, Inc.  The licensee
 of this program is prohibited from giving any competitor of
 Gaussian, Inc. access to this program.  By using this program,
 the user acknowledges that Gaussian, Inc. is engaged in the
 business of creating and licensing software in the field of
 computational chemistry and represents and warrants to the
 licensee that it is not a competitor of Gaussian, Inc. and that
 it will not use this program in any manner prohibited above.
 ---------------------------------------------------------------
  

 Cite this work as:
 Gaussian 09, Revision D.01,
 M. J. Frisch, G. W. Trucks, H. B. Schlegel, G. E. Scuseria, 
 M. A. Robb, J. R. Cheeseman, G. Scalmani, V. Barone, B. Mennucci, 
 G. A. Petersson, H. Nakatsuji, M. Caricato, X. Li, H. P. Hratchian, 
 A. F. Izmaylov, J. Bloino, G. Zheng, J. L. Sonnenberg, M. Hada, 
 M. Ehara, K. Toyota, R. Fukuda, J. Hasegawa, M. Ishida, T. Nakajima, 
 Y. Honda, O. Kitao, H. Nakai, T. Vreven, J. A. Montgomery, Jr., 
 J. E. Peralta, F. Ogliaro, M. Bearpark, J. J. Heyd, E. Brothers, 
 K. N. Kudin, V. N. Staroverov, T. Keith, R. Kobayashi, J. Normand, 
 K. Raghavachari, A. Rendell, J. C. Burant, S. S. Iyengar, J. Tomasi, 
 M. Cossi, N. Rega, J. M. Millam, M. Klene, J. E. Knox, J. B. Cross, 
 V. Bakken, C. Adamo, J. Jaramillo, R. Gomperts, R. E. Stratmann, 
 O. Yazyev, A. J. Austin, R. Cammi, C. Pomelli, J. W. Ochterski, 
 R. L. Martin, K. Morokuma, V. G. Zakrzewski, G. A. Voth, 
 P. Salvador, J. J. Dannenberg, S. Dapprich, A. D. Daniels, 
 O. Farkas, J. B. Foresman, J. V. Ortiz, J. Cioslowski, 
 and D. J. Fox, Gaussian, Inc., Wallingford CT, 2013.
 
 ******************************************
 Gaussian 09:  ES64L-G09RevD.01 24-Apr-2013
                 2-Nov-2017 
 ******************************************
 %chk=2hc_3_666-mega_dimer_1.chk
 %nproc=4
 Will use up to    4 processors via shared memory.
 %mem=28GB
 ------------------------------------------
 #p wb97xd/6-311++G** td=(nstates=2) nosymm
 ------------------------------------------
 1/38=1/1;
 2/12=2,15=1,17=6,18=5,40=1/2;
 3/5=4,6=6,7=1111,11=9,16=1,25=1,30=1,74=-58/1,2,8,3;
 4//1;
 5/5=2,38=5/2;
 8/6=1,10=2,108=2/1;
 9/41=2,42=1,70=2/14;
 6/7=2,8=2,9=2,10=2/1;
 99/5=1,9=1/99;
 Leave Link    1 at Thu Nov  2 20:56:29 2017, MaxMem=  3758096384 cpu:        11.2
 (Enter /share/apps/gaussian/g09_D01/g09/l101.exe)
 -----
 Title
 -----
 Symbolic Z-matrix:
 Charge =  0 Multiplicity = 1
 H                     0.53927  -0.75728  -1.51802 
 C                     1.31672  -1.38164  -1.96855 
 C                     1.40669  -1.35272  -3.39677 
 C                     2.10795  -2.10545  -1.11989 
 C                     0.52876  -0.53164  -4.13992 
 C                     2.35563  -2.10114  -4.13374 
 H                     2.89147  -2.74081  -1.52655 
 C                     1.94011  -2.07289   0.31152 
 C                     0.59631  -0.44087  -5.51502 
 H                    -0.2292    0.04262  -3.60766 
 C                     2.43787  -2.02858  -5.50526 
 H                     3.04636  -2.75996  -3.60941 
 C                     2.79848  -2.87877   1.18174 
 O                     1.03805  -1.32811   0.84865 
 C                     1.55452  -1.19386  -6.24569 
 H                    -0.09795   0.21578  -6.03564 
 H                     3.19059  -2.62068  -6.02031 
 C                     2.62223  -2.79418   2.59711 
 C                     3.81294  -3.73925   0.70458 
 H                     1.20915  -1.58669   2.24094 
 N                     1.61757  -1.13023  -7.60105 
 C                     3.44877  -3.51243   3.47332 
 O                     1.64461  -2.02665   3.10786 
 H                     3.94817  -3.88086  -0.36579 
 C                     4.63318  -4.44373   1.55751 
 C                     2.57987  -1.93902  -8.33128 
 C                     0.73254  -0.23275  -8.32413 
 H                     3.28674  -3.4075    4.54338 
 C                     4.45312  -4.32618   2.95318 
 H                     5.41845  -5.09794   1.18227 
 H                     2.50476  -3.       -8.05072 
 H                     2.36944  -1.85719  -9.40052 
 H                     3.61296  -1.60041  -8.14707 
 H                     0.95215  -0.29669  -9.3946 
 H                    -0.32519  -0.49982  -8.16616 
 H                     0.87607   0.81066  -8.00256 
 O                     5.30616  -5.05631   3.70983 
 C                     5.10541  -5.08623   5.12879 
 H                     4.10264  -5.48218   5.35917 
 H                     5.87537  -5.75701   5.5211 
 H                     5.22226  -4.0806    5.56032 
 C                    -1.25745  -5.58314  -0.60081 
 N                    -1.1944   -5.64677  -1.95616 
 C                    -0.37411  -4.74843   0.13964 
 C                    -2.21567  -6.33613   0.12986 
 C                    -0.23211  -4.83798  -2.6864 
 C                    -2.07943  -6.54425  -2.67925 
 H                     0.37861  -4.15632  -0.37543 
 C                    -0.45634  -4.67586   1.51114 
 H                    -2.90992  -6.99278  -0.39075 
 C                    -2.28322  -6.24536   1.50497 
 H                    -0.30722  -3.777    -2.40584 
 H                    -0.44254  -4.91982  -3.75564 
 H                     0.80098  -5.17659  -2.50219 
 H                    -1.93591  -7.58766  -2.35767 
 H                    -1.85983  -6.48031  -3.74971 
 H                    -3.13716  -6.27718  -2.52128 
 C                    -1.40528  -5.42428   2.24811 
 H                     0.23438  -4.01704   2.03547 
 H                    -3.04117  -6.81962   2.03723 
 C                    -1.49526  -5.39536   3.67633 
 H                    -2.27272  -6.01972   4.12688 
 C                    -0.70402  -4.67155   4.52499 
 C                    -0.87186  -4.70411   5.95641 
 H                     0.0795   -4.03619   4.11834 
 C                    -0.0135   -3.89823   6.82662 
 O                    -1.77392  -5.44889   6.49353 
 C                    -0.18974  -3.98282   8.24199 
 C                     1.00097  -3.03775   6.34947 
 H                    -1.60283  -5.19031   7.88582 
 C                     0.63679  -3.26457   9.1182 
 O                    -1.16736  -4.75035   8.75275 
 C                     1.8212   -2.33327   7.2024 
 H                     1.13619  -2.89615   5.2791 
 H                     0.47476  -3.3695    10.18826 
 C                     1.64114  -2.45082   8.59806 
 H                     2.60647  -1.67906   6.82716 
 O                     2.49418  -1.72069   9.35472 
 C                     2.29343  -1.69077   10.77367 
 H                     1.29066  -1.29482   11.00406 
 H                     3.0634   -1.01998   11.16599 
 H                     2.41029  -2.6964    11.20521 
 
 NAtoms=     82 NQM=       82 NQMF=       0 NMMI=      0 NMMIF=      0
                NMic=       0 NMicF=      0.
                    Isotopes and Nuclear Properties:
 (Nuclear quadrupole moments (NQMom) in fm**2, nuclear magnetic moments (NMagM)
  in nuclear magnetons)

  Atom         1           2           3           4           5           6           7           8           9          10
 IAtWgt=           1          12          12          12          12          12           1          12          12           1
 AtmWgt=   1.0078250  12.0000000  12.0000000  12.0000000  12.0000000  12.0000000   1.0078250  12.0000000  12.0000000   1.0078250
 NucSpn=           1           0           0           0           0           0           1           0           0           1
 AtZEff=   0.0000000   0.0000000   0.0000000   0.0000000   0.0000000   0.0000000   0.0000000   0.0000000   0.0000000   0.0000000
 NQMom=    0.0000000   0.0000000   0.0000000   0.0000000   0.0000000   0.0000000   0.0000000   0.0000000   0.0000000   0.0000000
 NMagM=    2.7928460   0.0000000   0.0000000   0.0000000   0.0000000   0.0000000   2.7928460   0.0000000   0.0000000   2.7928460
 AtZNuc=   1.0000000   6.0000000   6.0000000   6.0000000   6.0000000   6.0000000   1.0000000   6.0000000   6.0000000   1.0000000

  Atom        11          12          13          14          15          16          17          18          19          20
 IAtWgt=          12           1          12          16          12           1           1          12          12           1
 AtmWgt=  12.0000000   1.0078250  12.0000000  15.9949146  12.0000000   1.0078250   1.0078250  12.0000000  12.0000000   1.0078250
 NucSpn=           0           1           0           0           0           1           1           0           0           1
 AtZEff=   0.0000000   0.0000000   0.0000000   0.0000000   0.0000000   0.0000000   0.0000000   0.0000000   0.0000000   0.0000000
 NQMom=    0.0000000   0.0000000   0.0000000   0.0000000   0.0000000   0.0000000   0.0000000   0.0000000   0.0000000   0.0000000
 NMagM=    0.0000000   2.7928460   0.0000000   0.0000000   0.0000000   2.7928460   2.7928460   0.0000000   0.0000000   2.7928460
 AtZNuc=   6.0000000   1.0000000   6.0000000   8.0000000   6.0000000   1.0000000   1.0000000   6.0000000   6.0000000   1.0000000

  Atom        21          22          23          24          25          26          27          28          29          30
 IAtWgt=          14          12          16           1          12          12          12           1          12           1
 AtmWgt=  14.0030740  12.0000000  15.9949146   1.0078250  12.0000000  12.0000000  12.0000000   1.0078250  12.0000000   1.0078250
 NucSpn=           2           0           0           1           0           0           0           1           0           1
 AtZEff=   0.0000000   0.0000000   0.0000000   0.0000000   0.0000000   0.0000000   0.0000000   0.0000000   0.0000000   0.0000000
 NQMom=    2.0440000   0.0000000   0.0000000   0.0000000   0.0000000   0.0000000   0.0000000   0.0000000   0.0000000   0.0000000
 NMagM=    0.4037610   0.0000000   0.0000000   2.7928460   0.0000000   0.0000000   0.0000000   2.7928460   0.0000000   2.7928460
 AtZNuc=   7.0000000   6.0000000   8.0000000   1.0000000   6.0000000   6.0000000   6.0000000   1.0000000   6.0000000   1.0000000

  Atom        31          32          33          34          35          36          37          38          39          40
 IAtWgt=           1           1           1           1           1           1          16          12           1           1
 AtmWgt=   1.0078250   1.0078250   1.0078250   1.0078250   1.0078250   1.0078250  15.9949146  12.0000000   1.0078250   1.0078250
 NucSpn=           1           1           1           1           1           1           0           0           1           1
 AtZEff=   0.0000000   0.0000000   0.0000000   0.0000000   0.0000000   0.0000000   0.0000000   0.0000000   0.0000000   0.0000000
 NQMom=    0.0000000   0.0000000   0.0000000   0.0000000   0.0000000   0.0000000   0.0000000   0.0000000   0.0000000   0.0000000
 NMagM=    2.7928460   2.7928460   2.7928460   2.7928460   2.7928460   2.7928460   0.0000000   0.0000000   2.7928460   2.7928460
 AtZNuc=   1.0000000   1.0000000   1.0000000   1.0000000   1.0000000   1.0000000   8.0000000   6.0000000   1.0000000   1.0000000

  Atom        41          42          43          44          45          46          47          48          49          50
 IAtWgt=           1          12          14          12          12          12          12           1          12           1
 AtmWgt=   1.0078250  12.0000000  14.0030740  12.0000000  12.0000000  12.0000000  12.0000000   1.0078250  12.0000000   1.0078250
 NucSpn=           1           0           2           0           0           0           0           1           0           1
 AtZEff=   0.0000000   0.0000000   0.0000000   0.0000000   0.0000000   0.0000000   0.0000000   0.0000000   0.0000000   0.0000000
 NQMom=    0.0000000   0.0000000   2.0440000   0.0000000   0.0000000   0.0000000   0.0000000   0.0000000   0.0000000   0.0000000
 NMagM=    2.7928460   0.0000000   0.4037610   0.0000000   0.0000000   0.0000000   0.0000000   2.7928460   0.0000000   2.7928460
 AtZNuc=   1.0000000   6.0000000   7.0000000   6.0000000   6.0000000   6.0000000   6.0000000   1.0000000   6.0000000   1.0000000

  Atom        51          52          53          54          55          56          57          58          59          60
 IAtWgt=          12           1           1           1           1           1           1          12           1           1
 AtmWgt=  12.0000000   1.0078250   1.0078250   1.0078250   1.0078250   1.0078250   1.0078250  12.0000000   1.0078250   1.0078250
 NucSpn=           0           1           1           1           1           1           1           0           1           1
 AtZEff=   0.0000000   0.0000000   0.0000000   0.0000000   0.0000000   0.0000000   0.0000000   0.0000000   0.0000000   0.0000000
 NQMom=    0.0000000   0.0000000   0.0000000   0.0000000   0.0000000   0.0000000   0.0000000   0.0000000   0.0000000   0.0000000
 NMagM=    0.0000000   2.7928460   2.7928460   2.7928460   2.7928460   2.7928460   2.7928460   0.0000000   2.7928460   2.7928460
 AtZNuc=   6.0000000   1.0000000   1.0000000   1.0000000   1.0000000   1.0000000   1.0000000   6.0000000   1.0000000   1.0000000

  Atom        61          62          63          64          65          66          67          68          69          70
 IAtWgt=          12           1          12          12           1          12          16          12          12           1
 AtmWgt=  12.0000000   1.0078250  12.0000000  12.0000000   1.0078250  12.0000000  15.9949146  12.0000000  12.0000000   1.0078250
 NucSpn=           0           1           0           0           1           0           0           0           0           1
 AtZEff=   0.0000000   0.0000000   0.0000000   0.0000000   0.0000000   0.0000000   0.0000000   0.0000000   0.0000000   0.0000000
 NQMom=    0.0000000   0.0000000   0.0000000   0.0000000   0.0000000   0.0000000   0.0000000   0.0000000   0.0000000   0.0000000
 NMagM=    0.0000000   2.7928460   0.0000000   0.0000000   2.7928460   0.0000000   0.0000000   0.0000000   0.0000000   2.7928460
 AtZNuc=   6.0000000   1.0000000   6.0000000   6.0000000   1.0000000   6.0000000   8.0000000   6.0000000   6.0000000   1.0000000

  Atom        71          72          73          74          75          76          77          78          79          80
 IAtWgt=          12          16          12           1           1          12           1          16          12           1
 AtmWgt=  12.0000000  15.9949146  12.0000000   1.0078250   1.0078250  12.0000000   1.0078250  15.9949146  12.0000000   1.0078250
 NucSpn=           0           0           0           1           1           0           1           0           0           1
 AtZEff=   0.0000000   0.0000000   0.0000000   0.0000000   0.0000000   0.0000000   0.0000000   0.0000000   0.0000000   0.0000000
 NQMom=    0.0000000   0.0000000   0.0000000   0.0000000   0.0000000   0.0000000   0.0000000   0.0000000   0.0000000   0.0000000
 NMagM=    0.0000000   0.0000000   0.0000000   2.7928460   2.7928460   0.0000000   2.7928460   0.0000000   0.0000000   2.7928460
 AtZNuc=   6.0000000   8.0000000   6.0000000   1.0000000   1.0000000   6.0000000   1.0000000   8.0000000   6.0000000   1.0000000

  Atom        81          82
 IAtWgt=           1           1
 AtmWgt=   1.0078250   1.0078250
 NucSpn=           1           1
 AtZEff=   0.0000000   0.0000000
 NQMom=    0.0000000   0.0000000
 NMagM=    2.7928460   2.7928460
 AtZNuc=   1.0000000   1.0000000
 Leave Link  101 at Thu Nov  2 20:56:33 2017, MaxMem=  3758096384 cpu:         0.5
 (Enter /share/apps/gaussian/g09_D01/g09/l202.exe)
 Symmetry turned off by external request.
 Stoichiometry    C36H38N2O6
 Framework group  C1[X(C36H38N2O6)]
 Deg. of freedom   240
 Full point group                 C1      NOp   1
                          Input orientation:                          
 ---------------------------------------------------------------------
 Center     Atomic      Atomic             Coordinates (Angstroms)
 Number     Number       Type             X           Y           Z
 ---------------------------------------------------------------------
      1          1           0        0.539269   -0.757276   -1.518015
      2          6           0        1.316716   -1.381636   -1.968554
      3          6           0        1.406691   -1.352716   -3.396768
      4          6           0        2.107951   -2.105446   -1.119894
      5          6           0        0.528755   -0.531643   -4.139920
      6          6           0        2.355633   -2.101138   -4.133738
      7          1           0        2.891473   -2.740814   -1.526547
      8          6           0        1.940107   -2.072893    0.311518
      9          6           0        0.596312   -0.440871   -5.515017
     10          1           0       -0.229195    0.042620   -3.607661
     11          6           0        2.437872   -2.028575   -5.505255
     12          1           0        3.046357   -2.759955   -3.609406
     13          6           0        2.798479   -2.878770    1.181744
     14          8           0        1.038050   -1.328111    0.848651
     15          6           0        1.554518   -1.193862   -6.245691
     16          1           0       -0.097949    0.215782   -6.035640
     17          1           0        3.190590   -2.620676   -6.020314
     18          6           0        2.622229   -2.794178    2.597110
     19          6           0        3.812938   -3.739251    0.704584
     20          1           0        1.209147   -1.586690    2.240938
     21          7           0        1.617571   -1.130231   -7.601046
     22          6           0        3.448765   -3.512435    3.473315
     23          8           0        1.644609   -2.026650    3.107859
     24          1           0        3.948167   -3.880855   -0.365788
     25          6           0        4.633175   -4.443732    1.557505
     26          6           0        2.579873   -1.939015   -8.331282
     27          6           0        0.732543   -0.232747   -8.324129
     28          1           0        3.286739   -3.407499    4.543375
     29          6           0        4.453123   -4.326179    2.953178
     30          1           0        5.418454   -5.097941    1.182270
     31          1           0        2.504764   -2.999998   -8.050717
     32          1           0        2.369440   -1.857185   -9.400518
     33          1           0        3.612955   -1.600405   -8.147074
     34          1           0        0.952148   -0.296688   -9.394601
     35          1           0       -0.325191   -0.499819   -8.166162
     36          1           0        0.876069    0.810662   -8.002562
     37          8           0        5.306155   -5.056311    3.709831
     38          6           0        5.105413   -5.086228    5.128793
     39          1           0        4.102643   -5.482180    5.359169
     40          1           0        5.875374   -5.757014    5.521101
     41          1           0        5.222262   -4.080597    5.560317
     42          6           0       -1.257452   -5.583138   -0.600811
     43          7           0       -1.194399   -5.646769   -1.956156
     44          6           0       -0.374111   -4.748425    0.139636
     45          6           0       -2.215671   -6.336129    0.129863
     46          6           0       -0.232107   -4.837984   -2.686402
     47          6           0       -2.079427   -6.544253   -2.679249
     48          1           0        0.378610   -4.156324   -0.375434
     49          6           0       -0.456340   -4.675862    1.511142
     50          1           0       -2.909919   -6.992782   -0.390750
     51          6           0       -2.283218   -6.245357    1.504970
     52          1           0       -0.307216   -3.777002   -2.405837
     53          1           0       -0.442540   -4.919815   -3.755638
     54          1           0        0.800975   -5.176595   -2.502194
     55          1           0       -1.935911   -7.587662   -2.357672
     56          1           0       -1.859832   -6.480312   -3.749711
     57          1           0       -3.137161   -6.277181   -2.521282
     58          6           0       -1.405282   -5.424284    2.248113
     59          1           0        0.234383   -4.017044    2.035475
     60          1           0       -3.041168   -6.819620    2.037230
     61          6           0       -1.495258   -5.395364    3.676326
     62          1           0       -2.272715   -6.019724    4.126875
     63          6           0       -0.704022   -4.671554    4.524986
     64          6           0       -0.871863   -4.704107    5.956408
     65          1           0        0.079500   -4.036186    4.118343
     66          6           0       -0.013501   -3.898230    6.826624
     67          8           0       -1.773920   -5.448889    6.493531
     68          6           0       -0.189741   -3.982822    8.241990
     69          6           0        1.000968   -3.037749    6.349474
     70          1           0       -1.602833   -5.190309    7.885818
     71          6           0        0.636785   -3.264565    9.118195
     72          8           0       -1.167361   -4.750350    8.752749
     73          6           0        1.821195   -2.333268    7.202395
     74          1           0        1.136193   -2.896145    5.279103
     75          1           0        0.474759   -3.369501   10.188265
     76          6           0        1.641143   -2.450821    8.598058
     77          1           0        2.606474   -1.679058    6.827160
     78          8           0        2.494175   -1.720689    9.354721
     79          6           0        2.293433   -1.690772   10.773673
     80          1           0        1.290663   -1.294820   11.004059
     81          1           0        3.063404   -1.019976   11.165991
     82          1           0        2.410292   -2.696403   11.205207
 ---------------------------------------------------------------------
 Rotational constants (GHZ):      0.1215347      0.0296163      0.0267019
 Leave Link  202 at Thu Nov  2 20:56:33 2017, MaxMem=  3758096384 cpu:         0.0
 (Enter /share/apps/gaussian/g09_D01/g09/l301.exe)
 Standard basis: 6-311++G(d,p) (5D, 7F)
 Ernie: Thresh=  0.10000D-02 Tol=  0.10000D-05 Strict=F.
  1234 basis functions,  1926 primitive gaussians,  1278 cartesian basis functions
   158 alpha electrons      158 beta electrons
       nuclear repulsion energy      4943.1276356802 Hartrees.
 IExCor= 4639 DFT=T Ex+Corr=wB97XD ExCW=0 ScaHFX=  1.000000
 ScaDFX=  1.000000  1.000000  1.000000  1.000000 ScalE2=  1.000000  1.000000
 IRadAn=      0 IRanWt=     -1 IRanGd=            0 ICorTp=0 IEmpDi=121
  HFx wShort=  0.000000 wLong=  0.200000 cFull=  0.222036 cShort=  0.000000 cLong=  0.777964
  DFx wShort=  0.000000 wLong=  0.200000 cFull=  0.000000 cShort=  0.000000 cLong=  1.000000
 NAtoms=   82 NActive=   82 NUniq=   82 SFac= 1.00D+00 NAtFMM=   60 NAOKFM=T Big=T
 Integral buffers will be    131072 words long.
 Raffenetti 1 integral format.
 Two-electron integral symmetry is turned off.
 R6Disp:  Grimme-D2 Dispersion energy=       -0.0660079952 Hartrees.
 Nuclear repulsion after empirical dispersion term =     4943.0616276850 Hartrees.
 Leave Link  301 at Thu Nov  2 20:56:33 2017, MaxMem=  3758096384 cpu:         0.1
 (Enter /share/apps/gaussian/g09_D01/g09/l302.exe)
 NPDir=0 NMtPBC=     1 NCelOv=     1 NCel=       1 NClECP=     1 NCelD=      1
         NCelK=      1 NCelE2=     1 NClLst=     1 CellRange=     0.0.
 One-electron integrals computed using PRISM.
 NBasis=  1234 RedAO= T EigKep=  1.39D-06  NBF=  1234
 NBsUse=  1215 1.00D-06 EigRej=  7.44D-07 NBFU=  1215
 Precomputing XC quadrature grid using
 IXCGrd= 4 IRadAn=           0 IRanWt=          -1 IRanGd=           0 AccXCQ= 0.00D+00.
 Generated NRdTot=       0 NPtTot=           0 NUsed=           0 NTot=          32
 NSgBfM=  1128  1128  1128  1128  1128 MxSgAt=    82 MxSgA2=    82.
 Leave Link  302 at Thu Nov  2 20:56:37 2017, MaxMem=  3758096384 cpu:        18.2
 (Enter /share/apps/gaussian/g09_D01/g09/l308.exe)
 Leave Link  308 at Thu Nov  2 20:56:38 2017, MaxMem=  3758096384 cpu:         1.6
 (Enter /share/apps/gaussian/g09_D01/g09/l303.exe)
 DipDrv:  MaxL=1.
 Leave Link  303 at Thu Nov  2 20:56:42 2017, MaxMem=  3758096384 cpu:         1.2
 (Enter /share/apps/gaussian/g09_D01/g09/l401.exe)
 ExpMin= 3.60D-02 ExpMax= 8.59D+03 ExpMxC= 1.30D+03 IAcc=3 IRadAn=         5 AccDes= 0.00D+00
 Harris functional with IExCor= 4639 and IRadAn=       5 diagonalized for initial guess.
 HarFok:  IExCor= 4639 AccDes= 0.00D+00 IRadAn=         5 IDoV= 1 UseB2=F ITyADJ=14
 ICtDFT=  3500011 ScaDFX=  1.000000  1.000000  1.000000  1.000000
 FoFCou: FMM=F IPFlag=           0 FMFlag=      100000 FMFlg1=        2001
         NFxFlg=           0 DoJE=T BraDBF=F KetDBF=T FulRan=T
         wScrn=  0.000000 ICntrl=     500 IOpCl=  0 I1Cent=   200000004 NGrid=           0
         NMat0=    1 NMatS0=      1 NMatT0=    0 NMatD0=    1 NMtDS0=    0 NMtDT0=    0
 Symmetry not used in FoFCou.
 Harris En= -1871.09828471923    
 JPrj=0 DoOrth=F DoCkMO=F.
 Leave Link  401 at Thu Nov  2 20:57:28 2017, MaxMem=  3758096384 cpu:       187.4
 (Enter /share/apps/gaussian/g09_D01/g09/l502.exe)
 Closed shell SCF:
 Using DIIS extrapolation, IDIIS=  1040.
 Two-electron integral symmetry not used.
 IVT=     4933902 IEndB=     4933902 NGot=  3758096384 MDV=  3754813685
 LenX=  3754813685 LenY=  3753179123
 Requested convergence on RMS density matrix=1.00D-08 within 128 cycles.
 Requested convergence on MAX density matrix=1.00D-06.
 Requested convergence on             energy=1.00D-06.
 No special actions if energy rises.
 Fock matrices will be formed incrementally for  20 cycles.

 Cycle   1  Pass 1  IDiag  1:
 FoFJK:  IHMeth= 1 ICntrl=       0 DoSepK=T KAlg= 0 I1Cent=   0 FoldK=F
 IRaf=         1 NMat=   1 IRICut=       1 DoRegI=T DoRafI=F ISym2E= 0.
 FoFCou: FMM=T IPFlag=           0 FMFlag=      100000 FMFlg1=        2001
         NFxFlg=           0 DoJE=T BraDBF=F KetDBF=F FulRan=T
         wScrn=  0.000000 ICntrl=     500 IOpCl=  0 I1Cent=           0 NGrid=           0
         NMat0=    1 NMatS0=      1 NMatT0=    0 NMatD0=    1 NMtDS0=    0 NMtDT0=    0
 Symmetry not used in FoFCou.
 FMM levels:  10  Number of levels for PrismC:   9
 E= -1954.67034965067    
 DIIS: error= 4.99D-02 at cycle   1 NSaved=   1.
 NSaved= 1 IEnMin= 1 EnMin= -1954.67034965067     IErMin= 1 ErrMin= 4.99D-02
 ErrMax= 4.99D-02  0.00D+00 EMaxC= 1.00D-01 BMatC= 4.34D+00 BMatP= 4.34D+00
 IDIUse=3 WtCom= 5.01D-01 WtEn= 4.99D-01
 Coeff-Com:  0.100D+01
 Coeff-En:   0.100D+01
 Coeff:      0.100D+01
 Gap=     0.266 Goal=   None    Shift=    0.000
 GapD=    0.266 DampG=1.000 DampE=0.500 DampFc=0.5000 IDamp=-1.
 Damping current iteration by 5.00D-01
 RMSDP=1.95D-02 MaxDP=3.61D+00              OVMax= 1.75D-01

 Cycle   2  Pass 1  IDiag  1:
 RMSU=  3.22D-03    CP:  8.09D-01
 E= -1954.99115181606     Delta-E=       -0.320802165390 Rises=F Damp=T
 DIIS: error= 2.21D-02 at cycle   2 NSaved=   2.
 NSaved= 2 IEnMin= 2 EnMin= -1954.99115181606     IErMin= 2 ErrMin= 2.21D-02
 ErrMax= 2.21D-02  0.00D+00 EMaxC= 1.00D-01 BMatC= 8.86D-01 BMatP= 4.34D+00
 IDIUse=3 WtCom= 7.79D-01 WtEn= 2.21D-01
 Coeff-Com: -0.507D+00 0.151D+01
 Coeff-En:   0.000D+00 0.100D+01
 Coeff:     -0.395D+00 0.139D+01
 Gap=     0.243 Goal=   None    Shift=    0.000
 RMSDP=8.99D-03 MaxDP=1.63D+00 DE=-3.21D-01 OVMax= 2.25D-01

 Cycle   3  Pass 1  IDiag  1:
 RMSU=  4.13D-03    CP:  6.44D-01  1.04D+00
 E= -1955.11516175847     Delta-E=       -0.124009942407 Rises=F Damp=F
 DIIS: error= 1.41D-02 at cycle   3 NSaved=   3.
 NSaved= 3 IEnMin= 3 EnMin= -1955.11516175847     IErMin= 3 ErrMin= 1.41D-02
 ErrMax= 1.41D-02  0.00D+00 EMaxC= 1.00D-01 BMatC= 3.46D-01 BMatP= 8.86D-01
 IDIUse=3 WtCom= 8.59D-01 WtEn= 1.41D-01
 Coeff-Com: -0.361D+00 0.780D+00 0.582D+00
 Coeff-En:   0.000D+00 0.224D+00 0.776D+00
 Coeff:     -0.310D+00 0.701D+00 0.609D+00
 Gap=     0.239 Goal=   None    Shift=    0.000
 RMSDP=4.37D-03 MaxDP=9.12D-01 DE=-1.24D-01 OVMax= 9.82D-02

 Cycle   4  Pass 1  IDiag  1:
 RMSU=  1.33D-03    CP:  5.78D-01  1.49D+00  4.56D-01
 E= -1955.37800340307     Delta-E=       -0.262841644597 Rises=F Damp=F
 DIIS: error= 4.25D-03 at cycle   4 NSaved=   4.
 NSaved= 4 IEnMin= 4 EnMin= -1955.37800340307     IErMin= 4 ErrMin= 4.25D-03
 ErrMax= 4.25D-03  0.00D+00 EMaxC= 1.00D-01 BMatC= 1.77D-02 BMatP= 3.46D-01
 IDIUse=3 WtCom= 9.58D-01 WtEn= 4.25D-02
 Coeff-Com: -0.142D+00 0.304D+00 0.325D+00 0.513D+00
 Coeff-En:   0.000D+00 0.000D+00 0.000D+00 0.100D+01
 Coeff:     -0.136D+00 0.291D+00 0.311D+00 0.533D+00
 Gap=     0.214 Goal=   None    Shift=    0.000
 RMSDP=8.55D-04 MaxDP=1.10D-01 DE=-2.63D-01 OVMax= 1.82D-02

 Cycle   5  Pass 1  IDiag  1:
 RMSU=  3.77D-04    CP:  5.89D-01  1.47D+00  5.66D-01  8.04D-01
 E= -1955.39189376712     Delta-E=       -0.013890364050 Rises=F Damp=F
 DIIS: error= 5.62D-04 at cycle   5 NSaved=   5.
 NSaved= 5 IEnMin= 5 EnMin= -1955.39189376712     IErMin= 5 ErrMin= 5.62D-04
 ErrMax= 5.62D-04  0.00D+00 EMaxC= 1.00D-01 BMatC= 4.03D-04 BMatP= 1.77D-02
 IDIUse=3 WtCom= 9.94D-01 WtEn= 5.62D-03
 Coeff-Com:  0.101D-01-0.224D-01 0.189D-01 0.165D+00 0.828D+00
 Coeff-En:   0.000D+00 0.000D+00 0.000D+00 0.000D+00 0.100D+01
 Coeff:      0.101D-01-0.223D-01 0.188D-01 0.164D+00 0.829D+00
 Gap=     0.215 Goal=   None    Shift=    0.000
 RMSDP=2.20D-04 MaxDP=1.96D-02 DE=-1.39D-02 OVMax= 7.48D-03

 Cycle   6  Pass 1  IDiag  1:
 RMSU=  1.44D-04    CP:  5.87D-01  1.45D+00  5.66D-01  8.76D-01  9.09D-01
 E= -1955.39239645530     Delta-E=       -0.000502688181 Rises=F Damp=F
 DIIS: error= 4.33D-04 at cycle   6 NSaved=   6.
 NSaved= 6 IEnMin= 6 EnMin= -1955.39239645530     IErMin= 6 ErrMin= 4.33D-04
 ErrMax= 4.33D-04  0.00D+00 EMaxC= 1.00D-01 BMatC= 1.39D-04 BMatP= 4.03D-04
 IDIUse=3 WtCom= 9.96D-01 WtEn= 4.33D-03
 Coeff-Com:  0.261D-01-0.562D-01-0.386D-01-0.344D-02 0.433D+00 0.639D+00
 Coeff-En:   0.000D+00 0.000D+00 0.000D+00 0.000D+00 0.000D+00 0.100D+01
 Coeff:      0.260D-01-0.560D-01-0.384D-01-0.343D-02 0.431D+00 0.641D+00
 Gap=     0.217 Goal=   None    Shift=    0.000
 RMSDP=7.08D-05 MaxDP=6.97D-03 DE=-5.03D-04 OVMax= 4.36D-03

 Cycle   7  Pass 1  IDiag  1:
 RMSU=  5.19D-05    CP:  5.87D-01  1.46D+00  5.66D-01  8.92D-01  1.00D+00
                    CP:  1.01D+00
 E= -1955.39256226345     Delta-E=       -0.000165808150 Rises=F Damp=F
 DIIS: error= 1.23D-04 at cycle   7 NSaved=   7.
 NSaved= 7 IEnMin= 7 EnMin= -1955.39256226345     IErMin= 7 ErrMin= 1.23D-04
 ErrMax= 1.23D-04  0.00D+00 EMaxC= 1.00D-01 BMatC= 1.02D-05 BMatP= 1.39D-04
 IDIUse=3 WtCom= 9.99D-01 WtEn= 1.23D-03
 Coeff-Com:  0.428D-02-0.907D-02-0.104D-01-0.213D-01-0.102D-01 0.182D+00
 Coeff-Com:  0.864D+00
 Coeff-En:   0.000D+00 0.000D+00 0.000D+00 0.000D+00 0.000D+00 0.000D+00
 Coeff-En:   0.100D+01
 Coeff:      0.428D-02-0.906D-02-0.104D-01-0.213D-01-0.102D-01 0.182D+00
 Coeff:      0.865D+00
 Gap=     0.217 Goal=   None    Shift=    0.000
 RMSDP=3.17D-05 MaxDP=3.03D-03 DE=-1.66D-04 OVMax= 2.42D-03

 Cycle   8  Pass 1  IDiag  1:
 RMSU=  2.19D-05    CP:  5.86D-01  1.45D+00  5.65D-01  8.97D-01  1.03D+00
                    CP:  1.14D+00  1.11D+00
 E= -1955.39258620857     Delta-E=       -0.000023945128 Rises=F Damp=F
 DIIS: error= 5.58D-05 at cycle   8 NSaved=   8.
 NSaved= 8 IEnMin= 8 EnMin= -1955.39258620857     IErMin= 8 ErrMin= 5.58D-05
 ErrMax= 5.58D-05  0.00D+00 EMaxC= 1.00D-01 BMatC= 2.40D-06 BMatP= 1.02D-05
 IDIUse=1 WtCom= 1.00D+00 WtEn= 0.00D+00
 Coeff-Com: -0.197D-02 0.431D-02 0.116D-02-0.986D-02-0.777D-01-0.155D-01
 Coeff-Com:  0.376D+00 0.723D+00
 Coeff:     -0.197D-02 0.431D-02 0.116D-02-0.986D-02-0.777D-01-0.155D-01
 Coeff:      0.376D+00 0.723D+00
 Gap=     0.217 Goal=   None    Shift=    0.000
 RMSDP=1.38D-05 MaxDP=2.14D-03 DE=-2.39D-05 OVMax= 1.26D-03

 Cycle   9  Pass 1  IDiag  1:
 RMSU=  8.89D-06    CP:  5.87D-01  1.45D+00  5.65D-01  8.97D-01  1.03D+00
                    CP:  1.18D+00  1.23D+00  1.10D+00
 E= -1955.39259181383     Delta-E=       -0.000005605258 Rises=F Damp=F
 DIIS: error= 2.25D-05 at cycle   9 NSaved=   9.
 NSaved= 9 IEnMin= 9 EnMin= -1955.39259181383     IErMin= 9 ErrMin= 2.25D-05
 ErrMax= 2.25D-05  0.00D+00 EMaxC= 1.00D-01 BMatC= 3.21D-07 BMatP= 2.40D-06
 IDIUse=1 WtCom= 1.00D+00 WtEn= 0.00D+00
 Coeff-Com: -0.144D-02 0.308D-02 0.272D-02 0.151D-02-0.222D-01-0.355D-01
 Coeff-Com: -0.658D-01 0.183D+00 0.935D+00
 Coeff:     -0.144D-02 0.308D-02 0.272D-02 0.151D-02-0.222D-01-0.355D-01
 Coeff:     -0.658D-01 0.183D+00 0.935D+00
 Gap=     0.217 Goal=   None    Shift=    0.000
 RMSDP=7.81D-06 MaxDP=1.33D-03 DE=-5.61D-06 OVMax= 7.13D-04

 Cycle  10  Pass 1  IDiag  1:
 RMSU=  4.45D-06    CP:  5.87D-01  1.45D+00  5.65D-01  8.97D-01  1.03D+00
                    CP:  1.20D+00  1.28D+00  1.24D+00  1.30D+00
 E= -1955.39259289741     Delta-E=       -0.000001083575 Rises=F Damp=F
 DIIS: error= 9.36D-06 at cycle  10 NSaved=  10.
 NSaved=10 IEnMin=10 EnMin= -1955.39259289741     IErMin=10 ErrMin= 9.36D-06
 ErrMax= 9.36D-06  0.00D+00 EMaxC= 1.00D-01 BMatC= 5.00D-08 BMatP= 3.21D-07
 IDIUse=1 WtCom= 1.00D+00 WtEn= 0.00D+00
 Coeff-Com:  0.341D-05-0.202D-04 0.462D-03 0.188D-02 0.516D-02-0.601D-02
 Coeff-Com: -0.807D-01-0.482D-01 0.307D+00 0.821D+00
 Coeff:      0.341D-05-0.202D-04 0.462D-03 0.188D-02 0.516D-02-0.601D-02
 Coeff:     -0.807D-01-0.482D-01 0.307D+00 0.821D+00
 Gap=     0.217 Goal=   None    Shift=    0.000
 RMSDP=2.85D-06 MaxDP=3.18D-04 DE=-1.08D-06 OVMax= 2.81D-04

 Cycle  11  Pass 1  IDiag  1:
 RMSU=  1.41D-06    CP:  5.87D-01  1.45D+00  5.65D-01  8.96D-01  1.03D+00
                    CP:  1.20D+00  1.30D+00  1.29D+00  1.46D+00  1.17D+00
 E= -1955.39259304616     Delta-E=       -0.000000148750 Rises=F Damp=F
 DIIS: error= 3.71D-06 at cycle  11 NSaved=  11.
 NSaved=11 IEnMin=11 EnMin= -1955.39259304616     IErMin=11 ErrMin= 3.71D-06
 ErrMax= 3.71D-06  0.00D+00 EMaxC= 1.00D-01 BMatC= 9.62D-09 BMatP= 5.00D-08
 IDIUse=1 WtCom= 1.00D+00 WtEn= 0.00D+00
 Coeff-Com:  0.196D-03-0.420D-03-0.213D-03 0.560D-03 0.512D-02 0.326D-02
 Coeff-Com: -0.168D-01-0.431D-01-0.625D-01 0.274D+00 0.839D+00
 Coeff:      0.196D-03-0.420D-03-0.213D-03 0.560D-03 0.512D-02 0.326D-02
 Coeff:     -0.168D-01-0.431D-01-0.625D-01 0.274D+00 0.839D+00
 Gap=     0.217 Goal=   None    Shift=    0.000
 RMSDP=1.36D-06 MaxDP=1.80D-04 DE=-1.49D-07 OVMax= 1.09D-04

 Cycle  12  Pass 1  IDiag  1:
 RMSU=  7.87D-07    CP:  5.87D-01  1.45D+00  5.65D-01  8.96D-01  1.03D+00
                    CP:  1.20D+00  1.30D+00  1.31D+00  1.52D+00  1.30D+00
                    CP:  1.29D+00
 E= -1955.39259307066     Delta-E=       -0.000000024502 Rises=F Damp=F
 DIIS: error= 1.61D-06 at cycle  12 NSaved=  12.
 NSaved=12 IEnMin=12 EnMin= -1955.39259307066     IErMin=12 ErrMin= 1.61D-06
 ErrMax= 1.61D-06  0.00D+00 EMaxC= 1.00D-01 BMatC= 1.66D-09 BMatP= 9.62D-09
 IDIUse=1 WtCom= 1.00D+00 WtEn= 0.00D+00
 Coeff-Com:  0.585D-04-0.124D-03-0.127D-03-0.276D-04 0.110D-02 0.189D-02
 Coeff-Com:  0.739D-02-0.653D-02-0.719D-01-0.369D-01 0.301D+00 0.804D+00
 Coeff:      0.585D-04-0.124D-03-0.127D-03-0.276D-04 0.110D-02 0.189D-02
 Coeff:      0.739D-02-0.653D-02-0.719D-01-0.369D-01 0.301D+00 0.804D+00
 Gap=     0.217 Goal=   None    Shift=    0.000
 RMSDP=6.05D-07 MaxDP=1.00D-04 DE=-2.45D-08 OVMax= 3.86D-05

 Cycle  13  Pass 1  IDiag  1:
 RMSU=  2.79D-07    CP:  5.87D-01  1.45D+00  5.65D-01  8.96D-01  1.03D+00
                    CP:  1.20D+00  1.30D+00  1.31D+00  1.54D+00  1.34D+00
                    CP:  1.48D+00  1.18D+00
 E= -1955.39259307466     Delta-E=       -0.000000004002 Rises=F Damp=F
 DIIS: error= 6.78D-07 at cycle  13 NSaved=  13.
 NSaved=13 IEnMin=13 EnMin= -1955.39259307466     IErMin=13 ErrMin= 6.78D-07
 ErrMax= 6.78D-07  0.00D+00 EMaxC= 1.00D-01 BMatC= 4.60D-10 BMatP= 1.66D-09
 IDIUse=1 WtCom= 1.00D+00 WtEn= 0.00D+00
 Coeff-Com: -0.453D-05 0.105D-04-0.309D-04-0.132D-03-0.403D-03 0.288D-03
 Coeff-Com:  0.705D-02 0.458D-02-0.233D-01-0.735D-01-0.973D-02 0.402D+00
 Coeff-Com:  0.693D+00
 Coeff:     -0.453D-05 0.105D-04-0.309D-04-0.132D-03-0.403D-03 0.288D-03
 Coeff:      0.705D-02 0.458D-02-0.233D-01-0.735D-01-0.973D-02 0.402D+00
 Coeff:      0.693D+00
 Gap=     0.217 Goal=   None    Shift=    0.000
 RMSDP=3.03D-07 MaxDP=4.30D-05 DE=-4.00D-09 OVMax= 1.60D-05

 Cycle  14  Pass 1  IDiag  1:
 RMSU=  1.77D-07    CP:  5.87D-01  1.45D+00  5.65D-01  8.96D-01  1.03D+00
                    CP:  1.20D+00  1.30D+00  1.31D+00  1.55D+00  1.37D+00
                    CP:  1.57D+00  1.35D+00  1.09D+00
 E= -1955.39259307512     Delta-E=       -0.000000000464 Rises=F Damp=F
 DIIS: error= 2.58D-07 at cycle  14 NSaved=  14.
 NSaved=14 IEnMin=14 EnMin= -1955.39259307512     IErMin=14 ErrMin= 2.58D-07
 ErrMax= 2.58D-07  0.00D+00 EMaxC= 1.00D-01 BMatC= 4.94D-11 BMatP= 4.60D-10
 IDIUse=1 WtCom= 1.00D+00 WtEn= 0.00D+00
 Coeff-Com: -0.896D-05 0.193D-04 0.452D-05-0.573D-04-0.306D-03-0.156D-03
 Coeff-Com:  0.160D-02 0.233D-02 0.253D-02-0.249D-01-0.445D-01 0.459D-01
 Coeff-Com:  0.251D+00 0.767D+00
 Coeff:     -0.896D-05 0.193D-04 0.452D-05-0.573D-04-0.306D-03-0.156D-03
 Coeff:      0.160D-02 0.233D-02 0.253D-02-0.249D-01-0.445D-01 0.459D-01
 Coeff:      0.251D+00 0.767D+00
 Gap=     0.217 Goal=   None    Shift=    0.000
 RMSDP=2.15D-07 MaxDP=2.62D-05 DE=-4.64D-10 OVMax= 6.08D-06

 Cycle  15  Pass 1  IDiag  1:
 RMSU=  1.40D-07    CP:  5.87D-01  1.45D+00  5.65D-01  8.96D-01  1.03D+00
                    CP:  1.20D+00  1.30D+00  1.31D+00  1.55D+00  1.37D+00
                    CP:  1.61D+00  1.41D+00  1.39D+00  1.52D+00
 E= -1955.39259307577     Delta-E=       -0.000000000642 Rises=F Damp=F
 DIIS: error= 9.66D-08 at cycle  15 NSaved=  15.
 NSaved=15 IEnMin=15 EnMin= -1955.39259307577     IErMin=15 ErrMin= 9.66D-08
 ErrMax= 9.66D-08  0.00D+00 EMaxC= 1.00D-01 BMatC= 1.29D-11 BMatP= 4.94D-11
 IDIUse=1 WtCom= 1.00D+00 WtEn= 0.00D+00
 Coeff-Com: -0.373D-05 0.785D-05 0.854D-05-0.592D-05-0.658D-04-0.123D-03
 Coeff-Com: -0.612D-03 0.548D-04 0.624D-02 0.189D-02-0.182D-01-0.550D-01
 Coeff-Com: -0.261D-01 0.354D+00 0.738D+00
 Coeff:     -0.373D-05 0.785D-05 0.854D-05-0.592D-05-0.658D-04-0.123D-03
 Coeff:     -0.612D-03 0.548D-04 0.624D-02 0.189D-02-0.182D-01-0.550D-01
 Coeff:     -0.261D-01 0.354D+00 0.738D+00
 Gap=     0.217 Goal=   None    Shift=    0.000
 RMSDP=3.21D-07 MaxDP=3.86D-05 DE=-6.42D-10 OVMax= 2.53D-06

 Cycle  16  Pass 1  IDiag  1:
 RMSU=  1.34D-07    CP:  5.87D-01  1.45D+00  5.65D-01  8.96D-01  1.03D+00
                    CP:  1.20D+00  1.30D+00  1.31D+00  1.55D+00  1.38D+00
                    CP:  1.66D+00  1.49D+00  1.71D+00  2.48D+00  2.29D+00
 E= -1955.39259307525     Delta-E=        0.000000000519 Rises=F Damp=F
 DIIS: error= 5.50D-08 at cycle  16 NSaved=  16.
 NSaved=16 IEnMin=15 EnMin= -1955.39259307577     IErMin=16 ErrMin= 5.50D-08
 ErrMax= 5.50D-08  0.00D+00 EMaxC= 1.00D-01 BMatC= 2.01D-12 BMatP= 1.29D-11
 IDIUse=1 WtCom= 1.00D+00 WtEn= 0.00D+00
 Coeff-Com: -0.840D-06 0.170D-05 0.307D-05 0.372D-05 0.144D-04-0.334D-04
 Coeff-Com: -0.417D-03-0.329D-03 0.207D-02 0.349D-02-0.106D-02-0.249D-01
 Coeff-Com: -0.452D-01 0.938D-02 0.269D+00 0.788D+00
 Coeff:     -0.840D-06 0.170D-05 0.307D-05 0.372D-05 0.144D-04-0.334D-04
 Coeff:     -0.417D-03-0.329D-03 0.207D-02 0.349D-02-0.106D-02-0.249D-01
 Coeff:     -0.452D-01 0.938D-02 0.269D+00 0.788D+00
 Gap=     0.217 Goal=   None    Shift=    0.000
 RMSDP=5.81D-07 MaxDP=7.08D-05 DE= 5.19D-10 OVMax= 1.33D-06

 Cycle  17  Pass 1  IDiag  1:
 RMSU=  3.31D-07    CP:  5.87D-01  1.45D+00  5.65D-01  8.96D-01  1.03D+00
                    CP:  1.20D+00  1.30D+00  1.31D+00  1.56D+00  1.39D+00
                    CP:  1.72D+00  1.60D+00  2.29D+00  3.00D+00  3.00D+00
                    CP:  2.89D+00
 E= -1955.39259307558     Delta-E=       -0.000000000337 Rises=F Damp=F
 DIIS: error= 4.54D-08 at cycle  17 NSaved=  17.
 NSaved=17 IEnMin=15 EnMin= -1955.39259307577     IErMin=17 ErrMin= 4.54D-08
 ErrMax= 4.54D-08  0.00D+00 EMaxC= 1.00D-01 BMatC= 9.56D-13 BMatP= 2.01D-12
 IDIUse=1 WtCom= 1.00D+00 WtEn= 0.00D+00
 Coeff-Com: -0.269D-06 0.544D-06 0.854D-06 0.211D-05 0.140D-04-0.640D-05
 Coeff-Com: -0.136D-03-0.177D-03 0.471D-03 0.149D-02 0.122D-02-0.623D-02
 Coeff-Com: -0.191D-01-0.339D-01 0.545D-01 0.396D+00 0.606D+00
 Coeff:     -0.269D-06 0.544D-06 0.854D-06 0.211D-05 0.140D-04-0.640D-05
 Coeff:     -0.136D-03-0.177D-03 0.471D-03 0.149D-02 0.122D-02-0.623D-02
 Coeff:     -0.191D-01-0.339D-01 0.545D-01 0.396D+00 0.606D+00
 Gap=     0.217 Goal=   None    Shift=    0.000
 RMSDP=5.96D-07 MaxDP=7.88D-05 DE=-3.37D-10 OVMax= 4.70D-07

 Cycle  18  Pass 1  IDiag  1:
 RMSU=  2.74D-07    CP:  5.87D-01  1.45D+00  5.65D-01  8.96D-01  1.03D+00
                    CP:  1.20D+00  1.30D+00  1.31D+00  1.57D+00  1.41D+00
                    CP:  1.77D+00  1.71D+00  2.88D+00  3.00D+00  3.00D+00
                    CP:  3.00D+00  2.40D+00
 E= -1955.39259307509     Delta-E=        0.000000000496 Rises=F Damp=F
 DIIS: error= 3.63D-08 at cycle  18 NSaved=  18.
 NSaved=18 IEnMin=15 EnMin= -1955.39259307577     IErMin=18 ErrMin= 3.63D-08
 ErrMax= 3.63D-08  0.00D+00 EMaxC= 1.00D-01 BMatC= 5.70D-13 BMatP= 9.56D-13
 IDIUse=1 WtCom= 1.00D+00 WtEn= 0.00D+00
 Coeff-Com: -0.250D-06 0.515D-06 0.708D-06 0.394D-06 0.261D-05-0.845D-05
 Coeff-Com: -0.908D-04-0.754D-04 0.536D-03 0.707D-03-0.614D-03-0.571D-02
 Coeff-Com: -0.868D-02 0.778D-02 0.599D-01 0.112D+00-0.148D+00 0.982D+00
 Coeff:     -0.250D-06 0.515D-06 0.708D-06 0.394D-06 0.261D-05-0.845D-05
 Coeff:     -0.908D-04-0.754D-04 0.536D-03 0.707D-03-0.614D-03-0.571D-02
 Coeff:     -0.868D-02 0.778D-02 0.599D-01 0.112D+00-0.148D+00 0.982D+00
 Gap=     0.217 Goal=   None    Shift=    0.000
 RMSDP=6.91D-07 MaxDP=9.59D-05 DE= 4.96D-10 OVMax= 1.92D-07

 Cycle  19  Pass 1  IDiag  1:
 RMSU=  3.34D-07    CP:  5.87D-01  1.45D+00  5.65D-01  8.96D-01  1.03D+00
                    CP:  1.20D+00  1.30D+00  1.31D+00  1.58D+00  1.42D+00
                    CP:  1.82D+00  1.83D+00  3.00D+00  3.00D+00  3.00D+00
                    CP:  3.00D+00  3.00D+00  2.57D+00
 E= -1955.39259307466     Delta-E=        0.000000000434 Rises=F Damp=F
 DIIS: error= 3.56D-08 at cycle  19 NSaved=  19.
 NSaved=19 IEnMin=15 EnMin= -1955.39259307577     IErMin=19 ErrMin= 3.56D-08
 ErrMax= 3.56D-08  0.00D+00 EMaxC= 1.00D-01 BMatC= 5.59D-13 BMatP= 5.70D-13
 IDIUse=1 WtCom= 1.00D+00 WtEn= 0.00D+00
 Coeff-Com: -0.327D-06 0.674D-06 0.927D-06 0.364D-06 0.521D-06-0.114D-04
 Coeff-Com: -0.105D-03-0.673D-04 0.650D-03 0.737D-03-0.981D-03-0.697D-02
 Coeff-Com: -0.956D-02 0.153D-01 0.776D-01 0.124D+00-0.265D+00 0.351D+00
 Coeff-Com:  0.712D+00
 Coeff:     -0.327D-06 0.674D-06 0.927D-06 0.364D-06 0.521D-06-0.114D-04
 Coeff:     -0.105D-03-0.673D-04 0.650D-03 0.737D-03-0.981D-03-0.697D-02
 Coeff:     -0.956D-02 0.153D-01 0.776D-01 0.124D+00-0.265D+00 0.351D+00
 Coeff:      0.712D+00
 Gap=     0.217 Goal=   None    Shift=    0.000
 RMSDP=4.72D-07 MaxDP=6.88D-05 DE= 4.34D-10 OVMax= 1.33D-07

 Cycle  20  Pass 1  IDiag  1:
 RMSU=  2.21D-07    CP:  5.87D-01  1.45D+00  5.65D-01  8.96D-01  1.03D+00
                    CP:  1.20D+00  1.30D+00  1.31D+00  1.58D+00  1.44D+00
                    CP:  1.85D+00  1.92D+00  3.00D+00  3.00D+00  3.00D+00
                    CP:  3.00D+00  3.00D+00  3.00D+00  1.96D+00
 E= -1955.39259307448     Delta-E=        0.000000000171 Rises=F Damp=F
 DIIS: error= 3.75D-08 at cycle  20 NSaved=  20.
 NSaved=20 IEnMin=15 EnMin= -1955.39259307577     IErMin=19 ErrMin= 3.56D-08
 ErrMax= 3.75D-08  0.00D+00 EMaxC= 1.00D-01 BMatC= 6.00D-13 BMatP= 5.59D-13
 IDIUse=1 WtCom= 1.00D+00 WtEn= 0.00D+00
 Coeff-Com: -0.327D-06 0.675D-06 0.929D-06 0.368D-06 0.557D-06-0.114D-04
 Coeff-Com: -0.105D-03-0.677D-04 0.650D-03 0.739D-03-0.978D-03-0.698D-02
 Coeff-Com: -0.960D-02 0.151D-01 0.776D-01 0.125D+00-0.265D+00 0.357D+00
 Coeff-Com:  0.754D+00-0.465D-01
 Coeff:     -0.327D-06 0.675D-06 0.929D-06 0.368D-06 0.557D-06-0.114D-04
 Coeff:     -0.105D-03-0.677D-04 0.650D-03 0.739D-03-0.978D-03-0.698D-02
 Coeff:     -0.960D-02 0.151D-01 0.776D-01 0.125D+00-0.265D+00 0.357D+00
 Coeff:      0.754D+00-0.465D-01
 Gap=     0.217 Goal=   None    Shift=    0.000
 RMSDP=2.90D-08 MaxDP=3.90D-06 DE= 1.71D-10 OVMax= 7.90D-09

 Cycle  21  Pass 1  IDiag  1:
 Restarting incremental Fock formation.
 E= -1955.39259307710     Delta-E=       -0.000000002618 Rises=F Damp=F
 DIIS: error= 2.48D-07 at cycle  21 NSaved=  20.
 NSaved=20 IEnMin=20 EnMin= -1955.39259307710     IErMin=18 ErrMin= 3.56D-08
 ErrMax= 2.48D-07  0.00D+00 EMaxC= 1.00D-01 BMatC= 2.12D-11 BMatP= 5.59D-13
 IDIUse=1 WtCom= 1.00D+00 WtEn= 0.00D+00
 Coeff-Com: -0.148D-07 0.197D-06 0.524D-06 0.549D-05-0.220D-05-0.604D-04
 Coeff-Com: -0.711D-04 0.257D-03 0.573D-03 0.876D-04-0.326D-02-0.679D-02
 Coeff-Com: -0.385D-02 0.298D-01 0.874D-01-0.133D+00 0.412D+00 0.427D+00
 Coeff-Com:  0.997D-01 0.902D-01
 Coeff:     -0.148D-07 0.197D-06 0.524D-06 0.549D-05-0.220D-05-0.604D-04
 Coeff:     -0.711D-04 0.257D-03 0.573D-03 0.876D-04-0.326D-02-0.679D-02
 Coeff:     -0.385D-02 0.298D-01 0.874D-01-0.133D+00 0.412D+00 0.427D+00
 Coeff:      0.997D-01 0.902D-01
 Gap=     0.217 Goal=   None    Shift=    0.000
 RMSDP=6.43D-07 MaxDP=9.77D-05 DE=-2.62D-09 OVMax= 1.19D-07

 Cycle  22  Pass 1  IDiag  1:
 RMSU=  6.41D-07    CP:  1.00D+00
 E= -1955.39259307714     Delta-E=       -0.000000000039 Rises=F Damp=F
 DIIS: error= 2.33D-07 at cycle  22 NSaved=  20.
 NSaved=20 IEnMin=20 EnMin= -1955.39259307714     IErMin=17 ErrMin= 3.56D-08
 ErrMax= 2.33D-07  0.00D+00 EMaxC= 1.00D-01 BMatC= 1.87D-11 BMatP= 5.59D-13
 IDIUse=1 WtCom= 1.00D+00 WtEn= 0.00D+00
 Coeff-Com:  0.706D-07 0.381D-06 0.386D-05-0.524D-06-0.284D-04-0.436D-04
 Coeff-Com:  0.892D-04 0.318D-03 0.209D-03-0.132D-02-0.355D-02-0.634D-02
 Coeff-Com:  0.932D-02 0.606D-01 0.357D-02 0.276D+00 0.584D-01 0.436D+00
 Coeff-Com: -0.119D+01 0.136D+01
 Coeff:      0.706D-07 0.381D-06 0.386D-05-0.524D-06-0.284D-04-0.436D-04
 Coeff:      0.892D-04 0.318D-03 0.209D-03-0.132D-02-0.355D-02-0.634D-02
 Coeff:      0.932D-02 0.606D-01 0.357D-02 0.276D+00 0.584D-01 0.436D+00
 Coeff:     -0.119D+01 0.136D+01
 Gap=     0.217 Goal=   None    Shift=    0.000
 RMSDP=7.08D-07 MaxDP=9.77D-05 DE=-3.91D-11 OVMax= 1.17D-07

 Cycle  23  Pass 1  IDiag  1:
 RMSU=  2.35D-07    CP:  1.00D+00  2.03D+00
 E= -1955.39259307763     Delta-E=       -0.000000000492 Rises=F Damp=F
 DIIS: error= 2.22D-07 at cycle  23 NSaved=  20.
 NSaved=20 IEnMin=20 EnMin= -1955.39259307763     IErMin=16 ErrMin= 3.56D-08
 ErrMax= 2.22D-07  0.00D+00 EMaxC= 1.00D-01 BMatC= 1.69D-11 BMatP= 5.59D-13
 IDIUse=1 WtCom= 1.00D+00 WtEn= 0.00D+00
 Coeff-Com:  0.104D-06 0.229D-05 0.215D-06-0.130D-04-0.265D-04 0.364D-04
 Coeff-Com:  0.192D-03 0.218D-03-0.646D-03-0.238D-02-0.591D-02 0.504D-02
 Coeff-Com:  0.536D-01 0.483D-01 0.845D-01-0.133D+00 0.748D+00-0.968D+00
 Coeff-Com:  0.104D+00 0.107D+01
 Coeff:      0.104D-06 0.229D-05 0.215D-06-0.130D-04-0.265D-04 0.364D-04
 Coeff:      0.192D-03 0.218D-03-0.646D-03-0.238D-02-0.591D-02 0.504D-02
 Coeff:      0.536D-01 0.483D-01 0.845D-01-0.133D+00 0.748D+00-0.968D+00
 Coeff:      0.104D+00 0.107D+01
 Gap=     0.217 Goal=   None    Shift=    0.000
 RMSDP=4.35D-07 MaxDP=4.74D-05 DE=-4.92D-10 OVMax= 7.27D-08

 Cycle  24  Pass 1  IDiag  1:
 RMSU=  1.68D-07    CP:  1.00D+00  2.58D+00  1.76D+00
 E= -1955.39259307742     Delta-E=        0.000000000215 Rises=F Damp=F
 DIIS: error= 2.14D-07 at cycle  24 NSaved=  20.
 NSaved=20 IEnMin=19 EnMin= -1955.39259307763     IErMin=15 ErrMin= 3.56D-08
 ErrMax= 2.14D-07  0.00D+00 EMaxC= 1.00D-01 BMatC= 1.57D-11 BMatP= 5.59D-13
 IDIUse=1 WtCom= 1.00D+00 WtEn= 0.00D+00
 Coeff-Com:  0.173D-05-0.342D-08-0.127D-04-0.224D-04 0.486D-04 0.168D-03
 Coeff-Com:  0.123D-03-0.778D-03-0.225D-02-0.426D-02 0.663D-02 0.475D-01
 Coeff-Com:  0.239D-01 0.409D-01-0.636D-01 0.742D+00-0.784D+00-0.871D-01
 Coeff-Com:  0.506D+00 0.574D+00
 Coeff:      0.173D-05-0.342D-08-0.127D-04-0.224D-04 0.486D-04 0.168D-03
 Coeff:      0.123D-03-0.778D-03-0.225D-02-0.426D-02 0.663D-02 0.475D-01
 Coeff:      0.239D-01 0.409D-01-0.636D-01 0.742D+00-0.784D+00-0.871D-01
 Coeff:      0.506D+00 0.574D+00
 Gap=     0.217 Goal=   None    Shift=    0.000
 RMSDP=1.83D-07 MaxDP=1.82D-05 DE= 2.15D-10 OVMax= 3.88D-08

 Cycle  25  Pass 1  IDiag  1:
 RMSU=  1.08D-07    CP:  1.00D+00  2.62D+00  2.28D+00  1.49D+00
 E= -1955.39259307714     Delta-E=        0.000000000282 Rises=F Damp=F
 DIIS: error= 2.15D-07 at cycle  25 NSaved=  20.
 NSaved=20 IEnMin=18 EnMin= -1955.39259307763     IErMin=14 ErrMin= 3.56D-08
 ErrMax= 2.15D-07  0.00D+00 EMaxC= 1.00D-01 BMatC= 1.55D-11 BMatP= 5.59D-13
 IDIUse=1 WtCom= 1.00D+00 WtEn= 0.00D+00
 Coeff-Com: -0.143D-05-0.946D-05-0.111D-04 0.636D-04 0.142D-03 0.331D-04
 Coeff-Com: -0.768D-03-0.197D-02-0.383D-02 0.553D-02 0.421D-01 0.160D-01
 Coeff-Com:  0.382D-01-0.827D-01 0.779D+00-0.738D+00-0.198D+00 0.585D+00
 Coeff-Com:  0.803D+00-0.244D+00
 Coeff:     -0.143D-05-0.946D-05-0.111D-04 0.636D-04 0.142D-03 0.331D-04
 Coeff:     -0.768D-03-0.197D-02-0.383D-02 0.553D-02 0.421D-01 0.160D-01
 Coeff:      0.382D-01-0.827D-01 0.779D+00-0.738D+00-0.198D+00 0.585D+00
 Coeff:      0.803D+00-0.244D+00
 Gap=     0.217 Goal=   None    Shift=    0.000
 RMSDP=6.30D-08 MaxDP=6.04D-06 DE= 2.82D-10 OVMax= 1.65D-08

 Cycle  26  Pass 1  IDiag  1:
 RMSU=  3.89D-08    CP:  1.00D+00  2.56D+00  2.17D+00  1.38D+00  8.13D-01
 E= -1955.39259307726     Delta-E=       -0.000000000119 Rises=F Damp=F
 DIIS: error= 2.18D-07 at cycle  26 NSaved=  20.
 NSaved=20 IEnMin=17 EnMin= -1955.39259307763     IErMin=13 ErrMin= 3.56D-08
 ErrMax= 2.18D-07  0.00D+00 EMaxC= 1.00D-01 BMatC= 1.57D-11 BMatP= 5.59D-13
 IDIUse=1 WtCom= 1.00D+00 WtEn= 0.00D+00
 Coeff-Com: -0.438D-05-0.105D-04 0.413D-04 0.107D-03 0.341D-04-0.638D-03
 Coeff-Com: -0.165D-02-0.296D-02 0.541D-02 0.350D-01 0.302D-02 0.497D-01
 Coeff-Com: -0.109D+00 0.813D+00-0.749D+00-0.169D+00 0.506D+00 0.851D+00
 Coeff-Com: -0.551D+00 0.320D+00
 Coeff:     -0.438D-05-0.105D-04 0.413D-04 0.107D-03 0.341D-04-0.638D-03
 Coeff:     -0.165D-02-0.296D-02 0.541D-02 0.350D-01 0.302D-02 0.497D-01
 Coeff:     -0.109D+00 0.813D+00-0.749D+00-0.169D+00 0.506D+00 0.851D+00
 Coeff:     -0.551D+00 0.320D+00
 Gap=     0.217 Goal=   None    Shift=    0.000
 RMSDP=6.05D-08 MaxDP=7.36D-06 DE=-1.19D-10 OVMax= 1.48D-08

 Cycle  27  Pass 1  IDiag  1:
 RMSU=  5.46D-08    CP:  1.00D+00  2.58D+00  2.17D+00  1.47D+00  6.93D-01
                    CP:  1.43D+00
 E= -1955.39259307679     Delta-E=        0.000000000464 Rises=F Damp=F
 DIIS: error= 2.17D-07 at cycle  27 NSaved=  20.
 NSaved=20 IEnMin=16 EnMin= -1955.39259307763     IErMin=12 ErrMin= 3.56D-08
 ErrMax= 2.17D-07  0.00D+00 EMaxC= 1.00D-01 BMatC= 1.56D-11 BMatP= 5.59D-13
 IDIUse=1 WtCom= 1.00D+00 WtEn= 0.00D+00
 Coeff-Com: -0.760D-05 0.290D-04 0.673D-04 0.166D-04-0.469D-03-0.135D-02
 Coeff-Com: -0.290D-02 0.472D-02 0.341D-01 0.408D-02 0.518D-01-0.116D+00
 Coeff-Com:  0.819D+00-0.742D+00-0.173D+00 0.498D+00 0.886D+00-0.597D+00
 Coeff-Com:  0.410D+00-0.749D-01
 Coeff:     -0.760D-05 0.290D-04 0.673D-04 0.166D-04-0.469D-03-0.135D-02
 Coeff:     -0.290D-02 0.472D-02 0.341D-01 0.408D-02 0.518D-01-0.116D+00
 Coeff:      0.819D+00-0.742D+00-0.173D+00 0.498D+00 0.886D+00-0.597D+00
 Coeff:      0.410D+00-0.749D-01
 Gap=     0.217 Goal=   None    Shift=    0.000
 RMSDP=1.56D-08 MaxDP=1.30D-06 DE= 4.64D-10 OVMax= 4.71D-09

 Cycle  28  Pass 1  IDiag  1:
 RMSU=  1.16D-08    CP:  1.00D+00  2.56D+00  2.15D+00  1.45D+00  6.64D-01
                    CP:  1.36D+00  9.49D-01
 E= -1955.39259307718     Delta-E=       -0.000000000390 Rises=F Damp=F
 DIIS: error= 2.17D-07 at cycle  28 NSaved=  20.
 NSaved=20 IEnMin=15 EnMin= -1955.39259307763     IErMin=11 ErrMin= 3.56D-08
 ErrMax= 2.17D-07  0.00D+00 EMaxC= 1.00D-01 BMatC= 1.56D-11 BMatP= 5.59D-13
 IDIUse=1 WtCom= 1.00D+00 WtEn= 0.00D+00
 Coeff-Com:  0.333D-04 0.456D-04-0.195D-04-0.397D-03-0.121D-02-0.310D-02
 Coeff-Com:  0.377D-02 0.328D-01 0.455D-02 0.507D-01-0.115D+00 0.822D+00
 Coeff-Com: -0.738D+00-0.178D+00 0.502D+00 0.888D+00-0.631D+00 0.455D+00
 Coeff-Com: -0.190D+00 0.989D-01
 Coeff:      0.333D-04 0.456D-04-0.195D-04-0.397D-03-0.121D-02-0.310D-02
 Coeff:      0.377D-02 0.328D-01 0.455D-02 0.507D-01-0.115D+00 0.822D+00
 Coeff:     -0.738D+00-0.178D+00 0.502D+00 0.888D+00-0.631D+00 0.455D+00
 Coeff:     -0.190D+00 0.989D-01
 Gap=     0.217 Goal=   None    Shift=    0.000
 RMSDP=3.03D-08 MaxDP=4.30D-06 DE=-3.90D-10 OVMax= 5.20D-09

 Cycle  29  Pass 1  IDiag  1:
 RMSU=  1.86D-08    CP:  1.00D+00  2.53D+00  2.14D+00  1.44D+00  6.49D-01
                    CP:  1.50D+00  8.38D-01  9.88D-01
 E= -1955.39259307699     Delta-E=        0.000000000187 Rises=F Damp=F
 DIIS: error= 2.18D-07 at cycle  29 NSaved=  20.
 NSaved=20 IEnMin=14 EnMin= -1955.39259307763     IErMin=10 ErrMin= 3.56D-08
 ErrMax= 2.18D-07  0.00D+00 EMaxC= 1.00D-01 BMatC= 1.56D-11 BMatP= 5.59D-13
 IDIUse=1 WtCom= 1.00D+00 WtEn= 0.00D+00
 Coeff-Com:  0.568D-04 0.894D-04-0.342D-03-0.133D-02-0.351D-02 0.332D-02
 Coeff-Com:  0.315D-01-0.452D-04 0.524D-01-0.112D+00 0.824D+00-0.737D+00
 Coeff-Com: -0.179D+00 0.499D+00 0.898D+00-0.642D+00 0.473D+00-0.199D+00
 Coeff-Com:  0.149D+00-0.562D-01
 Coeff:      0.568D-04 0.894D-04-0.342D-03-0.133D-02-0.351D-02 0.332D-02
 Coeff:      0.315D-01-0.452D-04 0.524D-01-0.112D+00 0.824D+00-0.737D+00
 Coeff:     -0.179D+00 0.499D+00 0.898D+00-0.642D+00 0.473D+00-0.199D+00
 Coeff:      0.149D+00-0.562D-01
 Gap=     0.217 Goal=   None    Shift=    0.000
 RMSDP=9.85D-09 MaxDP=7.56D-07 DE= 1.87D-10 OVMax= 1.41D-08

 SCF Done:  E(RwB97XD) =  -1955.39259308     A.U. after   29 cycles
            NFock= 29  Conv=0.98D-08     -V/T= 2.0045
 KE= 1.946553016698D+03 PE=-1.444282795271D+04 EE= 5.597820715251D+03
 Leave Link  502 at Thu Nov  2 22:56:52 2017, MaxMem=  3758096384 cpu:     28539.5
 (Enter /share/apps/gaussian/g09_D01/g09/l801.exe)
 DoSCS=F DFT=T ScalE2(SS,OS)=  1.000000  1.000000
 ExpMin= 3.60D-02 ExpMax= 8.59D+03 ExpMxC= 1.30D+03 IAcc=3 IRadAn=         5 AccDes= 0.00D+00
 HarFok:  IExCor=  205 AccDes= 0.00D+00 IRadAn=         5 IDoV=-2 UseB2=F ITyADJ=14
 ICtDFT= 12500011 ScaDFX=  1.000000  1.000000  1.000000  1.000000
 Largest valence mixing into a core orbital is  5.72D-05
 Largest core mixing into a valence orbital is  1.73D-05
 Range of M.O.s used for correlation:    45  1215
 NBasis=  1234 NAE=   158 NBE=   158 NFC=    44 NFV=     0
 NROrb=   1171 NOA=   114 NOB=   114 NVA=  1057 NVB=  1057

 **** Warning!!: The largest alpha MO coefficient is  0.90099442D+02

 Leave Link  801 at Thu Nov  2 22:56:53 2017, MaxMem=  3758096384 cpu:         3.1
 (Enter /share/apps/gaussian/g09_D01/g09/l914.exe)
 RHF ground state
 MDV=  3758096384 DFT=T DoStab=F Mixed=T DoRPA=T DoScal=F NonHer=T
 Would need an additional       1739199500000 words for in-memory AO integral storage.
 Making orbital integer symmetry assigments:
     8 initial guesses have been made.
 Convergence on wavefunction:    0.001000000000000
 Davidson Disk Diagonalization:  ConvIn= 1.00D-03 SkipCon=T Conv= 1.00D-03.
 Max sub-space:   200 roots to seek:     8 dimension of matrix:       240996
 Iteration     1 Dimension     8 NMult     0 NNew      8
 CISAX will form     8 AO SS matrices at one time.
 NMat=     8 NSing=     8 JSym2X= 0.
 FoFJK:  IHMeth= 1 ICntrl=       0 DoSepK=T KAlg= 0 I1Cent=   0 FoldK=F
 IRaf=         1 NMat=  16 IRICut=       1 DoRegI=T DoRafI=F ISym2E= 0.
 FoFCou: FMM=T IPFlag=           0 FMFlag=      100000 FMFlg1=        2001
         NFxFlg=           0 DoJE=F BraDBF=F KetDBF=F FulRan=T
         wScrn=  0.000000 ICntrl=     500 IOpCl=  0 I1Cent=           0 NGrid=           0
         NMat0=    8 NMatS0=      8 NMatT0=    0 NMatD0=    8 NMtDS0=    0 NMtDT0=    0
 Symmetry not used in FoFCou.
 FMM levels:  10  Number of levels for PrismC:   9
 Excitation Energies [eV] at current iteration:
 Root      1 :     3.559008551786670
 Root      2 :     3.879404885809659
 Root      3 :     3.956252059171680
 Root      4 :     4.794041722945720
 Root      5 :     4.875365800159637
 Root      6 :     4.999878719228334
 Root      7 :     5.565977378315273
 Root      8 :     5.782231965287870
 Iteration     2 Dimension    12 NMult     8 NNew      4
 CISAX will form     4 AO SS matrices at one time.
 NMat=     4 NSing=     4 JSym2X= 0.
 New state      1 was old state      2
 Root      1 not converged, maximum delta is    0.242395236994698
 New state      2 was old state      1
 Root      2 not converged, maximum delta is    0.218197680108810
 Excitation Energies [eV] at current iteration:
 Root      1 :     3.325338130592519   Change is   -0.554066755217139
 Root      2 :     3.504099045219662   Change is   -0.054909506567007
 Iteration     3 Dimension    16 NMult    12 NNew      4
 CISAX will form     4 AO SS matrices at one time.
 NMat=     4 NSing=     4 JSym2X= 0.
 Root      1 not converged, maximum delta is    0.025940922051826
 Root      2 not converged, maximum delta is    0.139489622420989
 Excitation Energies [eV] at current iteration:
 Root      1 :     3.281295184328939   Change is   -0.044042946263580
 Root      2 :     3.484161581936943   Change is   -0.019937463282719
 Iteration     4 Dimension    20 NMult    16 NNew      4
 CISAX will form     4 AO SS matrices at one time.
 NMat=     4 NSing=     4 JSym2X= 0.
 Root      1 not converged, maximum delta is    0.024372601232418
 Root      2 not converged, maximum delta is    0.431256438161163
 Excitation Energies [eV] at current iteration:
 Root      1 :     3.273636343028827   Change is   -0.007658841300113
 Root      2 :     3.392412189028854   Change is   -0.091749392908090
 Iteration     5 Dimension    24 NMult    20 NNew      4
 CISAX will form     4 AO SS matrices at one time.
 NMat=     4 NSing=     4 JSym2X= 0.
 Root      1 not converged, maximum delta is    0.009824036040334
 Root      2 not converged, maximum delta is    0.057189278299755
 Excitation Energies [eV] at current iteration:
 Root      1 :     3.272425763193575   Change is   -0.001210579835252
 Root      2 :     3.366538312840716   Change is   -0.025873876188138
 Iteration     6 Dimension    28 NMult    24 NNew      4
 CISAX will form     4 AO SS matrices at one time.
 NMat=     4 NSing=     4 JSym2X= 0.
 Root      1 not converged, maximum delta is    0.002042737137929
 Root      2 not converged, maximum delta is    0.010321307589894
 Excitation Energies [eV] at current iteration:
 Root      1 :     3.272250973275251   Change is   -0.000174789918324
 Root      2 :     3.362518337907832   Change is   -0.004019974932884
 Iteration     7 Dimension    32 NMult    28 NNew      4
 CISAX will form     4 AO SS matrices at one time.
 NMat=     4 NSing=     4 JSym2X= 0.
 Root      1 has converged.
 Root      2 not converged, maximum delta is    0.003802699653290
 Excitation Energies [eV] at current iteration:
 Root      1 :     3.272223632229609   Change is   -0.000027341045641
 Root      2 :     3.361802177476498   Change is   -0.000716160431334
 Iteration     8 Dimension    34 NMult    32 NNew      2
 CISAX will form     2 AO SS matrices at one time.
 NMat=     2 NSing=     2 JSym2X= 0.
 Root      1 has converged.
 Root      2 not converged, maximum delta is    0.002279924704523
 Excitation Energies [eV] at current iteration:
 Root      1 :     3.272223190539754   Change is   -0.000000441689855
 Root      2 :     3.361619644354560   Change is   -0.000182533121938
 Iteration     9 Dimension    36 NMult    34 NNew      2
 CISAX will form     2 AO SS matrices at one time.
 NMat=     2 NSing=     2 JSym2X= 0.
 Root      1 has converged.
 Root      2 has converged.
 Excitation Energies [eV] at current iteration:
 Root      1 :     3.272223066945374   Change is   -0.000000123594380
 Root      2 :     3.361572527921393   Change is   -0.000047116433167
 Convergence achieved on expansion vectors.
 ***********************************************************************
 Excited states from <AA,BB:AA,BB> singles matrix:
 ***********************************************************************
 
 1PDM for each excited state written to RWF  633
 Ground to excited state transition densities written to RWF  633
 Ground to excited state transition electric dipole moments (Au):
       state          X           Y           Z        Dip. S.      Osc.
         1         0.0303     -1.2713      0.3567      1.7445      0.1399
         2        -0.7690      0.1045     -5.2331     27.9878      2.3050
 Ground to excited state transition velocity dipole moments (Au):
       state          X           Y           Z        Dip. S.      Osc.
         1        -0.0031      0.1485     -0.0422      0.0239      0.1322
         2         0.0907     -0.0127      0.6372      0.4144      2.2365
 Ground to excited state transition magnetic dipole moments (Au):
       state          X           Y           Z
         1        -2.3870      2.7410      0.4555
         2        -4.8816      0.3523      0.1658
 Ground to excited state transition velocity quadrupole moments (Au):
       state          XX          YY          ZZ          XY          XZ          YZ
         1        -0.7636     -1.9507      5.7939      0.1588     -1.1828     -0.7345
         2         0.5079     -0.3760      1.7161     -0.9437      1.4935     -3.1313
 <0|del|b> * <b|rxdel|0> + <0|del|b> * <b|delr+rdel|0>
 Rotatory Strengths (R) in cgs (10**-40 erg-esu-cm/Gauss)
       state          XX          YY          ZZ    R(velocity)    E-M Angle
         1      1637.3688     -8.4129    695.5614    774.8391       45.68
         2     -1377.4619    -57.7561   -521.5027   -652.2402       96.22
 1/2[<0|r|b>*<b|rxdel|0> + (<0|rxdel|b>*<b|r|0>)*]
 Rotatory Strengths (R) in cgs (10**-40 erg-esu-cm/Gauss)
       state          XX          YY          ZZ     R(length)
         1        51.2144   2464.2746   -114.9163    800.1909
         2     -2654.6748    -26.0241    613.4873   -689.0706
  1/2[<0|del|b>*<b|r|0> + (<0|r|b>*<b|del|0>)*] (Au)
       state          X           Y           Z        Dip. S.   Osc.(frdel)
         1        -0.0001     -0.1888     -0.0151      0.2040      0.1360
         2        -0.0698     -0.0013     -3.3346      3.4057      2.2705

 Excitation energies and oscillator strengths:
 
 Excited state symmetry could not be determined.
 Excited State   1:      Singlet-?Sym    3.2722 eV  378.90 nm  f=0.1399  <S**2>=0.000
     155 -> 159       -0.11149
     157 -> 159        0.48372
     158 -> 159        0.13917
     158 -> 160        0.43503
 This state for optimization and/or second-order correction.
 Total Energy, E(TD-HF/TD-KS) =  -1955.27234109    
 Copying the excited state density for this state as the 1-particle RhoCI density.
 
 Excited state symmetry could not be determined.
 Excited State   2:      Singlet-?Sym    3.3616 eV  368.83 nm  f=2.3050  <S**2>=0.000
     157 -> 159       -0.46188
     158 -> 159        0.11825
     158 -> 160        0.47121
 SavETr:  write IOETrn=   770 NScale= 10 NData=  16 NLR=1 NState=    2 LETran=      46.
 Leave Link  914 at Fri Nov  3 02:06:20 2017, MaxMem=  3758096384 cpu:     45413.1
 (Enter /share/apps/gaussian/g09_D01/g09/l601.exe)
 Copying SCF densities to generalized density rwf, IOpCl= 0 IROHF=0.

 **********************************************************************

            Population analysis using the SCF density.

 **********************************************************************

 Alpha  occ. eigenvalues --  -19.29169 -19.28039 -19.25469 -19.24082 -19.23060
 Alpha  occ. eigenvalues --  -19.21836 -14.48539 -14.46392 -10.38846 -10.36914
 Alpha  occ. eigenvalues --  -10.36743 -10.36548 -10.36199 -10.35242 -10.34708
 Alpha  occ. eigenvalues --  -10.34342 -10.34263 -10.34250 -10.33808 -10.33763
 Alpha  occ. eigenvalues --  -10.32606 -10.32521 -10.32308 -10.31645 -10.31530
 Alpha  occ. eigenvalues --  -10.31106 -10.30905 -10.30774 -10.30505 -10.29952
 Alpha  occ. eigenvalues --  -10.29936 -10.29859 -10.29151 -10.28871 -10.28839
 Alpha  occ. eigenvalues --  -10.28782 -10.28731 -10.28378 -10.28225 -10.28110
 Alpha  occ. eigenvalues --  -10.27782 -10.27114 -10.27091 -10.26978  -1.18243
 Alpha  occ. eigenvalues --   -1.17134  -1.16080  -1.13734  -1.11970  -1.09656
 Alpha  occ. eigenvalues --   -1.08873  -1.06758  -0.98023  -0.96350  -0.95513
 Alpha  occ. eigenvalues --   -0.94412  -0.91923  -0.89415  -0.88297  -0.87924
 Alpha  occ. eigenvalues --   -0.86322  -0.85783  -0.85576  -0.85328  -0.84899
 Alpha  occ. eigenvalues --   -0.83642  -0.83497  -0.82819  -0.81591  -0.80101
 Alpha  occ. eigenvalues --   -0.79565  -0.77473  -0.74537  -0.72720  -0.72395
 Alpha  occ. eigenvalues --   -0.71770  -0.70813  -0.70333  -0.69780  -0.68862
 Alpha  occ. eigenvalues --   -0.68790  -0.66516  -0.65496  -0.64315  -0.63248
 Alpha  occ. eigenvalues --   -0.62904  -0.62155  -0.62010  -0.61292  -0.59997
 Alpha  occ. eigenvalues --   -0.59907  -0.59755  -0.58531  -0.57901  -0.57811
 Alpha  occ. eigenvalues --   -0.57626  -0.56618  -0.56592  -0.56396  -0.55825
 Alpha  occ. eigenvalues --   -0.55692  -0.55311  -0.54924  -0.54159  -0.53968
 Alpha  occ. eigenvalues --   -0.53493  -0.53179  -0.52818  -0.52776  -0.52259
 Alpha  occ. eigenvalues --   -0.52154  -0.52012  -0.51359  -0.50724  -0.50479
 Alpha  occ. eigenvalues --   -0.50398  -0.50055  -0.49962  -0.49944  -0.49633
 Alpha  occ. eigenvalues --   -0.49329  -0.49051  -0.48663  -0.48123  -0.48064
 Alpha  occ. eigenvalues --   -0.47812  -0.47491  -0.47265  -0.46768  -0.46709
 Alpha  occ. eigenvalues --   -0.46102  -0.45576  -0.45533  -0.45088  -0.44078
 Alpha  occ. eigenvalues --   -0.44034  -0.43548  -0.43397  -0.42560  -0.42312
 Alpha  occ. eigenvalues --   -0.42139  -0.41098  -0.40577  -0.40028  -0.39821
 Alpha  occ. eigenvalues --   -0.38257  -0.35971  -0.35790  -0.35101  -0.33624
 Alpha  occ. eigenvalues --   -0.33230  -0.32842  -0.32257  -0.30566  -0.30248
 Alpha  occ. eigenvalues --   -0.28245  -0.27711  -0.25375
 Alpha virt. eigenvalues --   -0.03642  -0.01195   0.01908   0.02771   0.03164
 Alpha virt. eigenvalues --    0.03513   0.03738   0.04022   0.04498   0.04804
 Alpha virt. eigenvalues --    0.05021   0.05171   0.05414   0.05716   0.05795
 Alpha virt. eigenvalues --    0.06297   0.06340   0.06706   0.06784   0.06919
 Alpha virt. eigenvalues --    0.06963   0.07410   0.07511   0.07813   0.07902
 Alpha virt. eigenvalues --    0.07942   0.08104   0.08572   0.08664   0.08879
 Alpha virt. eigenvalues --    0.09008   0.09308   0.09683   0.09978   0.10079
 Alpha virt. eigenvalues --    0.10207   0.10582   0.10829   0.10915   0.11210
 Alpha virt. eigenvalues --    0.11372   0.11525   0.11852   0.12023   0.12148
 Alpha virt. eigenvalues --    0.12486   0.12710   0.12805   0.13282   0.13339
 Alpha virt. eigenvalues --    0.13496   0.13782   0.14082   0.14112   0.14345
 Alpha virt. eigenvalues --    0.14615   0.14799   0.14916   0.15110   0.15273
 Alpha virt. eigenvalues --    0.15371   0.15585   0.15625   0.15849   0.15928
 Alpha virt. eigenvalues --    0.16166   0.16188   0.16511   0.16582   0.16672
 Alpha virt. eigenvalues --    0.16953   0.17051   0.17238   0.17347   0.17503
 Alpha virt. eigenvalues --    0.17567   0.17926   0.18126   0.18284   0.18428
 Alpha virt. eigenvalues --    0.18501   0.18621   0.18773   0.18928   0.18964
 Alpha virt. eigenvalues --    0.19009   0.19246   0.19415   0.19530   0.19838
 Alpha virt. eigenvalues --    0.19935   0.20029   0.20223   0.20307   0.20443
 Alpha virt. eigenvalues --    0.20589   0.20719   0.20954   0.21082   0.21333
 Alpha virt. eigenvalues --    0.21420   0.21688   0.21834   0.21941   0.22021
 Alpha virt. eigenvalues --    0.22188   0.22298   0.22420   0.22452   0.22670
 Alpha virt. eigenvalues --    0.22748   0.22990   0.23105   0.23260   0.23264
 Alpha virt. eigenvalues --    0.23414   0.23426   0.23763   0.23991   0.24231
 Alpha virt. eigenvalues --    0.24362   0.24491   0.24727   0.24865   0.25108
 Alpha virt. eigenvalues --    0.25219   0.25388   0.25510   0.25719   0.25818
 Alpha virt. eigenvalues --    0.25945   0.25992   0.26174   0.26229   0.26377
 Alpha virt. eigenvalues --    0.26569   0.26968   0.27070   0.27309   0.27322
 Alpha virt. eigenvalues --    0.27506   0.27580   0.27839   0.28024   0.28140
 Alpha virt. eigenvalues --    0.28228   0.28387   0.28451   0.28676   0.28785
 Alpha virt. eigenvalues --    0.28916   0.29240   0.29411   0.29482   0.29631
 Alpha virt. eigenvalues --    0.29865   0.29996   0.30147   0.30216   0.30549
 Alpha virt. eigenvalues --    0.30563   0.30753   0.30994   0.31198   0.31254
 Alpha virt. eigenvalues --    0.31684   0.31797   0.31846   0.31976   0.32055
 Alpha virt. eigenvalues --    0.32572   0.32649   0.32711   0.32933   0.32951
 Alpha virt. eigenvalues --    0.33240   0.33576   0.33676   0.33786   0.33990
 Alpha virt. eigenvalues --    0.34157   0.34368   0.34386   0.34491   0.34714
 Alpha virt. eigenvalues --    0.34824   0.35133   0.35221   0.35350   0.35487
 Alpha virt. eigenvalues --    0.35655   0.35790   0.35988   0.36300   0.36338
 Alpha virt. eigenvalues --    0.36701   0.36722   0.36923   0.37081   0.37274
 Alpha virt. eigenvalues --    0.37383   0.37483   0.37666   0.37820   0.37968
 Alpha virt. eigenvalues --    0.38127   0.38355   0.38482   0.38654   0.38978
 Alpha virt. eigenvalues --    0.39088   0.39333   0.39374   0.39495   0.39647
 Alpha virt. eigenvalues --    0.39799   0.39957   0.40156   0.40294   0.40427
 Alpha virt. eigenvalues --    0.40679   0.40918   0.41046   0.41253   0.41394
 Alpha virt. eigenvalues --    0.41706   0.41929   0.41994   0.42114   0.42290
 Alpha virt. eigenvalues --    0.42479   0.42624   0.42821   0.43159   0.43485
 Alpha virt. eigenvalues --    0.43618   0.43783   0.43914   0.44284   0.44356
 Alpha virt. eigenvalues --    0.44791   0.45005   0.45218   0.45475   0.45585
 Alpha virt. eigenvalues --    0.45861   0.46181   0.46376   0.46422   0.46706
 Alpha virt. eigenvalues --    0.47015   0.47192   0.47323   0.47643   0.47929
 Alpha virt. eigenvalues --    0.48322   0.48678   0.48881   0.49189   0.49291
 Alpha virt. eigenvalues --    0.49897   0.50110   0.50587   0.50824   0.50945
 Alpha virt. eigenvalues --    0.51272   0.51752   0.52119   0.52452   0.52911
 Alpha virt. eigenvalues --    0.53113   0.53209   0.53546   0.53763   0.54101
 Alpha virt. eigenvalues --    0.54522   0.54700   0.55000   0.55174   0.55267
 Alpha virt. eigenvalues --    0.55534   0.55881   0.56482   0.57325   0.57739
 Alpha virt. eigenvalues --    0.57891   0.58269   0.58447   0.58976   0.59330
 Alpha virt. eigenvalues --    0.59682   0.60274   0.60755   0.61311   0.61355
 Alpha virt. eigenvalues --    0.62193   0.62575   0.62698   0.63181   0.63374
 Alpha virt. eigenvalues --    0.63935   0.64450   0.64658   0.64743   0.65080
 Alpha virt. eigenvalues --    0.65567   0.65870   0.66055   0.66339   0.66589
 Alpha virt. eigenvalues --    0.66736   0.66955   0.67394   0.67705   0.67872
 Alpha virt. eigenvalues --    0.68369   0.68427   0.68682   0.69102   0.69630
 Alpha virt. eigenvalues --    0.69728   0.69927   0.70072   0.70547   0.70731
 Alpha virt. eigenvalues --    0.70820   0.71156   0.71309   0.71387   0.72059
 Alpha virt. eigenvalues --    0.72235   0.72441   0.72645   0.72828   0.72929
 Alpha virt. eigenvalues --    0.73245   0.73424   0.73485   0.73622   0.73893
 Alpha virt. eigenvalues --    0.74291   0.74471   0.74636   0.75010   0.75066
 Alpha virt. eigenvalues --    0.75316   0.75820   0.75895   0.76077   0.76380
 Alpha virt. eigenvalues --    0.76754   0.76974   0.77302   0.77392   0.77431
 Alpha virt. eigenvalues --    0.77907   0.78167   0.78439   0.78786   0.78839
 Alpha virt. eigenvalues --    0.79283   0.79457   0.79595   0.79728   0.80242
 Alpha virt. eigenvalues --    0.80354   0.80512   0.80769   0.81161   0.81520
 Alpha virt. eigenvalues --    0.81755   0.81961   0.82108   0.82655   0.82874
 Alpha virt. eigenvalues --    0.83160   0.83423   0.83591   0.84182   0.84379
 Alpha virt. eigenvalues --    0.84565   0.84732   0.84945   0.85182   0.85292
 Alpha virt. eigenvalues --    0.85544   0.85788   0.86218   0.86427   0.86774
 Alpha virt. eigenvalues --    0.87027   0.87684   0.88085   0.88447   0.88721
 Alpha virt. eigenvalues --    0.89047   0.89126   0.89750   0.90227   0.90428
 Alpha virt. eigenvalues --    0.90676   0.91659   0.91959   0.92092   0.92455
 Alpha virt. eigenvalues --    0.92790   0.93135   0.93654   0.94179   0.94904
 Alpha virt. eigenvalues --    0.95113   0.95369   0.95902   0.96251   0.97016
 Alpha virt. eigenvalues --    0.97255   0.98079   0.98374   0.99060   0.99135
 Alpha virt. eigenvalues --    0.99543   0.99868   0.99915   1.00746   1.00888
 Alpha virt. eigenvalues --    1.01128   1.01555   1.01814   1.02270   1.02545
 Alpha virt. eigenvalues --    1.02840   1.03329   1.03755   1.03879   1.04429
 Alpha virt. eigenvalues --    1.04727   1.05007   1.05161   1.05405   1.05792
 Alpha virt. eigenvalues --    1.06038   1.06170   1.06598   1.07128   1.07502
 Alpha virt. eigenvalues --    1.07710   1.08052   1.08099   1.08563   1.08957
 Alpha virt. eigenvalues --    1.09235   1.09608   1.09772   1.10025   1.10349
 Alpha virt. eigenvalues --    1.10414   1.10958   1.11294   1.11421   1.11650
 Alpha virt. eigenvalues --    1.12075   1.12162   1.12452   1.13009   1.13332
 Alpha virt. eigenvalues --    1.13337   1.13423   1.13884   1.14214   1.14649
 Alpha virt. eigenvalues --    1.14870   1.15197   1.15237   1.15897   1.16081
 Alpha virt. eigenvalues --    1.16446   1.16779   1.16834   1.16989   1.17168
 Alpha virt. eigenvalues --    1.17605   1.17853   1.18341   1.18562   1.19044
 Alpha virt. eigenvalues --    1.19526   1.19881   1.20348   1.21062   1.21300
 Alpha virt. eigenvalues --    1.21428   1.21880   1.22260   1.23226   1.23340
 Alpha virt. eigenvalues --    1.23985   1.24244   1.24797   1.25007   1.25589
 Alpha virt. eigenvalues --    1.26397   1.26869   1.27118   1.27682   1.28032
 Alpha virt. eigenvalues --    1.29398   1.29794   1.30031   1.32026   1.33121
 Alpha virt. eigenvalues --    1.34570   1.34878   1.35371   1.36051   1.36279
 Alpha virt. eigenvalues --    1.37041   1.37725   1.38112   1.38286   1.39367
 Alpha virt. eigenvalues --    1.39611   1.40183   1.40344   1.40801   1.41114
 Alpha virt. eigenvalues --    1.41535   1.41883   1.42193   1.43143   1.44296
 Alpha virt. eigenvalues --    1.45148   1.47018   1.47428   1.47834   1.48746
 Alpha virt. eigenvalues --    1.49503   1.50376   1.50620   1.51278   1.51514
 Alpha virt. eigenvalues --    1.51802   1.52359   1.52536   1.52915   1.53800
 Alpha virt. eigenvalues --    1.54485   1.54820   1.55446   1.55996   1.56479
 Alpha virt. eigenvalues --    1.56825   1.57340   1.57769   1.58208   1.58773
 Alpha virt. eigenvalues --    1.59103   1.59141   1.59772   1.59946   1.60914
 Alpha virt. eigenvalues --    1.60999   1.61575   1.61779   1.62153   1.62367
 Alpha virt. eigenvalues --    1.62504   1.62642   1.62896   1.63493   1.63607
 Alpha virt. eigenvalues --    1.63827   1.64040   1.64352   1.64638   1.64793
 Alpha virt. eigenvalues --    1.65415   1.65504   1.65747   1.66002   1.66186
 Alpha virt. eigenvalues --    1.66427   1.66841   1.67557   1.67622   1.67826
 Alpha virt. eigenvalues --    1.68087   1.68206   1.68408   1.68984   1.69328
 Alpha virt. eigenvalues --    1.69547   1.69836   1.69948   1.70374   1.70602
 Alpha virt. eigenvalues --    1.70809   1.71251   1.72061   1.72521   1.73101
 Alpha virt. eigenvalues --    1.73826   1.74970   1.75555   1.76239   1.76695
 Alpha virt. eigenvalues --    1.78188   1.78415   1.78573   1.78815   1.79243
 Alpha virt. eigenvalues --    1.79470   1.79557   1.79964   1.80360   1.80592
 Alpha virt. eigenvalues --    1.81044   1.81290   1.81621   1.82019   1.82217
 Alpha virt. eigenvalues --    1.82479   1.82523   1.82889   1.83161   1.83549
 Alpha virt. eigenvalues --    1.83841   1.84052   1.84185   1.84742   1.85267
 Alpha virt. eigenvalues --    1.85625   1.86216   1.86906   1.87333   1.88128
 Alpha virt. eigenvalues --    1.88421   1.88502   1.89585   1.89806   1.90008
 Alpha virt. eigenvalues --    1.91052   1.91212   1.91934   1.92773   1.93353
 Alpha virt. eigenvalues --    1.93693   1.94108   1.95227   1.95679   1.95808
 Alpha virt. eigenvalues --    1.96663   1.96732   1.97833   1.98621   1.99023
 Alpha virt. eigenvalues --    1.99617   2.00177   2.00475   2.00861   2.00967
 Alpha virt. eigenvalues --    2.01406   2.01729   2.01987   2.02201   2.02622
 Alpha virt. eigenvalues --    2.03175   2.03454   2.03870   2.03935   2.04236
 Alpha virt. eigenvalues --    2.05438   2.05528   2.06127   2.06378   2.06846
 Alpha virt. eigenvalues --    2.07304   2.07520   2.07956   2.08165   2.08992
 Alpha virt. eigenvalues --    2.09132   2.09777   2.10118   2.10370   2.10923
 Alpha virt. eigenvalues --    2.11721   2.12459   2.12937   2.13397   2.13891
 Alpha virt. eigenvalues --    2.14102   2.14447   2.14794   2.15431   2.15875
 Alpha virt. eigenvalues --    2.16834   2.16991   2.17778   2.17878   2.18529
 Alpha virt. eigenvalues --    2.19084   2.19484   2.19763   2.20246   2.20315
 Alpha virt. eigenvalues --    2.20885   2.21208   2.21610   2.21963   2.22647
 Alpha virt. eigenvalues --    2.23318   2.23431   2.24401   2.24860   2.25263
 Alpha virt. eigenvalues --    2.25408   2.25532   2.26504   2.27736   2.28138
 Alpha virt. eigenvalues --    2.28252   2.29162   2.29553   2.30548   2.31008
 Alpha virt. eigenvalues --    2.31422   2.31773   2.32647   2.34415   2.36064
 Alpha virt. eigenvalues --    2.36606   2.37943   2.38499   2.38891   2.39087
 Alpha virt. eigenvalues --    2.39580   2.40304   2.42182   2.42200   2.42579
 Alpha virt. eigenvalues --    2.43720   2.44472   2.44954   2.45340   2.47179
 Alpha virt. eigenvalues --    2.48073   2.48445   2.49494   2.49685   2.50001
 Alpha virt. eigenvalues --    2.50801   2.51818   2.52399   2.54037   2.54591
 Alpha virt. eigenvalues --    2.54709   2.55193   2.55407   2.55778   2.56023
 Alpha virt. eigenvalues --    2.56637   2.57423   2.57945   2.57994   2.58480
 Alpha virt. eigenvalues --    2.59236   2.59824   2.60649   2.61278   2.61651
 Alpha virt. eigenvalues --    2.61727   2.62782   2.63203   2.63437   2.64014
 Alpha virt. eigenvalues --    2.65053   2.65495   2.66178   2.66285   2.66928
 Alpha virt. eigenvalues --    2.67587   2.67881   2.68451   2.70297   2.70736
 Alpha virt. eigenvalues --    2.71456   2.72368   2.72861   2.73485   2.74374
 Alpha virt. eigenvalues --    2.74978   2.76037   2.76606   2.76910   2.77907
 Alpha virt. eigenvalues --    2.78226   2.78541   2.79123   2.79779   2.80880
 Alpha virt. eigenvalues --    2.81335   2.81658   2.81989   2.82329   2.82345
 Alpha virt. eigenvalues --    2.82625   2.83070   2.83392   2.83608   2.83998
 Alpha virt. eigenvalues --    2.84463   2.84804   2.85337   2.85851   2.86234
 Alpha virt. eigenvalues --    2.86656   2.87139   2.87665   2.88470   2.89099
 Alpha virt. eigenvalues --    2.89869   2.90132   2.90675   2.90877   2.91277
 Alpha virt. eigenvalues --    2.91747   2.91896   2.92292   2.92948   2.93396
 Alpha virt. eigenvalues --    2.93744   2.94311   2.94968   2.95347   2.95567
 Alpha virt. eigenvalues --    2.95926   2.96318   2.96975   2.97288   2.97582
 Alpha virt. eigenvalues --    2.98237   2.98905   2.99261   2.99784   3.00574
 Alpha virt. eigenvalues --    3.00641   3.01358   3.01909   3.02195   3.02980
 Alpha virt. eigenvalues --    3.03309   3.03405   3.03905   3.04361   3.04620
 Alpha virt. eigenvalues --    3.05297   3.06482   3.07222   3.07317   3.07859
 Alpha virt. eigenvalues --    3.08012   3.08830   3.10459   3.10798   3.11615
 Alpha virt. eigenvalues --    3.12455   3.12940   3.13919   3.14533   3.15724
 Alpha virt. eigenvalues --    3.16423   3.18170   3.19500   3.19694   3.20711
 Alpha virt. eigenvalues --    3.21086   3.21259   3.21915   3.22604   3.22949
 Alpha virt. eigenvalues --    3.23101   3.23362   3.23748   3.24432   3.24746
 Alpha virt. eigenvalues --    3.26657   3.28139   3.29291   3.31346   3.31552
 Alpha virt. eigenvalues --    3.32162   3.32347   3.32735   3.33080   3.33431
 Alpha virt. eigenvalues --    3.33921   3.34432   3.34783   3.36609   3.37501
 Alpha virt. eigenvalues --    3.37875   3.39027   3.39631   3.39840   3.41789
 Alpha virt. eigenvalues --    3.43499   3.44868   3.45099   3.46097   3.46332
 Alpha virt. eigenvalues --    3.47199   3.49904   3.51138   3.51552   3.52757
 Alpha virt. eigenvalues --    3.56336   3.56684   3.57967   3.59297   3.60630
 Alpha virt. eigenvalues --    3.61886   3.62648   3.63524   3.64243   3.64947
 Alpha virt. eigenvalues --    3.66491   3.66854   3.67945   3.68395   3.69388
 Alpha virt. eigenvalues --    3.71127   3.73793   3.75219   3.75692   3.77255
 Alpha virt. eigenvalues --    3.77711   3.77999   3.78670   3.79186   3.79536
 Alpha virt. eigenvalues --    3.80077   3.80655   3.81280   3.81714   3.82923
 Alpha virt. eigenvalues --    3.85590   3.86477   3.86574   3.87845   3.88372
 Alpha virt. eigenvalues --    3.90097   3.91869   3.92243   3.92327   3.93741
 Alpha virt. eigenvalues --    3.94535   3.95328   4.03952   4.04085   4.05707
 Alpha virt. eigenvalues --    4.08113   4.09122   4.09494   4.12024   4.12707
 Alpha virt. eigenvalues --    4.13063   4.16076   4.17727   4.18534   4.19085
 Alpha virt. eigenvalues --    4.20636   4.26378   4.27620   4.28129   4.29161
 Alpha virt. eigenvalues --    4.30827   4.31776   4.32281   4.34905   4.35981
 Alpha virt. eigenvalues --    4.37128   4.39777   4.40905   4.53769   4.56667
 Alpha virt. eigenvalues --    4.78803   4.81615   4.92433   4.94407   4.95660
 Alpha virt. eigenvalues --    4.96168   4.99801   5.02047   5.15637   5.15940
 Alpha virt. eigenvalues --    5.17579   5.17625   5.20190   5.20894   5.24183
 Alpha virt. eigenvalues --    5.26918   5.38641   5.40371   5.49848   5.51979
 Alpha virt. eigenvalues --    5.67803   5.72191   5.85150   5.86050   5.91768
 Alpha virt. eigenvalues --    5.92817   5.98628   5.99509  23.75612  23.76829
 Alpha virt. eigenvalues --   23.82093  23.83196  23.96335  23.97679  24.01579
 Alpha virt. eigenvalues --   24.03584  24.03880  24.03963  24.04152  24.04505
 Alpha virt. eigenvalues --   24.05560  24.07004  24.07460  24.07669  24.07870
 Alpha virt. eigenvalues --   24.08448  24.08730  24.09224  24.10355  24.12360
 Alpha virt. eigenvalues --   24.13247  24.14072  24.14515  24.16225  24.23049
 Alpha virt. eigenvalues --   24.24357  24.24527  24.27223  24.28390  24.30227
 Alpha virt. eigenvalues --   24.30588  24.30912  24.32547  24.33258  35.73543
 Alpha virt. eigenvalues --   35.76214  50.10039  50.11002  50.15178  50.15648
 Alpha virt. eigenvalues --   50.20132  50.20223
          Condensed to atoms (all electrons):
 Mulliken charges:
               1
     1  H    0.266171
     2  C   -0.138955
     3  C    0.533327
     4  C   -0.162364
     5  C   -0.203158
     6  C   -0.048402
     7  H    0.015130
     8  C   -0.405770
     9  C   -0.398075
    10  H    0.221730
    11  C   -0.224624
    12  H    0.168475
    13  C    0.529071
    14  O   -0.256655
    15  C   -0.522621
    16  H    0.201034
    17  H    0.215669
    18  C    0.390009
    19  C   -0.114115
    20  H    0.464173
    21  N    0.078199
    22  C    0.579458
    23  O   -0.310110
    24  H    0.175122
    25  C   -0.569773
    26  C   -0.380719
    27  C   -0.380768
    28  H    0.081958
    29  C   -1.105500
    30  H    0.241061
    31  H    0.161471
    32  H    0.163316
    33  H    0.193972
    34  H    0.161148
    35  H    0.176524
    36  H    0.180918
    37  O   -0.102841
    38  C   -0.412922
    39  H    0.195093
    40  H    0.227827
    41  H    0.188544
    42  C    0.121796
    43  N    0.193206
    44  C   -0.127597
    45  C   -0.474588
    46  C   -0.674545
    47  C   -0.334634
    48  H    0.181770
    49  C   -0.159667
    50  H    0.174877
    51  C   -0.432654
    52  H    0.261499
    53  H    0.150494
    54  H    0.224593
    55  H    0.173328
    56  H    0.164023
    57  H    0.171731
    58  C    0.385310
    59  H   -0.269371
    60  H    0.210219
    61  C   -0.045855
    62  H    0.261908
    63  C    0.109642
    64  C   -0.137579
    65  H   -0.085763
    66  C    1.063091
    67  O   -0.388631
    68  C   -0.277291
    69  C   -0.295629
    70  H    0.445762
    71  C   -0.035448
    72  O   -0.371504
    73  C   -0.546341
    74  H    0.028211
    75  H    0.236245
    76  C   -0.300859
    77  H    0.264882
    78  O   -0.125614
    79  C   -0.371545
    80  H    0.178080
    81  H    0.216149
    82  H    0.166273
 Sum of Mulliken charges =   0.00000
 Mulliken charges with hydrogens summed into heavy atoms:
               1
     2  C    0.127216
     3  C    0.533327
     4  C   -0.147234
     5  C    0.018572
     6  C    0.120073
     8  C   -0.405770
     9  C   -0.197041
    11  C   -0.008955
    13  C    0.529071
    14  O   -0.256655
    15  C   -0.522621
    18  C    0.390009
    19  C    0.061007
    21  N    0.078199
    22  C    0.661417
    23  O    0.154063
    25  C   -0.328712
    26  C    0.138040
    27  C    0.137822
    29  C   -1.105500
    37  O   -0.102841
    38  C    0.198542
    42  C    0.121796
    43  N    0.193206
    44  C    0.054173
    45  C   -0.299711
    46  C   -0.037959
    47  C    0.174448
    49  C   -0.429038
    51  C   -0.222435
    58  C    0.385310
    61  C    0.216053
    63  C    0.023879
    64  C   -0.137579
    66  C    1.063091
    67  O   -0.388631
    68  C   -0.277291
    69  C   -0.267418
    71  C    0.200797
    72  O    0.074258
    73  C   -0.281460
    76  C   -0.300859
    78  O   -0.125614
    79  C    0.188957
 Electronic spatial extent (au):  <R**2>=          56014.8753
 Charge=              0.0000 electrons
 Dipole moment (field-independent basis, Debye):
    X=              3.8070    Y=              0.7876    Z=            -15.3409  Tot=             15.8259
 Quadrupole moment (field-independent basis, Debye-Ang):
   XX=           -252.6447   YY=           -266.3587   ZZ=           -204.7127
   XY=            -17.0117   XZ=             19.4527   YZ=             55.2381
 Traceless Quadrupole moment (field-independent basis, Debye-Ang):
   XX=            -11.4060   YY=            -25.1200   ZZ=             36.5260
   XY=            -17.0117   XZ=             19.4527   YZ=             55.2381
 Octapole moment (field-independent basis, Debye-Ang**2):
  XXX=           -801.7538  YYY=           2691.9949  ZZZ=          -1595.0198  XYY=           -240.8820
  XXY=            818.3796  XXZ=           -375.8420  XZZ=            126.9671  YZZ=           1015.7325
  YYZ=           -652.5507  XYZ=           -112.4054
 Hexadecapole moment (field-independent basis, Debye-Ang**3):
 XXXX=          -8439.2954 YYYY=         -23603.1292 ZZZZ=         -36072.5025 XXXY=           1512.5820
 XXXZ=          -1020.3882 YYYX=           1748.8183 YYYZ=           7555.5655 ZZZX=            736.4225
 ZZZY=           8379.4256 XXYY=          -4907.6998 XXZZ=          -8264.7121 YYZZ=         -12565.3972
 XXYZ=           2008.1051 YYXZ=            306.2139 ZZXY=           -920.7548
 N-N= 4.943061627685D+03 E-N=-1.444282795264D+04  KE= 1.946553016698D+03
 Leave Link  601 at Fri Nov  3 02:06:21 2017, MaxMem=  3758096384 cpu:         1.1
 (Enter /share/apps/gaussian/g09_D01/g09/l9999.exe)
 1\1\GINC-NXN37\SP\RwB97XD TD-FC\6-311++G(d,p)\C36H38N2O6\BTX008\03-Nov
 -2017\0\\#p wb97xd/6-311++G** td=(nstates=2) nosymm\\Title\\0,1\H,0,0.
 539269,-0.757276,-1.518015\C,0,1.316716,-1.381636,-1.968554\C,0,1.4066
 91,-1.352716,-3.396768\C,0,2.107951,-2.105446,-1.119894\C,0,0.528755,-
 0.531643,-4.13992\C,0,2.355633,-2.101138,-4.133738\H,0,2.891473,-2.740
 814,-1.526547\C,0,1.940107,-2.072893,0.311518\C,0,0.596312,-0.440871,-
 5.515017\H,0,-0.229195,0.04262,-3.607661\C,0,2.437872,-2.028575,-5.505
 255\H,0,3.046357,-2.759955,-3.609406\C,0,2.798479,-2.87877,1.181744\O,
 0,1.03805,-1.328111,0.848651\C,0,1.554518,-1.193862,-6.245691\H,0,-0.0
 97949,0.215782,-6.03564\H,0,3.19059,-2.620676,-6.020314\C,0,2.622229,-
 2.794178,2.59711\C,0,3.812938,-3.739251,0.704584\H,0,1.209147,-1.58669
 ,2.240938\N,0,1.617571,-1.130231,-7.601046\C,0,3.448765,-3.512435,3.47
 3315\O,0,1.644609,-2.02665,3.107859\H,0,3.948167,-3.880855,-0.365788\C
 ,0,4.633175,-4.443732,1.557505\C,0,2.579873,-1.939015,-8.331282\C,0,0.
 732543,-0.232747,-8.324129\H,0,3.286739,-3.407499,4.543375\C,0,4.45312
 3,-4.326179,2.953178\H,0,5.418454,-5.097941,1.18227\H,0,2.504764,-2.99
 9998,-8.050717\H,0,2.36944,-1.857185,-9.400518\H,0,3.612955,-1.600405,
 -8.147074\H,0,0.952148,-0.296688,-9.394601\H,0,-0.325191,-0.499819,-8.
 166162\H,0,0.876069,0.810662,-8.002562\O,0,5.306155,-5.056311,3.709831
 \C,0,5.105413,-5.086228,5.128793\H,0,4.102643,-5.48218,5.359169\H,0,5.
 875374,-5.757014,5.521101\H,0,5.222262,-4.080597,5.560317\C,0,-1.25745
 2,-5.583138,-0.600811\N,0,-1.194399,-5.646769,-1.956156\C,0,-0.374111,
 -4.748425,0.139636\C,0,-2.215671,-6.336129,0.129863\C,0,-0.232107,-4.8
 37984,-2.686402\C,0,-2.079427,-6.544253,-2.679249\H,0,0.37861,-4.15632
 4,-0.375434\C,0,-0.45634,-4.675862,1.511142\H,0,-2.909919,-6.992782,-0
 .39075\C,0,-2.283218,-6.245357,1.50497\H,0,-0.307216,-3.777002,-2.4058
 37\H,0,-0.44254,-4.919815,-3.755638\H,0,0.800975,-5.176595,-2.502194\H
 ,0,-1.935911,-7.587662,-2.357672\H,0,-1.859832,-6.480312,-3.749711\H,0
 ,-3.137161,-6.277181,-2.521282\C,0,-1.405282,-5.424284,2.248113\H,0,0.
 234383,-4.017044,2.035475\H,0,-3.041168,-6.81962,2.03723\C,0,-1.495258
 ,-5.395364,3.676326\H,0,-2.272715,-6.019724,4.126875\C,0,-0.704022,-4.
 671554,4.524986\C,0,-0.871863,-4.704107,5.956408\H,0,0.0795,-4.036186,
 4.118343\C,0,-0.013501,-3.89823,6.826624\O,0,-1.77392,-5.448889,6.4935
 31\C,0,-0.189741,-3.982822,8.24199\C,0,1.000968,-3.037749,6.349474\H,0
 ,-1.602833,-5.190309,7.885818\C,0,0.636785,-3.264565,9.118195\O,0,-1.1
 67361,-4.75035,8.752749\C,0,1.821195,-2.333268,7.202395\H,0,1.136193,-
 2.896145,5.279103\H,0,0.474759,-3.369501,10.188265\C,0,1.641143,-2.450
 821,8.598058\H,0,2.606474,-1.679058,6.82716\O,0,2.494175,-1.720689,9.3
 54721\C,0,2.293433,-1.690772,10.773673\H,0,1.290663,-1.29482,11.004059
 \H,0,3.063404,-1.019976,11.165991\H,0,2.410292,-2.696403,11.205207\\Ve
 rsion=ES64L-G09RevD.01\HF=-1955.3925931\RMSD=9.849e-09\PG=C01 [X(C36H3
 8N2O6)]\\@


 IF AT FIRST YOU DON'T SUCCEED, TRY LOOKING IN 
 THE WASTEBASKET FOR THE DIRECTIONS.
 Job cpu time:       0 days 20 hours 36 minutes 21.9 seconds.
 File lengths (MBytes):  RWF=   1434 Int=      0 D2E=      0 Chk=    158 Scr=      1
 Normal termination of Gaussian 09 at Fri Nov  3 02:06:22 2017.
