 Entering Gaussian System, Link 0=g09
 Input=2hc_3_666-mega_dimer_0_mon-0.com
 Output=2hc_3_666-mega_dimer_0_mon-0.out
 Initial command:
 /share/apps/gaussian/g09_D01/g09/l1.exe "/tmp/159661.1.all.q/Gau-20750.inp" -scrdir="/tmp/159661.1.all.q/"
 Entering Link 1 = /share/apps/gaussian/g09_D01/g09/l1.exe PID=     20751.
  
 Copyright (c) 1988,1990,1992,1993,1995,1998,2003,2009,2013,
            Gaussian, Inc.  All Rights Reserved.
  
 This is part of the Gaussian(R) 09 program.  It is based on
 the Gaussian(R) 03 system (copyright 2003, Gaussian, Inc.),
 the Gaussian(R) 98 system (copyright 1998, Gaussian, Inc.),
 the Gaussian(R) 94 system (copyright 1995, Gaussian, Inc.),
 the Gaussian 92(TM) system (copyright 1992, Gaussian, Inc.),
 the Gaussian 90(TM) system (copyright 1990, Gaussian, Inc.),
 the Gaussian 88(TM) system (copyright 1988, Gaussian, Inc.),
 the Gaussian 86(TM) system (copyright 1986, Carnegie Mellon
 University), and the Gaussian 82(TM) system (copyright 1983,
 Carnegie Mellon University). Gaussian is a federally registered
 trademark of Gaussian, Inc.
  
 This software contains proprietary and confidential information,
 including trade secrets, belonging to Gaussian, Inc.
  
 This software is provided under written license and may be
 used, copied, transmitted, or stored only in accord with that
 written license.
  
 The following legend is applicable only to US Government
 contracts under FAR:
  
                    RESTRICTED RIGHTS LEGEND
  
 Use, reproduction and disclosure by the US Government is
 subject to restrictions as set forth in subparagraphs (a)
 and (c) of the Commercial Computer Software - Restricted
 Rights clause in FAR 52.227-19.
  
 Gaussian, Inc.
 340 Quinnipiac St., Bldg. 40, Wallingford CT 06492
  
  
 ---------------------------------------------------------------
 Warning -- This program may not be used in any manner that
 competes with the business of Gaussian, Inc. or will provide
 assistance to any competitor of Gaussian, Inc.  The licensee
 of this program is prohibited from giving any competitor of
 Gaussian, Inc. access to this program.  By using this program,
 the user acknowledges that Gaussian, Inc. is engaged in the
 business of creating and licensing software in the field of
 computational chemistry and represents and warrants to the
 licensee that it is not a competitor of Gaussian, Inc. and that
 it will not use this program in any manner prohibited above.
 ---------------------------------------------------------------
  

 Cite this work as:
 Gaussian 09, Revision D.01,
 M. J. Frisch, G. W. Trucks, H. B. Schlegel, G. E. Scuseria, 
 M. A. Robb, J. R. Cheeseman, G. Scalmani, V. Barone, B. Mennucci, 
 G. A. Petersson, H. Nakatsuji, M. Caricato, X. Li, H. P. Hratchian, 
 A. F. Izmaylov, J. Bloino, G. Zheng, J. L. Sonnenberg, M. Hada, 
 M. Ehara, K. Toyota, R. Fukuda, J. Hasegawa, M. Ishida, T. Nakajima, 
 Y. Honda, O. Kitao, H. Nakai, T. Vreven, J. A. Montgomery, Jr., 
 J. E. Peralta, F. Ogliaro, M. Bearpark, J. J. Heyd, E. Brothers, 
 K. N. Kudin, V. N. Staroverov, T. Keith, R. Kobayashi, J. Normand, 
 K. Raghavachari, A. Rendell, J. C. Burant, S. S. Iyengar, J. Tomasi, 
 M. Cossi, N. Rega, J. M. Millam, M. Klene, J. E. Knox, J. B. Cross, 
 V. Bakken, C. Adamo, J. Jaramillo, R. Gomperts, R. E. Stratmann, 
 O. Yazyev, A. J. Austin, R. Cammi, C. Pomelli, J. W. Ochterski, 
 R. L. Martin, K. Morokuma, V. G. Zakrzewski, G. A. Voth, 
 P. Salvador, J. J. Dannenberg, S. Dapprich, A. D. Daniels, 
 O. Farkas, J. B. Foresman, J. V. Ortiz, J. Cioslowski, 
 and D. J. Fox, Gaussian, Inc., Wallingford CT, 2013.
 
 ******************************************
 Gaussian 09:  ES64L-G09RevD.01 24-Apr-2013
                 2-Nov-2017 
 ******************************************
 %chk=2hc_3_666-mega_dimer_0.chk
 %nproc=4
 Will use up to    4 processors via shared memory.
 %mem=28GB
 ------------------------------------------
 #p wb97xd/6-311++G** td=(nstates=2) nosymm
 ------------------------------------------
 1/38=1/1;
 2/12=2,15=1,17=6,18=5,40=1/2;
 3/5=4,6=6,7=1111,11=9,16=1,25=1,30=1,74=-58/1,2,8,3;
 4//1;
 5/5=2,38=5/2;
 8/6=1,10=2,108=2/1;
 9/41=2,42=1,70=2/14;
 6/7=2,8=2,9=2,10=2/1;
 99/5=1,9=1/99;
 Leave Link    1 at Thu Nov  2 07:37:04 2017, MaxMem=  3758096384 cpu:         0.2
 (Enter /share/apps/gaussian/g09_D01/g09/l101.exe)
 -----
 Title
 -----
 Symbolic Z-matrix:
 Charge =  0 Multiplicity = 1
 C                     0.18974  -9.57118  -8.24199 
 C                    -0.63679  -10.28944  -9.1182 
 C                     0.0135   -9.65577  -6.82662 
 O                     1.16736  -8.80365  -8.75275 
 H                    -0.47477  -10.1845  -10.18826 
 C                    -1.64114  -11.10318  -8.59806 
 C                    -1.00097  -10.51625  -6.34947 
 C                     0.87187  -8.84989  -5.95641 
 H                     1.60284  -8.36369  -7.88582 
 C                    -1.82119  -11.22073  -7.20239 
 O                    -2.49418  -11.83331  -9.35472 
 H                    -1.13619  -10.65785  -5.2791 
 C                     0.70403  -8.88245  -4.52499 
 O                     1.77392  -8.10511  -6.49353 
 H                    -2.60648  -11.87494  -6.82716 
 C                    -2.29343  -11.86323  -10.77367 
 H                    -0.0795   -9.51781  -4.11834 
 C                     1.49526  -8.15864  -3.67633 
 H                    -1.29066  -12.25918  -11.00406 
 H                    -3.0634   -12.53401  -11.16599 
 H                    -2.41029  -10.8576  -11.20521 
 H                     2.27271  -7.53428  -4.12688 
 C                     1.40529  -8.12972  -2.24811 
 C                     0.45634  -8.87814  -1.51114 
 C                     2.28322  -7.30864  -1.50497 
 H                    -0.23438  -9.53696  -2.03547 
 C                     0.3741   -8.80558  -0.13964 
 C                     2.21566  -7.21787  -0.12986 
 H                     3.04117  -6.73438  -2.03723 
 H                    -0.37861  -9.39768   0.37543 
 C                     1.25746  -7.97086   0.60081 
 H                     2.90992  -6.56122   0.39075 
 N                     1.1944   -7.90723   1.95616 
 C                     0.2321   -8.71602   2.6864 
 C                     2.07943  -7.00975   2.67925 
 H                     0.30721  -9.777     2.40584 
 H                     0.44253  -8.63419   3.75564 
 H                    -0.80097  -8.3774    2.50219 
 H                     1.93591  -5.96634   2.35767 
 H                     1.85984  -7.07369   3.74971 
 H                     3.13716  -7.27682   2.52128 
 
 NAtoms=     41 NQM=       41 NQMF=       0 NMMI=      0 NMMIF=      0
                NMic=       0 NMicF=      0.
                    Isotopes and Nuclear Properties:
 (Nuclear quadrupole moments (NQMom) in fm**2, nuclear magnetic moments (NMagM)
  in nuclear magnetons)

  Atom         1           2           3           4           5           6           7           8           9          10
 IAtWgt=          12          12          12          16           1          12          12          12           1          12
 AtmWgt=  12.0000000  12.0000000  12.0000000  15.9949146   1.0078250  12.0000000  12.0000000  12.0000000   1.0078250  12.0000000
 NucSpn=           0           0           0           0           1           0           0           0           1           0
 AtZEff=   0.0000000   0.0000000   0.0000000   0.0000000   0.0000000   0.0000000   0.0000000   0.0000000   0.0000000   0.0000000
 NQMom=    0.0000000   0.0000000   0.0000000   0.0000000   0.0000000   0.0000000   0.0000000   0.0000000   0.0000000   0.0000000
 NMagM=    0.0000000   0.0000000   0.0000000   0.0000000   2.7928460   0.0000000   0.0000000   0.0000000   2.7928460   0.0000000
 AtZNuc=   6.0000000   6.0000000   6.0000000   8.0000000   1.0000000   6.0000000   6.0000000   6.0000000   1.0000000   6.0000000

  Atom        11          12          13          14          15          16          17          18          19          20
 IAtWgt=          16           1          12          16           1          12           1          12           1           1
 AtmWgt=  15.9949146   1.0078250  12.0000000  15.9949146   1.0078250  12.0000000   1.0078250  12.0000000   1.0078250   1.0078250
 NucSpn=           0           1           0           0           1           0           1           0           1           1
 AtZEff=   0.0000000   0.0000000   0.0000000   0.0000000   0.0000000   0.0000000   0.0000000   0.0000000   0.0000000   0.0000000
 NQMom=    0.0000000   0.0000000   0.0000000   0.0000000   0.0000000   0.0000000   0.0000000   0.0000000   0.0000000   0.0000000
 NMagM=    0.0000000   2.7928460   0.0000000   0.0000000   2.7928460   0.0000000   2.7928460   0.0000000   2.7928460   2.7928460
 AtZNuc=   8.0000000   1.0000000   6.0000000   8.0000000   1.0000000   6.0000000   1.0000000   6.0000000   1.0000000   1.0000000

  Atom        21          22          23          24          25          26          27          28          29          30
 IAtWgt=           1           1          12          12          12           1          12          12           1           1
 AtmWgt=   1.0078250   1.0078250  12.0000000  12.0000000  12.0000000   1.0078250  12.0000000  12.0000000   1.0078250   1.0078250
 NucSpn=           1           1           0           0           0           1           0           0           1           1
 AtZEff=   0.0000000   0.0000000   0.0000000   0.0000000   0.0000000   0.0000000   0.0000000   0.0000000   0.0000000   0.0000000
 NQMom=    0.0000000   0.0000000   0.0000000   0.0000000   0.0000000   0.0000000   0.0000000   0.0000000   0.0000000   0.0000000
 NMagM=    2.7928460   2.7928460   0.0000000   0.0000000   0.0000000   2.7928460   0.0000000   0.0000000   2.7928460   2.7928460
 AtZNuc=   1.0000000   1.0000000   6.0000000   6.0000000   6.0000000   1.0000000   6.0000000   6.0000000   1.0000000   1.0000000

  Atom        31          32          33          34          35          36          37          38          39          40
 IAtWgt=          12           1          14          12          12           1           1           1           1           1
 AtmWgt=  12.0000000   1.0078250  14.0030740  12.0000000  12.0000000   1.0078250   1.0078250   1.0078250   1.0078250   1.0078250
 NucSpn=           0           1           2           0           0           1           1           1           1           1
 AtZEff=   0.0000000   0.0000000   0.0000000   0.0000000   0.0000000   0.0000000   0.0000000   0.0000000   0.0000000   0.0000000
 NQMom=    0.0000000   0.0000000   2.0440000   0.0000000   0.0000000   0.0000000   0.0000000   0.0000000   0.0000000   0.0000000
 NMagM=    0.0000000   2.7928460   0.4037610   0.0000000   0.0000000   2.7928460   2.7928460   2.7928460   2.7928460   2.7928460
 AtZNuc=   6.0000000   1.0000000   7.0000000   6.0000000   6.0000000   1.0000000   1.0000000   1.0000000   1.0000000   1.0000000

  Atom        41
 IAtWgt=           1
 AtmWgt=   1.0078250
 NucSpn=           1
 AtZEff=   0.0000000
 NQMom=    0.0000000
 NMagM=    2.7928460
 AtZNuc=   1.0000000
 Leave Link  101 at Thu Nov  2 07:37:05 2017, MaxMem=  3758096384 cpu:         0.3
 (Enter /share/apps/gaussian/g09_D01/g09/l202.exe)
                          Input orientation:                          
 ---------------------------------------------------------------------
 Center     Atomic      Atomic             Coordinates (Angstroms)
 Number     Number       Type             X           Y           Z
 ---------------------------------------------------------------------
      1          6           0        0.189744   -9.571178   -8.241991
      2          6           0       -0.636792  -10.289435   -9.118195
      3          6           0        0.013504   -9.655770   -6.826624
      4          8           0        1.167363   -8.803650   -8.752750
      5          1           0       -0.474766  -10.184499  -10.188265
      6          6           0       -1.641140  -11.103179   -8.598058
      7          6           0       -1.000965  -10.516251   -6.349474
      8          6           0        0.871866   -8.849893   -5.956409
      9          1           0        1.602836   -8.363690   -7.885818
     10          6           0       -1.821192  -11.220732   -7.202386
     11          8           0       -2.494182  -11.833311   -9.354722
     12          1           0       -1.136191  -10.657855   -5.279104
     13          6           0        0.704025   -8.882446   -4.524987
     14          8           0        1.773923   -8.105111   -6.493532
     15          1           0       -2.606481  -11.874941   -6.827160
     16          6           0       -2.293430  -11.863228  -10.773673
     17          1           0       -0.079497   -9.517814   -4.118344
     18          6           0        1.495260   -8.158636   -3.676327
     19          1           0       -1.290661  -12.259180  -11.004060
     20          1           0       -3.063401  -12.534014  -11.165992
     21          1           0       -2.410289  -10.857597  -11.205208
     22          1           0        2.272707   -7.534276   -4.126876
     23          6           0        1.405285   -8.129716   -2.248113
     24          6           0        0.456343   -8.878138   -1.511143
     25          6           0        2.283221   -7.308643   -1.504971
     26          1           0       -0.234381   -9.536955   -2.035475
     27          6           0        0.374104   -8.805575   -0.139636
     28          6           0        2.215664   -7.217871   -0.129864
     29          1           0        3.041171   -6.734380   -2.037230
     30          1           0       -0.378607   -9.397676    0.375433
     31          6           0        1.257455   -7.970862    0.600810
     32          1           0        2.909922   -6.561218    0.390749
     33          7           0        1.194401   -7.907231    1.956155
     34          6           0        0.232100   -8.716015    2.686402
     35          6           0        2.079430   -7.009747    2.679249
     36          1           0        0.307209   -9.776998    2.405837
     37          1           0        0.442533   -8.634185    3.755638
     38          1           0       -0.800972   -8.377405    2.502193
     39          1           0        1.935914   -5.966338    2.357672
     40          1           0        1.859835   -7.073688    3.749710
     41          1           0        3.137164   -7.276819    2.521281
 ---------------------------------------------------------------------
                    Distance matrix (angstroms):
                    1          2          3          4          5
     1  C    0.000000
     2  C    1.402422   0.000000
     3  C    1.428804   2.464896   0.000000
     4  O    1.343768   2.365604   2.401554   0.000000
     5  H    2.146094   1.087343   3.437818   2.581479   0.000000
     6  C    2.413700   1.393354   2.823264   3.633105   2.175583
     7  C    2.427462   2.801764   1.413240   3.662019   3.888864
     8  C    2.491872   3.787509   1.464069   2.812291   4.637154
     9  H    1.892542   3.200497   2.305936   1.065257   3.596253
    10  C    2.801012   2.437302   2.440576   4.144560   3.435421
    11  O    3.682238   2.426808   4.173901   4.790420   2.737045
    12  H    3.423108   3.888927   2.172738   4.561870   4.976084
    13  C    3.815096   4.987481   2.524358   4.253807   5.929385
    14  O    2.777784   4.179913   2.369508   2.441298   4.799115
    15  H    3.889466   3.412088   3.433517   5.232841   4.324214
    16  C    4.222447   2.821681   5.076811   5.042047   2.543299
    17  H    4.132772   5.089645   2.713386   4.852052   6.119203
    18  C    4.954284   6.220923   3.789641   5.127731   7.098624
    19  H    4.128678   2.804269   5.092108   4.801142   2.373922
    20  H    5.283099   3.888449   6.048285   6.135040   3.630042
    21  H    4.146770   2.797092   5.146956   4.799254   2.287681
    22  H    5.042011   6.400730   4.110155   4.922581   7.163290
    23  C    6.283464   7.485485   5.022814   6.543783   8.414436
    24  C    6.771683   7.813702   5.390283   7.276810   8.824171
    25  C    7.408721   8.681750   6.243445   7.484015   9.553881
    26  H    6.221085   7.133939   4.799028   6.901044   8.181997
    27  C    8.140534   9.156324   6.750457   8.649566  10.178259
    28  C    8.686139   9.917717   7.459186   8.829937  10.826390
    29  H    7.394398   8.735324   6.374918   7.272637   9.523891
    30  H    8.637889   9.538913   7.217339   9.277209  10.593397
    31  C    9.049649  10.169710   7.717066   9.390992  11.149212
    32  H    9.538523  10.811975   8.369944   9.574371  11.683314
    33  N   10.381726  11.474728   9.032669  10.746392  12.468320
    34  C   10.961883  11.940650   9.561830  11.477656  12.977409
    35  C   11.375646  12.542484  10.081226  11.607780  13.497255
    36  H   10.650465  11.573981   9.237927  11.233937  12.624934
    37  H   12.036817  13.024606  10.640111  12.530517  14.059777
    38  H   10.855602  11.777785   9.451159  11.433712  12.822625
    39  H   11.331233  12.530104  10.082602  11.492715  13.453802
    40  H   12.362344  13.496561  11.042415  12.640561  14.470475
    41  H   11.392954  12.601429  10.139033  11.546216  13.528976
                    6          7          8          9         10
     6  C    0.000000
     7  C    2.410485   0.000000
     8  C    4.286118   2.537468   0.000000
     9  H    4.305284   3.711287   2.119748   0.000000
    10  C    1.412139   1.377144   3.798144   4.511512   0.000000
    11  O    1.353999   3.604977   5.637339   5.566103   2.336818
    12  H    3.386553   1.088131   2.785635   4.422716   2.117799
    13  C    5.198208   2.984135   1.441596   3.517407   4.360363
    14  O    5.008003   3.678906   1.287209   1.426392   4.809825
    15  H    2.159532   2.156827   4.691271   5.582830   1.088790
    16  C    2.395090   4.801911   6.504254   5.980582   3.659221
    17  H    5.001994   2.612264   2.174786   4.284403   3.929980
    18  C    6.536878   4.351460   2.462769   4.215855   5.727860
    19  H    2.692215   4.978644   6.463632   5.768067   3.976501
    20  H    3.265639   5.614611   7.496588   7.065756   4.356371
    21  H    2.729310   5.067629   6.507942   5.774348   4.062202
    22  H    6.931575   4.954699   2.653374   3.907211   6.309416
    23  C    7.644867   5.320409   3.815056   5.646015   6.671533
    24  C    7.718459   5.311931   4.464734   6.497352   6.562405
    25  C    8.950475   6.674117   4.917588   6.503173   8.038108
    26  H    6.891990   4.489684   4.131532   6.243271   5.661276
    27  C    8.993614   6.586298   5.838200   7.855468   7.780408
    28  C   10.083693   7.740127   6.198219   7.864050   9.074121
    29  H    9.168146   7.016898   4.953912   6.239346   8.393376
    30  H    9.220969   6.845649   6.477343   8.558242   7.926407
    31  C   10.140633   7.738599   6.627103   8.502732   8.996087
    32  H   11.051707   8.738875   7.048271   8.570819  10.087131
    33  N   11.386210   8.978312   7.975043   9.861014  10.195684
    34  C   11.685316   9.295609   8.667491  10.666531  10.405659
    35  C   12.560911  10.163771   8.911730  10.662127  11.427771
    36  H   11.253467   8.883315   8.432409  10.468727   9.946477
    37  H   12.769159  10.379747   9.723925  11.702263  11.484466
    38  H   11.460859   9.108604   8.635368  10.662516  10.163868
    39  H   12.617863  10.253846   8.864030  10.525556  11.537730
    40  H   13.452174  11.046671   9.916639  11.709640  12.275844
    41  H   12.693026  10.310593   8.915008  10.575593  11.605578
                   11         12         13         14         15
    11  O    0.000000
    12  H    4.453818   0.000000
    13  C    6.500959   2.665927   0.000000
    14  O    6.348433   4.057105   2.371519   0.000000
    15  H    2.530398   2.457545   5.021402   5.788857   0.000000
    16  C    1.433394   5.743032   7.544261   6.999029   3.958927
    17  H    6.213846   1.940015   1.087639   3.327524   4.390829
    18  C    7.852583   3.967307   1.367544   2.831459   6.368905
    19  H    2.085700   5.946699   7.573605   6.855131   4.396080
    20  H    2.023782   6.472215   8.463474   8.052749   4.412325
    21  H    2.093646   6.064811   7.630565   6.876314   4.498976
    22  H    8.278605   4.764972   2.106376   2.485095   7.066780
    23  C    8.912146   4.694411   2.498504   4.261465   7.147632
    24  C    8.885965   4.461063   3.024007   5.211313   6.828013
    25  C   10.242792   6.095382   3.753826   5.077350   8.549033
    26  H    7.996957   3.548353   2.739828   5.094873   5.835519
    27  C   10.114942   5.667986   4.398416   6.543863   7.939009
    28  C   11.339442   7.041526   4.936899   6.440388   9.476031
    29  H   10.496900   6.584357   4.033035   4.831506   9.014697
    30  H   10.251043   5.842583   5.044965   7.313466   7.935843
    31  C   11.318388   6.893683   5.235558   7.114383   9.238321
    32  H   12.327754   8.080885   5.866732   7.146148  10.524475
    33  N   12.528196   8.083722   6.572421   8.471848  10.360311
    34  C   12.733374   8.312175   7.228730   9.328537  10.418456
    35  C   13.747769   9.326537   7.569660   9.243001  11.661890
    36  H   12.263236   7.868776   6.999572   9.173071   9.906522
    37  H   13.810874   9.392240   8.288472  10.348817  11.480183
    38  H   12.465820   8.115504   7.204259   9.360945  10.125683
    39  H   13.828496   9.474624   7.575766   9.107382  11.828190
    40  H   14.606081  10.165722   8.548574  10.295398  12.444685
    41  H   13.910899   9.515197   7.625490   9.154854  11.896450
                   16         17         18         19         20
    16  C    0.000000
    17  H    7.395666   0.000000
    18  C    8.857228   2.126641   0.000000
    19  H    1.102453   7.509666   8.847117   0.000000
    20  H    1.093949   8.226207   9.799000   1.801211   0.000000
    21  H    1.100533   7.579660   8.900660   1.805121   1.799574
    22  H    9.152559   3.076907   1.094186   9.072925  10.149906
    23  C   10.015227   2.762093   1.431338  10.049239  10.903924
    24  C   10.112689   2.737482   2.507001  10.227362  10.907343
    25  C   11.295965   4.158436   2.461332  11.292172  12.215817
    26  H    9.274014   2.088707   2.753873   9.431954  10.017587
    27  C   11.381903   4.067328   3.766126  11.521048  12.136648
    28  C   12.458007   5.144461   3.739174  12.488285  13.338891
    29  H   11.449388   4.670879   2.665518  11.388249  12.419173
    30  H   11.577913   4.505323   4.632856  11.769151  12.257619
    31  C   12.535476   5.143045   4.287856  12.631531  13.339782
    32  H   13.410090   6.165226   4.592834  13.414669  14.314788
    33  N   13.779093   6.412202   5.646111  13.895401  14.550833
    34  C   14.051935   6.858902   6.510804  14.223276  14.741990
    35  C   14.955243   7.560333   6.484948  15.038185  15.768860
    36  H   13.594674   6.540769   6.404942  13.730978  14.253305
    37  H   15.133178   7.940586   7.521202  15.296837  15.816298
    38  H   13.806774   6.756668   6.595047  14.061538  14.464275
    39  H   15.003096   7.655955   6.435021  15.117755  15.843516
    40  H   15.846702   8.464103   7.513724  15.952701  16.629239
    41  H   15.075885   7.710615   6.471769  15.078608  15.919376
                   21         22         23         24         25
    21  H    0.000000
    22  H    9.114697   0.000000
    23  C   10.110860   2.153304   0.000000
    24  C   10.301006   3.456473   1.415539   0.000000
    25  C   11.345427   2.631617   1.413221   2.408492   0.000000
    26  H    9.516442   3.830166   2.171184   1.089065   3.403693
    27  C   11.593555   4.595539   2.442498   1.375885   2.783823
    28  C   12.542340   4.009922   2.444413   2.785611   1.379755
    29  H   11.435522   2.365796   2.160453   3.399088   1.089755
    30  H   11.847799   5.547298   3.416575   2.127494   3.871086
    31  C   12.695182   4.855137   2.857175   2.434189   2.434141
    32  H   13.462159   4.664957   3.418729   3.873675   2.131936
    33  N   13.961373   6.189112   4.215429   3.675533   3.677394
    34  C   14.301938   7.209809   5.105835   4.206656   4.873951
    35  C   15.091112   6.829043   5.097813   4.866691   4.199829
    36  H   13.921675   7.181178   5.057525   4.021557   5.029097
    37  H   15.391851   8.166600   6.101345   5.272446   5.728804
    38  H   14.022628   7.355469   5.243503   4.235380   5.168352
    39  H   15.058739   6.679912   5.116154   5.063145   4.103951
    40  H   16.006296   7.900836   6.107020   5.736062   5.276943
    41  H   15.231963   6.709066   5.145285   5.100144   4.115937
                   26         27         28         29         30
    26  H    0.000000
    27  C    2.121173   0.000000
    28  C    3.874561   2.431510   0.000000
    29  H    4.310878   3.873494   2.133839   0.000000
    30  H    2.419231   1.087407   3.425948   4.960743   0.000000
    31  C    3.410018   1.423136   1.420931   3.416107   2.182497
    32  H    4.962682   3.427655   1.088221   2.437682   4.342828
    33  N    4.542084   2.423272   2.422740   4.553379   2.682250
    34  C    4.815358   2.831020   3.756370   5.842128   2.485599
    35  C    5.828304   3.752232   2.820105   4.821405   4.129373
    36  H    4.480646   2.725357   4.076900   6.039281   2.176412
    37  H    5.900017   3.899643   4.499674   6.627179   3.561317
    38  H    4.717628   2.922908   4.168013   6.169923   2.396342
    39  H    6.062939   4.091096   2.798648   4.596373   4.589157
    40  H    6.627352   4.509306   3.898525   5.916026   4.668757
    41  H    6.102422   4.129416   2.807349   4.591675   4.632855
                   31         32         33         34         35
    31  C    0.000000
    32  H    2.182171   0.000000
    33  N    1.358302   2.684261   0.000000
    34  C    2.440553   4.133268   1.453759   0.000000
    35  C    2.432960   2.475505   1.453141   2.514762   0.000000
    36  H    2.724558   4.601732   2.117865   1.100020   3.297453
    37  H    3.325212   4.659150   2.081323   1.092815   2.544964
    38  H    2.831547   4.639770   2.121493   1.102646   3.193517
    39  H    2.750452   2.274062   2.116158   3.251426   1.101232
    40  H    3.329167   3.556392   2.086729   2.545070   1.094622
    41  H    2.775466   2.258958   2.119225   3.246220   1.102308
                   36         37         38         39         40
    36  H    0.000000
    37  H    1.773780   0.000000
    38  H    1.787795   1.784199   0.000000
    39  H    4.144409   3.361830   3.650298   0.000000
    40  H    3.394779   2.108063   3.214945   1.780388   0.000000
    41  H    3.777945   3.259926   4.089079   1.785253   1.783780
                   41
    41  H    0.000000
 Symmetry turned off by external request.
 Stoichiometry    C18H19NO3
 Framework group  C1[X(C18H19NO3)]
 Deg. of freedom   117
 Full point group                 C1      NOp   1
 Rotational constants (GHZ):      0.8506559      0.0817862      0.0747293
 Leave Link  202 at Thu Nov  2 07:37:05 2017, MaxMem=  3758096384 cpu:         0.1
 (Enter /share/apps/gaussian/g09_D01/g09/l301.exe)
 Standard basis: 6-311++G(d,p) (5D, 7F)
 Ernie: Thresh=  0.10000D-02 Tol=  0.10000D-05 Strict=F.
   617 basis functions,   963 primitive gaussians,   639 cartesian basis functions
    79 alpha electrons       79 beta electrons
       nuclear repulsion energy      1595.5259099015 Hartrees.
 IExCor= 4639 DFT=T Ex+Corr=wB97XD ExCW=0 ScaHFX=  1.000000
 ScaDFX=  1.000000  1.000000  1.000000  1.000000 ScalE2=  1.000000  1.000000
 IRadAn=      0 IRanWt=     -1 IRanGd=            0 ICorTp=0 IEmpDi=121
  HFx wShort=  0.000000 wLong=  0.200000 cFull=  0.222036 cShort=  0.000000 cLong=  0.777964
  DFx wShort=  0.000000 wLong=  0.200000 cFull=  0.000000 cShort=  0.000000 cLong=  1.000000
 NAtoms=   41 NActive=   41 NUniq=   41 SFac= 1.00D+00 NAtFMM=   60 NAOKFM=F Big=F
 Integral buffers will be    131072 words long.
 Raffenetti 1 integral format.
 Two-electron integral symmetry is turned off.
 R6Disp:  Grimme-D2 Dispersion energy=       -0.0257157941 Hartrees.
 Nuclear repulsion after empirical dispersion term =     1595.5001941074 Hartrees.
 Leave Link  301 at Thu Nov  2 07:37:05 2017, MaxMem=  3758096384 cpu:         0.1
 (Enter /share/apps/gaussian/g09_D01/g09/l302.exe)
 NPDir=0 NMtPBC=     1 NCelOv=     1 NCel=       1 NClECP=     1 NCelD=      1
         NCelK=      1 NCelE2=     1 NClLst=     1 CellRange=     0.0.
 One-electron integrals computed using PRISM.
 NBasis=   617 RedAO= T EigKep=  1.51D-06  NBF=   617
 NBsUse=   609 1.00D-06 EigRej=  9.23D-07 NBFU=   609
 Precomputing XC quadrature grid using
 IXCGrd= 4 IRadAn=           0 IRanWt=          -1 IRanGd=           0 AccXCQ= 0.00D+00.
 Generated NRdTot=       0 NPtTot=           0 NUsed=           0 NTot=          32
 NSgBfM=   619   619   619   619   619 MxSgAt=    41 MxSgA2=    41.
 Leave Link  302 at Thu Nov  2 07:37:09 2017, MaxMem=  3758096384 cpu:         8.2
 (Enter /share/apps/gaussian/g09_D01/g09/l308.exe)
 Leave Link  308 at Thu Nov  2 07:37:10 2017, MaxMem=  3758096384 cpu:         1.0
 (Enter /share/apps/gaussian/g09_D01/g09/l303.exe)
 DipDrv:  MaxL=1.
 Leave Link  303 at Thu Nov  2 07:37:10 2017, MaxMem=  3758096384 cpu:         0.6
 (Enter /share/apps/gaussian/g09_D01/g09/l401.exe)
 ExpMin= 3.60D-02 ExpMax= 8.59D+03 ExpMxC= 1.30D+03 IAcc=3 IRadAn=         5 AccDes= 0.00D+00
 Harris functional with IExCor= 4639 and IRadAn=       5 diagonalized for initial guess.
 HarFok:  IExCor= 4639 AccDes= 0.00D+00 IRadAn=         5 IDoV= 1 UseB2=F ITyADJ=14
 ICtDFT=  3500011 ScaDFX=  1.000000  1.000000  1.000000  1.000000
 FoFCou: FMM=F IPFlag=           0 FMFlag=      100000 FMFlg1=           0
         NFxFlg=           0 DoJE=T BraDBF=F KetDBF=T FulRan=T
         wScrn=  0.000000 ICntrl=     500 IOpCl=  0 I1Cent=   200000004 NGrid=           0
         NMat0=    1 NMatS0=      1 NMatT0=    0 NMatD0=    1 NMtDS0=    0 NMtDT0=    0
 Symmetry not used in FoFCou.
 Harris En= -935.539786139763    
 JPrj=0 DoOrth=F DoCkMO=F.
 Leave Link  401 at Thu Nov  2 07:37:36 2017, MaxMem=  3758096384 cpu:        52.9
 (Enter /share/apps/gaussian/g09_D01/g09/l502.exe)
 Closed shell SCF:
 Using DIIS extrapolation, IDIIS=  1040.
 Two-electron integral symmetry not used.
 IVT=     1251263 IEndB=     1251263 NGot=  3758096384 MDV=  3757270722
 LenX=  3757270722 LenY=  3756861762
 Requested convergence on RMS density matrix=1.00D-08 within 128 cycles.
 Requested convergence on MAX density matrix=1.00D-06.
 Requested convergence on             energy=1.00D-06.
 No special actions if energy rises.
 Fock matrices will be formed incrementally for  20 cycles.

 Cycle   1  Pass 1  IDiag  1:
 FoFJK:  IHMeth= 1 ICntrl=       0 DoSepK=T KAlg= 0 I1Cent=   0 FoldK=F
 IRaf=         1 NMat=   1 IRICut=       1 DoRegI=T DoRafI=F ISym2E= 0.
 FoFCou: FMM=F IPFlag=           0 FMFlag=      100000 FMFlg1=           0
         NFxFlg=           0 DoJE=T BraDBF=F KetDBF=F FulRan=T
         wScrn=  0.000000 ICntrl=     500 IOpCl=  0 I1Cent=           0 NGrid=           0
         NMat0=    1 NMatS0=      1 NMatT0=    0 NMatD0=    1 NMtDS0=    0 NMtDT0=    0
 Symmetry not used in FoFCou.
 E= -977.329698348834    
 DIIS: error= 9.34D-02 at cycle   1 NSaved=   1.
 NSaved= 1 IEnMin= 1 EnMin= -977.329698348834     IErMin= 1 ErrMin= 9.34D-02
 ErrMax= 9.34D-02  0.00D+00 EMaxC= 1.00D-01 BMatC= 2.16D+00 BMatP= 2.16D+00
 IDIUse=3 WtCom= 6.58D-02 WtEn= 9.34D-01
 Coeff-Com:  0.100D+01
 Coeff-En:   0.100D+01
 Coeff:      0.100D+01
 Gap=     0.282 Goal=   None    Shift=    0.000
 GapD=    0.282 DampG=1.000 DampE=0.500 DampFc=0.5000 IDamp=-1.
 Damping current iteration by 5.00D-01
 RMSDP=1.88D-02 MaxDP=1.80D+00              OVMax= 1.76D-01

 Cycle   2  Pass 1  IDiag  1:
 RMSU=  2.99D-03    CP:  8.17D-01
 E= -977.488168182774     Delta-E=       -0.158469833941 Rises=F Damp=T
 DIIS: error= 4.19D-02 at cycle   2 NSaved=   2.
 NSaved= 2 IEnMin= 2 EnMin= -977.488168182774     IErMin= 2 ErrMin= 4.19D-02
 ErrMax= 4.19D-02  0.00D+00 EMaxC= 1.00D-01 BMatC= 4.43D-01 BMatP= 2.16D+00
 IDIUse=3 WtCom= 5.81D-01 WtEn= 4.19D-01
 Coeff-Com: -0.512D+00 0.151D+01
 Coeff-En:   0.000D+00 0.100D+01
 Coeff:     -0.298D+00 0.130D+01
 Gap=     0.269 Goal=   None    Shift=    0.000
 RMSDP=9.07D-03 MaxDP=1.01D+00 DE=-1.58D-01 OVMax= 2.04D-01

 Cycle   3  Pass 1  IDiag  1:
 RMSU=  3.22D-03    CP:  6.44D-01  1.31D+00
 E= -977.594795591961     Delta-E=       -0.106627409186 Rises=F Damp=F
 DIIS: error= 1.60D-02 at cycle   3 NSaved=   3.
 NSaved= 3 IEnMin= 3 EnMin= -977.594795591961     IErMin= 3 ErrMin= 1.60D-02
 ErrMax= 1.60D-02  0.00D+00 EMaxC= 1.00D-01 BMatC= 1.13D-01 BMatP= 4.43D-01
 IDIUse=3 WtCom= 8.40D-01 WtEn= 1.60D-01
 Coeff-Com: -0.317D+00 0.689D+00 0.627D+00
 Coeff-En:   0.000D+00 0.000D+00 0.100D+01
 Coeff:     -0.266D+00 0.579D+00 0.687D+00
 Gap=     0.264 Goal=   None    Shift=    0.000
 RMSDP=3.12D-03 MaxDP=2.63D-01 DE=-1.07D-01 OVMax= 8.55D-02

 Cycle   4  Pass 1  IDiag  1:
 RMSU=  1.23D-03    CP:  5.96D-01  1.60D+00  5.74D-01
 E= -977.677251704207     Delta-E=       -0.082456112246 Rises=F Damp=F
 DIIS: error= 5.36D-03 at cycle   4 NSaved=   4.
 NSaved= 4 IEnMin= 4 EnMin= -977.677251704207     IErMin= 4 ErrMin= 5.36D-03
 ErrMax= 5.36D-03  0.00D+00 EMaxC= 1.00D-01 BMatC= 1.10D-02 BMatP= 1.13D-01
 IDIUse=3 WtCom= 9.46D-01 WtEn= 5.36D-02
 Coeff-Com: -0.122D+00 0.264D+00 0.372D+00 0.485D+00
 Coeff-En:   0.000D+00 0.000D+00 0.246D-01 0.975D+00
 Coeff:     -0.115D+00 0.250D+00 0.354D+00 0.511D+00
 Gap=     0.241 Goal=   None    Shift=    0.000
 RMSDP=7.25D-04 MaxDP=4.19D-02 DE=-8.25D-02 OVMax= 2.05D-02

 Cycle   5  Pass 1  IDiag  1:
 RMSU=  2.96D-04    CP:  6.05D-01  1.58D+00  6.69D-01  7.06D-01
 E= -977.685863350682     Delta-E=       -0.008611646475 Rises=F Damp=F
 DIIS: error= 7.27D-04 at cycle   5 NSaved=   5.
 NSaved= 5 IEnMin= 5 EnMin= -977.685863350682     IErMin= 5 ErrMin= 7.27D-04
 ErrMax= 7.27D-04  0.00D+00 EMaxC= 1.00D-01 BMatC= 1.89D-04 BMatP= 1.10D-02
 IDIUse=3 WtCom= 9.93D-01 WtEn= 7.27D-03
 Coeff-Com:  0.896D-02-0.197D-01 0.276D-01 0.167D+00 0.816D+00
 Coeff-En:   0.000D+00 0.000D+00 0.000D+00 0.000D+00 0.100D+01
 Coeff:      0.889D-02-0.196D-01 0.274D-01 0.166D+00 0.818D+00
 Gap=     0.241 Goal=   None    Shift=    0.000
 RMSDP=2.45D-04 MaxDP=1.85D-02 DE=-8.61D-03 OVMax= 6.94D-03

 Cycle   6  Pass 1  IDiag  1:
 RMSU=  1.38D-04    CP:  6.02D-01  1.57D+00  6.73D-01  8.08D-01  8.63D-01
 E= -977.686096901417     Delta-E=       -0.000233550735 Rises=F Damp=F
 DIIS: error= 5.25D-04 at cycle   6 NSaved=   6.
 NSaved= 6 IEnMin= 6 EnMin= -977.686096901417     IErMin= 6 ErrMin= 5.25D-04
 ErrMax= 5.25D-04  0.00D+00 EMaxC= 1.00D-01 BMatC= 5.95D-05 BMatP= 1.89D-04
 IDIUse=3 WtCom= 9.95D-01 WtEn= 5.25D-03
 Coeff-Com:  0.239D-01-0.519D-01-0.457D-01-0.359D-02 0.423D+00 0.654D+00
 Coeff-En:   0.000D+00 0.000D+00 0.000D+00 0.000D+00 0.000D+00 0.100D+01
 Coeff:      0.238D-01-0.517D-01-0.454D-01-0.357D-02 0.421D+00 0.656D+00
 Gap=     0.242 Goal=   None    Shift=    0.000
 RMSDP=6.63D-05 MaxDP=5.50D-03 DE=-2.34D-04 OVMax= 4.07D-03

 Cycle   7  Pass 1  IDiag  1:
 RMSU=  4.48D-05    CP:  6.01D-01  1.57D+00  6.74D-01  8.25D-01  9.91D-01
                    CP:  1.01D+00
 E= -977.686170809878     Delta-E=       -0.000073908461 Rises=F Damp=F
 DIIS: error= 1.44D-04 at cycle   7 NSaved=   7.
 NSaved= 7 IEnMin= 7 EnMin= -977.686170809878     IErMin= 7 ErrMin= 1.44D-04
 ErrMax= 1.44D-04  0.00D+00 EMaxC= 1.00D-01 BMatC= 4.59D-06 BMatP= 5.95D-05
 IDIUse=3 WtCom= 9.99D-01 WtEn= 1.44D-03
 Coeff-Com:  0.388D-02-0.834D-02-0.124D-01-0.204D-01-0.952D-02 0.189D+00
 Coeff-Com:  0.858D+00
 Coeff-En:   0.000D+00 0.000D+00 0.000D+00 0.000D+00 0.000D+00 0.000D+00
 Coeff-En:   0.100D+01
 Coeff:      0.388D-02-0.832D-02-0.124D-01-0.204D-01-0.951D-02 0.189D+00
 Coeff:      0.858D+00
 Gap=     0.242 Goal=   None    Shift=    0.000
 RMSDP=3.01D-05 MaxDP=3.23D-03 DE=-7.39D-05 OVMax= 2.07D-03

 Cycle   8  Pass 1  IDiag  1:
 RMSU=  1.97D-05    CP:  6.01D-01  1.57D+00  6.72D-01  8.33D-01  1.01D+00
                    CP:  1.14D+00  1.05D+00
 E= -977.686181377108     Delta-E=       -0.000010567231 Rises=F Damp=F
 DIIS: error= 7.07D-05 at cycle   8 NSaved=   8.
 NSaved= 8 IEnMin= 8 EnMin= -977.686181377108     IErMin= 8 ErrMin= 7.07D-05
 ErrMax= 7.07D-05  0.00D+00 EMaxC= 1.00D-01 BMatC= 1.10D-06 BMatP= 4.59D-06
 IDIUse=1 WtCom= 1.00D+00 WtEn= 0.00D+00
 Coeff-Com: -0.194D-02 0.427D-02 0.152D-02-0.959D-02-0.795D-01-0.185D-01
 Coeff-Com:  0.381D+00 0.723D+00
 Coeff:     -0.194D-02 0.427D-02 0.152D-02-0.959D-02-0.795D-01-0.185D-01
 Coeff:      0.381D+00 0.723D+00
 Gap=     0.242 Goal=   None    Shift=    0.000
 RMSDP=1.13D-05 MaxDP=1.74D-03 DE=-1.06D-05 OVMax= 1.13D-03

 Cycle   9  Pass 1  IDiag  1:
 RMSU=  6.42D-06    CP:  6.01D-01  1.57D+00  6.72D-01  8.34D-01  1.01D+00
                    CP:  1.19D+00  1.17D+00  1.17D+00
 E= -977.686183926725     Delta-E=       -0.000002549617 Rises=F Damp=F
 DIIS: error= 3.77D-05 at cycle   9 NSaved=   9.
 NSaved= 9 IEnMin= 9 EnMin= -977.686183926725     IErMin= 9 ErrMin= 3.77D-05
 ErrMax= 3.77D-05  0.00D+00 EMaxC= 1.00D-01 BMatC= 1.36D-07 BMatP= 1.10D-06
 IDIUse=1 WtCom= 1.00D+00 WtEn= 0.00D+00
 Coeff-Com: -0.131D-02 0.284D-02 0.319D-02 0.148D-02-0.224D-01-0.372D-01
 Coeff-Com: -0.614D-01 0.179D+00 0.936D+00
 Coeff:     -0.131D-02 0.284D-02 0.319D-02 0.148D-02-0.224D-01-0.372D-01
 Coeff:     -0.614D-01 0.179D+00 0.936D+00
 Gap=     0.242 Goal=   None    Shift=    0.000
 RMSDP=6.84D-06 MaxDP=7.35D-04 DE=-2.55D-06 OVMax= 5.86D-04

 Cycle  10  Pass 1  IDiag  1:
 RMSU=  3.67D-06    CP:  6.01D-01  1.57D+00  6.73D-01  8.34D-01  1.01D+00
                    CP:  1.22D+00  1.19D+00  1.34D+00  1.33D+00
 E= -977.686184396269     Delta-E=       -0.000000469543 Rises=F Damp=F
 DIIS: error= 1.08D-05 at cycle  10 NSaved=  10.
 NSaved=10 IEnMin=10 EnMin= -977.686184396269     IErMin=10 ErrMin= 1.08D-05
 ErrMax= 1.08D-05  0.00D+00 EMaxC= 1.00D-01 BMatC= 2.14D-08 BMatP= 1.36D-07
 IDIUse=1 WtCom= 1.00D+00 WtEn= 0.00D+00
 Coeff-Com:  0.317D-04-0.774D-04 0.506D-03 0.185D-02 0.548D-02-0.573D-02
 Coeff-Com: -0.787D-01-0.525D-01 0.298D+00 0.831D+00
 Coeff:      0.317D-04-0.774D-04 0.506D-03 0.185D-02 0.548D-02-0.573D-02
 Coeff:     -0.787D-01-0.525D-01 0.298D+00 0.831D+00
 Gap=     0.242 Goal=   None    Shift=    0.000
 RMSDP=2.33D-06 MaxDP=1.95D-04 DE=-4.70D-07 OVMax= 2.33D-04

 Cycle  11  Pass 1  IDiag  1:
 RMSU=  1.18D-06    CP:  6.01D-01  1.57D+00  6.73D-01  8.34D-01  1.01D+00
                    CP:  1.22D+00  1.20D+00  1.40D+00  1.48D+00  1.12D+00
 E= -977.686184459775     Delta-E=       -0.000000063506 Rises=F Damp=F
 DIIS: error= 5.12D-06 at cycle  11 NSaved=  11.
 NSaved=11 IEnMin=11 EnMin= -977.686184459775     IErMin=11 ErrMin= 5.12D-06
 ErrMax= 5.12D-06  0.00D+00 EMaxC= 1.00D-01 BMatC= 4.08D-09 BMatP= 2.14D-08
 IDIUse=1 WtCom= 1.00D+00 WtEn= 0.00D+00
 Coeff-Com:  0.196D-03-0.424D-03-0.264D-03 0.568D-03 0.541D-02 0.356D-02
 Coeff-Com: -0.187D-01-0.446D-01-0.535D-01 0.285D+00 0.823D+00
 Coeff:      0.196D-03-0.424D-03-0.264D-03 0.568D-03 0.541D-02 0.356D-02
 Coeff:     -0.187D-01-0.446D-01-0.535D-01 0.285D+00 0.823D+00
 Gap=     0.242 Goal=   None    Shift=    0.000
 RMSDP=1.07D-06 MaxDP=1.07D-04 DE=-6.35D-08 OVMax= 8.22D-05

 Cycle  12  Pass 1  IDiag  1:
 RMSU=  5.69D-07    CP:  6.01D-01  1.57D+00  6.73D-01  8.34D-01  1.01D+00
                    CP:  1.22D+00  1.20D+00  1.42D+00  1.54D+00  1.19D+00
                    CP:  1.24D+00
 E= -977.686184470326     Delta-E=       -0.000000010551 Rises=F Damp=F
 DIIS: error= 2.14D-06 at cycle  12 NSaved=  12.
 NSaved=12 IEnMin=12 EnMin= -977.686184470326     IErMin=12 ErrMin= 2.14D-06
 ErrMax= 2.14D-06  0.00D+00 EMaxC= 1.00D-01 BMatC= 6.19D-10 BMatP= 4.08D-09
 IDIUse=1 WtCom= 1.00D+00 WtEn= 0.00D+00
 Coeff-Com:  0.475D-04-0.102D-03-0.140D-03-0.562D-04 0.951D-03 0.181D-02
 Coeff-Com:  0.739D-02-0.473D-02-0.654D-01-0.523D-01 0.252D+00 0.861D+00
 Coeff:      0.475D-04-0.102D-03-0.140D-03-0.562D-04 0.951D-03 0.181D-02
 Coeff:      0.739D-02-0.473D-02-0.654D-01-0.523D-01 0.252D+00 0.861D+00
 Gap=     0.242 Goal=   None    Shift=    0.000
 RMSDP=3.95D-07 MaxDP=2.82D-05 DE=-1.06D-08 OVMax= 3.15D-05

 Cycle  13  Pass 1  IDiag  1:
 RMSU=  2.03D-07    CP:  6.01D-01  1.57D+00  6.73D-01  8.34D-01  1.01D+00
                    CP:  1.22D+00  1.20D+00  1.43D+00  1.56D+00  1.20D+00
                    CP:  1.42D+00  1.20D+00
 E= -977.686184472112     Delta-E=       -0.000000001786 Rises=F Damp=F
 DIIS: error= 7.16D-07 at cycle  13 NSaved=  13.
 NSaved=13 IEnMin=13 EnMin= -977.686184472112     IErMin=13 ErrMin= 7.16D-07
 ErrMax= 7.16D-07  0.00D+00 EMaxC= 1.00D-01 BMatC= 1.59D-10 BMatP= 6.19D-10
 IDIUse=1 WtCom= 1.00D+00 WtEn= 0.00D+00
 Coeff-Com: -0.131D-04 0.289D-04-0.197D-04-0.140D-03-0.548D-03 0.757D-04
 Coeff-Com:  0.682D-02 0.566D-02-0.180D-01-0.784D-01-0.351D-01 0.395D+00
 Coeff-Com:  0.724D+00
 Coeff:     -0.131D-04 0.289D-04-0.197D-04-0.140D-03-0.548D-03 0.757D-04
 Coeff:      0.682D-02 0.566D-02-0.180D-01-0.784D-01-0.351D-01 0.395D+00
 Coeff:      0.724D+00
 Gap=     0.242 Goal=   None    Shift=    0.000
 RMSDP=1.48D-07 MaxDP=1.07D-05 DE=-1.79D-09 OVMax= 1.13D-05

 Cycle  14  Pass 1  IDiag  1:
 RMSU=  8.00D-08    CP:  6.01D-01  1.57D+00  6.73D-01  8.34D-01  1.01D+00
                    CP:  1.22D+00  1.20D+00  1.43D+00  1.57D+00  1.21D+00
                    CP:  1.47D+00  1.30D+00  1.20D+00
 E= -977.686184472380     Delta-E=       -0.000000000267 Rises=F Damp=F
 DIIS: error= 2.20D-07 at cycle  14 NSaved=  14.
 NSaved=14 IEnMin=14 EnMin= -977.686184472380     IErMin=14 ErrMin= 2.20D-07
 ErrMax= 2.20D-07  0.00D+00 EMaxC= 1.00D-01 BMatC= 1.23D-11 BMatP= 1.59D-10
 IDIUse=1 WtCom= 1.00D+00 WtEn= 0.00D+00
 Coeff-Com: -0.823D-05 0.178D-04 0.116D-04-0.362D-04-0.239D-03-0.195D-03
 Coeff-Com:  0.577D-03 0.135D-02 0.593D-02-0.128D-01-0.367D-01-0.153D-01
 Coeff-Com:  0.147D+00 0.910D+00
 Coeff:     -0.823D-05 0.178D-04 0.116D-04-0.362D-04-0.239D-03-0.195D-03
 Coeff:      0.577D-03 0.135D-02 0.593D-02-0.128D-01-0.367D-01-0.153D-01
 Coeff:      0.147D+00 0.910D+00
 Gap=     0.242 Goal=   None    Shift=    0.000
 RMSDP=6.79D-08 MaxDP=4.27D-06 DE=-2.67D-10 OVMax= 4.43D-06

 Cycle  15  Pass 1  IDiag  1:
 RMSU=  2.68D-08    CP:  6.01D-01  1.57D+00  6.73D-01  8.34D-01  1.01D+00
                    CP:  1.22D+00  1.20D+00  1.43D+00  1.57D+00  1.20D+00
                    CP:  1.49D+00  1.33D+00  1.39D+00  1.24D+00
 E= -977.686184472459     Delta-E=       -0.000000000079 Rises=F Damp=F
 DIIS: error= 1.01D-07 at cycle  15 NSaved=  15.
 NSaved=15 IEnMin=15 EnMin= -977.686184472459     IErMin=15 ErrMin= 1.01D-07
 ErrMax= 1.01D-07  0.00D+00 EMaxC= 1.00D-01 BMatC= 2.82D-12 BMatP= 1.23D-11
 IDIUse=1 WtCom= 1.00D+00 WtEn= 0.00D+00
 Coeff-Com: -0.200D-05 0.418D-05 0.791D-05 0.221D-05-0.166D-04-0.917D-04
 Coeff-Com: -0.753D-03-0.450D-03 0.521D-02 0.564D-02-0.936D-02-0.624D-01
 Coeff-Com: -0.608D-01 0.329D+00 0.794D+00
 Coeff:     -0.200D-05 0.418D-05 0.791D-05 0.221D-05-0.166D-04-0.917D-04
 Coeff:     -0.753D-03-0.450D-03 0.521D-02 0.564D-02-0.936D-02-0.624D-01
 Coeff:     -0.608D-01 0.329D+00 0.794D+00
 Gap=     0.242 Goal=   None    Shift=    0.000
 RMSDP=3.07D-08 MaxDP=1.75D-06 DE=-7.91D-11 OVMax= 1.58D-06

 Cycle  16  Pass 1  IDiag  1:
 RMSU=  1.18D-08    CP:  6.01D-01  1.57D+00  6.73D-01  8.34D-01  1.01D+00
                    CP:  1.22D+00  1.20D+00  1.43D+00  1.57D+00  1.20D+00
                    CP:  1.49D+00  1.34D+00  1.46D+00  1.40D+00  1.09D+00
 E= -977.686184472359     Delta-E=        0.000000000100 Rises=F Damp=F
 DIIS: error= 6.00D-08 at cycle  16 NSaved=  16.
 NSaved=16 IEnMin=15 EnMin= -977.686184472459     IErMin=16 ErrMin= 6.00D-08
 ErrMax= 6.00D-08  0.00D+00 EMaxC= 1.00D-01 BMatC= 3.45D-13 BMatP= 2.82D-12
 IDIUse=1 WtCom= 1.00D+00 WtEn= 0.00D+00
 Coeff-Com:  0.157D-06-0.387D-06 0.473D-06 0.491D-05 0.329D-04 0.138D-05
 Coeff-Com: -0.204D-03-0.313D-03 0.268D-03 0.273D-02 0.320D-02-0.638D-02
 Coeff-Com: -0.362D-01-0.929D-01 0.157D+00 0.973D+00
 Coeff:      0.157D-06-0.387D-06 0.473D-06 0.491D-05 0.329D-04 0.138D-05
 Coeff:     -0.204D-03-0.313D-03 0.268D-03 0.273D-02 0.320D-02-0.638D-02
 Coeff:     -0.362D-01-0.929D-01 0.157D+00 0.973D+00
 Gap=     0.242 Goal=   None    Shift=    0.000
 RMSDP=1.15D-08 MaxDP=6.34D-07 DE= 1.00D-10 OVMax= 1.10D-06

 Cycle  17  Pass 1  IDiag  1:
 RMSU=  4.82D-09    CP:  6.01D-01  1.57D+00  6.73D-01  8.34D-01  1.01D+00
                    CP:  1.22D+00  1.20D+00  1.43D+00  1.57D+00  1.20D+00
                    CP:  1.49D+00  1.34D+00  1.47D+00  1.45D+00  1.23D+00
                    CP:  1.16D+00
 E= -977.686184472372     Delta-E=       -0.000000000013 Rises=F Damp=F
 DIIS: error= 1.56D-08 at cycle  17 NSaved=  17.
 NSaved=17 IEnMin=15 EnMin= -977.686184472459     IErMin=17 ErrMin= 1.56D-08
 ErrMax= 1.56D-08  0.00D+00 EMaxC= 1.00D-01 BMatC= 1.13D-13 BMatP= 3.45D-13
 IDIUse=1 WtCom= 1.00D+00 WtEn= 0.00D+00
 Coeff-Com:  0.353D-06-0.765D-06-0.104D-05 0.195D-05 0.202D-04 0.155D-04
 Coeff-Com:  0.153D-04-0.105D-03-0.632D-03 0.587D-03 0.295D-02 0.655D-02
 Coeff-Com: -0.868D-02-0.954D-01-0.514D-01 0.474D+00 0.672D+00
 Coeff:      0.353D-06-0.765D-06-0.104D-05 0.195D-05 0.202D-04 0.155D-04
 Coeff:      0.153D-04-0.105D-03-0.632D-03 0.587D-03 0.295D-02 0.655D-02
 Coeff:     -0.868D-02-0.954D-01-0.514D-01 0.474D+00 0.672D+00
 Gap=     0.242 Goal=   None    Shift=    0.000
 RMSDP=3.60D-09 MaxDP=1.49D-07 DE=-1.32D-11 OVMax= 2.45D-07

 SCF Done:  E(RwB97XD) =  -977.686184472     A.U. after   17 cycles
            NFock= 17  Conv=0.36D-08     -V/T= 2.0045
 KE= 9.732728829776D+02 PE=-5.469131485421D+03 EE= 1.922672223863D+03
 Leave Link  502 at Thu Nov  2 08:04:30 2017, MaxMem=  3758096384 cpu:      3227.3
 (Enter /share/apps/gaussian/g09_D01/g09/l801.exe)
 DoSCS=F DFT=T ScalE2(SS,OS)=  1.000000  1.000000
 ExpMin= 3.60D-02 ExpMax= 8.59D+03 ExpMxC= 1.30D+03 IAcc=3 IRadAn=         5 AccDes= 0.00D+00
 HarFok:  IExCor=  205 AccDes= 0.00D+00 IRadAn=         5 IDoV=-2 UseB2=F ITyADJ=14
 ICtDFT= 12500011 ScaDFX=  1.000000  1.000000  1.000000  1.000000
 Largest valence mixing into a core orbital is  5.70D-05
 Largest core mixing into a valence orbital is  1.73D-05
 Range of M.O.s used for correlation:    23   609
 NBasis=   617 NAE=    79 NBE=    79 NFC=    22 NFV=     0
 NROrb=    587 NOA=    57 NOB=    57 NVA=   530 NVB=   530

 **** Warning!!: The largest alpha MO coefficient is  0.13646926D+03

 Leave Link  801 at Thu Nov  2 08:04:32 2017, MaxMem=  3758096384 cpu:         3.7
 (Enter /share/apps/gaussian/g09_D01/g09/l914.exe)
 RHF ground state
 MDV=  3758096384 DFT=T DoStab=F Mixed=T DoRPA=T DoScal=F NonHer=T
 Would need an additional        105419300000 words for in-memory AO integral storage.
 Making orbital integer symmetry assigments:
     8 initial guesses have been made.
 Convergence on wavefunction:    0.001000000000000
 Davidson Disk Diagonalization:  ConvIn= 1.00D-03 SkipCon=T Conv= 1.00D-03.
 Max sub-space:   200 roots to seek:     8 dimension of matrix:        60420
 Iteration     1 Dimension     8 NMult     0 NNew      8
 CISAX will form     8 AO SS matrices at one time.
 NMat=     8 NSing=     8 JSym2X= 0.
 FoFJK:  IHMeth= 1 ICntrl=       0 DoSepK=T KAlg= 0 I1Cent=   0 FoldK=F
 IRaf=         1 NMat=  16 IRICut=       1 DoRegI=T DoRafI=F ISym2E= 0.
 FoFCou: FMM=F IPFlag=           0 FMFlag=      100000 FMFlg1=           0
         NFxFlg=           0 DoJE=F BraDBF=F KetDBF=F FulRan=T
         wScrn=  0.000000 ICntrl=     500 IOpCl=  0 I1Cent=           0 NGrid=           0
         NMat0=    8 NMatS0=      8 NMatT0=    0 NMatD0=    8 NMtDS0=    0 NMtDT0=    0
 Symmetry not used in FoFCou.
 Excitation Energies [eV] at current iteration:
 Root      1 :     3.924269911687530
 Root      2 :     4.720862634267834
 Root      3 :     5.415522810041358
 Root      4 :     5.503350468185142
 Root      5 :     5.691700528642830
 Root      6 :     5.944879770299473
 Root      7 :     6.151967724455710
 Root      8 :     7.040791792087703
 Iteration     2 Dimension    12 NMult     8 NNew      4
 CISAX will form     4 AO SS matrices at one time.
 NMat=     4 NSing=     4 JSym2X= 0.
 Root      1 not converged, maximum delta is    0.089692148208905
 Root      2 not converged, maximum delta is    0.076306534917592
 Excitation Energies [eV] at current iteration:
 Root      1 :     3.410551455997671   Change is   -0.513718455689860
 Root      2 :     4.115720161470347   Change is   -0.605142472797487
 Iteration     3 Dimension    16 NMult    12 NNew      4
 CISAX will form     4 AO SS matrices at one time.
 NMat=     4 NSing=     4 JSym2X= 0.
 Root      1 not converged, maximum delta is    0.019890864822522
 Root      2 not converged, maximum delta is    0.034333530513138
 Excitation Energies [eV] at current iteration:
 Root      1 :     3.366888681655322   Change is   -0.043662774342349
 Root      2 :     4.050420936987700   Change is   -0.065299224482648
 Iteration     4 Dimension    20 NMult    16 NNew      4
 CISAX will form     4 AO SS matrices at one time.
 NMat=     4 NSing=     4 JSym2X= 0.
 Root      1 not converged, maximum delta is    0.009077374988633
 Root      2 not converged, maximum delta is    0.019232831749640
 Excitation Energies [eV] at current iteration:
 Root      1 :     3.359531467667178   Change is   -0.007357213988144
 Root      2 :     4.032272440456140   Change is   -0.018148496531560
 Iteration     5 Dimension    24 NMult    20 NNew      4
 CISAX will form     4 AO SS matrices at one time.
 NMat=     4 NSing=     4 JSym2X= 0.
 Root      1 not converged, maximum delta is    0.003647462614394
 Root      2 not converged, maximum delta is    0.005167754567041
 Excitation Energies [eV] at current iteration:
 Root      1 :     3.358607036083034   Change is   -0.000924431584144
 Root      2 :     4.029797512812699   Change is   -0.002474927643441
 Iteration     6 Dimension    28 NMult    24 NNew      4
 CISAX will form     4 AO SS matrices at one time.
 NMat=     4 NSing=     4 JSym2X= 0.
 Root      1 not converged, maximum delta is    0.001126038503856
 Root      2 not converged, maximum delta is    0.003247565035541
 Excitation Energies [eV] at current iteration:
 Root      1 :     3.358497082674353   Change is   -0.000109953408680
 Root      2 :     4.029354313080036   Change is   -0.000443199732663
 Iteration     7 Dimension    32 NMult    28 NNew      4
 CISAX will form     4 AO SS matrices at one time.
 NMat=     4 NSing=     4 JSym2X= 0.
 Root      1 has converged.
 Root      2 not converged, maximum delta is    0.006251858289348
 Excitation Energies [eV] at current iteration:
 Root      1 :     3.358482830929323   Change is   -0.000014251745031
 Root      2 :     4.029175733355758   Change is   -0.000178579724278
 Iteration     8 Dimension    34 NMult    32 NNew      2
 CISAX will form     2 AO SS matrices at one time.
 NMat=     2 NSing=     2 JSym2X= 0.
 Root      1 has converged.
 Root      2 not converged, maximum delta is    0.061321611779907
 Excitation Energies [eV] at current iteration:
 Root      1 :     3.358482477417805   Change is   -0.000000353511517
 Root      2 :     4.028125346551155   Change is   -0.001050386804602
 Iteration     9 Dimension    36 NMult    34 NNew      2
 CISAX will form     2 AO SS matrices at one time.
 NMat=     2 NSing=     2 JSym2X= 0.
 Root      1 has converged.
 Root      2 not converged, maximum delta is    0.556345376788765
 Excitation Energies [eV] at current iteration:
 Root      1 :     3.358482183055731   Change is   -0.000000294362074
 Root      2 :     3.970946608606701   Change is   -0.057178737944455
 Iteration    10 Dimension    38 NMult    36 NNew      2
 CISAX will form     2 AO SS matrices at one time.
 NMat=     2 NSing=     2 JSym2X= 0.
 Root      1 has converged.
 Root      2 not converged, maximum delta is    0.036383639626381
 Excitation Energies [eV] at current iteration:
 Root      1 :     3.358482045892782   Change is   -0.000000137162949
 Root      2 :     3.943625038941332   Change is   -0.027321569665368
 Iteration    11 Dimension    40 NMult    38 NNew      2
 CISAX will form     2 AO SS matrices at one time.
 NMat=     2 NSing=     2 JSym2X= 0.
 Root      1 has converged.
 Root      2 not converged, maximum delta is    0.022592073030811
 Excitation Energies [eV] at current iteration:
 Root      1 :     3.358481843835038   Change is   -0.000000202057744
 Root      2 :     3.937068608650736   Change is   -0.006556430290596
 Iteration    12 Dimension    42 NMult    40 NNew      2
 CISAX will form     2 AO SS matrices at one time.
 NMat=     2 NSing=     2 JSym2X= 0.
 Root      1 has converged.
 Root      2 not converged, maximum delta is    0.014282813603277
 Excitation Energies [eV] at current iteration:
 Root      1 :     3.358481645463974   Change is   -0.000000198371064
 Root      2 :     3.934927727296321   Change is   -0.002140881354415
 Iteration    13 Dimension    44 NMult    42 NNew      2
 CISAX will form     2 AO SS matrices at one time.
 NMat=     2 NSing=     2 JSym2X= 0.
 Root      1 has converged.
 Root      2 not converged, maximum delta is    0.007723688237831
 Excitation Energies [eV] at current iteration:
 Root      1 :     3.358481396745838   Change is   -0.000000248718136
 Root      2 :     3.934419518815850   Change is   -0.000508208480472
 Iteration    14 Dimension    46 NMult    44 NNew      2
 CISAX will form     2 AO SS matrices at one time.
 NMat=     2 NSing=     2 JSym2X= 0.
 Root      1 has converged.
 Root      2 not converged, maximum delta is    0.002592109817345
 Excitation Energies [eV] at current iteration:
 Root      1 :     3.358481269799237   Change is   -0.000000126946601
 Root      2 :     3.934334325047536   Change is   -0.000085193768314
 Iteration    15 Dimension    48 NMult    46 NNew      2
 CISAX will form     2 AO SS matrices at one time.
 NMat=     2 NSing=     2 JSym2X= 0.
 Root      1 has converged.
 Root      2 has converged.
 Excitation Energies [eV] at current iteration:
 Root      1 :     3.358481139199474   Change is   -0.000000130599762
 Root      2 :     3.934320545284185   Change is   -0.000013779763351
 Convergence achieved on expansion vectors.
 ***********************************************************************
 Excited states from <AA,BB:AA,BB> singles matrix:
 ***********************************************************************
 
 1PDM for each excited state written to RWF  633
 Ground to excited state transition densities written to RWF  633
 Ground to excited state transition electric dipole moments (Au):
       state          X           Y           Z        Dip. S.      Osc.
         1         0.7416      0.9348      3.8219     16.0304      1.3190
         2        -0.0067     -0.0348      0.0740      0.0067      0.0006
 Ground to excited state transition velocity dipole moments (Au):
       state          X           Y           Z        Dip. S.      Osc.
         1        -0.0877     -0.1116     -0.4653      0.2367      1.2785
         2        -0.0005      0.0064     -0.0108      0.0002      0.0007
 Ground to excited state transition magnetic dipole moments (Au):
       state          X           Y           Z
         1         6.5037      1.8416     -1.6725
         2        -0.0836     -0.1402      0.2267
 Ground to excited state transition velocity quadrupole moments (Au):
       state          XX          YY          ZZ          XY          XZ          YZ
         1        -0.0195      3.8944      6.2255      1.5312      0.4069      8.8101
         2        -0.0379     -0.1970     -0.0580      0.0126     -0.0275      0.0601
 <0|del|b> * <b|rxdel|0> + <0|del|b> * <b|delr+rdel|0>
 Rotatory Strengths (R) in cgs (10**-40 erg-esu-cm/Gauss)
       state          XX          YY          ZZ    R(velocity)    E-M Angle
         1      -270.3229    421.2688   -139.1369      3.9363       89.97
         2        -8.0666     -5.6208     -2.4282     -5.3718      160.18
 1/2[<0|r|b>*<b|rxdel|0> + (<0|rxdel|b>*<b|r|0>)*]
 Rotatory Strengths (R) in cgs (10**-40 erg-esu-cm/Gauss)
       state          XX          YY          ZZ     R(length)
         1     -3410.7413  -1217.4277   4520.1696    -35.9998
         2        -0.3965     -3.4538    -11.8581     -5.2361
  1/2[<0|del|b>*<b|r|0> + (<0|r|b>*<b|del|0>)*] (Au)
       state          X           Y           Z        Dip. S.   Osc.(frdel)
         1        -0.0651     -0.1043     -1.7784      1.9478      1.2986
         2         0.0000     -0.0002     -0.0008      0.0010      0.0007

 Excitation energies and oscillator strengths:
 
 Excited state symmetry could not be determined.
 Excited State   1:      Singlet-?Sym    3.3585 eV  369.17 nm  f=1.3190  <S**2>=0.000
      74 -> 80        -0.10093
      78 -> 80        -0.11366
      78 -> 82        -0.11915
      79 -> 80         0.66826
 This state for optimization and/or second-order correction.
 Total Energy, E(TD-HF/TD-KS) =  -977.562762556    
 Copying the excited state density for this state as the 1-particle RhoCI density.
 
 Excited state symmetry could not be determined.
 Excited State   2:      Singlet-?Sym    3.9343 eV  315.13 nm  f=0.0006  <S**2>=0.000
      76 -> 80        -0.66293
      76 -> 82        -0.13677
 SavETr:  write IOETrn=   770 NScale= 10 NData=  16 NLR=1 NState=    2 LETran=      46.
 Leave Link  914 at Thu Nov  2 09:26:21 2017, MaxMem=  3758096384 cpu:      9818.4
 (Enter /share/apps/gaussian/g09_D01/g09/l601.exe)
 Copying SCF densities to generalized density rwf, IOpCl= 0 IROHF=0.

 **********************************************************************

            Population analysis using the SCF density.

 **********************************************************************

 Alpha  occ. eigenvalues --  -19.28790 -19.24001 -19.22960 -14.47596 -10.37759
 Alpha  occ. eigenvalues --  -10.36174 -10.35710 -10.35174 -10.34361 -10.33530
 Alpha  occ. eigenvalues --  -10.33483 -10.31341 -10.30545 -10.30480 -10.30247
 Alpha  occ. eigenvalues --  -10.29812 -10.29731 -10.29510 -10.28930 -10.28695
 Alpha  occ. eigenvalues --  -10.28072 -10.28001  -1.17883  -1.14743  -1.10709
 Alpha  occ. eigenvalues --   -1.07953  -0.96949  -0.95494  -0.90806  -0.87432
 Alpha  occ. eigenvalues --   -0.86943  -0.84849  -0.84530  -0.84017  -0.81052
 Alpha  occ. eigenvalues --   -0.78678  -0.73591  -0.71720  -0.70931  -0.69905
 Alpha  occ. eigenvalues --   -0.67804  -0.64483  -0.63357  -0.62294  -0.61125
 Alpha  occ. eigenvalues --   -0.59010  -0.58854  -0.57677  -0.56818  -0.56464
 Alpha  occ. eigenvalues --   -0.55423  -0.54299  -0.54016  -0.53155  -0.52506
 Alpha  occ. eigenvalues --   -0.51383  -0.51260  -0.51066  -0.50586  -0.49845
 Alpha  occ. eigenvalues --   -0.49142  -0.48483  -0.48047  -0.47252  -0.46825
 Alpha  occ. eigenvalues --   -0.46557  -0.45577  -0.44426  -0.43265  -0.42460
 Alpha  occ. eigenvalues --   -0.41804  -0.41125  -0.39263  -0.34904  -0.34731
 Alpha  occ. eigenvalues --   -0.33947  -0.31498  -0.29265  -0.26664
 Alpha virt. eigenvalues --   -0.02445   0.02706   0.03861   0.03975   0.04394
 Alpha virt. eigenvalues --    0.04658   0.04764   0.05530   0.06168   0.06490
 Alpha virt. eigenvalues --    0.06633   0.06929   0.07534   0.07933   0.08130
 Alpha virt. eigenvalues --    0.08193   0.08662   0.09274   0.09827   0.10041
 Alpha virt. eigenvalues --    0.10205   0.10942   0.11121   0.11749   0.11842
 Alpha virt. eigenvalues --    0.12322   0.12972   0.13260   0.13727   0.14178
 Alpha virt. eigenvalues --    0.14413   0.14526   0.14748   0.14894   0.15505
 Alpha virt. eigenvalues --    0.15859   0.16018   0.16567   0.16687   0.16727
 Alpha virt. eigenvalues --    0.16955   0.17117   0.17475   0.17557   0.18172
 Alpha virt. eigenvalues --    0.18584   0.18770   0.19197   0.19397   0.19522
 Alpha virt. eigenvalues --    0.19664   0.20150   0.20487   0.20844   0.20980
 Alpha virt. eigenvalues --    0.21245   0.21444   0.21815   0.21936   0.22025
 Alpha virt. eigenvalues --    0.22238   0.22606   0.22764   0.22982   0.23399
 Alpha virt. eigenvalues --    0.23744   0.23872   0.24059   0.24272   0.24730
 Alpha virt. eigenvalues --    0.25117   0.25268   0.25622   0.25665   0.25994
 Alpha virt. eigenvalues --    0.26618   0.26813   0.27096   0.27403   0.27805
 Alpha virt. eigenvalues --    0.28279   0.28423   0.28609   0.28970   0.29346
 Alpha virt. eigenvalues --    0.29749   0.30268   0.30563   0.30893   0.31239
 Alpha virt. eigenvalues --    0.31316   0.31786   0.31829   0.32218   0.32492
 Alpha virt. eigenvalues --    0.32846   0.33335   0.33825   0.34527   0.34588
 Alpha virt. eigenvalues --    0.34676   0.35179   0.35453   0.35942   0.36632
 Alpha virt. eigenvalues --    0.36993   0.37277   0.37390   0.37535   0.37840
 Alpha virt. eigenvalues --    0.37996   0.38464   0.38686   0.39014   0.39446
 Alpha virt. eigenvalues --    0.39779   0.39822   0.40595   0.41023   0.41480
 Alpha virt. eigenvalues --    0.42252   0.42340   0.42656   0.42977   0.43274
 Alpha virt. eigenvalues --    0.43497   0.44303   0.45104   0.45432   0.45668
 Alpha virt. eigenvalues --    0.46298   0.47292   0.47887   0.48415   0.49587
 Alpha virt. eigenvalues --    0.50188   0.50428   0.51216   0.51721   0.52385
 Alpha virt. eigenvalues --    0.52618   0.53197   0.54220   0.55082   0.55782
 Alpha virt. eigenvalues --    0.56437   0.56770   0.58629   0.60086   0.60396
 Alpha virt. eigenvalues --    0.61114   0.61865   0.62115   0.62354   0.62821
 Alpha virt. eigenvalues --    0.63615   0.64012   0.64424   0.64838   0.65322
 Alpha virt. eigenvalues --    0.66553   0.66914   0.67009   0.67452   0.67840
 Alpha virt. eigenvalues --    0.68314   0.68605   0.69269   0.69743   0.71341
 Alpha virt. eigenvalues --    0.71602   0.71986   0.72240   0.72543   0.72751
 Alpha virt. eigenvalues --    0.72921   0.73239   0.73388   0.73960   0.74746
 Alpha virt. eigenvalues --    0.75190   0.76215   0.76473   0.76546   0.77064
 Alpha virt. eigenvalues --    0.77577   0.78011   0.78584   0.79075   0.79345
 Alpha virt. eigenvalues --    0.79533   0.80187   0.80686   0.81255   0.82445
 Alpha virt. eigenvalues --    0.83368   0.83574   0.84157   0.85027   0.85871
 Alpha virt. eigenvalues --    0.86752   0.87706   0.88183   0.89448   0.90446
 Alpha virt. eigenvalues --    0.90950   0.91687   0.92649   0.94417   0.94735
 Alpha virt. eigenvalues --    0.95499   0.96084   0.97158   0.97414   0.97549
 Alpha virt. eigenvalues --    0.98513   0.99181   0.99586   1.00201   1.01232
 Alpha virt. eigenvalues --    1.01627   1.03208   1.03467   1.04352   1.05071
 Alpha virt. eigenvalues --    1.05615   1.05711   1.06026   1.06889   1.07386
 Alpha virt. eigenvalues --    1.07835   1.08732   1.08854   1.09490   1.10286
 Alpha virt. eigenvalues --    1.10447   1.10683   1.11867   1.13724   1.14024
 Alpha virt. eigenvalues --    1.14885   1.15032   1.15621   1.15848   1.16416
 Alpha virt. eigenvalues --    1.17591   1.18688   1.19095   1.20054   1.20885
 Alpha virt. eigenvalues --    1.21482   1.22310   1.23636   1.24060   1.26059
 Alpha virt. eigenvalues --    1.27463   1.30464   1.32322   1.33598   1.34349
 Alpha virt. eigenvalues --    1.35653   1.36696   1.37836   1.38413   1.39163
 Alpha virt. eigenvalues --    1.39929   1.41205   1.42240   1.47297   1.48058
 Alpha virt. eigenvalues --    1.48562   1.51089   1.51307   1.52125   1.52818
 Alpha virt. eigenvalues --    1.53926   1.54227   1.55954   1.56544   1.57584
 Alpha virt. eigenvalues --    1.58253   1.59429   1.60484   1.61507   1.61880
 Alpha virt. eigenvalues --    1.62337   1.62714   1.62983   1.63166   1.63591
 Alpha virt. eigenvalues --    1.64274   1.64389   1.65094   1.65455   1.65801
 Alpha virt. eigenvalues --    1.67806   1.68152   1.68548   1.69011   1.69142
 Alpha virt. eigenvalues --    1.69525   1.70677   1.74403   1.75835   1.76251
 Alpha virt. eigenvalues --    1.77446   1.78141   1.78463   1.79571   1.80065
 Alpha virt. eigenvalues --    1.80407   1.80544   1.80855   1.81367   1.82052
 Alpha virt. eigenvalues --    1.82861   1.84221   1.84839   1.85065   1.86560
 Alpha virt. eigenvalues --    1.88174   1.88754   1.89495   1.91435   1.93259
 Alpha virt. eigenvalues --    1.93674   1.94010   1.95264   1.96556   1.97437
 Alpha virt. eigenvalues --    1.98180   1.99775   2.00559   2.01267   2.01859
 Alpha virt. eigenvalues --    2.02572   2.03685   2.04460   2.04776   2.05477
 Alpha virt. eigenvalues --    2.06687   2.07493   2.07754   2.08762   2.09137
 Alpha virt. eigenvalues --    2.10181   2.12511   2.14131   2.14200   2.15188
 Alpha virt. eigenvalues --    2.15532   2.16402   2.17613   2.18770   2.19145
 Alpha virt. eigenvalues --    2.19671   2.20818   2.21512   2.23158   2.23764
 Alpha virt. eigenvalues --    2.25058   2.25749   2.28334   2.29119   2.29550
 Alpha virt. eigenvalues --    2.31713   2.36160   2.36791   2.37043   2.40030
 Alpha virt. eigenvalues --    2.40994   2.42872   2.43457   2.43790   2.47817
 Alpha virt. eigenvalues --    2.48335   2.49400   2.50318   2.52874   2.54106
 Alpha virt. eigenvalues --    2.54727   2.55131   2.55669   2.56940   2.57029
 Alpha virt. eigenvalues --    2.57724   2.58639   2.61336   2.61650   2.63668
 Alpha virt. eigenvalues --    2.65089   2.65355   2.68232   2.68736   2.70515
 Alpha virt. eigenvalues --    2.71194   2.72881   2.74222   2.74903   2.76710
 Alpha virt. eigenvalues --    2.76884   2.77928   2.78445   2.79325   2.79674
 Alpha virt. eigenvalues --    2.81475   2.82389   2.82791   2.82951   2.83793
 Alpha virt. eigenvalues --    2.84736   2.85631   2.86590   2.87045   2.88582
 Alpha virt. eigenvalues --    2.90164   2.90348   2.91070   2.91338   2.91991
 Alpha virt. eigenvalues --    2.94007   2.94591   2.95625   2.96261   2.97483
 Alpha virt. eigenvalues --    2.98167   3.00293   3.01201   3.01833   3.02832
 Alpha virt. eigenvalues --    3.03873   3.05006   3.07076   3.07652   3.09195
 Alpha virt. eigenvalues --    3.13346   3.13742   3.17909   3.18162   3.19028
 Alpha virt. eigenvalues --    3.20653   3.21899   3.22553   3.23142   3.23817
 Alpha virt. eigenvalues --    3.27091   3.29741   3.31232   3.31914   3.33119
 Alpha virt. eigenvalues --    3.34570   3.35557   3.38272   3.39193   3.42389
 Alpha virt. eigenvalues --    3.44854   3.46199   3.47675   3.50096   3.54415
 Alpha virt. eigenvalues --    3.57586   3.60758   3.61069   3.62109   3.64177
 Alpha virt. eigenvalues --    3.66466   3.67374   3.71997   3.75929   3.76366
 Alpha virt. eigenvalues --    3.78030   3.78156   3.78787   3.79904   3.85762
 Alpha virt. eigenvalues --    3.86351   3.88602   3.90304   3.92528   3.93074
 Alpha virt. eigenvalues --    4.02806   4.05566   4.08323   4.09845   4.13017
 Alpha virt. eigenvalues --    4.16753   4.18562   4.26568   4.27374   4.29040
 Alpha virt. eigenvalues --    4.31303   4.34725   4.38458   4.54379   4.79111
 Alpha virt. eigenvalues --    4.93268   4.94386   5.00680   5.14230   5.15693
 Alpha virt. eigenvalues --    5.18228   5.19257   5.37237   5.49866   5.66201
 Alpha virt. eigenvalues --    5.83533   5.90528   5.98399  23.72407  23.80136
 Alpha virt. eigenvalues --   23.94686  24.02163  24.03219  24.03543  24.04004
 Alpha virt. eigenvalues --   24.04501  24.06626  24.08378  24.09438  24.12609
 Alpha virt. eigenvalues --   24.14219  24.23188  24.25457  24.29013  24.30862
 Alpha virt. eigenvalues --   24.31244  35.74459  50.09933  50.14393  50.18682
          Condensed to atoms (all electrons):
               1          2          3          4          5          6
     1  C   11.285009   1.928907  -1.705121   0.305912   0.048305  -2.367744
     2  C    1.928907  12.734059  -4.292870  -0.266480   0.736008  -1.473154
     3  C   -1.705121  -4.292870  14.741616   0.045522  -0.146333  -0.747202
     4  O    0.305912  -0.266480   0.045522   8.184481  -0.032378   0.037037
     5  H    0.048305   0.736008  -0.146333  -0.032378   0.509431  -0.260485
     6  C   -2.367744  -1.473154  -0.747202   0.037037  -0.260485  10.829413
     7  C   -0.702685  -0.786409   0.273981  -0.052379   0.029150  -1.307666
     8  C   -3.245376  -0.125837   0.216755  -0.083415  -0.033145   0.274050
     9  H    0.003715   0.012551  -0.099092   0.198907   0.000444  -0.000466
    10  C    0.283215  -2.689028  -2.314497  -0.006237  -0.033593   1.054285
    11  O    0.051721   0.235378   0.032027  -0.000377  -0.014015   0.271972
    12  H    0.063577   0.106858  -0.014643  -0.002573   0.005338  -0.058678
    13  C    0.044803   0.313202  -1.610137  -0.055505  -0.002534   0.035670
    14  O   -0.224722   0.059932  -0.089340   0.035494  -0.000329   0.006661
    15  H   -0.003779  -0.115508   0.005115   0.000558  -0.002090  -0.081032
    16  C   -0.174363  -0.374278  -0.094017   0.005326  -0.024413   0.234821
    17  H   -0.104233  -0.015512  -0.231542   0.000161  -0.001778   0.030152
    18  C    0.350817   0.165076   0.185994   0.052136   0.003581  -0.012153
    19  H   -0.003767  -0.012376   0.011290   0.000042  -0.008493  -0.026281
    20  H   -0.012847  -0.023973  -0.002837   0.000317  -0.001723   0.055284
    21  H    0.016999   0.034800   0.004980   0.000380  -0.008408  -0.025432
    22  H    0.003150   0.002808  -0.041228  -0.002023  -0.000112   0.001721
    23  C   -0.065883  -0.070590   0.033886  -0.001453  -0.000888  -0.006171
    24  C    0.328265   0.041909   0.447298   0.000758   0.000834  -0.011694
    25  C   -0.039749   0.000298  -0.106105  -0.001130  -0.000025   0.008218
    26  H    0.033895   0.001209   0.067864   0.000156   0.000078  -0.004163
    27  C    0.033366  -0.003322   0.220751   0.000201   0.000054  -0.006693
    28  C   -0.020705  -0.000787  -0.116272  -0.000291  -0.000036   0.001802
    29  H    0.001581   0.000265   0.003026   0.000082   0.000015  -0.000142
    30  H   -0.002612  -0.000169  -0.009958  -0.000001  -0.000005   0.000180
    31  C    0.017353   0.000624   0.072781  -0.000045   0.000019  -0.000864
    32  H   -0.000271  -0.000054  -0.000803  -0.000001  -0.000001   0.000002
    33  N   -0.000032  -0.000001  -0.000153   0.000000   0.000000   0.000001
    34  C   -0.000119  -0.000008   0.000254   0.000000   0.000000  -0.000003
    35  C    0.000012  -0.000001  -0.000394   0.000000   0.000000   0.000002
    36  H    0.000030   0.000003   0.000152   0.000000   0.000000  -0.000001
    37  H   -0.000007  -0.000001   0.000021   0.000000   0.000000   0.000000
    38  H    0.000024   0.000002   0.000050   0.000000   0.000000   0.000000
    39  H    0.000009   0.000001   0.000051   0.000000   0.000000   0.000000
    40  H    0.000000   0.000000  -0.000038   0.000000   0.000000   0.000000
    41  H    0.000001   0.000000   0.000055   0.000000   0.000000   0.000000
               7          8          9         10         11         12
     1  C   -0.702685  -3.245376   0.003715   0.283215   0.051721   0.063577
     2  C   -0.786409  -0.125837   0.012551  -2.689028   0.235378   0.106858
     3  C    0.273981   0.216755  -0.099092  -2.314497   0.032027  -0.014643
     4  O   -0.052379  -0.083415   0.198907  -0.006237  -0.000377  -0.002573
     5  H    0.029150  -0.033145   0.000444  -0.033593  -0.014015   0.005338
     6  C   -1.307666   0.274050  -0.000466   1.054285   0.271972  -0.058678
     7  C    8.003101   0.538214   0.032650   1.409964  -0.126326   0.416324
     8  C    0.538214   9.438879   0.037461  -1.034469   0.006006  -0.026509
     9  H    0.032650   0.037461   0.263373   0.033099  -0.000367   0.000075
    10  C    1.409964  -1.034469   0.033099  11.312751  -0.531601  -0.182956
    11  O   -0.126326   0.006006  -0.000367  -0.531601   8.171047  -0.000351
    12  H    0.416324  -0.026509   0.000075  -0.182956  -0.000351   0.609647
    13  C   -0.361863   0.052186  -0.002087  -0.953611  -0.002700   0.013845
    14  O   -0.078450   0.676718   0.097332  -0.021330  -0.000058  -0.000002
    15  H    0.020330  -0.016509   0.000902   0.527002  -0.022224  -0.031831
    16  C   -0.015584   0.034811   0.000333   0.123283   0.192247  -0.003756
    17  H    0.133365   0.118274   0.001397  -0.042572  -0.000160  -0.033579
    18  C   -0.569384  -0.953603  -0.018541  -0.109538   0.000114  -0.003570
    19  H   -0.001133   0.000869  -0.000084   0.010028  -0.031586   0.000134
    20  H    0.003324   0.001607   0.000089   0.014934  -0.064069  -0.000252
    21  H   -0.018904   0.001402   0.000007  -0.033624  -0.037043  -0.000281
    22  H    0.003430   0.018704   0.000080  -0.002817   0.000008   0.001823
    23  C   -0.088729   0.595591  -0.001579  -0.014744   0.000007  -0.013268
    24  C   -0.349339  -0.600395  -0.003782  -0.053539  -0.000016   0.005342
    25  C    0.151656   0.088890   0.002536   0.023859  -0.000004   0.003374
    26  H   -0.041558  -0.028299   0.000098   0.004160   0.000015  -0.007781
    27  C   -0.098005   0.030665   0.000345  -0.008719   0.000004   0.001545
    28  C    0.067594   0.018995  -0.000093   0.005498   0.000000   0.000414
    29  H   -0.001193  -0.001865   0.000018   0.000047   0.000000   0.000213
    30  H    0.003794   0.000081  -0.000024  -0.000107   0.000000   0.000039
    31  C   -0.026384  -0.003363  -0.000075  -0.002004   0.000000   0.000407
    32  H    0.000202   0.003601   0.000004  -0.000016   0.000000  -0.000035
    33  N    0.000092   0.000325   0.000001   0.000019   0.000000   0.000044
    34  C   -0.000269  -0.000162   0.000000  -0.000030   0.000000   0.000004
    35  C    0.000118   0.001312  -0.000002   0.000006   0.000000   0.000010
    36  H   -0.000071  -0.000066   0.000000  -0.000017   0.000000   0.000029
    37  H   -0.000014   0.000022   0.000000  -0.000001   0.000000  -0.000003
    38  H   -0.000001  -0.000058   0.000000   0.000009   0.000000   0.000009
    39  H   -0.000025  -0.000019   0.000000  -0.000002   0.000000   0.000001
    40  H    0.000014  -0.000005   0.000000   0.000001   0.000000   0.000001
    41  H    0.000003  -0.000074   0.000001   0.000002   0.000000   0.000000
              13         14         15         16         17         18
     1  C    0.044803  -0.224722  -0.003779  -0.174363  -0.104233   0.350817
     2  C    0.313202   0.059932  -0.115508  -0.374278  -0.015512   0.165076
     3  C   -1.610137  -0.089340   0.005115  -0.094017  -0.231542   0.185994
     4  O   -0.055505   0.035494   0.000558   0.005326   0.000161   0.052136
     5  H   -0.002534  -0.000329  -0.002090  -0.024413  -0.001778   0.003581
     6  C    0.035670   0.006661  -0.081032   0.234821   0.030152  -0.012153
     7  C   -0.361863  -0.078450   0.020330  -0.015584   0.133365  -0.569384
     8  C    0.052186   0.676718  -0.016509   0.034811   0.118274  -0.953603
     9  H   -0.002087   0.097332   0.000902   0.000333   0.001397  -0.018541
    10  C   -0.953611  -0.021330   0.527002   0.123283  -0.042572  -0.109538
    11  O   -0.002700  -0.000058  -0.022224   0.192247  -0.000160   0.000114
    12  H    0.013845  -0.000002  -0.031831  -0.003756  -0.033579  -0.003570
    13  C   10.044138  -0.403269  -0.010165  -0.004284   0.776664   0.717909
    14  O   -0.403269   8.152565   0.000148   0.000345  -0.008336   0.122642
    15  H   -0.010165   0.000148   0.486470   0.004354   0.004215   0.000349
    16  C   -0.004284   0.000345   0.004354   5.259638   0.000648   0.000997
    17  H    0.776664  -0.008336   0.004215   0.000648   0.881516  -0.009001
    18  C    0.717909   0.122642   0.000349   0.000997  -0.009001   6.984236
    19  H    0.000474  -0.000053  -0.001075   0.413848   0.000011  -0.000125
    20  H   -0.000105   0.000021   0.000870   0.393210   0.000035   0.000028
    21  H   -0.000451  -0.000017  -0.000072   0.400146   0.000017  -0.000076
    22  H    0.016738  -0.000480  -0.000203   0.000007   0.007167   0.348329
    23  C   -1.287544   0.062891  -0.000479  -0.000291   0.013336  -0.147367
    24  C   -1.137372   0.023199   0.000073  -0.000024  -0.108216  -0.130276
    25  C    0.015720  -0.028316  -0.000443   0.000040   0.015563  -0.924806
    26  H   -0.171625   0.002626   0.000735  -0.000025  -0.055103  -0.085661
    27  C   -0.693381   0.002306   0.001282  -0.000020  -0.157823  -0.221841
    28  C    0.640076  -0.005594  -0.000145   0.000003   0.048667   0.448290
    29  H    0.010579   0.000639   0.000003   0.000000   0.000330   0.048100
    30  H    0.034045   0.000010  -0.000071   0.000000   0.013741   0.041458
    31  C   -0.184896  -0.000758   0.000284  -0.000001  -0.064885  -0.392950
    32  H   -0.009901   0.000037   0.000000   0.000000  -0.000361   0.000235
    33  N   -0.000456   0.000000  -0.000001   0.000000  -0.000905  -0.004240
    34  C    0.004403   0.000006   0.000002   0.000000  -0.001011  -0.004674
    35  C   -0.003750   0.000002   0.000000   0.000000  -0.000030   0.021717
    36  H   -0.000481  -0.000001   0.000000   0.000000  -0.000292  -0.001796
    37  H    0.000171   0.000000   0.000000   0.000000  -0.000058  -0.001231
    38  H   -0.000349  -0.000001   0.000000   0.000000  -0.000289  -0.000233
    39  H   -0.000285  -0.000001   0.000000   0.000000   0.000005  -0.000669
    40  H    0.000188   0.000000   0.000000   0.000000   0.000071   0.002725
    41  H    0.000624  -0.000001   0.000000   0.000000  -0.000031  -0.002482
              19         20         21         22         23         24
     1  C   -0.003767  -0.012847   0.016999   0.003150  -0.065883   0.328265
     2  C   -0.012376  -0.023973   0.034800   0.002808  -0.070590   0.041909
     3  C    0.011290  -0.002837   0.004980  -0.041228   0.033886   0.447298
     4  O    0.000042   0.000317   0.000380  -0.002023  -0.001453   0.000758
     5  H   -0.008493  -0.001723  -0.008408  -0.000112  -0.000888   0.000834
     6  C   -0.026281   0.055284  -0.025432   0.001721  -0.006171  -0.011694
     7  C   -0.001133   0.003324  -0.018904   0.003430  -0.088729  -0.349339
     8  C    0.000869   0.001607   0.001402   0.018704   0.595591  -0.600395
     9  H   -0.000084   0.000089   0.000007   0.000080  -0.001579  -0.003782
    10  C    0.010028   0.014934  -0.033624  -0.002817  -0.014744  -0.053539
    11  O   -0.031586  -0.064069  -0.037043   0.000008   0.000007  -0.000016
    12  H    0.000134  -0.000252  -0.000281   0.001823  -0.013268   0.005342
    13  C    0.000474  -0.000105  -0.000451   0.016738  -1.287544  -1.137372
    14  O   -0.000053   0.000021  -0.000017  -0.000480   0.062891   0.023199
    15  H   -0.001075   0.000870  -0.000072  -0.000203  -0.000479   0.000073
    16  C    0.413848   0.393210   0.400146   0.000007  -0.000291  -0.000024
    17  H    0.000011   0.000035   0.000017   0.007167   0.013336  -0.108216
    18  C   -0.000125   0.000028  -0.000076   0.348329  -0.147367  -0.130276
    19  H    0.548751  -0.016475  -0.058072   0.000003   0.000038  -0.000010
    20  H   -0.016475   0.454565  -0.021071  -0.000001  -0.000014  -0.000004
    21  H   -0.058072  -0.021071   0.578052   0.000006   0.000004  -0.000011
    22  H    0.000003  -0.000001   0.000006   0.461048  -0.141147  -0.006787
    23  C    0.000038  -0.000014   0.000004  -0.141147  10.744459   0.668683
    24  C   -0.000010  -0.000004  -0.000011  -0.006787   0.668683   9.414225
    25  C    0.000000   0.000001   0.000005   0.044557  -0.025624  -0.859746
    26  H   -0.000002  -0.000003   0.000000  -0.001468  -0.107445   0.375211
    27  C    0.000001  -0.000002  -0.000002   0.009475  -0.941984   1.634187
    28  C    0.000000   0.000000   0.000001   0.036369  -2.556906  -1.729721
    29  H    0.000000   0.000000   0.000000  -0.003189  -0.037838  -0.013864
    30  H    0.000000   0.000000   0.000000   0.000889   0.109731   0.065334
    31  C    0.000000   0.000000   0.000000  -0.001672  -1.225074  -1.396061
    32  H    0.000000   0.000000   0.000000   0.001987  -0.036935  -0.015578
    33  N    0.000000   0.000000   0.000000  -0.000516  -0.036152  -0.030687
    34  C    0.000000   0.000000   0.000000   0.000414  -0.011338  -0.010258
    35  C    0.000000   0.000000   0.000000  -0.000841  -0.131233  -0.058958
    36  H    0.000000   0.000000   0.000000   0.000027  -0.014928  -0.032788
    37  H    0.000000   0.000000   0.000000   0.000010   0.004781   0.001556
    38  H    0.000000   0.000000   0.000000   0.000007  -0.001412   0.007666
    39  H    0.000000   0.000000   0.000000  -0.000117   0.003477  -0.007731
    40  H    0.000000   0.000000   0.000000  -0.000003  -0.004598   0.005106
    41  H    0.000000   0.000000   0.000000  -0.000111   0.007276  -0.000492
              25         26         27         28         29         30
     1  C   -0.039749   0.033895   0.033366  -0.020705   0.001581  -0.002612
     2  C    0.000298   0.001209  -0.003322  -0.000787   0.000265  -0.000169
     3  C   -0.106105   0.067864   0.220751  -0.116272   0.003026  -0.009958
     4  O   -0.001130   0.000156   0.000201  -0.000291   0.000082  -0.000001
     5  H   -0.000025   0.000078   0.000054  -0.000036   0.000015  -0.000005
     6  C    0.008218  -0.004163  -0.006693   0.001802  -0.000142   0.000180
     7  C    0.151656  -0.041558  -0.098005   0.067594  -0.001193   0.003794
     8  C    0.088890  -0.028299   0.030665   0.018995  -0.001865   0.000081
     9  H    0.002536   0.000098   0.000345  -0.000093   0.000018  -0.000024
    10  C    0.023859   0.004160  -0.008719   0.005498   0.000047  -0.000107
    11  O   -0.000004   0.000015   0.000004   0.000000   0.000000   0.000000
    12  H    0.003374  -0.007781   0.001545   0.000414   0.000213   0.000039
    13  C    0.015720  -0.171625  -0.693381   0.640076   0.010579   0.034045
    14  O   -0.028316   0.002626   0.002306  -0.005594   0.000639   0.000010
    15  H   -0.000443   0.000735   0.001282  -0.000145   0.000003  -0.000071
    16  C    0.000040  -0.000025  -0.000020   0.000003   0.000000   0.000000
    17  H    0.015563  -0.055103  -0.157823   0.048667   0.000330   0.013741
    18  C   -0.924806  -0.085661  -0.221841   0.448290   0.048100   0.041458
    19  H    0.000000  -0.000002   0.000001   0.000000   0.000000   0.000000
    20  H    0.000001  -0.000003  -0.000002   0.000000   0.000000   0.000000
    21  H    0.000005   0.000000  -0.000002   0.000001   0.000000   0.000000
    22  H    0.044557  -0.001468   0.009475   0.036369  -0.003189   0.000889
    23  C   -0.025624  -0.107445  -0.941984  -2.556906  -0.037838   0.109731
    24  C   -0.859746   0.375211   1.634187  -1.729721  -0.013864   0.065334
    25  C    9.986357   0.058771  -1.288698   0.826984   0.308875  -0.049238
    26  H    0.058771   0.599591   0.080129  -0.037048  -0.001900  -0.045883
    27  C   -1.288698   0.080129   8.673549  -1.608924  -0.004571   0.378287
    28  C    0.826984  -0.037048  -1.608924  10.136622  -0.032832  -0.008791
    29  H    0.308875  -0.001900  -0.004571  -0.032832   0.486072   0.000196
    30  H   -0.049238  -0.045883   0.378287  -0.008791   0.000196   0.542531
    31  C   -1.917574   0.201970   0.638541  -0.209135   0.032401  -0.251908
    32  H   -0.004290   0.000874  -0.011702   0.489034  -0.012480   0.000637
    33  N    0.060376  -0.001348  -0.317942  -0.233110  -0.000898  -0.034769
    34  C   -0.035161   0.004786   0.072885  -0.147864  -0.000744   0.009524
    35  C   -0.053744   0.000065  -0.121396   0.202218   0.003621  -0.003906
    36  H   -0.001586   0.001923   0.005306  -0.013438  -0.000057  -0.011889
    37  H    0.009044   0.000114   0.015156   0.009724  -0.000180   0.005973
    38  H   -0.003869   0.001972   0.036780  -0.007399  -0.000066  -0.012252
    39  H    0.007746  -0.000174  -0.013164   0.035221   0.000656  -0.000386
    40  H   -0.015788  -0.000594   0.020484   0.016805  -0.000101   0.002791
    41  H   -0.007746   0.000225  -0.002612   0.002537   0.000664  -0.000717
              31         32         33         34         35         36
     1  C    0.017353  -0.000271  -0.000032  -0.000119   0.000012   0.000030
     2  C    0.000624  -0.000054  -0.000001  -0.000008  -0.000001   0.000003
     3  C    0.072781  -0.000803  -0.000153   0.000254  -0.000394   0.000152
     4  O   -0.000045  -0.000001   0.000000   0.000000   0.000000   0.000000
     5  H    0.000019  -0.000001   0.000000   0.000000   0.000000   0.000000
     6  C   -0.000864   0.000002   0.000001  -0.000003   0.000002  -0.000001
     7  C   -0.026384   0.000202   0.000092  -0.000269   0.000118  -0.000071
     8  C   -0.003363   0.003601   0.000325  -0.000162   0.001312  -0.000066
     9  H   -0.000075   0.000004   0.000001   0.000000  -0.000002   0.000000
    10  C   -0.002004  -0.000016   0.000019  -0.000030   0.000006  -0.000017
    11  O    0.000000   0.000000   0.000000   0.000000   0.000000   0.000000
    12  H    0.000407  -0.000035   0.000044   0.000004   0.000010   0.000029
    13  C   -0.184896  -0.009901  -0.000456   0.004403  -0.003750  -0.000481
    14  O   -0.000758   0.000037   0.000000   0.000006   0.000002  -0.000001
    15  H    0.000284   0.000000  -0.000001   0.000002   0.000000   0.000000
    16  C   -0.000001   0.000000   0.000000   0.000000   0.000000   0.000000
    17  H   -0.064885  -0.000361  -0.000905  -0.001011  -0.000030  -0.000292
    18  C   -0.392950   0.000235  -0.004240  -0.004674   0.021717  -0.001796
    19  H    0.000000   0.000000   0.000000   0.000000   0.000000   0.000000
    20  H    0.000000   0.000000   0.000000   0.000000   0.000000   0.000000
    21  H    0.000000   0.000000   0.000000   0.000000   0.000000   0.000000
    22  H   -0.001672   0.001987  -0.000516   0.000414  -0.000841   0.000027
    23  C   -1.225074  -0.036935  -0.036152  -0.011338  -0.131233  -0.014928
    24  C   -1.396061  -0.015578  -0.030687  -0.010258  -0.058958  -0.032788
    25  C   -1.917574  -0.004290   0.060376  -0.035161  -0.053744  -0.001586
    26  H    0.201970   0.000874  -0.001348   0.004786   0.000065   0.001923
    27  C    0.638541  -0.011702  -0.317942   0.072885  -0.121396   0.005306
    28  C   -0.209135   0.489034  -0.233110  -0.147864   0.202218  -0.013438
    29  H    0.032401  -0.012480  -0.000898  -0.000744   0.003621  -0.000057
    30  H   -0.251908   0.000637  -0.034769   0.009524  -0.003906  -0.011889
    31  C   11.325949  -0.066876   0.273707  -0.121163  -0.167874   0.064487
    32  H   -0.066876   0.510859  -0.036309  -0.003289   0.012663  -0.001195
    33  N    0.273707  -0.036309   7.003022   0.298975   0.315109  -0.056908
    34  C   -0.121163  -0.003289   0.298975   5.223031  -0.110457   0.409071
    35  C   -0.167874   0.012663   0.315109  -0.110457   5.260632   0.000087
    36  H    0.064487  -0.001195  -0.056908   0.409071   0.000087   0.579168
    37  H   -0.017404   0.001882  -0.048725   0.401789  -0.014675  -0.024687
    38  H   -0.039391  -0.000093  -0.055706   0.425156  -0.000647  -0.059589
    39  H   -0.037245  -0.009214  -0.050455  -0.006095   0.432575   0.002190
    40  H   -0.005973   0.006288  -0.046826  -0.011029   0.397263  -0.001163
    41  H    0.006210  -0.009149  -0.060513   0.005290   0.407129  -0.003305
              37         38         39         40         41
     1  C   -0.000007   0.000024   0.000009   0.000000   0.000001
     2  C   -0.000001   0.000002   0.000001   0.000000   0.000000
     3  C    0.000021   0.000050   0.000051  -0.000038   0.000055
     4  O    0.000000   0.000000   0.000000   0.000000   0.000000
     5  H    0.000000   0.000000   0.000000   0.000000   0.000000
     6  C    0.000000   0.000000   0.000000   0.000000   0.000000
     7  C   -0.000014  -0.000001  -0.000025   0.000014   0.000003
     8  C    0.000022  -0.000058  -0.000019  -0.000005  -0.000074
     9  H    0.000000   0.000000   0.000000   0.000000   0.000001
    10  C   -0.000001   0.000009  -0.000002   0.000001   0.000002
    11  O    0.000000   0.000000   0.000000   0.000000   0.000000
    12  H   -0.000003   0.000009   0.000001   0.000001   0.000000
    13  C    0.000171  -0.000349  -0.000285   0.000188   0.000624
    14  O    0.000000  -0.000001  -0.000001   0.000000  -0.000001
    15  H    0.000000   0.000000   0.000000   0.000000   0.000000
    16  C    0.000000   0.000000   0.000000   0.000000   0.000000
    17  H   -0.000058  -0.000289   0.000005   0.000071  -0.000031
    18  C   -0.001231  -0.000233  -0.000669   0.002725  -0.002482
    19  H    0.000000   0.000000   0.000000   0.000000   0.000000
    20  H    0.000000   0.000000   0.000000   0.000000   0.000000
    21  H    0.000000   0.000000   0.000000   0.000000   0.000000
    22  H    0.000010   0.000007  -0.000117  -0.000003  -0.000111
    23  C    0.004781  -0.001412   0.003477  -0.004598   0.007276
    24  C    0.001556   0.007666  -0.007731   0.005106  -0.000492
    25  C    0.009044  -0.003869   0.007746  -0.015788  -0.007746
    26  H    0.000114   0.001972  -0.000174  -0.000594   0.000225
    27  C    0.015156   0.036780  -0.013164   0.020484  -0.002612
    28  C    0.009724  -0.007399   0.035221   0.016805   0.002537
    29  H   -0.000180  -0.000066   0.000656  -0.000101   0.000664
    30  H    0.005973  -0.012252  -0.000386   0.002791  -0.000717
    31  C   -0.017404  -0.039391  -0.037245  -0.005973   0.006210
    32  H    0.001882  -0.000093  -0.009214   0.006288  -0.009149
    33  N   -0.048725  -0.055706  -0.050455  -0.046826  -0.060513
    34  C    0.401789   0.425156  -0.006095  -0.011029   0.005290
    35  C   -0.014675  -0.000647   0.432575   0.397263   0.407129
    36  H   -0.024687  -0.059589   0.002190  -0.001163  -0.003305
    37  H    0.513370  -0.022024  -0.003173   0.013036  -0.000180
    38  H   -0.022024   0.543146  -0.000783  -0.003160   0.001595
    39  H   -0.003173  -0.000783   0.554253  -0.018788  -0.064014
    40  H    0.013036  -0.003160  -0.018788   0.507429  -0.022952
    41  H   -0.000180   0.001595  -0.064014  -0.022952   0.567141
 Mulliken charges:
               1
     1  C   -0.126651
     2  C   -0.123533
     3  C    1.259114
     4  O   -0.363184
     5  H    0.237526
     6  C   -0.451248
     7  C   -0.460937
     8  C   -0.002252
     9  H    0.440773
    10  C   -0.767111
    11  O   -0.129650
    12  H    0.151014
    13  C    0.175315
    14  O   -0.382518
    15  H    0.232935
    16  C   -0.373002
    17  H   -0.209616
    18  C    0.099482
    19  H    0.174045
    20  H    0.219088
    21  H    0.166664
    22  H    0.243959
    23  C    0.727455
    24  C   -0.462300
    25  C   -0.249229
    26  H    0.153612
    27  C   -0.354499
    28  C   -0.257766
    29  H    0.214539
    30  H    0.223444
    31  C   -0.501157
    32  H    0.190249
    33  N    0.064981
    34  C   -0.391915
    35  C   -0.386629
    36  H    0.161788
    37  H    0.155711
    38  H    0.190905
    39  H    0.176155
    40  H    0.158817
    41  H    0.175626
 Sum of Mulliken charges =   0.00000
 Mulliken charges with hydrogens summed into heavy atoms:
               1
     1  C   -0.126651
     2  C    0.113993
     3  C    1.259114
     4  O    0.077590
     6  C   -0.451248
     7  C   -0.309923
     8  C   -0.002252
    10  C   -0.534176
    11  O   -0.129650
    13  C   -0.034301
    14  O   -0.382518
    16  C    0.186795
    18  C    0.343442
    23  C    0.727455
    24  C   -0.308688
    25  C   -0.034690
    27  C   -0.131055
    28  C   -0.067517
    31  C   -0.501157
    33  N    0.064981
    34  C    0.116489
    35  C    0.123969
 Electronic spatial extent (au):  <R**2>=          70776.2595
 Charge=              0.0000 electrons
 Dipole moment (field-independent basis, Debye):
    X=             -1.5505    Y=             -0.8539    Z=              7.4297  Tot=              7.6377
 Quadrupole moment (field-independent basis, Debye-Ang):
   XX=           -131.6044   YY=           -113.1105   ZZ=           -141.8724
   XY=             21.2613   XZ=             24.6260   YZ=            -46.1461
 Traceless Quadrupole moment (field-independent basis, Debye-Ang):
   XX=             -2.7420   YY=             15.7520   ZZ=            -13.0100
   XY=             21.2613   XZ=             24.6260   YZ=            -46.1461
 Octapole moment (field-independent basis, Debye-Ang**2):
  XXX=           -126.4247  YYY=           3315.1318  ZZZ=           1586.5987  XYY=           -295.2000
  XXY=           1216.3742  XXZ=            575.4065  XZZ=           -257.7560  YZZ=           1104.5000
  YYZ=            763.4302  XYZ=           -233.1283
 Hexadecapole moment (field-independent basis, Debye-Ang**3):
 XXXX=          -1915.1557 YYYY=         -63749.3696 ZZZZ=         -24706.7767 XXXY=            383.5693
 XXXZ=           -980.8253 YYYX=           3169.1892 YYYZ=         -16858.4032 ZZZX=           1444.6791
 ZZZY=         -13991.8735 XXYY=         -11812.5714 XXZZ=          -5139.9352 YYZZ=         -13089.1691
 XXYZ=          -5841.2426 YYXZ=           1941.5270 ZZXY=           2312.2519
 N-N= 1.595500194107D+03 E-N=-5.469131483740D+03  KE= 9.732728829776D+02
 Leave Link  601 at Thu Nov  2 09:26:22 2017, MaxMem=  3758096384 cpu:         0.6
 (Enter /share/apps/gaussian/g09_D01/g09/l9999.exe)
 1\1\GINC-NXV30\SP\RwB97XD TD-FC\6-311++G(d,p)\C18H19N1O3\BTX008\02-Nov
 -2017\0\\#p wb97xd/6-311++G** td=(nstates=2) nosymm\\Title\\0,1\C,0,0.
 189744,-9.571178,-8.241991\C,0,-0.636792,-10.289435,-9.118195\C,0,0.01
 3504,-9.65577,-6.826624\O,0,1.167363,-8.80365,-8.75275\H,0,-0.474766,-
 10.184499,-10.188265\C,0,-1.64114,-11.103179,-8.598058\C,0,-1.000965,-
 10.516251,-6.349474\C,0,0.871866,-8.849893,-5.956409\H,0,1.602836,-8.3
 6369,-7.885818\C,0,-1.821192,-11.220732,-7.202386\O,0,-2.494182,-11.83
 3311,-9.354722\H,0,-1.136191,-10.657855,-5.279104\C,0,0.704025,-8.8824
 46,-4.524987\O,0,1.773923,-8.105111,-6.493532\H,0,-2.606481,-11.874941
 ,-6.82716\C,0,-2.29343,-11.863228,-10.773673\H,0,-0.079497,-9.517814,-
 4.118344\C,0,1.49526,-8.158636,-3.676327\H,0,-1.290661,-12.25918,-11.0
 0406\H,0,-3.063401,-12.534014,-11.165992\H,0,-2.410289,-10.857597,-11.
 205208\H,0,2.272707,-7.534276,-4.126876\C,0,1.405285,-8.129716,-2.2481
 13\C,0,0.456343,-8.878138,-1.511143\C,0,2.283221,-7.308643,-1.504971\H
 ,0,-0.234381,-9.536955,-2.035475\C,0,0.374104,-8.805575,-0.139636\C,0,
 2.215664,-7.217871,-0.129864\H,0,3.041171,-6.73438,-2.03723\H,0,-0.378
 607,-9.397676,0.375433\C,0,1.257455,-7.970862,0.60081\H,0,2.909922,-6.
 561218,0.390749\N,0,1.194401,-7.907231,1.956155\C,0,0.2321,-8.716015,2
 .686402\C,0,2.07943,-7.009747,2.679249\H,0,0.307209,-9.776998,2.405837
 \H,0,0.442533,-8.634185,3.755638\H,0,-0.800972,-8.377405,2.502193\H,0,
 1.935914,-5.966338,2.357672\H,0,1.859835,-7.073688,3.74971\H,0,3.13716
 4,-7.276819,2.521281\\Version=ES64L-G09RevD.01\HF=-977.6861845\RMSD=3.
 605e-09\PG=C01 [X(C18H19N1O3)]\\@


 THERE IS AN OLD, OLD RECIPE IN MAINE FOR STEWING COOT. PLACE THE
 BIRD IN A KETTLE OF WATER WITH A RED BUILDING BRICK FREE OF MORTAR AND
 BLEMISHES. PARBOIL THE COOT AND BRICK TOGETHER FOR THREE HOURS.
 POUR OFF THE WATER, REFILL THE KETTLE, AND AGAIN PARBOIL FOR THREE HOURS.
 ONCE AGAIN POUR OFF THE WATER, FOR THE LAST TIME ADD FRESH WATER,
 AND LET THE COOT AND BRICK SIMMER TOGETHER OVERNIGHT. IN THE MORNING,
 THROW AWAY THE COOT AND EAT THE BRICK.
 Job cpu time:       0 days  3 hours 38 minutes 34.6 seconds.
 File lengths (MBytes):  RWF=    368 Int=      0 D2E=      0 Chk=    158 Scr=      1
 Normal termination of Gaussian 09 at Thu Nov  2 09:26:22 2017.
