
     Program PWSCF v.6.1 (svn rev. 13369) starts on  5Oct2017 at 17:35:17 

     This program is part of the open-source Quantum ESPRESSO suite
     for quantum simulation of materials; please cite
         "P. Giannozzi et al., J. Phys.:Condens. Matter 21 395502 (2009);
          URL http://www.quantum-espresso.org", 
     in publications or presentations arising from this work. More details at
     http://www.quantum-espresso.org/quote

     Parallel version (MPI), running on     1 processors
     Waiting for input...
     Reading input from standard input

     Current dimensions of program PWSCF are:
     Max number of different atomic species (ntypx) = 10
     Max number of k-points (npk) =  40000
     Max angular momentum in pseudopotentials (lmaxx) =  3
     Message from routine iosys:
     london is obsolete, use "vdw_corr='grimme-d2'" instead

     IMPORTANT: XC functional enforced from input :
     Exchange-correlation      = PBE ( 1  4  3  4 0 0)
     Any further DFT definition will be discarded
     Please, verify this is what you really want

               file C.pbe-rrkjus.UPF: wavefunction(s)  2S 2P renormalized
               file H.pbe-rrkjus.UPF: wavefunction(s)  1S renormalized
               file O.pbe-rrkjus.UPF: wavefunction(s)  2S renormalized
               file N.pbe-rrkjus.UPF: wavefunction(s)  2S renormalized

     -------------------------------------
     Parameters for Dispersion Correction:
     -------------------------------------
       atom      VdW radius       C_6     

        C          2.744         60.710
        H          1.892          4.857
        O          2.536         24.284
        N          2.640         42.670
        F          2.432         26.018

     Subspace diagonalization in iterative solution of the eigenvalue problem:
     a serial algorithm will be used

 
     G-vector sticks info
     --------------------
     sticks:   dense  smooth     PW     G-vecs:    dense   smooth      PW
     Sum        3207    3207    899               154425   154425   22919
 


     bravais-lattice index     =            0
     lattice parameter (alat)  =      17.1364  a.u.
     unit-cell volume          =    6954.5023 (a.u.)^3
     number of atoms/cell      =          108
     number of atomic types    =            5
     number of electrons       =       320.00
     number of Kohn-Sham states=          160
     kinetic-energy cutoff     =      30.0000  Ry
     charge density cutoff     =     120.0000  Ry
     convergence threshold     =      1.0E-07
     mixing beta               =       0.7000
     number of iterations used =            8  plain     mixing
     Exchange-correlation      = PBE ( 1  4  3  4 0 0)
     nstep                     =           50


     celldm(1)=  17.136415  celldm(2)=   0.000000  celldm(3)=   0.000000
     celldm(4)=   0.000000  celldm(5)=   0.000000  celldm(6)=   0.000000

     crystal axes: (cart. coord. in units of alat)
               a(1) = (   1.000000   0.000000   0.000000 )  
               a(2) = (   0.000000   1.145762   0.000000 )  
               a(3) = (  -0.419328   0.000000   1.206179 )  

     reciprocal axes: (cart. coord. in units 2 pi/alat)
               b(1) = (  1.000000  0.000000  0.347650 )  
               b(2) = (  0.000000  0.872782  0.000000 )  
               b(3) = (  0.000000  0.000000  0.829064 )  


     PseudoPot. # 1 for C  read from file:
     /data/home/btx156/espresso/pseudo/C.pbe-rrkjus.UPF
     MD5 check sum: 00fb224312de0c5b6853bd333518df6f
     Pseudo is Ultrasoft, Zval =  4.0
     Generated by new atomic code, or converted to UPF format
     Using radial grid of  627 points,  4 beta functions with: 
                l(1) =   0
                l(2) =   0
                l(3) =   1
                l(4) =   1
     Q(r) pseudized with 0 coefficients 


     PseudoPot. # 2 for H  read from file:
     /data/home/btx156/espresso/pseudo/H.pbe-rrkjus.UPF
     MD5 check sum: 7cc9d459525c9a0585f487a71c3c9563
     Pseudo is Ultrasoft, Zval =  1.0
     Generated by new atomic code, or converted to UPF format
     Using radial grid of 1061 points,  2 beta functions with: 
                l(1) =   0
                l(2) =   0
     Q(r) pseudized with 0 coefficients 


     PseudoPot. # 3 for O  read from file:
     /data/home/btx156/espresso/pseudo/O.pbe-rrkjus.UPF
     MD5 check sum: 390ba29e75625707450f3bd3f0eb6be9
     Pseudo is Ultrasoft, Zval =  6.0
     Generated by new atomic code, or converted to UPF format
     Using radial grid of 1269 points,  4 beta functions with: 
                l(1) =   0
                l(2) =   0
                l(3) =   1
                l(4) =   1
     Q(r) pseudized with 0 coefficients 


     PseudoPot. # 4 for N  read from file:
     /data/home/btx156/espresso/pseudo/N.pbe-rrkjus.UPF
     MD5 check sum: 0c3fbe5807a93f9ba59d5a7019aa238b
     Pseudo is Ultrasoft, Zval =  5.0
     Generated by new atomic code, or converted to UPF format
     Using radial grid of 1257 points,  4 beta functions with: 
                l(1) =   0
                l(2) =   0
                l(3) =   1
                l(4) =   1
     Q(r) pseudized with 0 coefficients 


     PseudoPot. # 5 for  F read from file:
     /data/home/btx156/espresso/pseudo/F.pbe-n-rrkjus_psl.0.1.UPF
     MD5 check sum: 04c7599644978b7d0345d67c6032d20f
     Pseudo is Ultrasoft + core correction, Zval =  7.0
     Generated using "atomic" code by A. Dal Corso  v.5.0.2 svn rev. 9415
     Using radial grid of 1105 points,  4 beta functions with: 
                l(1) =   0
                l(2) =   0
                l(3) =   1
                l(4) =   1
     Q(r) pseudized with 0 coefficients 


     atomic species   valence    mass     pseudopotential
        C              4.00    12.00000     C ( 1.00)
        H              1.00     1.00790     H ( 1.00)
        O              6.00    15.99940     O ( 1.00)
        N              5.00    14.00670     N ( 1.00)
        F              7.00    18.99840      F( 1.00)

      4 Sym. Ops., with inversion, found ( 2 have fractional translation)



   Cartesian axes

     site n.     atom                  positions (alat units)
         1           C   tau(   1) = (   0.0557652   0.8948975   0.3877021  )
         2           C   tau(   2) = (  -0.0866655   0.9379094   0.4573708  )
         3           C   tau(   3) = (   0.0971273   0.9432147   0.2469531  )
         4           C   tau(   4) = (   0.1545003   0.8028694   0.4647769  )
         5           C   tau(   5) = (   0.8042743   1.0127964   0.3748197  )
         6           C   tau(   6) = (   0.2889405   0.7627225   0.4011513  )
         7           C   tau(   7) = (   0.3276152   0.8119792   0.2631526  )
         8           C   tau(   8) = (   0.6738702   1.0519011   0.4407016  )
         9           C   tau(   9) = (   0.2303368   0.9009131   0.1893937  )
        10           C   tau(  10) = (   0.5584471   0.0146655   0.2262434  )
        11           H   tau(  11) = (   0.6333043   0.0875367   0.2093922  )
        12           H   tau(  12) = (   0.4637723   0.0548819   0.2014314  )
        13           H   tau(  13) = (   0.5776427   1.0756412   0.1658499  )
        14           C   tau(  14) = (   0.4286043   0.0075616   0.4665501  )
        15           H   tau(  15) = (   0.4395547   1.1147118   0.5644913  )
        16           H   tau(  16) = (   0.3432544   1.1104728   0.4209567  )
        17           H   tau(  17) = (   0.4170100   0.1127434   0.4711332  )
        18           F   tau(  18) = (   0.2684414   0.9500320   0.0527216  )
        19           N   tau(  19) = (   0.5594175   1.1176562   0.3798141  )
        20           O   tau(  20) = (   0.1223936   0.7524790   0.6008822  )
        21           H   tau(  21) = (   0.0414845   0.7837013   0.6262478  )
        22           O   tau(  22) = (  -0.1058744   0.9036964   0.5913533  )
        23           H   tau(  23) = (   0.0342207   1.0050627   0.1834598  )
        24           H   tau(  24) = (   0.8217287   1.0332480   0.2777828  )
        25           H   tau(  25) = (   0.6634834   1.0324463   0.5365078  )
        26           H   tau(  26) = (   0.4196345   0.7874826   0.2225403  )
        27           H   tau(  27) = (   0.3533623   0.7046437   0.4591926  )
        28           C   tau(  28) = (   0.3770009   0.3650283   0.1457180  )
        29           C   tau(  29) = (   0.6673375   0.2078527   0.7488079  )
        30           C   tau(  30) = (   0.2036711   0.7807338   1.0604607  )
        31           C   tau(  31) = (   0.2345703   0.3220165   0.2153878  )
        32           C   tau(  32) = (   0.5249068   0.2508646   0.8184766  )
        33           C   tau(  33) = (   0.3461018   0.8237456   0.9907920  )
        34           C   tau(  34) = (   0.1932092   0.3703337   0.3561368  )
        35           C   tau(  35) = (   0.4835458   0.2025474   0.9592256  )
        36           C   tau(  36) = (   0.3874628   0.7754284   0.8500430  )
        37           C   tau(  37) = (   0.1358362   0.2299883   0.1383130  )
        38           C   tau(  38) = (   0.4261717   0.3428927   0.7414018  )
        39           C   tau(  39) = (   0.4448369   0.9157738   1.0678668  )
        40           C   tau(  40) = (   0.4860623   0.4399153   0.2282691  )
        41           C   tau(  41) = (  -0.2236023   0.1329657   0.8313590  )
        42           C   tau(  42) = (   0.0946097   0.7058468   0.9779096  )
        43           C   tau(  43) = (   0.0013961   0.1898414   0.2019386  )
        44           C   tau(  44) = (   0.2917326   0.3830396   0.8050274  )
        45           C   tau(  45) = (   0.5792759   0.9559207   1.0042401  )
        46           C   tau(  46) = (  -0.0372797   0.2390982   0.3399374  )
        47           C   tau(  47) = (   0.2530568   0.3337829   0.9430273  )
        48           C   tau(  48) = (   0.6179517   0.9066639   0.8662414  )
        49           C   tau(  49) = (   0.6164663   0.4790201   0.1623883  )
        50           C   tau(  50) = (  -0.0931982   0.0938610   0.7654772  )
        51           C   tau(  51) = (  -0.0357943   0.6667420   1.0437915  )
        52           C   tau(  52) = (   0.0599987   0.3280320   0.4136951  )
        53           C   tau(  53) = (   0.3503352   0.2448490   1.0167850  )
        54           C   tau(  54) = (   0.5206733   0.8177301   0.7924836  )
        55           C   tau(  55) = (   0.7318895   0.5875466   0.3768466  )
        56           C   tau(  56) = (   0.0222249   1.1310966   0.9799354  )
        57           C   tau(  57) = (  -0.1512174   0.5582155   0.8293322  )
        58           H   tau(  58) = (   0.6570312   0.6604177   0.3936966  )
        59           H   tau(  59) = (  -0.0526323   1.0582254   0.9967866  )
        60           H   tau(  60) = (  -0.0763591   0.4853444   0.8124821  )
        61           H   tau(  61) = (   0.8265642   0.6277629   0.4016574  )
        62           H   tau(  62) = (   0.1168997   1.0908802   1.0047473  )
        63           H   tau(  63) = (  -0.2458922   0.5179992   0.8045213  )
        64           H   tau(  64) = (   0.7126938   0.5027602   0.4372400  )
        65           H   tau(  65) = (   0.0030293   0.0701209   1.0403288  )
        66           H   tau(  66) = (  -0.1320218   0.6430019   0.7689387  )
        67           C   tau(  67) = (   0.8617322   0.5804426   0.1365398  )
        68           C   tau(  68) = (   0.1520677   1.1382005   0.7396286  )
        69           C   tau(  69) = (  -0.2810602   0.5653195   1.0696389  )
        70           H   tau(  70) = (   0.8507818   0.5418308   0.0385975  )
        71           H   tau(  71) = (   0.1411173   0.0310503   0.6416874  )
        72           H   tau(  72) = (  -0.2701098   0.6039313   1.1675812  )
        73           H   tau(  73) = (  -0.0529190   0.5375918   0.1821332  )
        74           H   tau(  74) = (   0.2374176   0.0352893   0.7852220  )
        75           H   tau(  75) = (   0.6335910   0.6081703   1.0240456  )
        76           H   tau(  76) = (   0.8733255   0.6856245   0.1319556  )
        77           H   tau(  77) = (   0.1636620   1.0330187   0.7350455  )
        78           H   tau(  78) = (  -0.2926534   0.4601376   1.0742231  )
        79           F   tau(  79) = (   0.0218952   0.3771509   0.5503672  )
        80           F   tau(  80) = (   0.3122306   0.1957301   1.1534571  )
        81           F   tau(  81) = (   0.5587768   0.7686112   0.6558115  )
        82           N   tau(  82) = (   0.7309179   0.5447751   0.2232758  )
        83           N   tau(  83) = (   0.0212545   0.0281059   0.8263646  )
        84           N   tau(  84) = (  -0.1502459   0.6009870   0.9829029  )
        85           O   tau(  85) = (   0.1679429   0.1795979   0.0022077  )
        86           O   tau(  86) = (   0.4582784   0.3932831   0.6052965  )
        87           O   tau(  87) = (   0.4127291   0.9661642   1.2039710  )
        88           H   tau(  88) = (  -0.1704770   0.2108202   1.1830198  )
        89           H   tau(  89) = (   0.5391875   0.3620608   0.5799310  )
        90           H   tau(  90) = (   0.7511491   0.9349419   0.0231590  )
        91           O   tau(  91) = (   0.3962098   0.3308154   0.0117366  )
        92           O   tau(  92) = (   0.6865464   0.2420657   0.6148254  )
        93           O   tau(  93) = (   0.1844622   0.8149467   1.1944432  )
        94           H   tau(  94) = (   0.2561159   0.4321817   0.4196301  )
        95           H   tau(  95) = (   0.5464513   0.1406994   1.0227189  )
        96           H   tau(  96) = (   0.3245561   0.7135804   0.7865497  )
        97           H   tau(  97) = (   0.4686068   0.4603670   0.3253060  )
        98           H   tau(  98) = (  -0.2410567   0.1125141   0.9283959  )
        99           H   tau(  99) = (   0.1120652   0.6853951   0.8808727  )
       100           H   tau( 100) = (   0.6268532   0.4595653   0.0665810  )
       101           H   tau( 101) = (  -0.0828114   0.1133158   0.6696709  )
       102           H   tau( 102) = (  -0.0461812   0.6861968   1.1395977  )
       103           H   tau( 103) = (  -0.1292980   0.2146016   0.3805496  )
       104           H   tau( 104) = (   0.1610386   0.3582795   0.9836384  )
       105           H   tau( 105) = (   0.7099700   0.9311605   0.8256291  )
       106           H   tau( 106) = (   0.9369743   0.1317626   0.1438974  )
       107           H   tau( 107) = (   0.2273097   0.4411184   0.7469862  )
       108           H   tau( 108) = (  -0.3563022   1.0139995   1.0622814  )

     number of k points=     8
                       cart. coord. in units 2pi/alat
        k(    1) = (   0.0000000   0.0000000   0.0000000), wk =   0.2500000
        k(    2) = (   0.0000000   0.0000000  -0.4145322), wk =   0.2500000
        k(    3) = (   0.0000000  -0.4363908   0.0000000), wk =   0.2500000
        k(    4) = (   0.0000000  -0.4363908  -0.4145322), wk =   0.2500000
        k(    5) = (  -0.5000000   0.0000000  -0.1738249), wk =   0.2500000
        k(    6) = (  -0.5000000   0.0000000  -0.5883571), wk =   0.2500000
        k(    7) = (  -0.5000000  -0.4363908  -0.1738249), wk =   0.2500000
        k(    8) = (  -0.5000000  -0.4363908  -0.5883571), wk =   0.2500000

     Dense  grid:   154425 G-vectors     FFT dimensions: (  60,  72,  80)

     Estimated max dynamical RAM per process >    1079.42MB

     Check: negative/imaginary core charge=   -0.000687    0.000000

     Initial potential from superposition of free atoms

     starting charge  315.37983, renormalised to  320.00000
     Starting wfc are  288 randomized atomic wfcs

     total cpu time spent up to now is      137.9 secs

     per-process dynamical memory:   818.7 Mb

     Self-consistent Calculation

     iteration #  1     ecut=    30.00 Ry     beta=0.70
     Davidson diagonalization with overlap
     ethr =  1.00E-02,  avg # of iterations =  2.0

     total cpu time spent up to now is      418.1 secs

     total energy              =   -1081.73822003 Ry
     Harris-Foulkes estimate   =   -1101.35916417 Ry
     estimated scf accuracy    <      28.03289267 Ry

     iteration #  2     ecut=    30.00 Ry     beta=0.70
     Davidson diagonalization with overlap
     ethr =  8.76E-03,  avg # of iterations =  4.0

     total cpu time spent up to now is      708.3 secs

     total energy              =   -1085.42257251 Ry
     Harris-Foulkes estimate   =   -1093.47792947 Ry
     estimated scf accuracy    <      14.27057286 Ry

     iteration #  3     ecut=    30.00 Ry     beta=0.70
     Davidson diagonalization with overlap
     ethr =  4.46E-03,  avg # of iterations =  4.0

     total cpu time spent up to now is      990.4 secs

     total energy              =   -1088.83115184 Ry
     Harris-Foulkes estimate   =   -1090.42891899 Ry
     estimated scf accuracy    <       3.22351528 Ry

     iteration #  4     ecut=    30.00 Ry     beta=0.70
     Davidson diagonalization with overlap
     ethr =  1.01E-03,  avg # of iterations =  4.0

     total cpu time spent up to now is     1250.9 secs

     total energy              =   -1089.49426008 Ry
     Harris-Foulkes estimate   =   -1089.76697249 Ry
     estimated scf accuracy    <       0.57644749 Ry

     iteration #  5     ecut=    30.00 Ry     beta=0.70
     Davidson diagonalization with overlap
     ethr =  1.80E-04,  avg # of iterations =  4.0

     total cpu time spent up to now is     1514.4 secs

     total energy              =   -1089.61379505 Ry
     Harris-Foulkes estimate   =   -1089.63759494 Ry
     estimated scf accuracy    <       0.04751233 Ry

     iteration #  6     ecut=    30.00 Ry     beta=0.70
     Davidson diagonalization with overlap
     ethr =  1.48E-05,  avg # of iterations =  4.0

     total cpu time spent up to now is     1793.4 secs

     total energy              =   -1089.62523670 Ry
     Harris-Foulkes estimate   =   -1089.62859627 Ry
     estimated scf accuracy    <       0.00690542 Ry

     iteration #  7     ecut=    30.00 Ry     beta=0.70
     Davidson diagonalization with overlap
     ethr =  2.16E-06,  avg # of iterations =  4.0

     total cpu time spent up to now is     2068.3 secs

     total energy              =   -1089.62669281 Ry
     Harris-Foulkes estimate   =   -1089.62734322 Ry
     estimated scf accuracy    <       0.00139500 Ry

     iteration #  8     ecut=    30.00 Ry     beta=0.70
     Davidson diagonalization with overlap
     ethr =  4.36E-07,  avg # of iterations =  3.0

     total cpu time spent up to now is     2321.5 secs

     total energy              =   -1089.62700105 Ry
     Harris-Foulkes estimate   =   -1089.62706442 Ry
     estimated scf accuracy    <       0.00013946 Ry

     iteration #  9     ecut=    30.00 Ry     beta=0.70
     Davidson diagonalization with overlap
     ethr =  4.36E-08,  avg # of iterations =  3.0

     total cpu time spent up to now is     2580.8 secs

     total energy              =   -1089.62703210 Ry
     Harris-Foulkes estimate   =   -1089.62704638 Ry
     estimated scf accuracy    <       0.00003058 Ry

     iteration # 10     ecut=    30.00 Ry     beta=0.70
     Davidson diagonalization with overlap
     ethr =  9.55E-09,  avg # of iterations =  3.5

     total cpu time spent up to now is     2830.0 secs

     total energy              =   -1089.62703863 Ry
     Harris-Foulkes estimate   =   -1089.62703996 Ry
     estimated scf accuracy    <       0.00000285 Ry

     iteration # 11     ecut=    30.00 Ry     beta=0.70
     Davidson diagonalization with overlap
     ethr =  8.91E-10,  avg # of iterations =  4.0

     total cpu time spent up to now is     3105.2 secs

     total energy              =   -1089.62703934 Ry
     Harris-Foulkes estimate   =   -1089.62703944 Ry
     estimated scf accuracy    <       0.00000024 Ry

     iteration # 12     ecut=    30.00 Ry     beta=0.70
     Davidson diagonalization with overlap
     ethr =  7.61E-11,  avg # of iterations =  4.0

     total cpu time spent up to now is     3374.2 secs

     End of self-consistent calculation

          k = 0.0000 0.0000 0.0000 ( 19295 PWs)   bands (ev):

   -24.6622 -24.6620 -24.6618 -24.6617 -21.4895 -21.4882 -21.4879 -21.4868
   -19.0375 -19.0360 -19.0249 -19.0225 -18.3951 -18.3930 -18.3878 -18.3862
   -15.6330 -15.6168 -15.6089 -15.5944 -13.7579 -13.7336 -13.6975 -13.6726
   -13.2264 -13.2150 -13.2082 -13.1961 -13.0155 -13.0146 -12.9475 -12.9461
   -12.6725 -12.6660 -12.6516 -12.6365 -11.7236 -11.6804 -11.6664 -11.6301
   -10.4045 -10.3972 -10.3942 -10.3745  -9.6563  -9.5918  -9.5355  -9.4674
    -9.2590  -9.2231  -9.1377  -9.1136  -8.3145  -8.3145  -8.2951  -8.2759
    -7.7307  -7.6758  -7.6366  -7.6253  -7.5578  -7.5536  -7.5376  -7.4555
    -6.8671  -6.8201  -6.7971  -6.7732  -6.3844  -6.3706  -6.3488  -6.3020
    -6.2393  -6.2084  -6.2023  -6.1585  -6.1456  -6.0848  -6.0496  -6.0335
    -5.3778  -5.3642  -5.3032  -5.2421  -5.2345  -5.2214  -5.2117  -5.1856
    -5.0897  -5.0429  -5.0110  -4.9382  -4.8074  -4.7720  -4.6838  -4.6522
    -4.6507  -4.6111  -4.5257  -4.5004  -4.4907  -4.4839  -4.4470  -4.3281
    -4.2853  -4.2659  -4.2256  -4.2191  -4.1725  -4.1630  -4.1177  -4.0991
    -3.9734  -3.9465  -3.9342  -3.9161  -3.9137  -3.8790  -3.8418  -3.8322
    -3.3489  -3.2902  -3.2762  -3.2554  -3.1829  -3.1585  -3.1105  -3.0550
    -2.7099  -2.6883  -2.6827  -2.6567  -2.6402  -2.4893  -2.2964  -2.2544
    -2.2104  -2.0789  -2.0754  -1.9983  -1.8733  -1.8566  -1.7654  -1.7290
    -0.6943  -0.6802  -0.4691  -0.4527   0.4007   0.4679   0.5230   0.5294
     0.5408   0.5769   0.5838   0.6000   0.8986   0.9938   1.0480   1.0667

          k = 0.0000 0.0000-0.4145 ( 19300 PWs)   bands (ev):

   -24.6622 -24.6620 -24.6619 -24.6617 -21.4890 -21.4886 -21.4876 -21.4873
   -19.0369 -19.0368 -19.0238 -19.0236 -18.3944 -18.3944 -18.3867 -18.3867
   -15.6249 -15.6249 -15.6017 -15.6016 -13.7482 -13.7480 -13.6829 -13.6828
   -13.2230 -13.2229 -13.2005 -13.2004 -13.0042 -13.0042 -12.9608 -12.9608
   -12.6654 -12.6654 -12.6444 -12.6444 -11.7046 -11.7045 -11.6450 -11.6449
   -10.4013 -10.4012 -10.3817 -10.3817  -9.6092  -9.6092  -9.5293  -9.5293
    -9.1915  -9.1915  -9.1735  -9.1735  -8.3076  -8.3075  -8.2863  -8.2863
    -7.6589  -7.6589  -7.6512  -7.6511  -7.6170  -7.6169  -7.4642  -7.4641
    -6.8455  -6.8454  -6.7884  -6.7883  -6.3428  -6.3428  -6.3318  -6.3317
    -6.1938  -6.1937  -6.1851  -6.1850  -6.1275  -6.1274  -6.0577  -6.0576
    -5.3734  -5.3733  -5.2796  -5.2795  -5.2366  -5.2366  -5.1807  -5.1806
    -5.0944  -5.0944  -5.0098  -5.0097  -4.7719  -4.7718  -4.6984  -4.6983
    -4.5844  -4.5843  -4.5281  -4.5280  -4.4324  -4.4323  -4.4034  -4.4034
    -4.2748  -4.2748  -4.2375  -4.2375  -4.1632  -4.1631  -4.0922  -4.0922
    -4.0215  -4.0215  -3.9440  -3.9440  -3.8731  -3.8730  -3.8068  -3.8068
    -3.3425  -3.3425  -3.2259  -3.2258  -3.1634  -3.1634  -3.0804  -3.0804
    -2.7201  -2.7201  -2.6741  -2.6740  -2.4709  -2.4709  -2.3541  -2.3541
    -2.1665  -2.1664  -2.0378  -2.0377  -1.8676  -1.8676  -1.7321  -1.7321
    -0.6816  -0.6815  -0.4612  -0.4611   0.4392   0.4393   0.5448   0.5448
     0.5541   0.5541   0.5759   0.5759   0.9430   0.9431   1.0584   1.0586

          k = 0.0000-0.4364 0.0000 ( 19270 PWs)   bands (ev):

   -24.6621 -24.6620 -24.6618 -24.6617 -21.4891 -21.4889 -21.4873 -21.4871
   -19.0366 -19.0365 -19.0240 -19.0239 -18.3941 -18.3940 -18.3870 -18.3870
   -15.6211 -15.6211 -15.6057 -15.6057 -13.7286 -13.7285 -13.7037 -13.7036
   -13.2191 -13.2190 -13.2013 -13.2012 -13.0149 -13.0149 -12.9473 -12.9473
   -12.6632 -12.6631 -12.6511 -12.6511 -11.6948 -11.6947 -11.6564 -11.6564
   -10.3984 -10.3983 -10.3837 -10.3837  -9.6264  -9.6264  -9.5004  -9.5004
    -9.2426  -9.2425  -9.1245  -9.1245  -8.3194  -8.3193  -8.2853  -8.2853
    -7.7089  -7.7089  -7.6109  -7.6108  -7.5587  -7.5587  -7.5058  -7.5058
    -6.8436  -6.8435  -6.7811  -6.7811  -6.3678  -6.3677  -6.3357  -6.3356
    -6.2153  -6.2152  -6.1946  -6.1946  -6.1270  -6.1270  -6.0310  -6.0310
    -5.3363  -5.3363  -5.2983  -5.2982  -5.2293  -5.2292  -5.1757  -5.1756
    -5.0640  -5.0640  -4.9885  -4.9885  -4.8187  -4.8186  -4.6768  -4.6768
    -4.6102  -4.6101  -4.5283  -4.5283  -4.5019  -4.5019  -4.3838  -4.3837
    -4.2531  -4.2531  -4.2113  -4.2113  -4.1537  -4.1536  -4.1301  -4.1301
    -3.9725  -3.9725  -3.9158  -3.9157  -3.9047  -3.9046  -3.8280  -3.8279
    -3.2903  -3.2903  -3.2685  -3.2685  -3.1533  -3.1533  -3.1197  -3.1197
    -2.6937  -2.6937  -2.6725  -2.6725  -2.5614  -2.5613  -2.2744  -2.2744
    -2.1461  -2.1460  -2.0341  -2.0340  -1.8748  -1.8748  -1.7419  -1.7419
    -0.5850  -0.5849  -0.5619  -0.5618   0.4704   0.4704   0.5227   0.5228
     0.5346   0.5347   0.5787   0.5787   0.9702   0.9702   1.0318   1.0319

          k = 0.0000-0.4364-0.4145 ( 19320 PWs)   bands (ev):

   -24.6622 -24.6620 -24.6619 -24.6618 -21.4889 -21.4886 -21.4877 -21.4874
   -19.0367 -19.0365 -19.0240 -19.0239 -18.3944 -18.3944 -18.3867 -18.3867
   -15.6141 -15.6139 -15.6129 -15.6126 -13.7281 -13.7280 -13.7045 -13.7044
   -13.2170 -13.2169 -13.2043 -13.2042 -13.0041 -13.0041 -12.9604 -12.9604
   -12.6563 -12.6561 -12.6551 -12.6550 -11.6899 -11.6899 -11.6606 -11.6605
   -10.3936 -10.3935 -10.3867 -10.3866  -9.5718  -9.5716  -9.5688  -9.5686
    -9.1901  -9.1901  -9.1748  -9.1748  -8.3043  -8.3042  -8.2940  -8.2939
    -7.6529  -7.6528  -7.6417  -7.6416  -7.6276  -7.6276  -7.4634  -7.4634
    -6.8325  -6.8325  -6.8032  -6.8031  -6.3420  -6.3418  -6.3337  -6.3336
    -6.2020  -6.2019  -6.1879  -6.1878  -6.0926  -6.0926  -6.0847  -6.0847
    -5.3198  -5.3197  -5.3197  -5.3196  -5.2161  -5.2160  -5.1954  -5.1953
    -5.0634  -5.0633  -5.0500  -5.0499  -4.7785  -4.7785  -4.7175  -4.7175
    -4.5585  -4.5584  -4.5419  -4.5419  -4.4702  -4.4702  -4.4075  -4.4074
    -4.2092  -4.2092  -4.2040  -4.2040  -4.1905  -4.1904  -4.1341  -4.1341
    -4.0165  -4.0165  -3.9531  -3.9531  -3.8555  -3.8554  -3.8171  -3.8170
    -3.2850  -3.2850  -3.2347  -3.2347  -3.1686  -3.1685  -3.1151  -3.1151
    -2.7071  -2.7071  -2.6892  -2.6891  -2.4356  -2.4355  -2.3819  -2.3818
    -2.1143  -2.1141  -2.0933  -2.0932  -1.8653  -1.8653  -1.7346  -1.7345
    -0.5732  -0.5731  -0.5691  -0.5689   0.5007   0.5008   0.5058   0.5059
     0.5483   0.5483   0.5541   0.5541   0.9817   0.9817   1.0176   1.0177

          k =-0.5000 0.0000-0.1738 ( 19314 PWs)   bands (ev):

   -24.6622 -24.6620 -24.6619 -24.6617 -21.4889 -21.4886 -21.4876 -21.4873
   -19.0367 -19.0366 -19.0238 -19.0237 -18.3971 -18.3971 -18.3841 -18.3841
   -15.6271 -15.6270 -15.6022 -15.6021 -13.7049 -13.7048 -13.7005 -13.7004
   -13.2440 -13.2439 -13.1987 -13.1986 -13.0144 -13.0144 -12.9495 -12.9495
   -12.6735 -12.6735 -12.6471 -12.6471 -11.7020 -11.7020 -11.6449 -11.6448
   -10.4162 -10.4161 -10.3733 -10.3732  -9.6103  -9.6103  -9.5282  -9.5281
    -9.1863  -9.1863  -9.1685  -9.1685  -8.3006  -8.3005  -8.2778  -8.2777
    -7.6976  -7.6975  -7.6436  -7.6435  -7.5717  -7.5717  -7.4758  -7.4757
    -6.8412  -6.8412  -6.8048  -6.8047  -6.3533  -6.3533  -6.3209  -6.3208
    -6.2377  -6.2376  -6.1681  -6.1680  -6.1413  -6.1412  -6.0618  -6.0617
    -5.3369  -5.3369  -5.2875  -5.2874  -5.2085  -5.2085  -5.1742  -5.1741
    -5.0739  -5.0738  -4.9749  -4.9748  -4.8045  -4.8044  -4.6693  -4.6692
    -4.6440  -4.6440  -4.5797  -4.5796  -4.4407  -4.4406  -4.4182  -4.4181
    -4.2796  -4.2796  -4.2172  -4.2172  -4.1217  -4.1216  -4.1114  -4.1113
    -3.9491  -3.9490  -3.9258  -3.9257  -3.8785  -3.8785  -3.8332  -3.8332
    -3.3012  -3.3011  -3.2513  -3.2513  -3.1831  -3.1831  -3.1284  -3.1284
    -2.7847  -2.7847  -2.7056  -2.7055  -2.3976  -2.3975  -2.3126  -2.3126
    -2.1558  -2.1558  -2.0707  -2.0707  -1.8633  -1.8632  -1.7585  -1.7584
    -0.6893  -0.6892  -0.4429  -0.4428   0.4339   0.4339   0.5439   0.5439
     0.5486   0.5487   0.5695   0.5696   1.0237   1.0238   1.0822   1.0822

          k =-0.5000 0.0000-0.5884 ( 19322 PWs)   bands (ev):

   -24.6622 -24.6621 -24.6619 -24.6617 -21.4894 -21.4882 -21.4880 -21.4869
   -19.0376 -19.0356 -19.0250 -19.0226 -18.3978 -18.3958 -18.3852 -18.3836
   -15.6325 -15.6213 -15.6067 -15.5975 -13.7066 -13.7037 -13.7020 -13.7000
   -13.2606 -13.2268 -13.2217 -13.1760 -13.0037 -13.0020 -12.9621 -12.9605
   -12.6776 -12.6686 -12.6505 -12.6428 -11.7154 -11.6790 -11.6565 -11.6414
   -10.4589 -10.4137 -10.3636 -10.3443  -9.6527  -9.5917  -9.5454  -9.4663
    -9.2195  -9.1954  -9.1635  -9.1450  -8.3276  -8.2870  -8.2701  -8.2678
    -7.7299  -7.6790  -7.6237  -7.6123  -7.6084  -7.5418  -7.5210  -7.4796
    -6.8896  -6.8312  -6.8043  -6.7935  -6.4109  -6.3841  -6.3173  -6.2975
    -6.2257  -6.1939  -6.1777  -6.1646  -6.1401  -6.1289  -6.0368  -6.0352
    -5.3491  -5.3463  -5.2827  -5.2688  -5.2643  -5.1943  -5.1840  -5.1499
    -5.0833  -5.0516  -4.9982  -4.9080  -4.8042  -4.7829  -4.7501  -4.6842
    -4.6811  -4.5830  -4.5788  -4.5250  -4.4912  -4.4775  -4.4374  -4.2976
    -4.2440  -4.2373  -4.2073  -4.1847  -4.1555  -4.1538  -4.1471  -4.1247
    -4.0219  -3.9809  -3.9715  -3.9409  -3.8585  -3.8414  -3.8354  -3.8025
    -3.3353  -3.2847  -3.2767  -3.2037  -3.2006  -3.1525  -3.1331  -3.1218
    -2.7641  -2.7504  -2.7073  -2.6408  -2.6051  -2.5747  -2.2188  -2.2064
    -2.1745  -2.1182  -2.0886  -2.0342  -1.8519  -1.8372  -1.8157  -1.7218
    -0.7057  -0.6667  -0.4542  -0.4406   0.4011   0.4781   0.5151   0.5264
     0.5422   0.5690   0.5733   0.5896   1.0057   1.0529   1.0606   1.0939

          k =-0.5000-0.4364-0.1738 ( 19308 PWs)   bands (ev):

   -24.6621 -24.6620 -24.6618 -24.6618 -21.4889 -21.4886 -21.4876 -21.4873
   -19.0366 -19.0365 -19.0238 -19.0237 -18.3971 -18.3971 -18.3841 -18.3840
   -15.6157 -15.6155 -15.6139 -15.6137 -13.7030 -13.7029 -13.7009 -13.7008
   -13.2261 -13.2260 -13.2189 -13.2187 -13.0142 -13.0142 -12.9492 -12.9492
   -12.6618 -12.6616 -12.6596 -12.6594 -11.7008 -11.7007 -11.6449 -11.6448
   -10.4046 -10.4045 -10.3839 -10.3837  -9.5729  -9.5727  -9.5676  -9.5674
    -9.1883  -9.1883  -9.1675  -9.1675  -8.2932  -8.2931  -8.2839  -8.2838
    -7.6671  -7.6670  -7.6670  -7.6669  -7.5835  -7.5834  -7.4695  -7.4695
    -6.8378  -6.8378  -6.8094  -6.8093  -6.3483  -6.3482  -6.3330  -6.3329
    -6.2285  -6.2285  -6.1795  -6.1794  -6.1149  -6.1148  -6.0759  -6.0758
    -5.3167  -5.3167  -5.2755  -5.2755  -5.2308  -5.2306  -5.1674  -5.1673
    -5.0452  -5.0451  -5.0327  -5.0326  -4.8113  -4.8112  -4.6935  -4.6935
    -4.6179  -4.6179  -4.5752  -4.5752  -4.4285  -4.4285  -4.4284  -4.4284
    -4.2422  -4.2421  -4.2407  -4.2406  -4.1436  -4.1435  -4.1076  -4.1076
    -3.9546  -3.9545  -3.9207  -3.9207  -3.8847  -3.8847  -3.8243  -3.8243
    -3.2850  -3.2850  -3.2492  -3.2491  -3.1929  -3.1928  -3.1329  -3.1329
    -2.7669  -2.7668  -2.7141  -2.7141  -2.3621  -2.3620  -2.3399  -2.3398
    -2.1218  -2.1217  -2.1001  -2.0999  -1.8585  -1.8585  -1.7850  -1.7850
    -0.5753  -0.5752  -0.5559  -0.5557   0.4958   0.4959   0.4987   0.4989
     0.5438   0.5438   0.5551   0.5551   1.0215   1.0216   1.0857   1.0858

          k =-0.5000-0.4364-0.5884 ( 19296 PWs)   bands (ev):

   -24.6622 -24.6620 -24.6618 -24.6617 -21.4892 -21.4889 -21.4873 -21.4871
   -19.0366 -19.0365 -19.0238 -19.0237 -18.3968 -18.3968 -18.3844 -18.3844
   -15.6198 -15.6198 -15.6095 -15.6094 -13.7031 -13.7030 -13.7016 -13.7015
   -13.2431 -13.2431 -13.2015 -13.2014 -13.0026 -13.0026 -12.9613 -12.9612
   -12.6648 -12.6647 -12.6556 -12.6555 -11.6995 -11.6994 -11.6455 -11.6455
   -10.4355 -10.4355 -10.3533 -10.3533  -9.6267  -9.6266  -9.5041  -9.5040
    -9.2078  -9.2078  -9.1538  -9.1538  -8.3115  -8.3115  -8.2644  -8.2643
    -7.7063  -7.7063  -7.6086  -7.6085  -7.5820  -7.5820  -7.5013  -7.5013
    -6.8689  -6.8689  -6.7872  -6.7871  -6.3907  -6.3906  -6.3042  -6.3041
    -6.2208  -6.2207  -6.1664  -6.1664  -6.1423  -6.1423  -6.0322  -6.0322
    -5.3345  -5.3345  -5.2771  -5.2770  -5.2419  -5.2418  -5.1634  -5.1633
    -5.0608  -5.0607  -4.9801  -4.9800  -4.7741  -4.7740  -4.7043  -4.7042
    -4.6632  -4.6631  -4.5684  -4.5683  -4.4591  -4.4590  -4.3602  -4.3602
    -4.2646  -4.2645  -4.2052  -4.2052  -4.1656  -4.1656  -4.1125  -4.1124
    -3.9755  -3.9755  -3.9512  -3.9512  -3.8785  -3.8784  -3.8115  -3.8114
    -3.2885  -3.2885  -3.2596  -3.2595  -3.1666  -3.1665  -3.1357  -3.1356
    -2.7442  -2.7442  -2.6462  -2.6462  -2.6150  -2.6150  -2.1866  -2.1866
    -2.1498  -2.1498  -2.0730  -2.0730  -1.8717  -1.8716  -1.7624  -1.7624
    -0.5830  -0.5829  -0.5507  -0.5506   0.4679   0.4679   0.5157   0.5158
     0.5377   0.5377   0.5740   0.5740   1.0195   1.0196   1.0881   1.0882

     highest occupied level (ev):     1.0939

!    total energy              =   -1089.62703939 Ry
     Harris-Foulkes estimate   =   -1089.62703941 Ry
     estimated scf accuracy    <       0.00000003 Ry

     The total energy is the sum of the following terms:

     one-electron contribution =    -889.42869058 Ry
     hartree contribution      =     556.06405631 Ry
     xc contribution           =    -313.13668841 Ry
     ewald contribution        =    -442.67595598 Ry
     Dispersion Correction     =      -0.44976073 Ry

     convergence has been achieved in  12 iterations

     Forces acting on atoms (cartesian axes, Ry/au):

     atom    1 type  1   force =    -0.01330171    0.00593883   -0.00255132
     atom    2 type  1   force =     0.00145666   -0.00372566    0.01065511
     atom    3 type  1   force =     0.09302897   -0.09353661    0.08887479
     atom    4 type  1   force =    -0.00072802    0.00480079   -0.00796009
     atom    5 type  1   force =    -0.05905594   -0.06587813    0.32285997
     atom    6 type  1   force =    -0.17724690    0.14604352   -0.11270521
     atom    7 type  1   force =    -0.23322988    0.05912126    0.11430418
     atom    8 type  1   force =     0.04744094    0.08550497   -0.41868863
     atom    9 type  1   force =    -0.00815903    0.00400725    0.00182100
     atom   10 type  1   force =    -0.00048077   -0.06323142    0.22081443
     atom   11 type  2   force =     0.18528542    0.18353802   -0.04494362
     atom   12 type  2   force =    -0.22921860    0.09734864   -0.05912121
     atom   13 type  2   force =     0.04574942   -0.20955697   -0.15001964
     atom   14 type  1   force =     0.19749993   -0.05102500   -0.12575948
     atom   15 type  2   force =     0.02965084   -0.09469039    0.23728745
     atom   16 type  2   force =    -0.20857701   -0.10834113   -0.11495076
     atom   17 type  2   force =    -0.02636359    0.25761674    0.01084786
     atom   18 type  5   force =     0.02009454   -0.01771233   -0.03513006
     atom   19 type  4   force =    -0.01519908    0.00367837    0.00184897
     atom   20 type  3   force =     0.53282383   -0.21625439   -0.15655186
     atom   21 type  2   force =    -0.52445712    0.20751439    0.16832227
     atom   22 type  3   force =    -0.00860136   -0.00942098    0.02339478
     atom   23 type  2   force =    -0.11403414    0.10682064   -0.09778856
     atom   24 type  2   force =     0.06605127    0.07896046   -0.37331567
     atom   25 type  2   force =    -0.05140291   -0.09785782    0.46358781
     atom   26 type  2   force =     0.27474636   -0.07402674   -0.12721489
     atom   27 type  2   force =     0.18291121   -0.16403342    0.15483597
     atom   28 type  1   force =    -0.00145666   -0.00372566   -0.01065511
     atom   29 type  1   force =    -0.00145666    0.00372566   -0.01065511
     atom   30 type  1   force =     0.00145666    0.00372566    0.01065511
     atom   31 type  1   force =     0.01330171    0.00593883    0.00255132
     atom   32 type  1   force =     0.01330171   -0.00593883    0.00255132
     atom   33 type  1   force =    -0.01330171   -0.00593883   -0.00255132
     atom   34 type  1   force =    -0.09302897   -0.09353661   -0.08887479
     atom   35 type  1   force =    -0.09302897    0.09353661   -0.08887479
     atom   36 type  1   force =     0.09302897    0.09353661    0.08887479
     atom   37 type  1   force =     0.00072802    0.00480079    0.00796009
     atom   38 type  1   force =     0.00072802   -0.00480079    0.00796009
     atom   39 type  1   force =    -0.00072802   -0.00480079   -0.00796009
     atom   40 type  1   force =     0.05905594   -0.06587813   -0.32285997
     atom   41 type  1   force =     0.05905594    0.06587813   -0.32285997
     atom   42 type  1   force =    -0.05905594    0.06587813    0.32285997
     atom   43 type  1   force =     0.17724690    0.14604352    0.11270521
     atom   44 type  1   force =     0.17724690   -0.14604352    0.11270521
     atom   45 type  1   force =    -0.17724690   -0.14604352   -0.11270521
     atom   46 type  1   force =     0.23322988    0.05912126   -0.11430418
     atom   47 type  1   force =     0.23322988   -0.05912126   -0.11430418
     atom   48 type  1   force =    -0.23322988   -0.05912126    0.11430418
     atom   49 type  1   force =    -0.04744094    0.08550497    0.41868863
     atom   50 type  1   force =    -0.04744094   -0.08550497    0.41868863
     atom   51 type  1   force =     0.04744094   -0.08550497   -0.41868863
     atom   52 type  1   force =     0.00815903    0.00400725   -0.00182100
     atom   53 type  1   force =     0.00815903   -0.00400725   -0.00182100
     atom   54 type  1   force =    -0.00815903   -0.00400725    0.00182100
     atom   55 type  1   force =     0.00048077   -0.06323142   -0.22081443
     atom   56 type  1   force =     0.00048077    0.06323142   -0.22081443
     atom   57 type  1   force =    -0.00048077    0.06323142    0.22081443
     atom   58 type  2   force =    -0.18528542    0.18353802    0.04494362
     atom   59 type  2   force =    -0.18528542   -0.18353802    0.04494362
     atom   60 type  2   force =     0.18528542   -0.18353802   -0.04494362
     atom   61 type  2   force =     0.22921860    0.09734864    0.05912121
     atom   62 type  2   force =     0.22921860   -0.09734864    0.05912121
     atom   63 type  2   force =    -0.22921860   -0.09734864   -0.05912121
     atom   64 type  2   force =    -0.04574942   -0.20955697    0.15001964
     atom   65 type  2   force =    -0.04574942    0.20955697    0.15001964
     atom   66 type  2   force =     0.04574942    0.20955697   -0.15001964
     atom   67 type  1   force =    -0.19749993   -0.05102500    0.12575948
     atom   68 type  1   force =    -0.19749993    0.05102500    0.12575948
     atom   69 type  1   force =     0.19749993    0.05102500   -0.12575948
     atom   70 type  2   force =    -0.02965084   -0.09469039   -0.23728745
     atom   71 type  2   force =    -0.02965084    0.09469039   -0.23728745
     atom   72 type  2   force =     0.02965084    0.09469039    0.23728745
     atom   73 type  2   force =     0.20857701   -0.10834113    0.11495076
     atom   74 type  2   force =     0.20857701    0.10834113    0.11495076
     atom   75 type  2   force =    -0.20857701    0.10834113   -0.11495076
     atom   76 type  2   force =     0.02636359    0.25761674   -0.01084786
     atom   77 type  2   force =     0.02636359   -0.25761674   -0.01084786
     atom   78 type  2   force =    -0.02636359   -0.25761674    0.01084786
     atom   79 type  5   force =    -0.02009454   -0.01771233    0.03513006
     atom   80 type  5   force =    -0.02009454    0.01771233    0.03513006
     atom   81 type  5   force =     0.02009454    0.01771233   -0.03513006
     atom   82 type  4   force =     0.01519908    0.00367837   -0.00184897
     atom   83 type  4   force =     0.01519908   -0.00367837   -0.00184897
     atom   84 type  4   force =    -0.01519908   -0.00367837    0.00184897
     atom   85 type  3   force =    -0.53282383   -0.21625439    0.15655186
     atom   86 type  3   force =    -0.53282383    0.21625439    0.15655186
     atom   87 type  3   force =     0.53282383    0.21625439   -0.15655186
     atom   88 type  2   force =     0.52445712    0.20751439   -0.16832227
     atom   89 type  2   force =     0.52445712   -0.20751439   -0.16832227
     atom   90 type  2   force =    -0.52445712   -0.20751439    0.16832227
     atom   91 type  3   force =     0.00860136   -0.00942098   -0.02339478
     atom   92 type  3   force =     0.00860136    0.00942098   -0.02339478
     atom   93 type  3   force =    -0.00860136    0.00942098    0.02339478
     atom   94 type  2   force =     0.11403414    0.10682064    0.09778856
     atom   95 type  2   force =     0.11403414   -0.10682064    0.09778856
     atom   96 type  2   force =    -0.11403414   -0.10682064   -0.09778856
     atom   97 type  2   force =    -0.06605127    0.07896046    0.37331567
     atom   98 type  2   force =    -0.06605127   -0.07896046    0.37331567
     atom   99 type  2   force =     0.06605127   -0.07896046   -0.37331567
     atom  100 type  2   force =     0.05140291   -0.09785782   -0.46358781
     atom  101 type  2   force =     0.05140291    0.09785782   -0.46358781
     atom  102 type  2   force =    -0.05140291    0.09785782    0.46358781
     atom  103 type  2   force =    -0.27474636   -0.07402674    0.12721489
     atom  104 type  2   force =    -0.27474636    0.07402674    0.12721489
     atom  105 type  2   force =     0.27474636    0.07402674   -0.12721489
     atom  106 type  2   force =    -0.18291121   -0.16403342   -0.15483597
     atom  107 type  2   force =    -0.18291121    0.16403342   -0.15483597
     atom  108 type  2   force =     0.18291121    0.16403342    0.15483597

     Total force =     3.014817     Total SCF correction =     0.000361

     BFGS Geometry Optimization

     number of scf cycles    =   1
     number of bfgs steps    =   0

     energy   new            =   -1089.6270393910 Ry

     new trust radius        =       0.5000000000 bohr
     new conv_thr            =       0.0000001000 Ry


ATOMIC_POSITIONS (angstrom)
C        0.499784496   8.117746640   3.514627301
C       -0.785253291   8.503495933   4.152260507
C        0.922071684   8.511732942   2.278877370
C        1.400716784   7.282711386   4.211155990
C        7.267101180   9.154992363   3.542278789
C        2.541478437   6.981358328   3.587682741
C        2.867333908   7.389437816   2.437067149
C        6.131852153   9.576811284   3.810486564
C        2.085117669   8.171439084   1.718268460
C        5.063896553   0.104917411   2.149654059
H        5.825190391   0.875284608   1.878856570
H        4.103814780   0.540899469   1.800372204
H        5.258491177   9.661093868   1.437356407
C        3.974353217   0.045916646   4.174937092
H        3.999133958  10.066390705   5.224267517
H        3.020098936  10.021890241   3.766285794
H        3.769825466   1.136753023   4.277146080
F        2.443201287   8.607216330   0.462493455
N        5.066162130  10.136763070   3.445050881
O        1.346445563   6.727620445   5.379416327
H        0.143348971   7.198889296   5.753669331
O       -0.963908710   8.190717407   5.372896482
H        0.259692739   9.161534712   1.620235221
H        7.480924506   9.404755745   2.353250605
H        5.993778864   9.318984474   5.070977139
H        3.927307991   7.108184657   1.961560940
H        3.285566324   6.317024768   4.232791879
C        3.418073291   3.308495933   1.316669493
C        6.050903291   1.886504067   6.785609493
C        1.847576709   7.081504067   9.621200507
C        2.133035504   2.922746640   1.954312699
C        4.765865504   2.272253360   7.423242699
C        3.132614496   7.467253360   8.983567301
C        1.710758316   3.316732942   3.190062630
C        4.343588316   1.878267058   8.658992630
C        3.554891684   7.073267058   7.747817370
C        1.232113216   2.087711386   1.257784010
C        3.864933216   3.107288614   6.726714010
C        4.033546784   8.302288614   9.680095990
C        4.433928820   3.959992363   1.926651211
C       -2.001451180   1.235007637   7.395591211
C        0.831721180   6.430007637   9.011218789
C        0.091351563   1.786358328   1.881257259
C        2.724181563   3.408641672   7.350187259
C        5.174298437   8.603641672   9.056612741
C       -0.234513908   2.194437816   3.031872851
C        2.398316092   3.000562184   8.500812851
C        5.500163908   8.195562184   7.905997149
C        5.569177847   4.381811284   1.658453436
C       -0.866202153   0.813188716   7.127383436
C       -0.303527847   6.008188716   9.279426564
C        0.547702331   2.976439084   3.750661540
C        3.180532331   2.218560916   9.219601540
C        4.717947669   7.413560916   7.187208460
C        6.637133447   5.299917411   3.319285941
C        0.201753447  10.285082589   8.788215941
C       -1.371483447   5.090082589   7.618584059
H        5.875829609   6.070284608   3.590073430
H       -0.559540391   9.514715392   9.059013430
H       -0.610179609   4.319715392   7.347796570
H        7.597215220   5.735899469   3.668557796
H        1.161835220   9.849100531   9.137497796
H       -2.331565220   4.654100531   7.269312204
H        6.442538823   4.466093868   4.031583593
H        0.007158823   0.728906132   9.500513593
H       -1.176888823   5.923906132   6.906286407
C        7.726676783   5.240916646   1.294002908
C        1.291296783  10.344083354   6.762932908
C       -2.461026783   5.149083354   9.643867092
H        7.701896042   4.871390705   0.244662483
H        1.266516042   0.323609295   5.713602483
H       -2.436246042   5.518609295  10.693207517
H       -0.387278936   4.826890241   1.702654206
H        2.245551064   0.368109759   7.171584206
H        5.652928936   5.563109759   9.235215794
H        7.931194534   6.331753023   1.191783920
H        1.495824534   9.253246977   6.660723920
H       -2.665544534   4.058246977   9.746086080
F        0.189628713   3.412216330   5.006436545
F        2.822448713   1.782783670  10.475376545
F        5.076021287   6.977783670   5.931433455
N        6.634857870   4.941763070   2.023889119
N        0.199487870   0.253236930   7.492819119
N       -1.369207870   5.448236930   8.913980881
O        1.286384437   1.532620445   0.089523673
O        3.919204437   3.662379555   5.558453673
O        3.979265563   8.857379555  10.848346327
H       -1.313078971   2.003889296  10.653130669
H        5.122301029   3.191110704   5.184200669
H        6.578728971   8.386110704   0.284739331
O        3.596728710   2.995717407   0.096043518
O        6.229558710   2.199282593   5.564973518
O        1.668921290   7.394282593  10.841836482
H        2.373137261   3.966534712   3.848704779
H        5.005957261   1.228465288   9.317634779
H        2.892512739   6.423465288   7.089175221
H        4.220095494   4.209755745   3.115679395
H       -2.215274506   0.985244255   8.584619395
H        1.045554506   6.180244255   7.822190605
H        5.707251136   4.123984474   0.397952861
H       -0.728128864   1.071015526   5.866892861
H       -0.441601136   6.266015526  10.539917139
H       -1.294477991   1.913184657   3.507379060
H        1.338352009   3.281815343   8.976309060
H        6.560127991   8.476815343   7.430490940
H        8.415463676   1.122024768   1.236148121
H        1.980083676   4.072975232   6.705078121
H       -3.149813676   9.267975232   9.701721879



     Writing output data file 2HP-4.save
     charge density from previous step

     Check: negative/imaginary core charge=   -0.000685    0.000000

     total cpu time spent up to now is     3442.5 secs

     per-process dynamical memory:   843.3 Mb

     Self-consistent Calculation

     iteration #  1     ecut=    30.00 Ry     beta=0.70
     Davidson diagonalization with overlap
     ethr =  1.00E-06,  avg # of iterations = 15.0

     total cpu time spent up to now is     4309.9 secs

     total energy              =   -1077.02233416 Ry
     Harris-Foulkes estimate   =   -1109.85520874 Ry
     estimated scf accuracy    <      44.91171673 Ry

     iteration #  2     ecut=    30.00 Ry     beta=0.70
     Davidson diagonalization with overlap
     ethr =  1.00E-02,  avg # of iterations =  5.0

     total cpu time spent up to now is     4625.7 secs

     total energy              =   -1079.10656188 Ry
     Harris-Foulkes estimate   =   -1095.86961450 Ry
     estimated scf accuracy    <      29.21510278 Ry

     iteration #  3     ecut=    30.00 Ry     beta=0.70
     Davidson diagonalization with overlap
     ethr =  9.13E-03,  avg # of iterations =  4.0

     total cpu time spent up to now is     4918.0 secs

     total energy              =   -1087.07844000 Ry
     Harris-Foulkes estimate   =   -1093.77646735 Ry
     estimated scf accuracy    <      17.74290832 Ry

     iteration #  4     ecut=    30.00 Ry     beta=0.70
     Davidson diagonalization with overlap
     ethr =  5.54E-03,  avg # of iterations =  3.0

     total cpu time spent up to now is     5148.4 secs

     total energy              =   -1089.82602358 Ry
     Harris-Foulkes estimate   =   -1090.48595508 Ry
     estimated scf accuracy    <       1.53395201 Ry

     iteration #  5     ecut=    30.00 Ry     beta=0.70
     Davidson diagonalization with overlap
     ethr =  4.79E-04,  avg # of iterations =  3.0

     total cpu time spent up to now is     5389.7 secs

     total energy              =   -1090.05288819 Ry
     Harris-Foulkes estimate   =   -1090.11006849 Ry
     estimated scf accuracy    <       0.14525516 Ry

     iteration #  6     ecut=    30.00 Ry     beta=0.70
     Davidson diagonalization with overlap
     ethr =  4.54E-05,  avg # of iterations =  3.2

     total cpu time spent up to now is     5641.7 secs

     total energy              =   -1090.06629143 Ry
     Harris-Foulkes estimate   =   -1090.08383683 Ry
     estimated scf accuracy    <       0.04314178 Ry

     iteration #  7     ecut=    30.00 Ry     beta=0.70
     Davidson diagonalization with overlap
     ethr =  1.35E-05,  avg # of iterations =  3.9

     total cpu time spent up to now is     5882.8 secs

     total energy              =   -1090.07324926 Ry
     Harris-Foulkes estimate   =   -1090.07485466 Ry
     estimated scf accuracy    <       0.00364340 Ry

     iteration #  8     ecut=    30.00 Ry     beta=0.70
     Davidson diagonalization with overlap
     ethr =  1.14E-06,  avg # of iterations =  4.0

     total cpu time spent up to now is     6164.6 secs

     total energy              =   -1090.07395057 Ry
     Harris-Foulkes estimate   =   -1090.07455201 Ry
     estimated scf accuracy    <       0.00129311 Ry

     iteration #  9     ecut=    30.00 Ry     beta=0.70
     Davidson diagonalization with overlap
     ethr =  4.04E-07,  avg # of iterations =  4.0

     total cpu time spent up to now is     6431.4 secs

     total energy              =   -1090.07421861 Ry
     Harris-Foulkes estimate   =   -1090.07429816 Ry
     estimated scf accuracy    <       0.00017851 Ry

     iteration # 10     ecut=    30.00 Ry     beta=0.70
     Davidson diagonalization with overlap
     ethr =  5.58E-08,  avg # of iterations =  4.0

     total cpu time spent up to now is     6689.3 secs

     total energy              =   -1090.07425317 Ry
     Harris-Foulkes estimate   =   -1090.07425700 Ry
     estimated scf accuracy    <       0.00000810 Ry

     iteration # 11     ecut=    30.00 Ry     beta=0.70
     Davidson diagonalization with overlap
     ethr =  2.53E-09,  avg # of iterations =  4.0

     total cpu time spent up to now is     6980.8 secs

     total energy              =   -1090.07425531 Ry
     Harris-Foulkes estimate   =   -1090.07425649 Ry
     estimated scf accuracy    <       0.00000291 Ry

     iteration # 12     ecut=    30.00 Ry     beta=0.70
     Davidson diagonalization with overlap
     ethr =  9.10E-10,  avg # of iterations =  3.0

     total cpu time spent up to now is     7225.2 secs

     total energy              =   -1090.07425583 Ry
     Harris-Foulkes estimate   =   -1090.07425589 Ry
     estimated scf accuracy    <       0.00000013 Ry

     iteration # 13     ecut=    30.00 Ry     beta=0.70
     Davidson diagonalization with overlap
     ethr =  4.21E-11,  avg # of iterations =  3.5

     total cpu time spent up to now is     7504.7 secs

     End of self-consistent calculation

          k = 0.0000 0.0000 0.0000 ( 19295 PWs)   bands (ev):

   -24.2502 -24.2500 -24.2498 -24.2498 -20.1510 -20.1416 -20.1363 -20.1330
   -19.8693 -19.8671 -19.8663 -19.8632 -19.5869 -19.5864 -19.5857 -19.5841
   -15.9369 -15.9217 -15.9166 -15.9040 -14.1818 -14.1611 -14.1546 -14.1375
   -13.1577 -13.1533 -13.1449 -13.1419 -12.6150 -12.6089 -12.5927 -12.5639
   -12.1833 -12.1621 -12.1533 -12.1307 -11.8431 -11.8337 -11.8125 -11.8062
   -10.0941 -10.0669 -10.0239 -10.0166  -9.2522  -9.1564  -9.1092  -9.0912
    -8.7023  -8.5875  -8.4949  -8.4918  -7.9244  -7.8601  -7.8577  -7.7601
    -7.3948  -7.3922  -7.3006  -7.2111  -6.9951  -6.9656  -6.9568  -6.9066
    -6.6102  -6.6072  -6.5817  -6.5525  -6.4483  -6.4034  -6.3467  -6.3441
    -6.1089  -6.0178  -6.0171  -5.9657  -5.7832  -5.7160  -5.6719  -5.6329
    -5.3367  -5.2808  -5.2154  -5.1856  -5.1183  -5.1103  -5.0436  -5.0260
    -4.6769  -4.4669  -4.4578  -4.4528  -4.3691  -4.3500  -4.3261  -4.3180
    -3.9216  -3.9148  -3.9087  -3.8039  -3.7907  -3.7690  -3.7637  -3.7555
    -3.6754  -3.6620  -3.6407  -3.6021  -3.5678  -3.5603  -3.5322  -3.5103
    -3.4646  -3.4531  -3.4277  -3.3954  -3.3259  -3.2631  -3.1793  -3.1277
    -3.0024  -2.8855  -2.8781  -2.8687  -2.4503  -2.3945  -2.1915  -2.1892
    -2.0727  -2.0533  -2.0107  -2.0053  -1.9486  -1.8970  -1.8576  -1.8459
    -1.8137  -1.7435  -1.6287  -1.5942  -0.9492  -0.9426  -0.8835  -0.8367
    -0.7643  -0.7465  -0.5527  -0.5279  -0.1808  -0.1364   0.1187   0.1493
     0.3946   0.4251   0.4403   0.5979   0.9312   0.9629   1.0128   1.0886

          k = 0.0000 0.0000-0.4145 ( 19300 PWs)   bands (ev):

   -24.2502 -24.2500 -24.2499 -24.2498 -20.1465 -20.1463 -20.1347 -20.1345
   -19.8678 -19.8678 -19.8651 -19.8650 -19.5865 -19.5864 -19.5852 -19.5851
   -15.9269 -15.9268 -15.9129 -15.9128 -14.1746 -14.1745 -14.1431 -14.1430
   -13.1563 -13.1561 -13.1430 -13.1429 -12.6094 -12.6093 -12.5809 -12.5808
   -12.1702 -12.1701 -12.1435 -12.1434 -11.8378 -11.8376 -11.8113 -11.8112
   -10.0603 -10.0603 -10.0421 -10.0420  -9.1836  -9.1835  -9.1191  -9.1190
    -8.5973  -8.5973  -8.5435  -8.5434  -7.9449  -7.9448  -7.7687  -7.7687
    -7.3782  -7.3782  -7.2493  -7.2492  -7.0339  -7.0339  -6.9006  -6.9006
    -6.6154  -6.6154  -6.5976  -6.5975  -6.4235  -6.4234  -6.3393  -6.3392
    -6.0035  -6.0035  -5.9399  -5.9398  -5.7447  -5.7447  -5.6745  -5.6744
    -5.2523  -5.2523  -5.2079  -5.2079  -5.1618  -5.1617  -5.0322  -5.0322
    -4.6243  -4.6243  -4.5032  -4.5031  -4.4187  -4.4187  -4.3308  -4.3307
    -3.9617  -3.9617  -3.9220  -3.9219  -3.7471  -3.7471  -3.6846  -3.6845
    -3.6405  -3.6405  -3.5899  -3.5898  -3.5655  -3.5654  -3.5242  -3.5241
    -3.4430  -3.4429  -3.4266  -3.4266  -3.1863  -3.1862  -3.1433  -3.1433
    -2.9341  -2.9340  -2.8870  -2.8869  -2.3253  -2.3253  -2.2977  -2.2977
    -2.1094  -2.1093  -1.9870  -1.9869  -1.9503  -1.9502  -1.8549  -1.8548
    -1.7876  -1.7876  -1.5987  -1.5986  -0.9285  -0.9284  -0.8974  -0.8973
    -0.7432  -0.7431  -0.5328  -0.5328  -0.0379  -0.0379   0.0078   0.0078
     0.4000   0.4001   0.5325   0.5326   0.9727   0.9728   1.0266   1.0266

          k = 0.0000-0.4364 0.0000 ( 19270 PWs)   bands (ev):

   -24.2502 -24.2500 -24.2498 -24.2497 -20.1457 -20.1455 -20.1355 -20.1354
   -19.8683 -19.8683 -19.8644 -19.8644 -19.5894 -19.5893 -19.5824 -19.5822
   -15.9294 -15.9294 -15.9103 -15.9103 -14.1686 -14.1684 -14.1492 -14.1491
   -13.1541 -13.1539 -13.1444 -13.1442 -12.6124 -12.6123 -12.5778 -12.5778
   -12.1747 -12.1747 -12.1404 -12.1403 -11.8279 -11.8278 -11.8207 -11.8207
   -10.0794 -10.0794 -10.0199 -10.0199  -9.2082  -9.2081  -9.0993  -9.0993
    -8.6441  -8.6441  -8.4916  -8.4916  -7.9014  -7.9013  -7.8017  -7.8017
    -7.4007  -7.4007  -7.2470  -7.2470  -6.9837  -6.9836  -6.9333  -6.9333
    -6.6073  -6.6073  -6.5650  -6.5649  -6.3985  -6.3985  -6.3803  -6.3803
    -6.0602  -6.0602  -5.9808  -5.9807  -5.7768  -5.7768  -5.6356  -5.6356
    -5.3115  -5.3115  -5.1398  -5.1397  -5.1188  -5.1187  -5.0908  -5.0908
    -4.5492  -4.5492  -4.4793  -4.4792  -4.3845  -4.3845  -4.2922  -4.2921
    -3.9112  -3.9112  -3.8653  -3.8652  -3.7720  -3.7720  -3.7358  -3.7358
    -3.6774  -3.6773  -3.6378  -3.6378  -3.5450  -3.5450  -3.5274  -3.5274
    -3.4506  -3.4505  -3.4189  -3.4188  -3.3168  -3.3167  -3.1560  -3.1560
    -2.9466  -2.9466  -2.8712  -2.8711  -2.4237  -2.4236  -2.1908  -2.1908
    -2.0385  -2.0384  -1.9796  -1.9795  -1.9668  -1.9667  -1.8347  -1.8347
    -1.7316  -1.7316  -1.6613  -1.6612  -0.9413  -0.9412  -0.8749  -0.8748
    -0.6661  -0.6661  -0.6249  -0.6248  -0.1599  -0.1599   0.1359   0.1359
     0.4315   0.4315   0.5041   0.5042   0.9362   0.9362   1.0520   1.0520

          k = 0.0000-0.4364-0.4145 ( 19320 PWs)   bands (ev):

   -24.2502 -24.2501 -24.2499 -24.2498 -20.1445 -20.1444 -20.1368 -20.1366
   -19.8679 -19.8678 -19.8648 -19.8648 -19.5893 -19.5892 -19.5825 -19.5824
   -15.9207 -15.9205 -15.9192 -15.9190 -14.1684 -14.1682 -14.1496 -14.1494
   -13.1544 -13.1543 -13.1444 -13.1443 -12.6067 -12.6066 -12.5835 -12.5834
   -12.1585 -12.1583 -12.1558 -12.1557 -11.8253 -11.8253 -11.8243 -11.8243
   -10.0528 -10.0528 -10.0482 -10.0481  -9.1691  -9.1690  -9.1343  -9.1342
    -8.5825  -8.5824  -8.5584  -8.5582  -7.9455  -7.9455  -7.7691  -7.7691
    -7.3630  -7.3630  -7.2637  -7.2636  -7.0380  -7.0380  -6.9012  -6.9011
    -6.6054  -6.6052  -6.6034  -6.6033  -6.3969  -6.3969  -6.3753  -6.3752
    -5.9834  -5.9834  -5.9553  -5.9552  -5.7251  -5.7250  -5.6986  -5.6985
    -5.2514  -5.2513  -5.1915  -5.1915  -5.1186  -5.1185  -5.0950  -5.0949
    -4.5468  -4.5468  -4.5109  -4.5109  -4.4244  -4.4244  -4.3897  -4.3897
    -3.9810  -3.9810  -3.9214  -3.9214  -3.7103  -3.7103  -3.7019  -3.7018
    -3.6610  -3.6610  -3.5795  -3.5795  -3.5147  -3.5147  -3.5044  -3.5043
    -3.4708  -3.4707  -3.4696  -3.4695  -3.1799  -3.1798  -3.1557  -3.1556
    -2.9155  -2.9155  -2.8982  -2.8982  -2.3280  -2.3280  -2.3043  -2.3042
    -2.0439  -2.0438  -2.0367  -2.0367  -1.9431  -1.9430  -1.8645  -1.8644
    -1.6970  -1.6968  -1.6798  -1.6797  -0.9322  -0.9320  -0.9031  -0.9029
    -0.6450  -0.6449  -0.6274  -0.6273  -0.0299  -0.0298   0.0011   0.0011
     0.4450   0.4450   0.4934   0.4935   0.9831   0.9832   1.0060   1.0061

          k =-0.5000 0.0000-0.1738 ( 19314 PWs)   bands (ev):

   -24.2502 -24.2500 -24.2499 -24.2498 -20.1439 -20.1437 -20.1363 -20.1361
   -19.8696 -19.8695 -19.8658 -19.8658 -19.5887 -19.5885 -19.5816 -19.5814
   -15.9281 -15.9280 -15.9133 -15.9132 -14.1575 -14.1573 -14.1469 -14.1467
   -13.1783 -13.1782 -13.1415 -13.1414 -12.6190 -12.6190 -12.5707 -12.5706
   -12.1792 -12.1792 -12.1478 -12.1478 -11.8268 -11.8267 -11.7945 -11.7944
   -10.0668 -10.0667 -10.0509 -10.0509  -9.1699  -9.1699  -9.1234  -9.1234
    -8.5883  -8.5883  -8.5408  -8.5407  -7.9811  -7.9811  -7.7294  -7.7294
    -7.3737  -7.3737  -7.2578  -7.2578  -7.0761  -7.0760  -6.8798  -6.8798
    -6.6164  -6.6163  -6.5652  -6.5652  -6.4398  -6.4396  -6.3399  -6.3397
    -6.0083  -6.0082  -5.9898  -5.9898  -5.7184  -5.7184  -5.6469  -5.6469
    -5.2872  -5.2871  -5.2343  -5.2343  -5.1763  -5.1762  -5.0060  -5.0060
    -4.5239  -4.5239  -4.4500  -4.4499  -4.3900  -4.3899  -4.2929  -4.2928
    -3.9995  -3.9993  -3.8982  -3.8982  -3.8097  -3.8096  -3.7866  -3.7865
    -3.6664  -3.6664  -3.6207  -3.6207  -3.5852  -3.5852  -3.5059  -3.5058
    -3.4139  -3.4138  -3.3864  -3.3864  -3.1707  -3.1706  -3.1596  -3.1595
    -2.9461  -2.9461  -2.8753  -2.8753  -2.4805  -2.4805  -2.3574  -2.3574
    -2.0466  -2.0466  -2.0051  -2.0051  -1.9872  -1.9871  -1.8046  -1.8045
    -1.6876  -1.6875  -1.5591  -1.5591  -0.9218  -0.9217  -0.8892  -0.8891
    -0.7747  -0.7746  -0.5296  -0.5295  -0.0423  -0.0423  -0.0003  -0.0003
     0.4865   0.4867   0.5443   0.5444   0.9392   0.9392   1.0763   1.0764

          k =-0.5000 0.0000-0.5884 ( 19322 PWs)   bands (ev):

   -24.2502 -24.2501 -24.2499 -24.2498 -20.1477 -20.1398 -20.1383 -20.1340
   -19.8713 -19.8680 -19.8673 -19.8642 -19.5889 -19.5882 -19.5826 -19.5806
   -15.9365 -15.9205 -15.9194 -15.9060 -14.1615 -14.1518 -14.1486 -14.1470
   -13.1908 -13.1654 -13.1570 -13.1261 -12.6165 -12.6065 -12.5791 -12.5781
   -12.1942 -12.1671 -12.1634 -12.1317 -11.8133 -11.8119 -11.8092 -11.8036
   -10.0975 -10.0742 -10.0316 -10.0298  -9.2099  -9.1602  -9.1302  -9.0868
    -8.6657  -8.5852  -8.5089  -8.4945  -7.9157  -7.8931  -7.8517  -7.8096
    -7.3893  -7.3693  -7.3100  -7.1928  -6.9689  -6.9676  -6.9578  -6.9389
    -6.6813  -6.6485  -6.5552  -6.5050  -6.4530  -6.4355  -6.3611  -6.3279
    -6.1563  -5.9756  -5.9450  -5.8792  -5.7716  -5.6877  -5.6804  -5.6590
    -5.4468  -5.3529  -5.2084  -5.1477  -5.0236  -5.0093  -4.9704  -4.9678
    -4.5728  -4.5547  -4.5244  -4.5226  -4.4789  -4.4057  -4.3944  -4.3165
    -4.0259  -3.9434  -3.8598  -3.8385  -3.8213  -3.7882  -3.7669  -3.6995
    -3.6872  -3.6398  -3.6208  -3.5556  -3.5335  -3.5294  -3.5191  -3.4930
    -3.4321  -3.4192  -3.3765  -3.3453  -3.2915  -3.2835  -3.2086  -3.1893
    -2.9515  -2.9256  -2.8919  -2.8841  -2.4317  -2.3700  -2.3423  -2.3353
    -2.1312  -2.0494  -2.0185  -2.0167  -1.9751  -1.9379  -1.8529  -1.7993
    -1.7917  -1.7662  -1.5222  -1.4061  -0.9475  -0.9314  -0.9095  -0.8606
    -0.7848  -0.7527  -0.5498  -0.5099  -0.0583  -0.0322  -0.0133   0.0025
     0.4589   0.5008   0.5163   0.5846   0.8719   1.0153   1.0427   1.1063

          k =-0.5000-0.4364-0.1738 ( 19308 PWs)   bands (ev):

   -24.2502 -24.2500 -24.2498 -24.2498 -20.1454 -20.1453 -20.1346 -20.1344
   -19.8695 -19.8694 -19.8661 -19.8661 -19.5856 -19.5854 -19.5846 -19.5844
   -15.9217 -15.9214 -15.9200 -15.9197 -14.1566 -14.1565 -14.1476 -14.1475
   -13.1627 -13.1626 -13.1575 -13.1573 -12.6187 -12.6186 -12.5713 -12.5713
   -12.1636 -12.1634 -12.1634 -12.1633 -11.8261 -11.8260 -11.7946 -11.7946
   -10.0658 -10.0657 -10.0522 -10.0521  -9.1503  -9.1502  -9.1426  -9.1425
    -8.5832  -8.5831  -8.5468  -8.5466  -7.9797  -7.9796  -7.7272  -7.7272
    -7.3702  -7.3701  -7.2679  -7.2678  -7.0746  -7.0746  -6.8746  -6.8745
    -6.5959  -6.5958  -6.5899  -6.5897  -6.4162  -6.4161  -6.3688  -6.3688
    -6.0202  -6.0202  -5.9768  -5.9768  -5.7073  -5.7072  -5.6603  -5.6602
    -5.2694  -5.2694  -5.2474  -5.2473  -5.1064  -5.1062  -5.0721  -5.0719
    -4.5018  -4.5018  -4.4636  -4.4636  -4.3649  -4.3649  -4.3432  -4.3431
    -3.9577  -3.9576  -3.9360  -3.9360  -3.8350  -3.8350  -3.7153  -3.7152
    -3.6869  -3.6869  -3.6470  -3.6470  -3.5569  -3.5569  -3.5482  -3.5482
    -3.4059  -3.4058  -3.3691  -3.3691  -3.1820  -3.1818  -3.1595  -3.1595
    -2.9482  -2.9482  -2.8751  -2.8751  -2.4492  -2.4492  -2.3723  -2.3722
    -2.0651  -2.0650  -2.0075  -2.0074  -1.9086  -1.9086  -1.8589  -1.8588
    -1.6407  -1.6406  -1.6129  -1.6128  -0.9256  -0.9255  -0.8916  -0.8915
    -0.6696  -0.6694  -0.6324  -0.6323  -0.0466  -0.0466   0.0040   0.0041
     0.5145   0.5145   0.5190   0.5190   0.9951   0.9951   1.0206   1.0207

          k =-0.5000-0.4364-0.5884 ( 19296 PWs)   bands (ev):

   -24.2502 -24.2501 -24.2498 -24.2498 -20.1462 -20.1461 -20.1338 -20.1336
   -19.8699 -19.8699 -19.8657 -19.8657 -19.5859 -19.5858 -19.5842 -19.5841
   -15.9286 -15.9285 -15.9127 -15.9127 -14.1571 -14.1570 -14.1473 -14.1472
   -13.1745 -13.1745 -13.1455 -13.1455 -12.6118 -12.6117 -12.5785 -12.5785
   -12.1824 -12.1823 -12.1457 -12.1456 -11.8127 -11.8127 -11.8059 -11.8059
   -10.0871 -10.0870 -10.0297 -10.0296  -9.1872  -9.1872  -9.1070  -9.1069
    -8.6258  -8.6258  -8.5008  -8.5008  -7.9005  -7.9005  -7.8328  -7.8328
    -7.3944  -7.3943  -7.2406  -7.2406  -6.9703  -6.9703  -6.9398  -6.9398
    -6.6696  -6.6696  -6.5233  -6.5233  -6.4163  -6.4162  -6.3977  -6.3977
    -6.0484  -6.0484  -5.9112  -5.9112  -5.7392  -5.7392  -5.6632  -5.6631
    -5.4030  -5.4030  -5.1218  -5.1217  -5.0687  -5.0686  -4.9766  -4.9765
    -4.5720  -4.5719  -4.5425  -4.5425  -4.4267  -4.4267  -4.3186  -4.3186
    -3.9461  -3.9460  -3.8701  -3.8701  -3.8306  -3.8306  -3.7188  -3.7188
    -3.6902  -3.6901  -3.6107  -3.6106  -3.5623  -3.5623  -3.4778  -3.4778
    -3.4090  -3.4090  -3.3523  -3.3522  -3.2906  -3.2905  -3.2039  -3.2039
    -2.9306  -2.9306  -2.8940  -2.8940  -2.3990  -2.3990  -2.3240  -2.3240
    -2.0502  -2.0502  -1.9833  -1.9833  -1.9493  -1.9493  -1.9231  -1.9230
    -1.7710  -1.7709  -1.4563  -1.4563  -0.9497  -0.9495  -0.8838  -0.8837
    -0.6655  -0.6653  -0.6292  -0.6291  -0.0503  -0.0502  -0.0007  -0.0007
     0.4790   0.4791   0.5523   0.5523   0.9588   0.9588   1.0605   1.0606

     highest occupied level (ev):     1.1063

!    total energy              =   -1090.07425586 Ry
     Harris-Foulkes estimate   =   -1090.07425588 Ry
     estimated scf accuracy    <       0.00000002 Ry

     The total energy is the sum of the following terms:

     one-electron contribution =    -879.28920087 Ry
     hartree contribution      =     551.41885265 Ry
     xc contribution           =    -308.77977560 Ry
     ewald contribution        =    -452.96697070 Ry
     Dispersion Correction     =      -0.45716134 Ry

     convergence has been achieved in  13 iterations

     Forces acting on atoms (cartesian axes, Ry/au):

     atom    1 type  1   force =    -0.05178759   -0.00876194    0.07130257
     atom    2 type  1   force =     0.06905875   -0.04244915    0.03898219
     atom    3 type  1   force =    -0.11775627    0.11455434   -0.11220820
     atom    4 type  1   force =    -0.04236545    0.01732749    0.00775996
     atom    5 type  1   force =     0.21452970    0.02012407   -0.38955473
     atom    6 type  1   force =     0.13119150   -0.16923552    0.21301922
     atom    7 type  1   force =     0.29185553   -0.03033152   -0.22953099
     atom    8 type  1   force =    -0.16464623   -0.04964416    0.46002540
     atom    9 type  1   force =    -0.03844709    0.05400858   -0.06931893
     atom   10 type  1   force =    -0.02360409    0.07664858   -0.23267276
     atom   11 type  2   force =    -0.00156374   -0.00225476    0.00809073
     atom   12 type  2   force =     0.00620869   -0.00693015    0.01096380
     atom   13 type  2   force =    -0.00334508   -0.00061675    0.01184336
     atom   14 type  1   force =    -0.15936350    0.03467539    0.12837733
     atom   15 type  2   force =     0.01704941   -0.00287814   -0.01479856
     atom   16 type  2   force =     0.01717591   -0.00191085   -0.00896306
     atom   17 type  2   force =     0.01214546   -0.00312768   -0.00953761
     atom   18 type  5   force =     0.00439923   -0.02374682   -0.01316651
     atom   19 type  4   force =     0.01131315    0.00453738   -0.05442802
     atom   20 type  3   force =    -0.18832554    0.02649955    0.13296044
     atom   21 type  2   force =     0.07185842    0.00139074   -0.04498581
     atom   22 type  3   force =     0.04814440   -0.07473399    0.08148915
     atom   23 type  2   force =     0.02348194   -0.02545038    0.03470148
     atom   24 type  2   force =     0.00392294   -0.02703326    0.09035206
     atom   25 type  2   force =     0.00227262    0.02043023   -0.10131906
     atom   26 type  2   force =    -0.07810117    0.01788308    0.03449195
     atom   27 type  2   force =    -0.05178491    0.04717820   -0.04996326
     atom   28 type  1   force =    -0.06905875   -0.04244915   -0.03898219
     atom   29 type  1   force =    -0.06905875    0.04244915   -0.03898219
     atom   30 type  1   force =     0.06905875    0.04244915    0.03898219
     atom   31 type  1   force =     0.05178759   -0.00876194   -0.07130257
     atom   32 type  1   force =     0.05178759    0.00876194   -0.07130257
     atom   33 type  1   force =    -0.05178759    0.00876194    0.07130257
     atom   34 type  1   force =     0.11775627    0.11455434    0.11220820
     atom   35 type  1   force =     0.11775627   -0.11455434    0.11220820
     atom   36 type  1   force =    -0.11775627   -0.11455434   -0.11220820
     atom   37 type  1   force =     0.04236545    0.01732749   -0.00775996
     atom   38 type  1   force =     0.04236545   -0.01732749   -0.00775996
     atom   39 type  1   force =    -0.04236545   -0.01732749    0.00775996
     atom   40 type  1   force =    -0.21452970    0.02012407    0.38955473
     atom   41 type  1   force =    -0.21452970   -0.02012407    0.38955473
     atom   42 type  1   force =     0.21452970   -0.02012407   -0.38955473
     atom   43 type  1   force =    -0.13119150   -0.16923552   -0.21301922
     atom   44 type  1   force =    -0.13119150    0.16923552   -0.21301922
     atom   45 type  1   force =     0.13119150    0.16923552    0.21301922
     atom   46 type  1   force =    -0.29185553   -0.03033152    0.22953099
     atom   47 type  1   force =    -0.29185553    0.03033152    0.22953099
     atom   48 type  1   force =     0.29185553    0.03033152   -0.22953099
     atom   49 type  1   force =     0.16464623   -0.04964416   -0.46002540
     atom   50 type  1   force =     0.16464623    0.04964416   -0.46002540
     atom   51 type  1   force =    -0.16464623    0.04964416    0.46002540
     atom   52 type  1   force =     0.03844709    0.05400858    0.06931893
     atom   53 type  1   force =     0.03844709   -0.05400858    0.06931893
     atom   54 type  1   force =    -0.03844709   -0.05400858   -0.06931893
     atom   55 type  1   force =     0.02360409    0.07664858    0.23267276
     atom   56 type  1   force =     0.02360409   -0.07664858    0.23267276
     atom   57 type  1   force =    -0.02360409   -0.07664858   -0.23267276
     atom   58 type  2   force =     0.00156374   -0.00225476   -0.00809073
     atom   59 type  2   force =     0.00156374    0.00225476   -0.00809073
     atom   60 type  2   force =    -0.00156374    0.00225476    0.00809073
     atom   61 type  2   force =    -0.00620869   -0.00693015   -0.01096380
     atom   62 type  2   force =    -0.00620869    0.00693015   -0.01096380
     atom   63 type  2   force =     0.00620869    0.00693015    0.01096380
     atom   64 type  2   force =     0.00334508   -0.00061675   -0.01184336
     atom   65 type  2   force =     0.00334508    0.00061675   -0.01184336
     atom   66 type  2   force =    -0.00334508    0.00061675    0.01184336
     atom   67 type  1   force =     0.15936350    0.03467539   -0.12837733
     atom   68 type  1   force =     0.15936350   -0.03467539   -0.12837733
     atom   69 type  1   force =    -0.15936350   -0.03467539    0.12837733
     atom   70 type  2   force =    -0.01704941   -0.00287814    0.01479856
     atom   71 type  2   force =    -0.01704941    0.00287814    0.01479856
     atom   72 type  2   force =     0.01704941    0.00287814   -0.01479856
     atom   73 type  2   force =    -0.01717591   -0.00191085    0.00896306
     atom   74 type  2   force =    -0.01717591    0.00191085    0.00896306
     atom   75 type  2   force =     0.01717591    0.00191085   -0.00896306
     atom   76 type  2   force =    -0.01214546   -0.00312768    0.00953761
     atom   77 type  2   force =    -0.01214546    0.00312768    0.00953761
     atom   78 type  2   force =     0.01214546    0.00312768   -0.00953761
     atom   79 type  5   force =    -0.00439923   -0.02374682    0.01316651
     atom   80 type  5   force =    -0.00439923    0.02374682    0.01316651
     atom   81 type  5   force =     0.00439923    0.02374682   -0.01316651
     atom   82 type  4   force =    -0.01131315    0.00453738    0.05442802
     atom   83 type  4   force =    -0.01131315   -0.00453738    0.05442802
     atom   84 type  4   force =     0.01131315   -0.00453738   -0.05442802
     atom   85 type  3   force =     0.18832554    0.02649955   -0.13296044
     atom   86 type  3   force =     0.18832554   -0.02649955   -0.13296044
     atom   87 type  3   force =    -0.18832554   -0.02649955    0.13296044
     atom   88 type  2   force =    -0.07185842    0.00139074    0.04498581
     atom   89 type  2   force =    -0.07185842   -0.00139074    0.04498581
     atom   90 type  2   force =     0.07185842   -0.00139074   -0.04498581
     atom   91 type  3   force =    -0.04814440   -0.07473399   -0.08148915
     atom   92 type  3   force =    -0.04814440    0.07473399   -0.08148915
     atom   93 type  3   force =     0.04814440    0.07473399    0.08148915
     atom   94 type  2   force =    -0.02348194   -0.02545038   -0.03470148
     atom   95 type  2   force =    -0.02348194    0.02545038   -0.03470148
     atom   96 type  2   force =     0.02348194    0.02545038    0.03470148
     atom   97 type  2   force =    -0.00392294   -0.02703326   -0.09035206
     atom   98 type  2   force =    -0.00392294    0.02703326   -0.09035206
     atom   99 type  2   force =     0.00392294    0.02703326    0.09035206
     atom  100 type  2   force =    -0.00227262    0.02043023    0.10131906
     atom  101 type  2   force =    -0.00227262   -0.02043023    0.10131906
     atom  102 type  2   force =     0.00227262   -0.02043023   -0.10131906
     atom  103 type  2   force =     0.07810117    0.01788308   -0.03449195
     atom  104 type  2   force =     0.07810117   -0.01788308   -0.03449195
     atom  105 type  2   force =    -0.07810117   -0.01788308    0.03449195
     atom  106 type  2   force =     0.05178491    0.04717820    0.04996326
     atom  107 type  2   force =     0.05178491   -0.04717820    0.04996326
     atom  108 type  2   force =    -0.05178491   -0.04717820   -0.04996326

     Total force =     1.957495     Total SCF correction =     0.000382

     number of scf cycles    =   2
     number of bfgs steps    =   1

     energy   old            =   -1089.6270393910 Ry
     energy   new            =   -1090.0742558635 Ry

     CASE: energy  _new < energy  _old

     new trust radius        =       0.2756120300 bohr
     new conv_thr            =       0.0000001000 Ry


ATOMIC_POSITIONS (angstrom)
C        0.479446493   8.115019422   3.540810630
C       -0.759551595   8.487450891   4.167625576
C        0.886570865   8.546003738   2.245069114
C        1.384964007   7.289546756   4.213335973
C        7.341401416   9.156703169   3.426153624
C        2.574614506   6.931413679   3.656747638
C        2.955089808   7.383357942   2.362026763
C        6.075013072   9.565878849   3.944357116
C        2.070168316   8.191789509   1.692756087
C        5.055113277   0.127791789   2.082733386
H        5.840760382   0.890446395   1.877935642
H        4.086135840   0.546817715   1.799279579
H        5.261239809   9.642600908   1.428666990
C        3.932549340   0.054310852   4.211518517
H        4.008032225  10.057071815   5.239468611
H        3.008280598  10.011739801   3.752947605
H        3.772025534   1.158048087   4.274559464
F        2.446581864   8.596878330   0.454555597
N        5.069027041  10.138764012   3.425055543
O        1.323142232   6.718585814   5.415011229
H        0.124249911   7.217490861   5.751680222
O       -0.946828924   8.162219828   5.405113645
H        0.258449895   9.161419865   1.624563276
H        7.488134193   9.401626467   2.354173527
H        5.990140320   9.318021374   5.073860711
H        3.922330880   7.108355333   1.963246660
H        3.282330828   6.320199598   4.227784021
C        3.392371595   3.292450891   1.301304424
C        6.025201595   1.902549109   6.770244424
C        1.873278405   7.097549109   9.636565576
C        2.153373507   2.920019422   1.928129370
C        4.786203507   2.274980578   7.397059370
C        3.112276493   7.469980578   9.009750630
C        1.746259135   3.351003738   3.223870886
C        4.379089135   1.843996262   8.692800886
C        3.519390865   7.038996262   7.714009114
C        1.247865993   2.094546756   1.255604027
C        3.880685993   3.100453244   6.724534027
C        4.017794007   8.295453244   9.682275973
C        4.359628584   3.961703169   2.042776376
C       -2.075751416   1.233296831   7.511716376
C        0.906021416   6.428296831   8.895093624
C        0.058215494   1.736413679   1.812192362
C        2.691045494   3.458586321   7.281122362
C        5.207434506   8.653586321   9.125677638
C       -0.322269808   2.188357942   3.106913237
C        2.310560192   3.006642058   8.575853237
C        5.587919808   8.201642058   7.830956763
C        5.626016928   4.370878849   1.524582884
C       -0.809363072   0.824121151   6.993512884
C       -0.360366928   6.019121151   9.413297116
C        0.562651684   2.996789509   3.776173913
C        3.195481684   2.198210491   9.245113913
C        4.702998316   7.393210491   7.161696087
C        6.645916723   5.322791789   3.386206614
C        0.210536723  10.262208211   8.855136614
C       -1.380266723   5.067208211   7.551663386
H        5.860259618   6.085446395   3.590994358
H       -0.575110382   9.499553605   9.059934358
H       -0.594609618   4.304553605   7.346875642
H        7.614894160   5.741817715   3.669650421
H        1.179514160   9.843182285   9.138590421
H       -2.349244160   4.648182285   7.268219579
H        6.439790191   4.447600908   4.040273010
H        0.004410191   0.747399092   9.509203010
H       -1.174140191   5.942399092   6.897596990
C        7.768480660   5.249310852   1.257421483
C        1.333100660  10.335689148   6.726351483
C       -2.502830660   5.140689148   9.680448517
H        7.692997775   4.862071815   0.229461389
H        1.257617775   0.332928185   5.698401389
H       -2.427347775   5.527928185  10.708408611
H       -0.375460598   4.816739801   1.715992395
H        2.257369402   0.378260199   7.184922395
H        5.641110598   5.573260199   9.221877605
H        7.928994466   6.353048087   1.194370536
H        1.493624466   9.231951913   6.663310536
H       -2.663344466   4.036951913   9.743499464
F        0.186248136   3.401878330   5.014374403
F        2.819068136   1.793121670  10.483314403
F        5.079401864   6.988121670   5.923495597
N        6.631992959   4.943764012   2.043884457
N        0.196622959   0.251235988   7.512814457
N       -1.366342959   5.446235988   8.893985543
O        1.309687768   1.523585814   0.053928771
O        3.942507768   3.671414186   5.522858771
O        3.955962232   8.866414186  10.883941229
H       -1.293979911   2.022490861  10.655119778
H        5.141400089   3.172509139   5.186189778
H        6.559629911   8.367509139   0.282750222
O        3.579648924   2.967219828   0.063826355
O        6.212478924   2.227780172   5.532756355
O        1.686001076   7.422780172  10.874053645
H        2.374380105   3.966419865   3.844376724
H        5.007200105   1.228580135   9.313306724
H        2.891269895   6.423580135   7.093503276
H        4.212885807   4.206626467   3.114756473
H       -2.222484193   0.988373533   8.583696473
H        1.052764193   6.183373533   7.823113527
H        5.710889680   4.123021374   0.395069289
H       -0.724490320   1.071978626   5.864009289
H       -0.445239680   6.266978626  10.542800711
H       -1.289500880   1.913355333   3.505693340
H        1.343329120   3.281644667   8.974623340
H        6.555150880   8.476644667   7.432176660
H        8.418699172   1.125199598   1.241155979
H        1.983319172   4.069800402   6.710085979
H       -3.153049172   9.264800402   9.696714021



     Writing output data file 2HP-4.save
     charge density from previous step

     Check: negative/imaginary core charge=   -0.000684    0.000000

     total cpu time spent up to now is     7573.0 secs

     per-process dynamical memory:   843.3 Mb

     Self-consistent Calculation

     iteration #  1     ecut=    30.00 Ry     beta=0.70
     Davidson diagonalization with overlap
     ethr =  1.00E-06,  avg # of iterations = 11.0

     total cpu time spent up to now is     8310.3 secs

     total energy              =   -1084.68795469 Ry
     Harris-Foulkes estimate   =   -1096.82673257 Ry
     estimated scf accuracy    <      15.60962127 Ry

     iteration #  2     ecut=    30.00 Ry     beta=0.70
     Davidson diagonalization with overlap
     ethr =  4.88E-03,  avg # of iterations =  4.0

     total cpu time spent up to now is     8618.4 secs

[...]
   -19.0104 -19.0103 -19.0031 -19.0030 -18.1617 -18.1617 -18.1542 -18.1542
   -15.1943 -15.1941 -15.1920 -15.1918 -13.3302 -13.3302 -13.3254 -13.3254
   -12.7763 -12.7762 -12.7646 -12.7644 -12.0529 -12.0529 -12.0528 -12.0527
   -11.9792 -11.9792 -11.9032 -11.9032 -11.1165 -11.1165 -11.0500 -11.0500
    -9.8550  -9.8549  -9.8334  -9.8332  -8.8218  -8.8217  -8.8094  -8.8093
    -8.4459  -8.4458  -8.4178  -8.4178  -7.4854  -7.4853  -7.3530  -7.3530
    -7.1296  -7.1296  -7.1059  -7.1059  -6.7045  -6.7045  -6.6022  -6.6021
    -6.2590  -6.2590  -6.2401  -6.2400  -6.1350  -6.1349  -6.0907  -6.0905
    -5.6490  -5.6489  -5.5925  -5.5925  -5.5717  -5.5717  -5.5251  -5.5250
    -4.9189  -4.9188  -4.9009  -4.9007  -4.8562  -4.8561  -4.7939  -4.7939
    -4.4958  -4.4958  -4.4816  -4.4816  -4.3646  -4.3646  -4.3177  -4.3176
    -4.1341  -4.1340  -4.0694  -4.0693  -3.9349  -3.9348  -3.8978  -3.8977
    -3.7668  -3.7667  -3.7588  -3.7587  -3.6398  -3.6398  -3.6102  -3.6101
    -3.5021  -3.5020  -3.4651  -3.4650  -3.1902  -3.1902  -3.1766  -3.1766
    -3.0708  -3.0708  -2.9619  -2.9619  -2.8918  -2.8918  -2.8539  -2.8538
    -2.4634  -2.4633  -2.4593  -2.4592  -2.0843  -2.0843  -2.0453  -2.0452
    -1.7938  -1.7938  -1.7480  -1.7478  -1.6098  -1.6097  -1.5955  -1.5955
    -0.4699  -0.4698  -0.4589  -0.4588   0.1976   0.1976   0.2290   0.2290
     0.6800   0.6801   0.6829   0.6830   1.0484   1.0484   1.1218   1.1218

          k =-0.5000-0.4364-0.5884 ( 19296 PWs)   bands (ev):

   -24.2852 -24.2851 -24.2849 -24.2848 -20.1713 -20.1712 -20.1669 -20.1668
   -19.0106 -19.0105 -19.0029 -19.0028 -18.1615 -18.1615 -18.1544 -18.1544
   -15.2008 -15.2008 -15.1851 -15.1850 -13.3341 -13.3340 -13.3225 -13.3224
   -12.7923 -12.7923 -12.7475 -12.7475 -12.0642 -12.0641 -12.0425 -12.0425
   -11.9579 -11.9579 -11.9253 -11.9253 -11.1096 -11.1096 -11.0547 -11.0547
    -9.8996  -9.8996  -9.7880  -9.7880  -8.8877  -8.8877  -8.7171  -8.7171
    -8.4903  -8.4902  -8.3980  -8.3980  -7.4664  -7.4664  -7.3601  -7.3601
    -7.1726  -7.1726  -7.0581  -7.0581  -6.7071  -6.7070  -6.6132  -6.6131
    -6.3540  -6.3540  -6.2476  -6.2476  -6.0966  -6.0965  -6.0581  -6.0581
    -5.7218  -5.7218  -5.6344  -5.6343  -5.5315  -5.5314  -5.3839  -5.3838
    -4.9613  -4.9612  -4.8853  -4.8852  -4.8545  -4.8545  -4.8202  -4.8201
    -4.5258  -4.5257  -4.4197  -4.4196  -4.2957  -4.2957  -4.2603  -4.2602
    -4.2019  -4.2019  -4.1114  -4.1114  -4.0246  -4.0245  -3.8885  -3.8884
    -3.7452  -3.7451  -3.7032  -3.7032  -3.6642  -3.6641  -3.6115  -3.6114
    -3.5064  -3.5064  -3.4520  -3.4520  -3.1903  -3.1903  -3.1767  -3.1767
    -3.0919  -3.0919  -2.9694  -2.9694  -2.8943  -2.8943  -2.7989  -2.7988
    -2.4932  -2.4932  -2.4172  -2.4171  -2.2904  -2.2904  -1.9056  -1.9055
    -1.8408  -1.8408  -1.6920  -1.6920  -1.6675  -1.6675  -1.5280  -1.5279
    -0.4776  -0.4776  -0.4536  -0.4535   0.1923   0.1923   0.2360   0.2361
     0.6439   0.6440   0.7174   0.7174   1.0443   1.0443   1.1293   1.1293

     highest occupied level (ev):     1.1351

!    total energy              =   -1091.60916195 Ry
     Harris-Foulkes estimate   =   -1091.60916195 Ry
     estimated scf accuracy    <          1.4E-10 Ry

     The total energy is the sum of the following terms:

     one-electron contribution =    -818.47960935 Ry
     hartree contribution      =     521.93112722 Ry
     xc contribution           =    -307.02819946 Ry
     ewald contribution        =    -487.56275262 Ry
     Dispersion Correction     =      -0.46972774 Ry

     convergence has been achieved in  10 iterations

     Forces acting on atoms (cartesian axes, Ry/au):

     atom    1 type  1   force =    -0.00010703    0.00010012   -0.00062889
     atom    2 type  1   force =     0.00014834    0.00067059   -0.00079407
     atom    3 type  1   force =     0.00056557   -0.00010444    0.00079951
     atom    4 type  1   force =    -0.00068143   -0.00008284   -0.00031843
     atom    5 type  1   force =    -0.00073507    0.00009131    0.00014150
     atom    6 type  1   force =    -0.00000686   -0.00044988    0.00026566
     atom    7 type  1   force =    -0.00035143    0.00039899    0.00043918
     atom    8 type  1   force =    -0.00076562    0.00015488   -0.00007322
     atom    9 type  1   force =     0.00033698    0.00054742   -0.00010304
     atom   10 type  1   force =    -0.00055560    0.00042807   -0.00090906
     atom   11 type  2   force =     0.00034740    0.00036656   -0.00011709
     atom   12 type  2   force =    -0.00083718    0.00022282   -0.00009032
     atom   13 type  2   force =    -0.00007160   -0.00040924   -0.00057063
     atom   14 type  1   force =    -0.00035558   -0.00003412    0.00010152
     atom   15 type  2   force =    -0.00004898   -0.00012312    0.00022065
     atom   16 type  2   force =    -0.00015943    0.00009042    0.00027551
     atom   17 type  2   force =    -0.00027923   -0.00025451   -0.00009641
     atom   18 type  5   force =     0.00012960   -0.00029765   -0.00023299
     atom   19 type  4   force =    -0.00023854   -0.00003099   -0.00031364
     atom   20 type  3   force =    -0.00060265    0.00027839    0.00008446
     atom   21 type  2   force =    -0.00093601   -0.00084039    0.00047633
     atom   22 type  3   force =    -0.00002892   -0.00028573    0.00018137
     atom   23 type  2   force =    -0.00064437   -0.00078992    0.00061884
     atom   24 type  2   force =     0.00002122    0.00049693   -0.00019928
     atom   25 type  2   force =    -0.00015901   -0.00002901    0.00060109
     atom   26 type  2   force =    -0.00075669    0.00073570   -0.00040564
     atom   27 type  2   force =     0.00013437    0.00051928    0.00040753
     atom   28 type  1   force =    -0.00014834    0.00067059    0.00079407
     atom   29 type  1   force =    -0.00014834   -0.00067059    0.00079407
     atom   30 type  1   force =     0.00014834   -0.00067059   -0.00079407
     atom   31 type  1   force =     0.00010703    0.00010012    0.00062889
     atom   32 type  1   force =     0.00010703   -0.00010012    0.00062889
     atom   33 type  1   force =    -0.00010703   -0.00010012   -0.00062889
     atom   34 type  1   force =    -0.00056557   -0.00010444   -0.00079951
     atom   35 type  1   force =    -0.00056557    0.00010444   -0.00079951
     atom   36 type  1   force =     0.00056557    0.00010444    0.00079951
     atom   37 type  1   force =     0.00068143   -0.00008284    0.00031843
     atom   38 type  1   force =     0.00068143    0.00008284    0.00031843
     atom   39 type  1   force =    -0.00068143    0.00008284   -0.00031843
     atom   40 type  1   force =     0.00073507    0.00009131   -0.00014150
     atom   41 type  1   force =     0.00073507   -0.00009131   -0.00014150
     atom   42 type  1   force =    -0.00073507   -0.00009131    0.00014150
     atom   43 type  1   force =     0.00000686   -0.00044988   -0.00026566
     atom   44 type  1   force =     0.00000686    0.00044988   -0.00026566
     atom   45 type  1   force =    -0.00000686    0.00044988    0.00026566
     atom   46 type  1   force =     0.00035143    0.00039899   -0.00043918
     atom   47 type  1   force =     0.00035143   -0.00039899   -0.00043918
     atom   48 type  1   force =    -0.00035143   -0.00039899    0.00043918
     atom   49 type  1   force =     0.00076562    0.00015488    0.00007322
     atom   50 type  1   force =     0.00076562   -0.00015488    0.00007322
     atom   51 type  1   force =    -0.00076562   -0.00015488   -0.00007322
     atom   52 type  1   force =    -0.00033698    0.00054742    0.00010304
     atom   53 type  1   force =    -0.00033698   -0.00054742    0.00010304
     atom   54 type  1   force =     0.00033698   -0.00054742   -0.00010304
     atom   55 type  1   force =     0.00055560    0.00042807    0.00090906
     atom   56 type  1   force =     0.00055560   -0.00042807    0.00090906
     atom   57 type  1   force =    -0.00055560   -0.00042807   -0.00090906
     atom   58 type  2   force =    -0.00034740    0.00036656    0.00011709
     atom   59 type  2   force =    -0.00034740   -0.00036656    0.00011709
     atom   60 type  2   force =     0.00034740   -0.00036656   -0.00011709
     atom   61 type  2   force =     0.00083718    0.00022282    0.00009032
     atom   62 type  2   force =     0.00083718   -0.00022282    0.00009032
     atom   63 type  2   force =    -0.00083718   -0.00022282   -0.00009032
     atom   64 type  2   force =     0.00007160   -0.00040924    0.00057063
     atom   65 type  2   force =     0.00007160    0.00040924    0.00057063
     atom   66 type  2   force =    -0.00007160    0.00040924   -0.00057063
     atom   67 type  1   force =     0.00035558   -0.00003412   -0.00010152
     atom   68 type  1   force =     0.00035558    0.00003412   -0.00010152
     atom   69 type  1   force =    -0.00035558    0.00003412    0.00010152
     atom   70 type  2   force =     0.00004898   -0.00012312   -0.00022065
     atom   71 type  2   force =     0.00004898    0.00012312   -0.00022065
     atom   72 type  2   force =    -0.00004898    0.00012312    0.00022065
     atom   73 type  2   force =     0.00015943    0.00009042   -0.00027551
     atom   74 type  2   force =     0.00015943   -0.00009042   -0.00027551
     atom   75 type  2   force =    -0.00015943   -0.00009042    0.00027551
     atom   76 type  2   force =     0.00027923   -0.00025451    0.00009641
     atom   77 type  2   force =     0.00027923    0.00025451    0.00009641
     atom   78 type  2   force =    -0.00027923    0.00025451   -0.00009641
     atom   79 type  5   force =    -0.00012960   -0.00029765    0.00023299
     atom   80 type  5   force =    -0.00012960    0.00029765    0.00023299
     atom   81 type  5   force =     0.00012960    0.00029765   -0.00023299
     atom   82 type  4   force =     0.00023854   -0.00003099    0.00031364
     atom   83 type  4   force =     0.00023854    0.00003099    0.00031364
     atom   84 type  4   force =    -0.00023854    0.00003099   -0.00031364
     atom   85 type  3   force =     0.00060265    0.00027839   -0.00008446
     atom   86 type  3   force =     0.00060265   -0.00027839   -0.00008446
     atom   87 type  3   force =    -0.00060265   -0.00027839    0.00008446
     atom   88 type  2   force =     0.00093601   -0.00084039   -0.00047633
     atom   89 type  2   force =     0.00093601    0.00084039   -0.00047633
     atom   90 type  2   force =    -0.00093601    0.00084039    0.00047633
     atom   91 type  3   force =     0.00002892   -0.00028573   -0.00018137
     atom   92 type  3   force =     0.00002892    0.00028573   -0.00018137
     atom   93 type  3   force =    -0.00002892    0.00028573    0.00018137
     atom   94 type  2   force =     0.00064437   -0.00078992   -0.00061884
     atom   95 type  2   force =     0.00064437    0.00078992   -0.00061884
     atom   96 type  2   force =    -0.00064437    0.00078992    0.00061884
     atom   97 type  2   force =    -0.00002122    0.00049693    0.00019928
     atom   98 type  2   force =    -0.00002122   -0.00049693    0.00019928
     atom   99 type  2   force =     0.00002122   -0.00049693   -0.00019928
     atom  100 type  2   force =     0.00015901   -0.00002901   -0.00060109
     atom  101 type  2   force =     0.00015901    0.00002901   -0.00060109
     atom  102 type  2   force =    -0.00015901    0.00002901    0.00060109
     atom  103 type  2   force =     0.00075669    0.00073570    0.00040564
     atom  104 type  2   force =     0.00075669   -0.00073570    0.00040564
     atom  105 type  2   force =    -0.00075669   -0.00073570   -0.00040564
     atom  106 type  2   force =    -0.00013437    0.00051928   -0.00040753
     atom  107 type  2   force =    -0.00013437   -0.00051928   -0.00040753
     atom  108 type  2   force =     0.00013437   -0.00051928    0.00040753

     Total force =     0.007809     Total SCF correction =     0.000022

     bfgs converged in  25 scf cycles and  24 bfgs steps
     (criteria: energy <  1.0E-04 Ry, force <  1.0E-03 Ry/Bohr)

     End of BFGS Geometry Optimization

     Final energy   =   -1091.6091619524 Ry
Begin final coordinates

ATOMIC_POSITIONS (angstrom)
C        0.509142274   8.108835838   3.507692173
C       -0.776643900   8.488927744   4.148441553
C        0.888971625   8.535417542   2.218107790
C        1.419079095   7.278900468   4.234291172
C        7.285316933   9.185746024   3.419678178
C        2.658741237   6.917927938   3.676451931
C        3.015999656   7.349271326   2.403985434
C        6.090172892   9.523983771   4.031490290
C        2.110500001   8.150637790   1.707571966
C        5.055369774   0.132457012   2.056807420
H        5.826829040   0.893385538   1.841626796
H        4.074983857   0.547247837   1.793621231
H        5.241711247   9.639602294   1.425622360
C        3.861308677   0.080077836   4.238124878
H        3.964788854  10.072992343   5.257233859
H        2.976952861  10.017776255   3.759389291
H        3.722904737   1.172917033   4.286902511
F        2.452544625   8.598729025   0.444893510
N        5.054910636  10.146167027   3.468406651
O        1.104738431   6.836690107   5.464240564
H        0.187275235   7.330188590   5.659002127
O       -0.939742653   8.149337893   5.383540545
H        0.249398159   9.166485449   1.602727667
H        7.453878213   9.427144346   2.374427436
H        5.957885451   9.257694942   5.083260789
H        3.974050661   7.086285758   1.947808620
H        3.337121136   6.302364623   4.273789858
C        3.409463900   3.293927744   1.320488447
C        6.042293900   1.901072256   6.789428447
C        1.856186100   7.096072256   9.617381553
C        2.123677726   2.913835838   1.961247827
C        4.756507726   2.281164162   7.430177827
C        3.141972274   7.476164162   8.976632173
C        1.743858375   3.340417542   3.250832210
C        4.376688375   1.854582458   8.719762210
C        3.521791625   7.049582458   7.687047790
C        1.213750905   2.083900468   1.234648828
C        3.846570905   3.111099532   6.703578828
C        4.051909095   8.306099532   9.703231172
C        4.415713067   3.990746024   2.049251822
C       -2.019666933   1.204253976   7.518191822
C        0.849936933   6.399253976   8.888618178
C       -0.025911237   1.722927938   1.792488069
C        2.606918763   3.472072062   7.261418069
C        5.291561237   8.667072062   9.145381931
C       -0.383179656   2.154271326   3.064954566
C        2.249650344   3.040728674   8.533894566
C        5.648829656   8.235728674   7.872915434
C        5.610857108   4.328983771   1.437449710
C       -0.824522892   0.866016229   6.906379710
C       -0.345207108   6.061016229   9.500430290
C        0.522319999   2.955637790   3.761358034
C        3.155149999   2.239362210   9.230298034
C        4.743330001   7.434362210   7.176511966
C        6.645660226   5.327457012   3.412132580
C        0.210280226  10.257542988   8.881062580
C       -1.380010226   5.062542988   7.525737420
H        5.874190960   6.088385538   3.627303204
H       -0.561179040   9.496614462   9.096243204
H       -0.608540960   4.301614462   7.310566796
H        7.626046143   5.742247837   3.675308769
H        1.190666143   9.842752163   9.144248769
H       -2.360396143   4.647752163   7.262561231
H        6.459318753   4.444602294   4.043317640
H        0.023938753   0.750397706   9.512247640
H       -1.193668753   5.945397706   6.894552360
C        7.839721323   5.275077836   1.230815122
C        1.404341323  10.309922164   6.699745122
C       -2.574071323   5.114922164   9.707054878
H        7.736241146   4.877992343   0.211696141
H        1.300861146   0.317007657   5.680636141
H       -2.470591146   5.512007657  10.726173859
H       -0.344132861   4.822776255   1.709550709
H        2.288697139   0.372223745   7.178480709
H        5.609782861   5.567223745   9.228319291
H        7.978115263   6.367917033   1.182027489
H        1.542745263   9.217082967   6.650967489
H       -2.712465263   4.022082967   9.755842511
F        0.180285375   3.403729025   5.024036490
F        2.813105375   1.791270975  10.492976490
F        5.085364625   6.986270975   5.913833510
N        6.646109364   4.951167027   2.000533349
N        0.210739364   0.243832973   7.469463349
N       -1.380459364   5.438832973   8.937336651
O        1.528091569   1.641690107   0.004699436
O        4.160911569   3.553309893   5.473629436
O        3.737558431   8.748309893  10.933170564
H       -1.357005235   2.135188590  10.747797873
H        5.078374765   3.059811410   5.278867873
H        6.622655235   8.254811410   0.190072127
O        3.572562653   2.954337893   0.085399455
O        6.205392653   2.240662107   5.554329455
O        1.693087347   7.435662107  10.852480545
H        2.383431841   3.971485449   3.866212333
H        5.016251841   1.223514551   9.335142333
H        2.882218159   6.418514551   7.071667667
H        4.247141787   4.232144346   3.094502564
H       -2.188228213   0.962855654   8.563442564
H        1.018508213   6.157855654   7.843367436
H        5.743144549   4.062694942   0.385669211
H       -0.692235451   1.132305058   5.854609211
H       -0.477494549   6.327305058  10.552200789
H       -1.341220661   1.891285758   3.521131380
H        1.291609339   3.303714242   8.990061380
H        6.606870661   8.498714242   7.416738620
H        8.363908864   1.107364623   1.195150142
H        1.928528864   4.087635377   6.664080142
H       -3.098258864   9.282635377   9.742719858
End final coordinates



     Writing output data file 2HP-4.save
 
     init_run     :    135.78s CPU    137.28s WALL (       1 calls)
     electrons    :  73138.91s CPU  73676.45s WALL (      25 calls)
     update_pot   :     35.54s CPU     35.62s WALL (      24 calls)
     forces       :   1598.62s CPU   1609.19s WALL (      25 calls)

     Called by init_run:
     wfcinit      :    126.41s CPU    127.27s WALL (       1 calls)
     potinit      :      3.51s CPU      3.54s WALL (       1 calls)

     Called by electrons:
     c_bands      :  65677.46s CPU  66120.47s WALL (     257 calls)
     sum_band     :   6851.22s CPU   6905.97s WALL (     257 calls)
     v_of_rho     :     94.25s CPU     94.49s WALL (     282 calls)
     newd         :    224.57s CPU    263.46s WALL (     282 calls)
     mix_rho      :     17.81s CPU     19.82s WALL (     257 calls)

     Called by c_bands:
     init_us_2    :    358.01s CPU    359.02s WALL (    4320 calls)
     cegterg      :  64361.19s CPU  64800.15s WALL (    2056 calls)

     Called by sum_band:
     sum_band:bec :      2.16s CPU      2.18s WALL (    2056 calls)
     addusdens    :    252.53s CPU    291.47s WALL (     257 calls)

     Called by *egterg:
     h_psi        :  36608.29s CPU  36694.03s WALL (   10282 calls)
     s_psi        :   8504.47s CPU   8518.54s WALL (   10282 calls)
     g_psi        :    109.43s CPU    109.67s WALL (    8218 calls)
     cdiaghg      :   2154.32s CPU   2157.66s WALL (   10082 calls)

     Called by h_psi:
     h_psi:pot    :  36409.31s CPU  36494.27s WALL (   10282 calls)
     h_psi:calbec :   7714.41s CPU   7727.34s WALL (   10282 calls)
     vloc_psi     :  20188.77s CPU  20246.47s WALL (   10282 calls)
     add_vuspsi   :   8506.02s CPU   8520.33s WALL (   10282 calls)

     General routines
     calbec       :  11122.25s CPU  11140.76s WALL (   13138 calls)
     fft          :     49.27s CPU     49.69s WALL (    3892 calls)
     fftw         :  20412.74s CPU  20465.32s WALL ( 2339148 calls)
     davcio       :      0.02s CPU      0.57s WALL (       8 calls)
 
     Parallel routines
     fft_scatter  :   2995.53s CPU   3007.03s WALL ( 2343040 calls)
 
     PWSCF        :    20h48m CPU       20h58m WALL

 
   This run was terminated on:  14:33:35   6Oct2017            

=------------------------------------------------------------------------------=
   JOB DONE.
=------------------------------------------------------------------------------=
