
     Program PWSCF v.6.1 (svn rev. 13369) starts on 10Oct2017 at 15:47:11 

     This program is part of the open-source Quantum ESPRESSO suite
     for quantum simulation of materials; please cite
         "P. Giannozzi et al., J. Phys.:Condens. Matter 21 395502 (2009);
          URL http://www.quantum-espresso.org", 
     in publications or presentations arising from this work. More details at
     http://www.quantum-espresso.org/quote

     Parallel version (MPI), running on     1 processors
     Waiting for input...
     Reading input from standard input

     Current dimensions of program PWSCF are:
     Max number of different atomic species (ntypx) = 10
     Max number of k-points (npk) =  40000
     Max angular momentum in pseudopotentials (lmaxx) =  3
     Message from routine iosys:
     london is obsolete, use "vdw_corr='grimme-d2'" instead

     IMPORTANT: XC functional enforced from input :
     Exchange-correlation      = PBE ( 1  4  3  4 0 0)
     Any further DFT definition will be discarded
     Please, verify this is what you really want

               file C.pbe-rrkjus.UPF: wavefunction(s)  2S 2P renormalized
               file H.pbe-rrkjus.UPF: wavefunction(s)  1S renormalized
               file O.pbe-rrkjus.UPF: wavefunction(s)  2S renormalized
               file N.pbe-rrkjus.UPF: wavefunction(s)  2S renormalized

     -------------------------------------
     Parameters for Dispersion Correction:
     -------------------------------------
       atom      VdW radius       C_6     

        C          2.744         60.710
        H          1.892          4.857
        O          2.536         24.284
        N          2.640         42.670
        F          2.432         26.018

     Subspace diagonalization in iterative solution of the eigenvalue problem:
     a serial algorithm will be used

 
     G-vector sticks info
     --------------------
     sticks:   dense  smooth     PW     G-vecs:    dense   smooth      PW
     Sum        3207    3207    899               154425   154425   22919
 


     bravais-lattice index     =            0
     lattice parameter (alat)  =      17.1364  a.u.
     unit-cell volume          =    6954.5023 (a.u.)^3
     number of atoms/cell      =          108
     number of atomic types    =            5
     number of electrons       =       320.00
     number of Kohn-Sham states=          160
     kinetic-energy cutoff     =      30.0000  Ry
     charge density cutoff     =     120.0000  Ry
     convergence threshold     =      1.0E-07
     mixing beta               =       0.7000
     number of iterations used =            8  plain     mixing
     Exchange-correlation      = PBE ( 1  4  3  4 0 0)
     nstep                     =           50


     celldm(1)=  17.136415  celldm(2)=   0.000000  celldm(3)=   0.000000
     celldm(4)=   0.000000  celldm(5)=   0.000000  celldm(6)=   0.000000

     crystal axes: (cart. coord. in units of alat)
               a(1) = (   1.000000   0.000000   0.000000 )  
               a(2) = (   0.000000   1.145762   0.000000 )  
               a(3) = (  -0.419328   0.000000   1.206179 )  

     reciprocal axes: (cart. coord. in units 2 pi/alat)
               b(1) = (  1.000000  0.000000  0.347650 )  
               b(2) = (  0.000000  0.872782  0.000000 )  
               b(3) = (  0.000000  0.000000  0.829064 )  


     PseudoPot. # 1 for C  read from file:
     /data/home/btx156/espresso/pseudo/C.pbe-rrkjus.UPF
     MD5 check sum: 00fb224312de0c5b6853bd333518df6f
     Pseudo is Ultrasoft, Zval =  4.0
     Generated by new atomic code, or converted to UPF format
     Using radial grid of  627 points,  4 beta functions with: 
                l(1) =   0
                l(2) =   0
                l(3) =   1
                l(4) =   1
     Q(r) pseudized with 0 coefficients 


     PseudoPot. # 2 for H  read from file:
     /data/home/btx156/espresso/pseudo/H.pbe-rrkjus.UPF
     MD5 check sum: 7cc9d459525c9a0585f487a71c3c9563
     Pseudo is Ultrasoft, Zval =  1.0
     Generated by new atomic code, or converted to UPF format
     Using radial grid of 1061 points,  2 beta functions with: 
                l(1) =   0
                l(2) =   0
     Q(r) pseudized with 0 coefficients 


     PseudoPot. # 3 for O  read from file:
     /data/home/btx156/espresso/pseudo/O.pbe-rrkjus.UPF
     MD5 check sum: 390ba29e75625707450f3bd3f0eb6be9
     Pseudo is Ultrasoft, Zval =  6.0
     Generated by new atomic code, or converted to UPF format
     Using radial grid of 1269 points,  4 beta functions with: 
                l(1) =   0
                l(2) =   0
                l(3) =   1
                l(4) =   1
     Q(r) pseudized with 0 coefficients 


     PseudoPot. # 4 for N  read from file:
     /data/home/btx156/espresso/pseudo/N.pbe-rrkjus.UPF
     MD5 check sum: 0c3fbe5807a93f9ba59d5a7019aa238b
     Pseudo is Ultrasoft, Zval =  5.0
     Generated by new atomic code, or converted to UPF format
     Using radial grid of 1257 points,  4 beta functions with: 
                l(1) =   0
                l(2) =   0
                l(3) =   1
                l(4) =   1
     Q(r) pseudized with 0 coefficients 


     PseudoPot. # 5 for  F read from file:
     /data/home/btx156/espresso/pseudo/F.pbe-n-rrkjus_psl.0.1.UPF
     MD5 check sum: 04c7599644978b7d0345d67c6032d20f
     Pseudo is Ultrasoft + core correction, Zval =  7.0
     Generated using "atomic" code by A. Dal Corso  v.5.0.2 svn rev. 9415
     Using radial grid of 1105 points,  4 beta functions with: 
                l(1) =   0
                l(2) =   0
                l(3) =   1
                l(4) =   1
     Q(r) pseudized with 0 coefficients 


     atomic species   valence    mass     pseudopotential
        C              4.00    12.00000     C ( 1.00)
        H              1.00     1.00790     H ( 1.00)
        O              6.00    15.99940     O ( 1.00)
        N              5.00    14.00670     N ( 1.00)
        F              7.00    18.99840      F( 1.00)

      4 Sym. Ops., with inversion, found ( 2 have fractional translation)



   Cartesian axes

     site n.     atom                  positions (alat units)
         1           C   tau(   1) = (   0.0561543   0.8942292   0.3868207  )
         2           C   tau(   2) = (  -0.0856374   0.9361308   0.4574757  )
         3           C   tau(   3) = (   0.0980408   0.9412689   0.2446096  )
         4           C   tau(   4) = (   0.1564964   0.8027004   0.4669452  )
         5           C   tau(   5) = (   0.8033922   1.0129623   0.3771093  )
         6           C   tau(   6) = (   0.2931988   0.7628892   0.4054268  )
         7           C   tau(   7) = (   0.3325956   0.8104575   0.2651056  )
         8           C   tau(   8) = (   0.6715902   1.0502432   0.4445713  )
         9           C   tau(   9) = (   0.2327417   0.8988292   0.1883080  )
        10           C   tau(  10) = (   0.5574805   0.0145965   0.2268108  )
        11           H   tau(  11) = (   0.6425529   0.0985201   0.2031206  )
        12           H   tau(  12) = (   0.4493690   0.0603379   0.1977836  )
        13           H   tau(  13) = (   0.5780471   1.0630235   0.1571834  )
        14           C   tau(  14) = (   0.4257958   0.0088025   0.4673528  )
        15           H   tau(  15) = (   0.4372109   1.1107902   0.5797405  )
        16           H   tau(  16) = (   0.3282584   1.1046947   0.4145760  )
        17           H   tau(  17) = (   0.4105489   0.1293196   0.4727172  )
        18           F   tau(  18) = (   0.2704559   0.9482297   0.0490604  )
        19           N   tau(  19) = (   0.5574101   1.1188233   0.3824677  )
        20           O   tau(  20) = (   0.1218231   0.7539241   0.6025702  )
        21           H   tau(  21) = (   0.0206481   0.8083549   0.6240475  )
        22           O   tau(  22) = (  -0.1036233   0.8986761   0.5936780  )
        23           H   tau(  23) = (   0.0275090   1.0108566   0.1767467  )
        24           H   tau(  24) = (   0.8219769   1.0395789   0.2618421  )
        25           H   tau(  25) = (   0.6570038   1.0208822   0.5605568  )
        26           H   tau(  26) = (   0.4382420   0.7814519   0.2147971  )
        27           H   tau(  27) = (   0.3680064   0.6950034   0.4712960  )
        28           C   tau(  28) = (   0.3759729   0.3632497   0.1456131  )
        29           C   tau(  29) = (   0.6663094   0.2096313   0.7487030  )
        30           C   tau(  30) = (   0.2046991   0.7825124   1.0605656  )
        31           C   tau(  31) = (   0.2341811   0.3213481   0.2162692  )
        32           C   tau(  32) = (   0.5245177   0.2515329   0.8193580  )
        33           C   tau(  33) = (   0.3464909   0.8244140   0.9899106  )
        34           C   tau(  34) = (   0.1922958   0.3683878   0.3584803  )
        35           C   tau(  35) = (   0.4826324   0.2044932   0.9615691  )
        36           C   tau(  36) = (   0.3883762   0.7773743   0.8476995  )
        37           C   tau(  37) = (   0.1338401   0.2298194   0.1361447  )
        38           C   tau(  38) = (   0.4241756   0.3430617   0.7392335  )
        39           C   tau(  39) = (   0.4468330   0.9159427   1.0700351  )
        40           C   tau(  40) = (   0.4869444   0.4400813   0.2259795  )
        41           C   tau(  41) = (  -0.2227201   0.1327998   0.8290694  )
        42           C   tau(  42) = (   0.0937276   0.7056808   0.9801992  )
        43           C   tau(  43) = (  -0.0028623   0.1900082   0.1976631  )
        44           C   tau(  44) = (   0.2874743   0.3828729   0.8007520  )
        45           C   tau(  45) = (   0.5835343   0.9557539   1.0085156  )
        46           C   tau(  46) = (  -0.0422601   0.2375765   0.3379843  )
        47           C   tau(  47) = (   0.2480764   0.3353046   0.9410742  )
        48           C   tau(  48) = (   0.6229321   0.9081856   0.8681944  )
        49           C   tau(  49) = (   0.6187463   0.4773621   0.1585187  )
        50           C   tau(  50) = (  -0.0909182   0.0955189   0.7616075  )
        51           C   tau(  51) = (  -0.0380743   0.6684000   1.0476612  )
        52           C   tau(  52) = (   0.0575937   0.3259482   0.4147808  )
        53           C   tau(  53) = (   0.3479303   0.2469329   1.0178708  )
        54           C   tau(  54) = (   0.5230783   0.8198139   0.7913979  )
        55           C   tau(  55) = (   0.7328560   0.5874776   0.3762791  )
        56           C   tau(  56) = (   0.0231915   1.1311656   0.9793679  )
        57           C   tau(  57) = (  -0.1521840   0.5582845   0.8298996  )
        58           H   tau(  58) = (   0.6477826   0.6714011   0.3999682  )
        59           H   tau(  59) = (  -0.0618808   1.0472420   1.0030581  )
        60           H   tau(  60) = (  -0.0671106   0.4743610   0.8062105  )
        61           H   tau(  61) = (   0.8409675   0.6332190   0.4053052  )
        62           H   tau(  62) = (   0.1313030   1.0854242   1.0083952  )
        63           H   tau(  63) = (  -0.2602955   0.5125431   0.8008735  )
        64           H   tau(  64) = (   0.7122895   0.4901424   0.4459065  )
        65           H   tau(  65) = (   0.0026249   0.0827386   1.0489953  )
        66           H   tau(  66) = (  -0.1316175   0.6556197   0.7602722  )
        67           C   tau(  67) = (   0.8645408   0.5816835   0.1357371  )
        68           C   tau(  68) = (   0.1548762   1.1369596   0.7388259  )
        69           C   tau(  69) = (  -0.2838688   0.5640786   1.0704416  )
        70           H   tau(  70) = (   0.8531256   0.5379092   0.0233483  )
        71           H   tau(  71) = (   0.1434611   0.0349719   0.6264382  )
        72           H   tau(  72) = (  -0.2724536   0.6078529   1.1828304  )
        73           H   tau(  73) = (  -0.0379230   0.5318136   0.1885139  )
        74           H   tau(  74) = (   0.2524136   0.0410674   0.7916027  )
        75           H   tau(  75) = (   0.6185950   0.6139485   1.0176648  )
        76           H   tau(  76) = (   0.8797866   0.7022007   0.1303716  )
        77           H   tau(  77) = (   0.1701231   1.0164425   0.7334615  )
        78           H   tau(  78) = (  -0.2991145   0.4435614   1.0758071  )
        79           F   tau(  79) = (   0.0198806   0.3753486   0.5540284  )
        80           F   tau(  80) = (   0.3102161   0.1975324   1.1571183  )
        81           F   tau(  81) = (   0.5607914   0.7704135   0.6521503  )
        82           N   tau(  82) = (   0.7329254   0.5459423   0.2206222  )
        83           N   tau(  83) = (   0.0232619   0.0269388   0.8237111  )
        84           N   tau(  84) = (  -0.1522534   0.5998198   0.9855565  )
        85           O   tau(  85) = (   0.1685134   0.1810431   0.0005197  )
        86           O   tau(  86) = (   0.4588489   0.3918380   0.6036085  )
        87           O   tau(  87) = (   0.4121586   0.9647190   1.2056590  )
        88           H   tau(  88) = (  -0.1496406   0.2354739   1.1852200  )
        89           H   tau(  89) = (   0.5600239   0.3374072   0.5821312  )
        90           H   tau(  90) = (   0.7303126   0.9102882   0.0209587  )
        91           O   tau(  91) = (   0.3939587   0.3257950   0.0094119  )
        92           O   tau(  92) = (   0.6842953   0.2470860   0.6125007  )
        93           O   tau(  93) = (   0.1867133   0.8199671   1.1967679  )
        94           H   tau(  94) = (   0.2628276   0.4379756   0.4263432  )
        95           H   tau(  95) = (   0.5531630   0.1349055   1.0294320  )
        96           H   tau(  96) = (   0.3178444   0.7077865   0.7798366  )
        97           H   tau(  97) = (   0.4683586   0.4666978   0.3412467  )
        98           H   tau(  98) = (  -0.2413049   0.1061832   0.9443367  )
        99           H   tau(  99) = (   0.1123134   0.6790643   0.8649320  )
       100           H   tau( 100) = (   0.6333328   0.4480012   0.0425320  )
       101           H   tau( 101) = (  -0.0763317   0.1248799   0.6456220  )
       102           H   tau( 102) = (  -0.0526608   0.6977609   1.1636467  )
       103           H   tau( 103) = (  -0.1479055   0.2085708   0.3882928  )
       104           H   tau( 104) = (   0.1424311   0.3643102   0.9913816  )
       105           H   tau( 105) = (   0.7285775   0.9371913   0.8178859  )
       106           H   tau( 106) = (   0.9223301   0.1221223   0.1317939  )
       107           H   tau( 107) = (   0.2126656   0.4507587   0.7348827  )
       108           H   tau( 108) = (  -0.3416581   1.0236398   1.0743848  )

     number of k points=    12
                       cart. coord. in units 2pi/alat
        k(    1) = (   0.0000000   0.0000000   0.0000000), wk =   0.1250000
        k(    2) = (   0.0000000   0.0000000   0.2072661), wk =   0.2500000
        k(    3) = (   0.0000000   0.0000000  -0.4145322), wk =   0.1250000
        k(    4) = (   0.0000000  -0.4363908   0.0000000), wk =   0.1250000
        k(    5) = (   0.0000000  -0.4363908   0.2072661), wk =   0.2500000
        k(    6) = (   0.0000000  -0.4363908  -0.4145322), wk =   0.1250000
        k(    7) = (  -0.5000000   0.0000000  -0.1738249), wk =   0.1250000
        k(    8) = (  -0.5000000   0.0000000   0.0334412), wk =   0.2500000
        k(    9) = (  -0.5000000   0.0000000  -0.5883571), wk =   0.1250000
        k(   10) = (  -0.5000000  -0.4363908  -0.1738249), wk =   0.1250000
        k(   11) = (  -0.5000000  -0.4363908   0.0334412), wk =   0.2500000
        k(   12) = (  -0.5000000  -0.4363908  -0.5883571), wk =   0.1250000

     Dense  grid:   154425 G-vectors     FFT dimensions: (  60,  72,  80)

     Estimated max dynamical RAM per process >    1267.87MB

     Check: negative/imaginary core charge=   -0.000684    0.000000

     Initial potential from superposition of free atoms

     starting charge  315.37983, renormalised to  320.00000
     Starting wfc are  288 randomized atomic wfcs

     total cpu time spent up to now is       69.7 secs

     per-process dynamical memory:   929.8 Mb

     Self-consistent Calculation

     iteration #  1     ecut=    30.00 Ry     beta=0.70
     Davidson diagonalization with overlap
     ethr =  1.00E-02,  avg # of iterations =  2.0

     total cpu time spent up to now is      211.7 secs

     total energy              =   -1086.27463214 Ry
     Harris-Foulkes estimate   =   -1099.31419072 Ry
     estimated scf accuracy    <      19.14876473 Ry

     iteration #  2     ecut=    30.00 Ry     beta=0.70
     Davidson diagonalization with overlap
     ethr =  5.98E-03,  avg # of iterations =  4.0

     total cpu time spent up to now is      356.5 secs

     total energy              =   -1088.49972973 Ry
     Harris-Foulkes estimate   =   -1094.55165654 Ry
     estimated scf accuracy    <      11.01755174 Ry

     iteration #  3     ecut=    30.00 Ry     beta=0.70
     Davidson diagonalization with overlap
     ethr =  3.44E-03,  avg # of iterations =  4.0

     total cpu time spent up to now is      495.9 secs

     total energy              =   -1091.05113990 Ry
     Harris-Foulkes estimate   =   -1092.12408304 Ry
     estimated scf accuracy    <       2.08746634 Ry

     iteration #  4     ecut=    30.00 Ry     beta=0.70
     Davidson diagonalization with overlap
     ethr =  6.52E-04,  avg # of iterations =  4.0

     total cpu time spent up to now is      629.5 secs

     total energy              =   -1091.48571327 Ry
     Harris-Foulkes estimate   =   -1091.74314377 Ry
     estimated scf accuracy    <       0.57254643 Ry

     iteration #  5     ecut=    30.00 Ry     beta=0.70
     Davidson diagonalization with overlap
     ethr =  1.79E-04,  avg # of iterations =  4.0

     total cpu time spent up to now is      757.8 secs

     total energy              =   -1091.60003796 Ry
     Harris-Foulkes estimate   =   -1091.61563942 Ry
     estimated scf accuracy    <       0.03177733 Ry

     iteration #  6     ecut=    30.00 Ry     beta=0.70
     Davidson diagonalization with overlap
     ethr =  9.93E-06,  avg # of iterations =  4.0

     total cpu time spent up to now is      894.8 secs

     total energy              =   -1091.60809366 Ry
     Harris-Foulkes estimate   =   -1091.60991097 Ry
     estimated scf accuracy    <       0.00390357 Ry

     iteration #  7     ecut=    30.00 Ry     beta=0.70
     Davidson diagonalization with overlap
     ethr =  1.22E-06,  avg # of iterations =  4.0

     total cpu time spent up to now is     1029.2 secs

     total energy              =   -1091.60888432 Ry
     Harris-Foulkes estimate   =   -1091.60928402 Ry
     estimated scf accuracy    <       0.00085085 Ry

     iteration #  8     ecut=    30.00 Ry     beta=0.70
     Davidson diagonalization with overlap
     ethr =  2.66E-07,  avg # of iterations =  4.0

     total cpu time spent up to now is     1165.1 secs

     total energy              =   -1091.60908437 Ry
     Harris-Foulkes estimate   =   -1091.60911702 Ry
     estimated scf accuracy    <       0.00007965 Ry

     iteration #  9     ecut=    30.00 Ry     beta=0.70
     Davidson diagonalization with overlap
     ethr =  2.49E-08,  avg # of iterations =  3.9

     total cpu time spent up to now is     1299.4 secs

     total energy              =   -1091.60909986 Ry
     Harris-Foulkes estimate   =   -1091.60910591 Ry
     estimated scf accuracy    <       0.00001232 Ry

     iteration # 10     ecut=    30.00 Ry     beta=0.70
     Davidson diagonalization with overlap
     ethr =  3.85E-09,  avg # of iterations =  3.0

     total cpu time spent up to now is     1431.0 secs

     total energy              =   -1091.60910265 Ry
     Harris-Foulkes estimate   =   -1091.60910318 Ry
     estimated scf accuracy    <       0.00000114 Ry

     iteration # 11     ecut=    30.00 Ry     beta=0.70
     Davidson diagonalization with overlap
     ethr =  3.58E-10,  avg # of iterations =  4.0

     total cpu time spent up to now is     1571.6 secs

     total energy              =   -1091.60910292 Ry
     Harris-Foulkes estimate   =   -1091.60910305 Ry
     estimated scf accuracy    <       0.00000031 Ry

     iteration # 12     ecut=    30.00 Ry     beta=0.70
     Davidson diagonalization with overlap
     ethr =  9.54E-11,  avg # of iterations =  4.0

     total cpu time spent up to now is     1700.7 secs

     End of self-consistent calculation

          k = 0.0000 0.0000 0.0000 ( 19295 PWs)   bands (ev):

   -24.2854 -24.2852 -24.2851 -24.2850 -20.1724 -20.1692 -20.1680 -20.1659
   -19.0115 -19.0087 -19.0045 -19.0011 -18.1607 -18.1579 -18.1571 -18.1566
   -15.2138 -15.1907 -15.1897 -15.1693 -13.3865 -13.3669 -13.3167 -13.3015
   -12.7765 -12.7632 -12.7485 -12.7399 -12.0827 -12.0458 -12.0377 -12.0127
   -11.9848 -11.9840 -11.9107 -11.8973 -11.1245 -11.0932 -11.0865 -11.0467
    -9.8527  -9.8503  -9.8469  -9.8149  -8.9059  -8.8481  -8.7437  -8.6942
    -8.5929  -8.4741  -8.4151  -8.3258  -7.4835  -7.4460  -7.3874  -7.3694
    -7.1866  -7.0980  -7.0951  -7.0745  -6.8056  -6.7405  -6.5803  -6.5094
    -6.3177  -6.2647  -6.2510  -6.1626  -6.1449  -6.1048  -6.0948  -6.0811
    -5.8149  -5.6252  -5.6076  -5.5831  -5.5535  -5.5252  -5.4691  -5.3948
    -5.0436  -5.0192  -4.8950  -4.8919  -4.8519  -4.8343  -4.8280  -4.7732
    -4.5892  -4.5486  -4.4854  -4.3198  -4.3001  -4.2929  -4.2629  -4.2496
    -4.2039  -4.1398  -4.1177  -4.1112  -3.9637  -3.9504  -3.9052  -3.8522
    -3.8512  -3.7480  -3.7222  -3.6969  -3.6942  -3.6439  -3.6175  -3.5873
    -3.5375  -3.5159  -3.4738  -3.4359  -3.2270  -3.2090  -3.1891  -3.1674
    -3.1357  -3.0031  -2.9502  -2.9471  -2.9448  -2.8688  -2.7705  -2.7512
    -2.5341  -2.4540  -2.3475  -2.3240  -2.2783  -2.1862  -2.0545  -2.0275
    -1.8742  -1.7660  -1.7273  -1.7002  -1.6518  -1.6118  -1.6093  -1.5019
    -0.5760  -0.5532  -0.3464  -0.3332   0.1376   0.1619   0.2858   0.3078
     0.5806   0.6790   0.6818   0.7036   0.9243   1.0550   1.0671   1.0904

          k = 0.0000 0.0000 0.2073 ( 19281 PWs)   bands (ev):

   -24.2854 -24.2852 -24.2851 -24.2850 -20.1717 -20.1688 -20.1686 -20.1664
   -19.0111 -19.0091 -19.0040 -19.0016 -18.1605 -18.1587 -18.1567 -18.1565
   -15.2104 -15.1941 -15.1867 -15.1722 -13.3842 -13.3706 -13.3138 -13.3033
   -12.7749 -12.7658 -12.7469 -12.7411 -12.0851 -12.0559 -12.0338 -12.0157
   -11.9777 -11.9647 -11.9117 -11.9105 -11.1217 -11.1049 -11.0740 -11.0508
    -9.8512  -9.8469  -9.8440  -9.8192  -8.8952  -8.8222  -8.7872  -8.7078
    -8.5549  -8.4624  -8.4214  -8.3652  -7.4902  -7.4255  -7.4226  -7.3668
    -7.1920  -7.0994  -7.0734  -7.0624  -6.7676  -6.7146  -6.6208  -6.5420
    -6.3172  -6.2696  -6.2546  -6.1501  -6.1499  -6.1175  -6.0885  -6.0684
    -5.7609  -5.6039  -5.5917  -5.5759  -5.5421  -5.5309  -5.4845  -5.4566
    -5.0400  -5.0330  -4.8892  -4.8837  -4.8540  -4.8487  -4.8299  -4.7714
    -4.5837  -4.5698  -4.4763  -4.3686  -4.3206  -4.3031  -4.2442  -4.2407
    -4.2126  -4.1762  -4.0986  -4.0973  -4.0102  -3.9272  -3.9221  -3.8467
    -3.8311  -3.7385  -3.7169  -3.6959  -3.6877  -3.6311  -3.5871  -3.5538
    -3.5223  -3.5045  -3.4781  -3.4584  -3.2308  -3.2197  -3.1852  -3.1747
    -3.1367  -3.0221  -2.9407  -2.9403  -2.8872  -2.8541  -2.7758  -2.7653
    -2.5123  -2.4422  -2.3793  -2.3457  -2.2564  -2.1598  -2.1019  -2.0457
    -1.8763  -1.7757  -1.7614  -1.7111  -1.6421  -1.6077  -1.5779  -1.5070
    -0.5691  -0.5528  -0.3444  -0.3354   0.1589   0.1827   0.2636   0.2862
     0.5979   0.6686   0.6832   0.7007   0.9446   1.0444   1.0610   1.0872

          k = 0.0000 0.0000-0.4145 ( 19300 PWs)   bands (ev):

   -24.2854 -24.2853 -24.2851 -24.2850 -20.1703 -20.1701 -20.1677 -20.1675
   -19.0102 -19.0100 -19.0029 -19.0027 -18.1598 -18.1597 -18.1565 -18.1563
   -15.2023 -15.2022 -15.1795 -15.1794 -13.3781 -13.3780 -13.3081 -13.3079
   -12.7707 -12.7706 -12.7439 -12.7438 -12.0765 -12.0765 -12.0246 -12.0245
   -11.9524 -11.9524 -11.9238 -11.9238 -11.1151 -11.1150 -11.0610 -11.0609
    -9.8482  -9.8481  -9.8310  -9.8309  -8.8539  -8.8538  -8.7627  -8.7626
    -8.4612  -8.4611  -8.4391  -8.4390  -7.4720  -7.4720  -7.3906  -7.3906
    -7.1536  -7.1536  -7.0444  -7.0443  -6.6981  -6.6980  -6.6304  -6.6303
    -6.2886  -6.2885  -6.2417  -6.2416  -6.1071  -6.1070  -6.0650  -6.0649
    -5.6280  -5.6279  -5.5729  -5.5728  -5.5514  -5.5513  -5.5108  -5.5107
    -5.0428  -5.0428  -4.8856  -4.8856  -4.8602  -4.8602  -4.7968  -4.7968
    -4.5740  -4.5739  -4.4379  -4.4378  -4.3442  -4.3441  -4.2291  -4.2290
    -4.2119  -4.2119  -4.0907  -4.0907  -3.9817  -3.9816  -3.8796  -3.8795
    -3.7531  -3.7530  -3.7215  -3.7214  -3.6589  -3.6589  -3.5326  -3.5325
    -3.5012  -3.5012  -3.4798  -3.4797  -3.2305  -3.2304  -3.1891  -3.1891
    -3.0836  -3.0835  -2.9223  -2.9223  -2.8289  -2.8288  -2.7961  -2.7960
    -2.4505  -2.4505  -2.4008  -2.4007  -2.1894  -2.1893  -2.1018  -2.1017
    -1.8475  -1.8475  -1.7405  -1.7405  -1.6193  -1.6192  -1.5316  -1.5315
    -0.5573  -0.5572  -0.3401  -0.3400   0.2107   0.2107   0.2339   0.2340
     0.6355   0.6355   0.6920   0.6921   0.9939   0.9939   1.0748   1.0749

          k = 0.0000-0.4364 0.0000 ( 19270 PWs)   bands (ev):

   -24.2854 -24.2853 -24.2850 -24.2849 -20.1708 -20.1708 -20.1670 -20.1670
   -19.0096 -19.0094 -19.0034 -19.0033 -18.1593 -18.1593 -18.1568 -18.1568
   -15.2019 -15.2019 -15.1800 -15.1800 -13.3532 -13.3531 -13.3349 -13.3348
   -12.7668 -12.7667 -12.7441 -12.7440 -12.0635 -12.0635 -12.0285 -12.0285
   -11.9842 -11.9842 -11.9029 -11.9029 -11.1048 -11.1048 -11.0719 -11.0719
    -9.8491  -9.8491  -9.8298  -9.8298  -8.8799  -8.8799  -8.7205  -8.7205
    -8.5440  -8.5440  -8.3570  -8.3570  -7.4613  -7.4613  -7.3879  -7.3878
    -7.1574  -7.1574  -7.0750  -7.0750  -6.7572  -6.7571  -6.5543  -6.5543
    -6.2975  -6.2975  -6.1831  -6.1831  -6.1153  -6.1152  -6.1078  -6.1077
    -5.7383  -5.7383  -5.6059  -5.6058  -5.5431  -5.5431  -5.4180  -5.4180
    -4.9680  -4.9679  -4.9270  -4.9270  -4.8502  -4.8502  -4.7857  -4.7857
    -4.5542  -4.5541  -4.4012  -4.4011  -4.3487  -4.3486  -4.2549  -4.2548
    -4.2017  -4.2016  -4.1357  -4.1357  -3.9435  -3.9435  -3.8966  -3.8966
    -3.7405  -3.7404  -3.6985  -3.6984  -3.6608  -3.6607  -3.6275  -3.6274
    -3.5042  -3.5041  -3.4692  -3.4691  -3.2116  -3.2116  -3.1822  -3.1822
    -3.0233  -3.0232  -2.9544  -2.9544  -2.9459  -2.9458  -2.7569  -2.7569
    -2.4812  -2.4812  -2.3289  -2.3289  -2.2473  -2.2472  -2.0354  -2.0354
    -1.8265  -1.8264  -1.6947  -1.6947  -1.6707  -1.6707  -1.5340  -1.5339
    -0.4719  -0.4718  -0.4343  -0.4341   0.1475   0.1475   0.2983   0.2984
     0.6442   0.6442   0.6920   0.6921   0.9755   0.9756   1.0754   1.0754

          k = 0.0000-0.4364 0.2073 ( 19292 PWs)   bands (ev):

   -24.2854 -24.2853 -24.2851 -24.2850 -20.1703 -20.1702 -20.1676 -20.1675
   -19.0094 -19.0093 -19.0036 -19.0035 -18.1594 -18.1594 -18.1567 -18.1567
   -15.1987 -15.1987 -15.1832 -15.1832 -13.3531 -13.3530 -13.3351 -13.3350
   -12.7661 -12.7659 -12.7451 -12.7450 -12.0642 -12.0642 -12.0349 -12.0349
   -11.9693 -11.9693 -11.9104 -11.9104 -11.1056 -11.1056 -11.0714 -11.0713
    -9.8456  -9.8456  -9.8319  -9.8318  -8.8615  -8.8615  -8.7500  -8.7500
    -8.5153  -8.5152  -8.3833  -8.3832  -7.4690  -7.4690  -7.3906  -7.3905
    -7.1440  -7.1440  -7.0693  -7.0692  -6.7329  -6.7329  -6.5860  -6.5860
    -6.3009  -6.3008  -6.1914  -6.1914  -6.1248  -6.1248  -6.0880  -6.0879
    -5.6936  -5.6936  -5.5913  -5.5912  -5.5435  -5.5434  -5.4590  -5.4589
    -4.9651  -4.9650  -4.9382  -4.9381  -4.8459  -4.8459  -4.7984  -4.7984
    -4.5413  -4.5413  -4.4409  -4.4408  -4.3321  -4.3321  -4.2695  -4.2695
    -4.1939  -4.1938  -4.1480  -4.1480  -3.9684  -3.9683  -3.9014  -3.9013
    -3.7263  -3.7263  -3.7104  -3.7103  -3.6141  -3.6141  -3.5918  -3.5918
    -3.5165  -3.5165  -3.4772  -3.4771  -3.2110  -3.2110  -3.1887  -3.1887
    -3.0294  -3.0294  -2.9482  -2.9482  -2.9065  -2.9065  -2.7719  -2.7718
    -2.4696  -2.4696  -2.3557  -2.3556  -2.2248  -2.2248  -2.0634  -2.0633
    -1.8227  -1.8227  -1.7295  -1.7295  -1.6514  -1.6514  -1.5303  -1.5303
    -0.4655  -0.4654  -0.4374  -0.4373   0.1683   0.1684   0.2766   0.2766
     0.6530   0.6530   0.6866   0.6866   0.9865   0.9865   1.0634   1.0634

          k = 0.0000-0.4364-0.4145 ( 19320 PWs)   bands (ev):

   -24.2854 -24.2853 -24.2851 -24.2850 -20.1693 -20.1690 -20.1688 -20.1686
   -19.0092 -19.0091 -19.0039 -19.0037 -18.1595 -18.1595 -18.1566 -18.1566
   -15.1920 -15.1918 -15.1902 -15.1900 -13.3530 -13.3530 -13.3353 -13.3352
   -12.7652 -12.7651 -12.7462 -12.7461 -12.0624 -12.0623 -12.0432 -12.0431
   -11.9476 -11.9476 -11.9253 -11.9253 -11.1063 -11.1063 -11.0709 -11.0709
    -9.8387  -9.8386  -9.8374  -9.8372  -8.8135  -8.8134  -8.8082  -8.8081
    -8.4485  -8.4485  -8.4485  -8.4484  -7.4761  -7.4761  -7.3932  -7.3932
    -7.1296  -7.1296  -7.0649  -7.0648  -6.6892  -6.6891  -6.6360  -6.6360
    -6.2814  -6.2814  -6.2531  -6.2530  -6.0877  -6.0876  -6.0822  -6.0821
    -5.6021  -5.6021  -5.5901  -5.5901  -5.5626  -5.5626  -5.5189  -5.5189
    -4.9666  -4.9665  -4.9436  -4.9435  -4.8294  -4.8293  -4.8253  -4.8252
    -4.5144  -4.5143  -4.4840  -4.4839  -4.3295  -4.3295  -4.2669  -4.2669
    -4.2012  -4.2012  -4.1650  -4.1650  -3.9572  -3.9571  -3.9227  -3.9227
    -3.7346  -3.7346  -3.6971  -3.6971  -3.5777  -3.5777  -3.5760  -3.5760
    -3.5016  -3.5015  -3.4969  -3.4968  -3.2053  -3.2053  -3.2000  -3.1999
    -3.0330  -3.0330  -2.9430  -2.9430  -2.8549  -2.8548  -2.8016  -2.8015
    -2.4358  -2.4357  -2.4040  -2.4039  -2.1908  -2.1908  -2.1041  -2.1040
    -1.7968  -1.7967  -1.7827  -1.7825  -1.6334  -1.6334  -1.5292  -1.5292
    -0.4560  -0.4558  -0.4438  -0.4437   0.2092   0.2092   0.2349   0.2349
     0.6701   0.6701   0.6730   0.6730   1.0028   1.0028   1.0460   1.0460

          k =-0.5000 0.0000-0.1738 ( 19314 PWs)   bands (ev):

   -24.2854 -24.2853 -24.2851 -24.2850 -20.1693 -20.1691 -20.1687 -20.1685
   -19.0094 -19.0093 -19.0038 -19.0037 -18.1617 -18.1617 -18.1540 -18.1540
   -15.2053 -15.2052 -15.1804 -15.1803 -13.3367 -13.3366 -13.3206 -13.3204
   -12.7816 -12.7814 -12.7574 -12.7573 -12.0747 -12.0746 -12.0289 -12.0288
   -11.9803 -11.9803 -11.9038 -11.9038 -11.1170 -11.1170 -11.0504 -11.0503
    -9.8662  -9.8661  -9.8231  -9.8231  -8.8647  -8.8646  -8.7595  -8.7594
    -8.4510  -8.4510  -8.4156  -8.4155  -7.4908  -7.4908  -7.3560  -7.3560
    -7.1420  -7.1420  -7.0900  -7.0900  -6.7108  -6.7108  -6.5924  -6.5924
    -6.2533  -6.2533  -6.2456  -6.2456  -6.1448  -6.1447  -6.0701  -6.0700
    -5.6703  -5.6703  -5.6150  -5.6150  -5.5429  -5.5428  -5.5238  -5.5237
    -4.9803  -4.9803  -4.8721  -4.8720  -4.8508  -4.8507  -4.8003  -4.8002
    -4.5415  -4.5415  -4.3821  -4.3820  -4.3534  -4.3534  -4.2229  -4.2229
    -4.1956  -4.1956  -4.1346  -4.1345  -3.9122  -3.9122  -3.8967  -3.8967
    -3.7885  -3.7885  -3.7276  -3.7276  -3.6815  -3.6815  -3.5704  -3.5704
    -3.5211  -3.5210  -3.4504  -3.4503  -3.2027  -3.2027  -3.1751  -3.1751
    -3.0609  -3.0609  -2.9665  -2.9665  -2.9355  -2.9354  -2.8344  -2.8343
    -2.4950  -2.4949  -2.4307  -2.4306  -2.1064  -2.1063  -2.0257  -2.0256
    -1.8050  -1.8050  -1.7632  -1.7632  -1.6350  -1.6349  -1.5268  -1.5266
    -0.5945  -0.5944  -0.3335  -0.3334   0.1972   0.1972   0.2293   0.2294
     0.6418   0.6418   0.7151   0.7152   1.0377   1.0378   1.1352   1.1352

          k =-0.5000 0.0000 0.0334 ( 19317 PWs)   bands (ev):

   -24.2854 -24.2853 -24.2851 -24.2850 -20.1705 -20.1699 -20.1678 -20.1674
   -19.0099 -19.0088 -19.0050 -19.0025 -18.1625 -18.1607 -18.1543 -18.1540
   -15.2112 -15.1991 -15.1853 -15.1753 -13.3390 -13.3347 -13.3263 -13.3152
   -12.7932 -12.7754 -12.7686 -12.7397 -12.0811 -12.0672 -12.0389 -12.0195
   -11.9731 -11.9719 -11.9200 -11.9052 -11.1209 -11.1042 -11.0621 -11.0452
    -9.9111  -9.8557  -9.8179  -9.7935  -8.9053  -8.8215  -8.7974  -8.7009
    -8.4877  -8.4596  -8.4095  -8.3982  -7.4938  -7.4675  -7.3675  -7.3487
    -7.1827  -7.1179  -7.1067  -7.0506  -6.7425  -6.6705  -6.6230  -6.5825
    -6.3432  -6.2873  -6.2644  -6.2278  -6.1224  -6.1072  -6.0679  -6.0553
    -5.7747  -5.6533  -5.6236  -5.6071  -5.5442  -5.5099  -5.4770  -5.4362
    -4.9990  -4.9726  -4.8846  -4.8581  -4.8442  -4.8419  -4.8235  -4.8035
    -4.5575  -4.5107  -4.4331  -4.3838  -4.3101  -4.3013  -4.2513  -4.2395
    -4.2034  -4.1672  -4.1620  -4.1243  -3.9678  -3.9542  -3.9458  -3.8547
    -3.7777  -3.7612  -3.7286  -3.6953  -3.6519  -3.6503  -3.6125  -3.5733
    -3.5616  -3.4781  -3.4531  -3.4450  -3.2109  -3.1909  -3.1798  -3.1741
    -3.0774  -3.0640  -2.9998  -2.9737  -2.9560  -2.8652  -2.8444  -2.7933
    -2.5338  -2.4567  -2.4545  -2.4129  -2.2450  -2.1707  -1.9751  -1.9319
    -1.9023  -1.7727  -1.7456  -1.6997  -1.6294  -1.6270  -1.5597  -1.5028
    -0.6017  -0.5829  -0.3415  -0.3307   0.1871   0.2078   0.2159   0.2433
     0.6119   0.6745   0.6950   0.7307   1.0086   1.0807   1.1199   1.1403

          k =-0.5000 0.0000-0.5884 ( 19322 PWs)   bands (ev):

   -24.2854 -24.2853 -24.2851 -24.2850 -20.1710 -20.1704 -20.1672 -20.1669
   -19.0101 -19.0086 -19.0056 -19.0020 -18.1627 -18.1601 -18.1546 -18.1541
   -15.2137 -15.1965 -15.1873 -15.1732 -13.3401 -13.3340 -13.3289 -13.3132
   -12.7974 -12.7831 -12.7630 -12.7324 -12.0808 -12.0667 -12.0429 -12.0166
   -11.9729 -11.9482 -11.9254 -11.9252 -11.1207 -11.0941 -11.0684 -11.0468
    -9.9294  -9.8694  -9.7918  -9.7872  -8.9154  -8.8483  -8.7543  -8.6832
    -8.5071  -8.4764  -8.4071  -8.3885  -7.4858  -7.4523  -7.3784  -7.3459
    -7.2004  -7.1267  -7.0928  -7.0293  -6.7446  -6.6705  -6.6476  -6.5688
    -6.3919  -6.3074  -6.2887  -6.2310  -6.1108  -6.1106  -6.0519  -6.0421
    -5.7881  -5.6691  -5.6456  -5.5902  -5.5443  -5.5068  -5.4077  -5.3852
    -5.0082  -4.9710  -4.8830  -4.8523  -4.8472  -4.8339  -4.8313  -4.8275
    -4.5533  -4.4926  -4.4468  -4.4048  -4.2822  -4.2603  -4.2483  -4.2337
    -4.2296  -4.1833  -4.1500  -4.1186  -4.0207  -3.9820  -3.9534  -3.8865
    -3.7564  -3.7511  -3.7088  -3.6917  -3.6608  -3.6027  -3.5980  -3.5664
    -3.5611  -3.4888  -3.4800  -3.4530  -3.2142  -3.1790  -3.1783  -3.1780
    -3.0896  -3.0662  -3.0055  -2.9707  -2.9546  -2.8648  -2.8074  -2.7787
    -2.5528  -2.4574  -2.4266  -2.4244  -2.2864  -2.2763  -1.9420  -1.9135
    -1.9107  -1.7761  -1.7274  -1.6661  -1.6160  -1.6139  -1.5797  -1.4982
    -0.6033  -0.5769  -0.3463  -0.3313   0.1834   0.2107   0.2122   0.2494
     0.6010   0.6847   0.6888   0.7360   0.9993   1.1120   1.1162   1.1256

          k =-0.5000-0.4364-0.1738 ( 19308 PWs)   bands (ev):

   -24.2854 -24.2852 -24.2851 -24.2850 -20.1702 -20.1700 -20.1678 -20.1676
   -19.0103 -19.0102 -19.0030 -19.0029 -18.1616 -18.1616 -18.1541 -18.1541
   -15.1941 -15.1939 -15.1919 -15.1917 -13.3303 -13.3302 -13.3255 -13.3254
   -12.7763 -12.7762 -12.7645 -12.7644 -12.0528 -12.0527 -12.0527 -12.0526
   -11.9792 -11.9792 -11.9032 -11.9032 -11.1165 -11.1165 -11.0500 -11.0500
    -9.8550  -9.8548  -9.8333  -9.8332  -8.8217  -8.8216  -8.8093  -8.8091
    -8.4459  -8.4458  -8.4178  -8.4178  -7.4854  -7.4854  -7.3531  -7.3531
    -7.1297  -7.1296  -7.1060  -7.1060  -6.7044  -6.7043  -6.6021  -6.6020
    -6.2590  -6.2589  -6.2401  -6.2400  -6.1351  -6.1350  -6.0906  -6.0905
    -5.6489  -5.6488  -5.5925  -5.5924  -5.5717  -5.5717  -5.5250  -5.5250
    -4.9189  -4.9188  -4.9009  -4.9007  -4.8562  -4.8561  -4.7939  -4.7939
    -4.4957  -4.4957  -4.4815  -4.4815  -4.3646  -4.3646  -4.3177  -4.3177
    -4.1342  -4.1341  -4.0693  -4.0693  -3.9349  -3.9348  -3.8978  -3.8976
    -3.7667  -3.7667  -3.7588  -3.7587  -3.6398  -3.6397  -3.6101  -3.6101
    -3.5021  -3.5020  -3.4651  -3.4650  -3.1903  -3.1903  -3.1767  -3.1767
    -3.0708  -3.0707  -2.9619  -2.9618  -2.8919  -2.8918  -2.8538  -2.8537
    -2.4634  -2.4633  -2.4592  -2.4592  -2.0842  -2.0842  -2.0452  -2.0451
    -1.7937  -1.7937  -1.7479  -1.7477  -1.6098  -1.6098  -1.5956  -1.5956
    -0.4699  -0.4698  -0.4589  -0.4587   0.1975   0.1975   0.2288   0.2289
     0.6801   0.6801   0.6829   0.6830   1.0486   1.0486   1.1219   1.1219

          k =-0.5000-0.4364 0.0334 ( 19312 PWs)   bands (ev):

   -24.2854 -24.2853 -24.2851 -24.2850 -20.1707 -20.1706 -20.1672 -20.1670
   -19.0104 -19.0103 -19.0029 -19.0028 -18.1615 -18.1615 -18.1542 -18.1542
   -15.1985 -15.1984 -15.1872 -15.1872 -13.3326 -13.3325 -13.3237 -13.3236
   -12.7865 -12.7865 -12.7537 -12.7537 -12.0620 -12.0619 -12.0434 -12.0434
   -11.9714 -11.9714 -11.9119 -11.9119 -11.1131 -11.1131 -11.0522 -11.0522
    -9.8841  -9.8841  -9.8038  -9.8037  -8.8685  -8.8685  -8.7499  -8.7499
    -8.4709  -8.4709  -8.4044  -8.4044  -7.4764  -7.4764  -7.3555  -7.3555
    -7.1591  -7.1591  -7.0746  -7.0746  -6.7080  -6.7079  -6.6043  -6.6042
    -6.3256  -6.3256  -6.2290  -6.2290  -6.1050  -6.1050  -6.0814  -6.0813
    -5.6971  -5.6971  -5.6266  -5.6266  -5.5432  -5.5432  -5.4389  -5.4389
    -4.9435  -4.9434  -4.8896  -4.8894  -4.8581  -4.8581  -4.8057  -4.8056
    -4.5191  -4.5191  -4.4366  -4.4365  -4.3397  -4.3396  -4.2911  -4.2911
    -4.1693  -4.1692  -4.0895  -4.0894  -3.9928  -3.9928  -3.8713  -3.8712
    -3.7593  -3.7592  -3.7172  -3.7172  -3.6707  -3.6706  -3.6077  -3.6076
    -3.5177  -3.5177  -3.4371  -3.4370  -3.1918  -3.1917  -3.1757  -3.1757
    -3.0849  -3.0849  -2.9726  -2.9726  -2.8952  -2.8952  -2.8195  -2.8195
    -2.4901  -2.4900  -2.4289  -2.4289  -2.2113  -2.2113  -1.9487  -1.9487
    -1.8207  -1.8207  -1.7211  -1.7210  -1.6442  -1.6442  -1.5515  -1.5514
    -0.4744  -0.4743  -0.4556  -0.4555   0.1945   0.1945   0.2327   0.2327
     0.6552   0.6552   0.7070   0.7070   1.0463   1.0463   1.1257   1.1258

          k =-0.5000-0.4364-0.5884 ( 19296 PWs)   bands (ev):

   -24.2854 -24.2853 -24.2851 -24.2850 -20.1711 -20.1710 -20.1668 -20.1666
   -19.0105 -19.0104 -19.0028 -19.0026 -18.1614 -18.1614 -18.1543 -18.1543
   -15.2007 -15.2007 -15.1849 -15.1849 -13.3342 -13.3341 -13.3225 -13.3225
   -12.7923 -12.7923 -12.7475 -12.7474 -12.0640 -12.0640 -12.0424 -12.0423
   -11.9579 -11.9579 -11.9253 -11.9253 -11.1095 -11.1095 -11.0546 -11.0546
    -9.8996  -9.8996  -9.7880  -9.7879  -8.8876  -8.8875  -8.7170  -8.7169
    -8.4903  -8.4902  -8.3980  -8.3980  -7.4664  -7.4664  -7.3602  -7.3602
    -7.1727  -7.1727  -7.0582  -7.0581  -6.7069  -6.7068  -6.6130  -6.6129
    -6.3540  -6.3540  -6.2476  -6.2476  -6.0966  -6.0965  -6.0581  -6.0581
    -5.7218  -5.7218  -5.6344  -5.6344  -5.5315  -5.5314  -5.3838  -5.3837
    -4.9614  -4.9613  -4.8854  -4.8853  -4.8545  -4.8545  -4.8202  -4.8201
    -4.5257  -4.5256  -4.4196  -4.4195  -4.2957  -4.2957  -4.2603  -4.2603
    -4.2019  -4.2019  -4.1114  -4.1114  -4.0245  -4.0245  -3.8884  -3.8884
    -3.7451  -3.7451  -3.7032  -3.7032  -3.6642  -3.6641  -3.6114  -3.6113
    -3.5064  -3.5063  -3.4520  -3.4520  -3.1904  -3.1904  -3.1767  -3.1767
    -3.0918  -3.0918  -2.9694  -2.9694  -2.8943  -2.8943  -2.7989  -2.7988
    -2.4932  -2.4932  -2.4171  -2.4171  -2.2902  -2.2902  -1.9055  -1.9055
    -1.8407  -1.8407  -1.6919  -1.6919  -1.6675  -1.6675  -1.5280  -1.5280
    -0.4776  -0.4775  -0.4535  -0.4535   0.1922   0.1922   0.2359   0.2359
     0.6440   0.6440   0.7174   0.7174   1.0444   1.0445   1.1294   1.1294

     highest occupied level (ev):     1.1403

!    total energy              =   -1091.60910298 Ry
     Harris-Foulkes estimate   =   -1091.60910300 Ry
     estimated scf accuracy    <       0.00000003 Ry

     The total energy is the sum of the following terms:

     one-electron contribution =    -818.47738255 Ry
     hartree contribution      =     521.92976572 Ry
     xc contribution           =    -307.02792571 Ry
     ewald contribution        =    -487.56383216 Ry
     Dispersion Correction     =      -0.46972829 Ry

     convergence has been achieved in  12 iterations

     Forces acting on atoms (cartesian axes, Ry/au):

     atom    1 type  1   force =    -0.00006963    0.00007577   -0.00063664
     atom    2 type  1   force =     0.00013059    0.00067858   -0.00076967
     atom    3 type  1   force =     0.00054751   -0.00011691    0.00080603
     atom    4 type  1   force =    -0.00070407   -0.00008196   -0.00033125
     atom    5 type  1   force =    -0.00072608    0.00008820    0.00014276
     atom    6 type  1   force =     0.00000015   -0.00044937    0.00026532
     atom    7 type  1   force =    -0.00035431    0.00039141    0.00043495
     atom    8 type  1   force =    -0.00080745    0.00014847   -0.00008024
     atom    9 type  1   force =     0.00032452    0.00055393   -0.00009622
     atom   10 type  1   force =    -0.00056150    0.00042652   -0.00087894
     atom   11 type  2   force =     0.00034559    0.00036926   -0.00012198
     atom   12 type  2   force =    -0.00083842    0.00022149   -0.00009111
     atom   13 type  2   force =    -0.00006981   -0.00042129   -0.00057542
     atom   14 type  1   force =    -0.00038158   -0.00003098    0.00010288
     atom   15 type  2   force =    -0.00004744   -0.00012901    0.00022231
     atom   16 type  2   force =    -0.00013700    0.00009405    0.00027622
     atom   17 type  2   force =    -0.00027971   -0.00025988   -0.00009024
     atom   18 type  5   force =     0.00014424   -0.00027258   -0.00024539
     atom   19 type  4   force =    -0.00018202    0.00001631   -0.00032310
     atom   20 type  3   force =    -0.00060284    0.00029022    0.00007148
     atom   21 type  2   force =    -0.00092909   -0.00085072    0.00047931
     atom   22 type  3   force =    -0.00003615   -0.00027952    0.00017461
     atom   23 type  2   force =    -0.00063879   -0.00078929    0.00062066
     atom   24 type  2   force =     0.00002432    0.00049793   -0.00020198
     atom   25 type  2   force =    -0.00016029   -0.00003162    0.00059618
     atom   26 type  2   force =    -0.00075170    0.00073621   -0.00041021
     atom   27 type  2   force =     0.00013907    0.00051738    0.00040770
     atom   28 type  1   force =    -0.00013059    0.00067858    0.00076967
     atom   29 type  1   force =    -0.00013059   -0.00067858    0.00076967
     atom   30 type  1   force =     0.00013059   -0.00067858   -0.00076967
     atom   31 type  1   force =     0.00006963    0.00007577    0.00063664
     atom   32 type  1   force =     0.00006963   -0.00007577    0.00063664
     atom   33 type  1   force =    -0.00006963   -0.00007577   -0.00063664
     atom   34 type  1   force =    -0.00054751   -0.00011691   -0.00080603
     atom   35 type  1   force =    -0.00054751    0.00011691   -0.00080603
     atom   36 type  1   force =     0.00054751    0.00011691    0.00080603
     atom   37 type  1   force =     0.00070407   -0.00008196    0.00033125
     atom   38 type  1   force =     0.00070407    0.00008196    0.00033125
     atom   39 type  1   force =    -0.00070407    0.00008196   -0.00033125
     atom   40 type  1   force =     0.00072608    0.00008820   -0.00014276
     atom   41 type  1   force =     0.00072608   -0.00008820   -0.00014276
     atom   42 type  1   force =    -0.00072608   -0.00008820    0.00014276
     atom   43 type  1   force =    -0.00000015   -0.00044937   -0.00026532
     atom   44 type  1   force =    -0.00000015    0.00044937   -0.00026532
     atom   45 type  1   force =     0.00000015    0.00044937    0.00026532
     atom   46 type  1   force =     0.00035431    0.00039141   -0.00043495
     atom   47 type  1   force =     0.00035431   -0.00039141   -0.00043495
     atom   48 type  1   force =    -0.00035431   -0.00039141    0.00043495
     atom   49 type  1   force =     0.00080745    0.00014847    0.00008024
     atom   50 type  1   force =     0.00080745   -0.00014847    0.00008024
     atom   51 type  1   force =    -0.00080745   -0.00014847   -0.00008024
     atom   52 type  1   force =    -0.00032452    0.00055393    0.00009622
     atom   53 type  1   force =    -0.00032452   -0.00055393    0.00009622
     atom   54 type  1   force =     0.00032452   -0.00055393   -0.00009622
     atom   55 type  1   force =     0.00056150    0.00042652    0.00087894
     atom   56 type  1   force =     0.00056150   -0.00042652    0.00087894
     atom   57 type  1   force =    -0.00056150   -0.00042652   -0.00087894
     atom   58 type  2   force =    -0.00034559    0.00036926    0.00012198
     atom   59 type  2   force =    -0.00034559   -0.00036926    0.00012198
     atom   60 type  2   force =     0.00034559   -0.00036926   -0.00012198
     atom   61 type  2   force =     0.00083842    0.00022149    0.00009111
     atom   62 type  2   force =     0.00083842   -0.00022149    0.00009111
     atom   63 type  2   force =    -0.00083842   -0.00022149   -0.00009111
     atom   64 type  2   force =     0.00006981   -0.00042129    0.00057542
     atom   65 type  2   force =     0.00006981    0.00042129    0.00057542
     atom   66 type  2   force =    -0.00006981    0.00042129   -0.00057542
     atom   67 type  1   force =     0.00038158   -0.00003098   -0.00010288
     atom   68 type  1   force =     0.00038158    0.00003098   -0.00010288
     atom   69 type  1   force =    -0.00038158    0.00003098    0.00010288
     atom   70 type  2   force =     0.00004744   -0.00012901   -0.00022231
     atom   71 type  2   force =     0.00004744    0.00012901   -0.00022231
     atom   72 type  2   force =    -0.00004744    0.00012901    0.00022231
     atom   73 type  2   force =     0.00013700    0.00009405   -0.00027622
     atom   74 type  2   force =     0.00013700   -0.00009405   -0.00027622
     atom   75 type  2   force =    -0.00013700   -0.00009405    0.00027622
     atom   76 type  2   force =     0.00027971   -0.00025988    0.00009024
     atom   77 type  2   force =     0.00027971    0.00025988    0.00009024
     atom   78 type  2   force =    -0.00027971    0.00025988   -0.00009024
     atom   79 type  5   force =    -0.00014424   -0.00027258    0.00024539
     atom   80 type  5   force =    -0.00014424    0.00027258    0.00024539
     atom   81 type  5   force =     0.00014424    0.00027258   -0.00024539
     atom   82 type  4   force =     0.00018202    0.00001631    0.00032310
     atom   83 type  4   force =     0.00018202   -0.00001631    0.00032310
     atom   84 type  4   force =    -0.00018202   -0.00001631   -0.00032310
     atom   85 type  3   force =     0.00060284    0.00029022   -0.00007148
     atom   86 type  3   force =     0.00060284   -0.00029022   -0.00007148
     atom   87 type  3   force =    -0.00060284   -0.00029022    0.00007148
     atom   88 type  2   force =     0.00092909   -0.00085072   -0.00047931
     atom   89 type  2   force =     0.00092909    0.00085072   -0.00047931
     atom   90 type  2   force =    -0.00092909    0.00085072    0.00047931
     atom   91 type  3   force =     0.00003615   -0.00027952   -0.00017461
     atom   92 type  3   force =     0.00003615    0.00027952   -0.00017461
     atom   93 type  3   force =    -0.00003615    0.00027952    0.00017461
     atom   94 type  2   force =     0.00063879   -0.00078929   -0.00062066
     atom   95 type  2   force =     0.00063879    0.00078929   -0.00062066
     atom   96 type  2   force =    -0.00063879    0.00078929    0.00062066
     atom   97 type  2   force =    -0.00002432    0.00049793    0.00020198
     atom   98 type  2   force =    -0.00002432   -0.00049793    0.00020198
     atom   99 type  2   force =     0.00002432   -0.00049793   -0.00020198
     atom  100 type  2   force =     0.00016029   -0.00003162   -0.00059618
     atom  101 type  2   force =     0.00016029    0.00003162   -0.00059618
     atom  102 type  2   force =    -0.00016029    0.00003162    0.00059618
     atom  103 type  2   force =     0.00075170    0.00073621    0.00041021
     atom  104 type  2   force =     0.00075170   -0.00073621    0.00041021
     atom  105 type  2   force =    -0.00075170   -0.00073621   -0.00041021
     atom  106 type  2   force =    -0.00013907    0.00051738   -0.00040770
     atom  107 type  2   force =    -0.00013907   -0.00051738   -0.00040770
     atom  108 type  2   force =     0.00013907   -0.00051738    0.00040770

     Total force =     0.007809     Total SCF correction =     0.000370

     BFGS Geometry Optimization

     bfgs converged in   1 scf cycles and   0 bfgs steps
     (criteria: energy <  1.0E-04 Ry, force <  1.0E-03 Ry/Bohr)

     End of BFGS Geometry Optimization

     Final energy   =   -1091.6091029811 Ry
Begin final coordinates

ATOMIC_POSITIONS (angstrom)
C        0.509218539   8.109049082   3.507767670
C       -0.776577402   8.489021356   4.148481188
C        0.889053159   8.535614480   2.218168672
C        1.419140779   7.279048228   4.234352594
C        7.285320863   9.185744934   3.419702347
C        2.658785523   6.918032224   3.676491026
C        3.016043225   7.349390929   2.404030902
C        6.090114640   9.523815462   4.031461159
C        2.110548578   8.150763263   1.707614296
C        5.055344816   0.132364195   2.056765838
H        5.826797828   0.893399903   1.841938316
H        4.074967991   0.547156398   1.793540973
H        5.241846598   9.639709700   1.425370698
C        3.861201357   0.079822385   4.238048918
H        3.964715901  10.072867974   5.257203131
H        2.976713147  10.017592394   3.759458244
H        3.722939410   1.172696451   4.286693994
F        2.452548328   8.598736568   0.444889782
N        5.054706013  10.145713636   3.468293342
O        1.104716513   6.836735013   5.464227476
H        0.187241032   7.330324228   5.658987918
O       -0.939676759   8.149374623   5.383591084
H        0.249456946   9.166650139   1.602774724
H        7.453850835   9.427109102   2.374436215
H        5.957841536   9.257564173   5.083240910
H        3.974066509   7.086361939   1.947823144
H        3.337155908   6.302429652   4.273806471
C        3.409397402   3.294021356   1.320448812
C        6.042227402   1.900978644   6.789388812
C        1.856252598   7.095978644   9.617421188
C        2.123601461   2.914049082   1.961172330
C        4.756431461   2.280950918   7.430102330
C        3.142048539   7.475950918   8.976707670
C        1.743776841   3.340614480   3.250771328
C        4.376606841   1.854385520   8.719701328
C        3.521873159   7.049385520   7.687108672
C        1.213689221   2.084048228   1.234587406
C        3.846509221   3.110951772   6.703517406
C        4.051970779   8.305951772   9.703292594
C        4.415709137   3.990744934   2.049227653
C       -2.019670863   1.204255066   7.518167653
C        0.849940863   6.399255066   8.888642347
C       -0.025955523   1.723032224   1.792448974
C        2.606874477   3.471967776   7.261378974
C        5.291605523   8.666967776   9.145421026
C       -0.383223225   2.154390929   3.064909098
C        2.249606775   3.040609071   8.533849098
C        5.648873225   8.235609071   7.872960902
C        5.610915360   4.328815462   1.437478841
C       -0.824464640   0.866184538   6.906408841
C       -0.345265360   6.061184538   9.500401159
C        0.522271422   2.955763263   3.761315704
C        3.155101422   2.239236737   9.230255704
C        4.743378578   7.434236737   7.176554296
C        6.645685184   5.327364195   3.412174162
C        0.210305184  10.257635805   8.881104162
C       -1.380035184   5.062635805   7.525695838
H        5.874222172   6.088399903   3.626991684
H       -0.561147828   9.496600097   9.095931684
H       -0.608572172   4.301600097   7.310878316
H        7.626062009   5.742156398   3.675389027
H        1.190682009   9.842843602   9.144329027
H       -2.360412009   4.647843602   7.262480973
H        6.459183402   4.444709700   4.043569302
H        0.023803402   0.750290300   9.512499302
H       -1.193533402   5.945290300   6.894300698
C        7.839828643   5.274822385   1.230891082
C        1.404448643  10.310177615   6.699821082
C       -2.574178643   5.115177615   9.706978918
H        7.736314099   4.877867974   0.211726869
H        1.300934099   0.317132026   5.680666869
H       -2.470664099   5.512132026  10.726143131
H       -0.343893147   4.822592394   1.709481756
H        2.288936853   0.372407606   7.178411756
H        5.609543147   5.567407606   9.228388244
H        7.978080590   6.367696451   1.182236006
H        1.542710590   9.217303549   6.651176006
H       -2.712430590   4.022303549   9.755633994
F        0.180281672   3.403736568   5.024040218
F        2.813101672   1.791263432  10.492980218
F        5.085368328   6.986263432   5.913829782
N        6.646313987   4.950713636   2.000646658
N        0.210943987   0.244286364   7.469576658
N       -1.380663987   5.439286364   8.937223342
O        1.528113487   1.641735013   0.004712524
O        4.160933487   3.553264987   5.473642524
O        3.737536513   8.748264987  10.933157476
H       -1.356971032   2.135324228  10.747812082
H        5.078408968   3.059675772   5.278882082
H        6.622621032   8.254675772   0.190057918
O        3.572496759   2.954374623   0.085348916
O        6.205326759   2.240625377   5.554278916
O        1.693153241   7.435625377  10.852531084
H        2.383373054   3.971650139   3.866165276
H        5.016193054   1.223349861   9.335095276
H        2.882276946   6.418349861   7.071714724
H        4.247169165   4.232109102   3.094493785
H       -2.188200835   0.962890898   8.563433785
H        1.018480835   6.157890898   7.843376215
H        5.743188464   4.062564173   0.385689090
H       -0.692191536   1.132435827   5.854629090
H       -0.477538464   6.327435827  10.552180910
H       -1.341236509   1.891361939   3.521116856
H        1.291593491   3.303638061   8.990046856
H        6.606886509   8.498638061   7.416753144
H        8.363874092   1.107429652   1.195133529
H        1.928494092   4.087570348   6.664063529
H       -3.098224092   9.282570348   9.742736471
End final coordinates



     Writing output data file 2hp_4_224.save
 
     init_run     :     68.61s CPU     69.47s WALL (       1 calls)
     electrons    :   1609.32s CPU   1631.08s WALL (       1 calls)
     forces       :     31.88s CPU     32.17s WALL (       1 calls)

     Called by init_run:
     wfcinit      :     64.32s CPU     65.00s WALL (       1 calls)
     potinit      :      1.64s CPU      1.66s WALL (       1 calls)

     Called by electrons:
     c_bands      :   1440.80s CPU   1459.41s WALL (      12 calls)
     sum_band     :    155.43s CPU    157.01s WALL (      12 calls)
     v_of_rho     :      1.87s CPU      1.89s WALL (      13 calls)
     newd         :      4.31s CPU      5.95s WALL (      13 calls)
     mix_rho      :      0.40s CPU      0.44s WALL (      12 calls)

     Called by c_bands:
     init_us_2    :     13.78s CPU     13.81s WALL (     312 calls)
     cegterg      :   1391.37s CPU   1409.93s WALL (     144 calls)

     Called by sum_band:
     sum_band:bec :      0.08s CPU      0.08s WALL (     144 calls)
     addusdens    :      4.77s CPU      6.26s WALL (      12 calls)

     Called by *egterg:
     h_psi        :    850.56s CPU    851.25s WALL (     695 calls)
     s_psi        :    184.50s CPU    184.50s WALL (     695 calls)
     g_psi        :      5.00s CPU      5.00s WALL (     539 calls)
     cdiaghg      :     47.77s CPU     47.77s WALL (     683 calls)

     Called by h_psi:
     h_psi:pot    :    842.61s CPU    843.07s WALL (     695 calls)
     h_psi:calbec :    175.85s CPU    175.85s WALL (     695 calls)
     vloc_psi     :    482.30s CPU    482.74s WALL (     695 calls)
     add_vuspsi   :    184.47s CPU    184.47s WALL (     695 calls)

     General routines
     calbec       :    250.01s CPU    250.02s WALL (     887 calls)
     fft          :      0.77s CPU      0.78s WALL (     179 calls)
     fftw         :    497.79s CPU    498.23s WALL (  164290 calls)
     davcio       :      0.02s CPU      1.79s WALL (      12 calls)
 
     Parallel routines
     fft_scatter  :     53.49s CPU     53.59s WALL (  164469 calls)
 
     PWSCF        : 28m30.20s CPU    28m54.98s WALL

 
   This run was terminated on:  16:16: 6  10Oct2017            

=------------------------------------------------------------------------------=
   JOB DONE.
=------------------------------------------------------------------------------=
