 Entering Gaussian System, Link 0=g09
 Input=H_HPcrys_mon-1.com
 Output=H_HPcrys_mon-1.out
 Initial command:
 /share/apps/gaussian/g09_D01/g09/l1.exe "/tmp/4049066.1.chemistry.q/Gau-5264.inp" -scrdir="/tmp/4049066.1.chemistry.q/"
 Entering Link 1 = /share/apps/gaussian/g09_D01/g09/l1.exe PID=      5266.
  
 Copyright (c) 1988,1990,1992,1993,1995,1998,2003,2009,2013,
            Gaussian, Inc.  All Rights Reserved.
  
 This is part of the Gaussian(R) 09 program.  It is based on
 the Gaussian(R) 03 system (copyright 2003, Gaussian, Inc.),
 the Gaussian(R) 98 system (copyright 1998, Gaussian, Inc.),
 the Gaussian(R) 94 system (copyright 1995, Gaussian, Inc.),
 the Gaussian 92(TM) system (copyright 1992, Gaussian, Inc.),
 the Gaussian 90(TM) system (copyright 1990, Gaussian, Inc.),
 the Gaussian 88(TM) system (copyright 1988, Gaussian, Inc.),
 the Gaussian 86(TM) system (copyright 1986, Carnegie Mellon
 University), and the Gaussian 82(TM) system (copyright 1983,
 Carnegie Mellon University). Gaussian is a federally registered
 trademark of Gaussian, Inc.
  
 This software contains proprietary and confidential information,
 including trade secrets, belonging to Gaussian, Inc.
  
 This software is provided under written license and may be
 used, copied, transmitted, or stored only in accord with that
 written license.
  
 The following legend is applicable only to US Government
 contracts under FAR:
  
                    RESTRICTED RIGHTS LEGEND
  
 Use, reproduction and disclosure by the US Government is
 subject to restrictions as set forth in subparagraphs (a)
 and (c) of the Commercial Computer Software - Restricted
 Rights clause in FAR 52.227-19.
  
 Gaussian, Inc.
 340 Quinnipiac St., Bldg. 40, Wallingford CT 06492
  
  
 ---------------------------------------------------------------
 Warning -- This program may not be used in any manner that
 competes with the business of Gaussian, Inc. or will provide
 assistance to any competitor of Gaussian, Inc.  The licensee
 of this program is prohibited from giving any competitor of
 Gaussian, Inc. access to this program.  By using this program,
 the user acknowledges that Gaussian, Inc. is engaged in the
 business of creating and licensing software in the field of
 computational chemistry and represents and warrants to the
 licensee that it is not a competitor of Gaussian, Inc. and that
 it will not use this program in any manner prohibited above.
 ---------------------------------------------------------------
  

 Cite this work as:
 Gaussian 09, Revision D.01,
 M. J. Frisch, G. W. Trucks, H. B. Schlegel, G. E. Scuseria, 
 M. A. Robb, J. R. Cheeseman, G. Scalmani, V. Barone, B. Mennucci, 
 G. A. Petersson, H. Nakatsuji, M. Caricato, X. Li, H. P. Hratchian, 
 A. F. Izmaylov, J. Bloino, G. Zheng, J. L. Sonnenberg, M. Hada, 
 M. Ehara, K. Toyota, R. Fukuda, J. Hasegawa, M. Ishida, T. Nakajima, 
 Y. Honda, O. Kitao, H. Nakai, T. Vreven, J. A. Montgomery, Jr., 
 J. E. Peralta, F. Ogliaro, M. Bearpark, J. J. Heyd, E. Brothers, 
 K. N. Kudin, V. N. Staroverov, T. Keith, R. Kobayashi, J. Normand, 
 K. Raghavachari, A. Rendell, J. C. Burant, S. S. Iyengar, J. Tomasi, 
 M. Cossi, N. Rega, J. M. Millam, M. Klene, J. E. Knox, J. B. Cross, 
 V. Bakken, C. Adamo, J. Jaramillo, R. Gomperts, R. E. Stratmann, 
 O. Yazyev, A. J. Austin, R. Cammi, C. Pomelli, J. W. Ochterski, 
 R. L. Martin, K. Morokuma, V. G. Zakrzewski, G. A. Voth, 
 P. Salvador, J. J. Dannenberg, S. Dapprich, A. D. Daniels, 
 O. Farkas, J. B. Foresman, J. V. Ortiz, J. Cioslowski, 
 and D. J. Fox, Gaussian, Inc., Wallingford CT, 2013.
 
 ******************************************
 Gaussian 09:  ES64L-G09RevD.01 24-Apr-2013
                28-Sep-2017 
 ******************************************
 %chk=H_HPcrys_mon-1
 %mem=14GB
 %nproc=2
 Will use up to    2 processors via shared memory.
 ----------------------------------------------------------------------
 #p wb97xd 6-31G* td=(nstates=4) nosymm density=(transition=1) pop=Save
 NTO
 ----------------------------------------------------------------------
 1/38=1/1;
 2/12=2,15=1,17=6,18=5,40=1/2;
 3/5=1,6=6,7=1,11=9,16=1,25=1,30=1,74=-58/1,2,8,3;
 4//1;
 5/5=2,38=5/2;
 8/6=1,10=2,108=4/1;
 9/41=4,42=1,70=2/14;
 6/7=2,8=2,9=2,10=2,29=1,89=10/1;
 99/5=1,9=1/99;
 Leave Link    1 at Thu Sep 28 11:06:07 2017, MaxMem=  1879048192 cpu:         0.1
 (Enter /share/apps/gaussian/g09_D01/g09/l101.exe)
 -----------------
 unrelaxed crystal
 -----------------
 Symbolic Z-matrix:
 Charge =  0 Multiplicity = 1
 C                     9.46721   12.94444   3.54446 
 C                     8.15513   12.59097   4.15877 
 C                     10.33644   13.8155   4.22676 
 C                     9.89617   12.43338   2.3125 
 C                     7.20823   11.81417   3.44388 
 O                     7.91224   13.02302   5.32436 
 C                     11.58431   14.13173   3.68919 
 O                     9.99218   14.36895   5.40605 
 H                     9.26845   14.0684   5.6477 
 C                     11.12733   12.7636   1.78777 
 H                     9.33884   11.8592   1.83904 
 C                     6.03156   11.45639   4.04728 
 H                     7.38504   11.54886   2.56969 
 C                     11.96841   13.60751   2.48054 
 H                     12.15761   14.6996   4.15186 
 H                     11.3904   12.41676   0.96593 
 H                     5.92959   11.72138   4.93324 
 N                     5.02533   10.78174   3.52611 
 H                     12.80118   13.82328   2.12719 
 C                     5.03601   10.33285   2.15169 
 C                     3.84374   10.45888   4.32648 
 H                     5.40154   11.02286   1.59297 
 H                     4.13858   10.13602   1.87249 
 H                     5.57446   9.54164   2.07755 
 H                     3.95783   10.79878   5.21708 
 H                     3.72985   9.50587   4.35908 
 H                     3.06785   10.86085   3.92846 
 
 NAtoms=     27 NQM=       27 NQMF=       0 NMMI=      0 NMMIF=      0
                NMic=       0 NMicF=      0.
                    Isotopes and Nuclear Properties:
 (Nuclear quadrupole moments (NQMom) in fm**2, nuclear magnetic moments (NMagM)
  in nuclear magnetons)

  Atom         1           2           3           4           5           6           7           8           9          10
 IAtWgt=          12          12          12          12          12          16          12          16           1          12
 AtmWgt=  12.0000000  12.0000000  12.0000000  12.0000000  12.0000000  15.9949146  12.0000000  15.9949146   1.0078250  12.0000000
 NucSpn=           0           0           0           0           0           0           0           0           1           0
 AtZEff=   0.0000000   0.0000000   0.0000000   0.0000000   0.0000000   0.0000000   0.0000000   0.0000000   0.0000000   0.0000000
 NQMom=    0.0000000   0.0000000   0.0000000   0.0000000   0.0000000   0.0000000   0.0000000   0.0000000   0.0000000   0.0000000
 NMagM=    0.0000000   0.0000000   0.0000000   0.0000000   0.0000000   0.0000000   0.0000000   0.0000000   2.7928460   0.0000000
 AtZNuc=   6.0000000   6.0000000   6.0000000   6.0000000   6.0000000   8.0000000   6.0000000   8.0000000   1.0000000   6.0000000

  Atom        11          12          13          14          15          16          17          18          19          20
 IAtWgt=           1          12           1          12           1           1           1          14           1          12
 AtmWgt=   1.0078250  12.0000000   1.0078250  12.0000000   1.0078250   1.0078250   1.0078250  14.0030740   1.0078250  12.0000000
 NucSpn=           1           0           1           0           1           1           1           2           1           0
 AtZEff=   0.0000000   0.0000000   0.0000000   0.0000000   0.0000000   0.0000000   0.0000000   0.0000000   0.0000000   0.0000000
 NQMom=    0.0000000   0.0000000   0.0000000   0.0000000   0.0000000   0.0000000   0.0000000   2.0440000   0.0000000   0.0000000
 NMagM=    2.7928460   0.0000000   2.7928460   0.0000000   2.7928460   2.7928460   2.7928460   0.4037610   2.7928460   0.0000000
 AtZNuc=   1.0000000   6.0000000   1.0000000   6.0000000   1.0000000   1.0000000   1.0000000   7.0000000   1.0000000   6.0000000

  Atom        21          22          23          24          25          26          27
 IAtWgt=          12           1           1           1           1           1           1
 AtmWgt=  12.0000000   1.0078250   1.0078250   1.0078250   1.0078250   1.0078250   1.0078250
 NucSpn=           0           1           1           1           1           1           1
 AtZEff=   0.0000000   0.0000000   0.0000000   0.0000000   0.0000000   0.0000000   0.0000000
 NQMom=    0.0000000   0.0000000   0.0000000   0.0000000   0.0000000   0.0000000   0.0000000
 NMagM=    0.0000000   2.7928460   2.7928460   2.7928460   2.7928460   2.7928460   2.7928460
 AtZNuc=   6.0000000   1.0000000   1.0000000   1.0000000   1.0000000   1.0000000   1.0000000
 Leave Link  101 at Thu Sep 28 11:06:07 2017, MaxMem=  1879048192 cpu:         0.1
 (Enter /share/apps/gaussian/g09_D01/g09/l202.exe)
                          Input orientation:                          
 ---------------------------------------------------------------------
 Center     Atomic      Atomic             Coordinates (Angstroms)
 Number     Number       Type             X           Y           Z
 ---------------------------------------------------------------------
      1          6           0        9.467207   12.944440    3.544461
      2          6           0        8.155126   12.590967    4.158769
      3          6           0       10.336436   13.815495    4.226761
      4          6           0        9.896170   12.433378    2.312501
      5          6           0        7.208229   11.814171    3.443876
      6          8           0        7.912238   13.023024    5.324355
      7          6           0       11.584305   14.131727    3.689188
      8          8           0        9.992177   14.368953    5.406054
      9          1           0        9.268451   14.068397    5.647697
     10          6           0       11.127325   12.763601    1.787772
     11          1           0        9.338838   11.859197    1.839036
     12          6           0        6.031561   11.456386    4.047283
     13          1           0        7.385039   11.548857    2.569686
     14          6           0       11.968414   13.607515    2.480540
     15          1           0       12.157612   14.699596    4.151861
     16          1           0       11.390398   12.416757    0.965926
     17          1           0        5.929588   11.721384    4.933236
     18          7           0        5.025329   10.781738    3.526114
     19          1           0       12.801178   13.823280    2.127195
     20          6           0        5.036006   10.332850    2.151694
     21          6           0        3.843738   10.458879    4.326484
     22          1           0        5.401543   11.022857    1.592968
     23          1           0        4.138578   10.136021    1.872493
     24          1           0        5.574460    9.541640    2.077549
     25          1           0        3.957830   10.798780    5.217078
     26          1           0        3.729849    9.505872    4.359076
     27          1           0        3.067854   10.860848    3.928457
 ---------------------------------------------------------------------
                    Distance matrix (angstroms):
                    1          2          3          4          5
     1  C    0.000000
     2  C    1.491266   0.000000
     3  C    1.407064   2.502440   0.000000
     4  C    1.401042   2.542592   2.401765   0.000000
     5  C    2.527965   1.418132   3.795245   2.981351   0.000000
     6  O    2.364768   1.266593   2.776591   3.654440   2.343748
     7  C    2.431604   3.788630   1.395050   2.762147   4.957952
     8  O    2.402157   2.844593   1.347428   3.650444   4.257631
     9  H    2.392987   2.374700   1.795442   3.767075   3.766016
    10  C    2.423768   3.805968   2.771399   1.378452   4.359290
    11  H    2.025514   2.705147   3.244000   0.929770   2.667777
    12  C    3.777671   2.410235   4.912184   4.347319   1.369912
    13  H    2.689472   2.050418   4.073609   2.674752   0.930517
    14  C    2.797791   4.288471   2.399145   2.387683   5.177206
    15  H    3.269218   4.523965   2.025815   3.692304   5.772635
    16  H    3.259748   4.548800   3.701398   2.011531   4.898355
    17  H    3.992407   2.511771   4.929981   4.807178   1.965127
    18  N    4.940435   3.670040   6.156496   5.284493   2.416140
    19  H    3.727783   5.218399   3.237776   3.225715   6.086973
    20  C    5.328766   4.342390   6.673026   5.297100   2.929607
    21  C    6.197820   4.812691   7.309716   6.677328   3.733043
    22  H    4.902084   4.077318   6.252109   4.765393   2.704839
    23  H    6.251158   5.233209   7.582516   6.214606   3.835126
    24  H    5.374417   4.504410   6.749916   5.205240   3.114554
    25  H    6.144489   4.685002   7.125160   6.809725   3.839317
    26  H    6.738295   5.398241   7.889065   7.126168   4.273753
    27  H    6.740959   5.378354   7.851828   7.190971   4.276254
                    6          7          8          9         10
     6  O    0.000000
     7  C    4.169781   0.000000
     8  O    2.478779   2.353461   0.000000
     9  H    1.742604   3.033636   0.820064   0.000000
    10  C    4.786596   2.386626   4.117970   4.478496   0.000000
    11  H    3.941717   3.691826   4.410141   4.403569   2.004809
    12  C    2.760836   6.174030   5.100567   4.456611   5.725470
    13  H    3.168487   5.055525   4.774421   4.401076   4.011446
    14  C    4.988134   1.372286   3.611639   4.187254   1.378241
    15  H    4.712625   0.930173   2.524170   3.314089   3.224668
    16  H    5.609016   3.224109   5.047854   5.399033   0.930021
    17  H    2.403777   6.271621   4.872146   4.143299   6.164141
    18  N    4.073239   7.366762   6.408733   5.771250   6.647102
    19  H    5.896098   2.003932   4.351915   4.993413   2.009953
    20  C    5.057225   7.724997   7.172490   6.640026   6.568497
    21  C    4.911545   8.591411   7.365966   6.648439   8.050307
    22  H    4.922144   7.230889   6.841776   6.377234   5.987714
    23  H    5.872874   8.643200   8.041666   7.485409   7.466856
    24  H    5.303488   7.732045   7.341534   6.847120   6.426454
    25  H    4.538294   8.462039   7.013928   6.251282   8.186716
    26  H    5.549279   9.140009   7.997654   7.290630   8.482161
    27  H    5.485580   9.126107   7.901667   7.189684   8.553249
                   11         12         13         14         15
    11  H    0.000000
    12  C    3.997086   0.000000
    13  H    2.108908   2.005928   0.000000
    14  C    3.222237   6.506017   5.025271   0.000000
    15  H    4.621960   6.932377   5.933623   2.005430   0.000000
    16  H    2.298280   6.255734   4.400931   2.011483   3.993764
    17  H    4.606089   0.930341   2.781092   6.785324   6.947559
    18  N    4.755366   1.318814   2.659221   7.568664   8.161534
    19  H    3.991047   7.424058   5.890956   0.930002   2.298125
    20  C    4.576227   2.417999   2.677937   7.673972   8.589902
    21  C    6.192286   2.420649   4.100635   8.906839   9.334596
    22  H    4.032655   2.570707   2.272644   7.112808   8.106221
    23  H    5.478427   3.171192   3.608558   8.586462   9.504033
    24  H    4.427019   2.784788   2.747602   7.587911   8.616564
    25  H    6.441343   2.470066   4.395118   8.918917   9.142619
    26  H    6.584034   3.033084   4.553693   9.392887   9.901762
    27  H    6.684880   3.025284   4.577958   9.426591   9.869630
                   16         17         18         19         20
    16  H    0.000000
    17  H    6.785539   0.000000
    18  N    7.052798   1.918492   0.000000
    19  H    2.305895   7.714310   8.465919   0.000000
    20  C    6.791687   3.234732   1.445906   8.513613   0.000000
    21  C    8.489918   2.512536   1.463211   9.817932   2.483364
    22  H    6.180819   3.453138   1.984119   7.929840   0.960157
    23  H    7.655881   3.884487   1.984374   9.418142   0.960246
    24  H    6.582335   3.610034   1.984371   8.400021   0.959918
    25  H    8.713966   2.195357   1.999801   9.843769   3.282702
    26  H    8.869652   3.174430   1.999982  10.291274   2.694898
    27  H    8.970071   3.152717   1.999962  10.332383   2.703570
                   21         22         23         24         25
    21  C    0.000000
    22  H    3.196394   0.000000
    23  H    2.492637   1.568341   0.000000
    24  H    2.982354   1.568032   1.567512   0.000000
    25  H    0.960056   3.907517   3.414406   3.748404   0.000000
    26  H    0.960341   3.570316   2.597545   2.934150   1.568360
    27  H    0.960209   3.305580   2.428747   3.383673   1.567308
                   26         27
    26  H    0.000000
    27  H    1.568321   0.000000
 Symmetry turned off by external request.
 Stoichiometry    C11H13NO2
 Framework group  C1[X(C11H13NO2)]
 Deg. of freedom    75
 Full point group                 C1      NOp   1
 Rotational constants (GHZ):      1.6536356      0.3227340      0.2712868
 Leave Link  202 at Thu Sep 28 11:06:07 2017, MaxMem=  1879048192 cpu:         0.0
 (Enter /share/apps/gaussian/g09_D01/g09/l301.exe)
 Standard basis: 6-31G(d) (6D, 7F)
 Ernie: Thresh=  0.10000D-02 Tol=  0.10000D-05 Strict=F.
   236 basis functions,   444 primitive gaussians,   236 cartesian basis functions
    51 alpha electrons       51 beta electrons
       nuclear repulsion energy       849.1708139865 Hartrees.
 IExCor= 4639 DFT=T Ex+Corr=wB97XD ExCW=0 ScaHFX=  1.000000
 ScaDFX=  1.000000  1.000000  1.000000  1.000000 ScalE2=  1.000000  1.000000
 IRadAn=      0 IRanWt=     -1 IRanGd=            0 ICorTp=0 IEmpDi=121
  HFx wShort=  0.000000 wLong=  0.200000 cFull=  0.222036 cShort=  0.000000 cLong=  0.777964
  DFx wShort=  0.000000 wLong=  0.200000 cFull=  0.000000 cShort=  0.000000 cLong=  1.000000
 NAtoms=   27 NActive=   27 NUniq=   27 SFac= 1.00D+00 NAtFMM=   60 NAOKFM=F Big=F
 Integral buffers will be    131072 words long.
 Raffenetti 1 integral format.
 Two-electron integral symmetry is turned off.
 R6Disp:  Grimme-D2 Dispersion energy=       -0.0150057695 Hartrees.
 Nuclear repulsion after empirical dispersion term =      849.1558082170 Hartrees.
 Leave Link  301 at Thu Sep 28 11:06:08 2017, MaxMem=  1879048192 cpu:         0.1
 (Enter /share/apps/gaussian/g09_D01/g09/l302.exe)
 NPDir=0 NMtPBC=     1 NCelOv=     1 NCel=       1 NClECP=     1 NCelD=      1
         NCelK=      1 NCelE2=     1 NClLst=     1 CellRange=     0.0.
 One-electron integrals computed using PRISM.
 NBasis=   236 RedAO= T EigKep=  3.48D-04  NBF=   236
 NBsUse=   236 1.00D-06 EigRej= -1.00D+00 NBFU=   236
 Precomputing XC quadrature grid using
 IXCGrd= 4 IRadAn=           0 IRanWt=          -1 IRanGd=           0 AccXCQ= 0.00D+00.
 Generated NRdTot=       0 NPtTot=           0 NUsed=           0 NTot=          32
 NSgBfM=   234   234   234   234   234 MxSgAt=    27 MxSgA2=    27.
 Leave Link  302 at Thu Sep 28 11:06:08 2017, MaxMem=  1879048192 cpu:         0.7
 (Enter /share/apps/gaussian/g09_D01/g09/l308.exe)
 Leave Link  308 at Thu Sep 28 11:06:08 2017, MaxMem=  1879048192 cpu:         0.1
 (Enter /share/apps/gaussian/g09_D01/g09/l303.exe)
 DipDrv:  MaxL=1.
 Leave Link  303 at Thu Sep 28 11:06:08 2017, MaxMem=  1879048192 cpu:         0.0
 (Enter /share/apps/gaussian/g09_D01/g09/l401.exe)
 ExpMin= 1.61D-01 ExpMax= 5.48D+03 ExpMxC= 8.25D+02 IAcc=1 IRadAn=         1 AccDes= 0.00D+00
 Harris functional with IExCor= 4639 and IRadAn=       1 diagonalized for initial guess.
 HarFok:  IExCor= 4639 AccDes= 0.00D+00 IRadAn=         1 IDoV= 1 UseB2=F ITyADJ=14
 ICtDFT=  3500011 ScaDFX=  1.000000  1.000000  1.000000  1.000000
 FoFCou: FMM=F IPFlag=           0 FMFlag=      100000 FMFlg1=           0
         NFxFlg=           0 DoJE=T BraDBF=F KetDBF=T FulRan=T
         wScrn=  0.000000 ICntrl=     500 IOpCl=  0 I1Cent=   200000004 NGrid=           0
         NMat0=    1 NMatS0=      1 NMatT0=    0 NMatD0=    1 NMtDS0=    0 NMtDT0=    0
 Symmetry not used in FoFCou.
 Harris En= -604.457624020925    
 JPrj=0 DoOrth=F DoCkMO=F.
 Leave Link  401 at Thu Sep 28 11:06:09 2017, MaxMem=  1879048192 cpu:         2.1
 (Enter /share/apps/gaussian/g09_D01/g09/l502.exe)
 Closed shell SCF:
 Using DIIS extrapolation, IDIIS=  1040.
 Two-electron integral symmetry not used.
 Keep R1 ints in memory in canonical form, NReq=788969554.
 IVT=      188524 IEndB=      188524 NGot=  1879048192 MDV=  1096734547
 LenX=  1096734547 LenY=  1096678410
 Requested convergence on RMS density matrix=1.00D-08 within 128 cycles.
 Requested convergence on MAX density matrix=1.00D-06.
 Requested convergence on             energy=1.00D-06.
 No special actions if energy rises.
 FoFCou: FMM=F IPFlag=           0 FMFlag=           0 FMFlg1=           0
         NFxFlg=           0 DoJE=F BraDBF=F KetDBF=F FulRan=T
         wScrn=  0.000000 ICntrl=     600 IOpCl=  0 I1Cent=           0 NGrid=           0
         NMat0=    1 NMatS0=  27966 NMatT0=    0 NMatD0=    1 NMtDS0=    0 NMtDT0=    0
 Symmetry not used in FoFCou.
 Integral accuracy reduced to 1.0D-05 until final iterations.

 Cycle   1  Pass 0  IDiag  1:
 E= -631.483517083747    
 DIIS: error= 5.86D-02 at cycle   1 NSaved=   1.
 NSaved= 1 IEnMin= 1 EnMin= -631.483517083747     IErMin= 1 ErrMin= 5.86D-02
 ErrMax= 5.86D-02  0.00D+00 EMaxC= 1.00D-01 BMatC= 6.52D-01 BMatP= 6.52D-01
 IDIUse=3 WtCom= 4.14D-01 WtEn= 5.86D-01
 Coeff-Com:  0.100D+01
 Coeff-En:   0.100D+01
 Coeff:      0.100D+01
 Gap=     0.366 Goal=   None    Shift=    0.000
 GapD=    0.366 DampG=1.000 DampE=0.500 DampFc=0.5000 IDamp=-1.
 Damping current iteration by 5.00D-01
 RMSDP=3.89D-03 MaxDP=1.60D-01              OVMax= 1.75D-01

 Cycle   2  Pass 0  IDiag  1:
 E= -631.597840400004     Delta-E=       -0.114323316257 Rises=F Damp=T
 DIIS: error= 3.12D-02 at cycle   2 NSaved=   2.
 NSaved= 2 IEnMin= 2 EnMin= -631.597840400004     IErMin= 2 ErrMin= 3.12D-02
 ErrMax= 3.12D-02  0.00D+00 EMaxC= 1.00D-01 BMatC= 1.23D-01 BMatP= 6.52D-01
 IDIUse=3 WtCom= 6.88D-01 WtEn= 3.12D-01
 Coeff-Com: -0.302D+00 0.130D+01
 Coeff-En:   0.000D+00 0.100D+01
 Coeff:     -0.208D+00 0.121D+01
 Gap=     0.331 Goal=   None    Shift=    0.000
 RMSDP=1.46D-03 MaxDP=4.78D-02 DE=-1.14D-01 OVMax= 1.58D-01

 Cycle   3  Pass 0  IDiag  1:
 E= -631.702300567243     Delta-E=       -0.104460167239 Rises=F Damp=F
 DIIS: error= 8.94D-03 at cycle   3 NSaved=   3.
 NSaved= 3 IEnMin= 3 EnMin= -631.702300567243     IErMin= 3 ErrMin= 8.94D-03
 ErrMax= 8.94D-03  0.00D+00 EMaxC= 1.00D-01 BMatC= 3.10D-02 BMatP= 1.23D-01
 IDIUse=3 WtCom= 9.11D-01 WtEn= 8.94D-02
 Coeff-Com: -0.244D+00 0.517D+00 0.727D+00
 Coeff-En:   0.000D+00 0.000D+00 0.100D+01
 Coeff:     -0.222D+00 0.471D+00 0.751D+00
 Gap=     0.305 Goal=   None    Shift=    0.000
 RMSDP=8.12D-04 MaxDP=4.20D-02 DE=-1.04D-01 OVMax= 5.60D-02

 Cycle   4  Pass 0  IDiag  1:
 E= -631.726508540043     Delta-E=       -0.024207972799 Rises=F Damp=F
 DIIS: error= 3.34D-03 at cycle   4 NSaved=   4.
 NSaved= 4 IEnMin= 4 EnMin= -631.726508540043     IErMin= 4 ErrMin= 3.34D-03
 ErrMax= 3.34D-03  0.00D+00 EMaxC= 1.00D-01 BMatC= 3.25D-03 BMatP= 3.10D-02
 IDIUse=3 WtCom= 9.67D-01 WtEn= 3.34D-02
 Coeff-Com: -0.104D+00 0.210D+00 0.402D+00 0.492D+00
 Coeff-En:   0.000D+00 0.000D+00 0.000D+00 0.100D+01
 Coeff:     -0.100D+00 0.203D+00 0.388D+00 0.509D+00
 Gap=     0.300 Goal=   None    Shift=    0.000
 RMSDP=2.33D-04 MaxDP=7.70D-03 DE=-2.42D-02 OVMax= 1.16D-02

 Cycle   5  Pass 0  IDiag  1:
 E= -631.729136107461     Delta-E=       -0.002627567418 Rises=F Damp=F
 DIIS: error= 5.83D-04 at cycle   5 NSaved=   5.
 NSaved= 5 IEnMin= 5 EnMin= -631.729136107461     IErMin= 5 ErrMin= 5.83D-04
 ErrMax= 5.83D-04  0.00D+00 EMaxC= 1.00D-01 BMatC= 1.05D-04 BMatP= 3.25D-03
 IDIUse=3 WtCom= 9.94D-01 WtEn= 5.83D-03
 Coeff-Com: -0.208D-01 0.408D-01 0.109D+00 0.206D+00 0.665D+00
 Coeff-En:   0.000D+00 0.000D+00 0.000D+00 0.000D+00 0.100D+01
 Coeff:     -0.207D-01 0.406D-01 0.108D+00 0.205D+00 0.667D+00
 Gap=     0.299 Goal=   None    Shift=    0.000
 RMSDP=6.43D-05 MaxDP=1.92D-03 DE=-2.63D-03 OVMax= 2.35D-03

 Cycle   6  Pass 0  IDiag  1:
 E= -631.729241077905     Delta-E=       -0.000104970444 Rises=F Damp=F
 DIIS: error= 2.43D-04 at cycle   6 NSaved=   6.
 NSaved= 6 IEnMin= 6 EnMin= -631.729241077905     IErMin= 6 ErrMin= 2.43D-04
 ErrMax= 2.43D-04  0.00D+00 EMaxC= 1.00D-01 BMatC= 1.65D-05 BMatP= 1.05D-04
 IDIUse=3 WtCom= 9.98D-01 WtEn= 2.43D-03
 Coeff-Com:  0.186D-01-0.381D-01-0.520D-01-0.490D-01 0.235D+00 0.886D+00
 Coeff-En:   0.000D+00 0.000D+00 0.000D+00 0.000D+00 0.000D+00 0.100D+01
 Coeff:      0.185D-01-0.380D-01-0.519D-01-0.489D-01 0.234D+00 0.886D+00
 Gap=     0.300 Goal=   None    Shift=    0.000
 RMSDP=3.68D-05 MaxDP=1.03D-03 DE=-1.05D-04 OVMax= 3.56D-03

 Cycle   7  Pass 0  IDiag  1:
 E= -631.729271042268     Delta-E=       -0.000029964364 Rises=F Damp=F
 DIIS: error= 8.29D-05 at cycle   7 NSaved=   7.
 NSaved= 7 IEnMin= 7 EnMin= -631.729271042268     IErMin= 7 ErrMin= 8.29D-05
 ErrMax= 8.29D-05  0.00D+00 EMaxC= 1.00D-01 BMatC= 2.88D-06 BMatP= 1.65D-05
 IDIUse=1 WtCom= 1.00D+00 WtEn= 0.00D+00
 Coeff-Com:  0.993D-02-0.203D-01-0.314D-01-0.418D-01 0.151D-01 0.388D+00
 Coeff-Com:  0.681D+00
 Coeff:      0.993D-02-0.203D-01-0.314D-01-0.418D-01 0.151D-01 0.388D+00
 Coeff:      0.681D+00
 Gap=     0.300 Goal=   None    Shift=    0.000
 RMSDP=1.40D-05 MaxDP=3.36D-04 DE=-3.00D-05 OVMax= 8.62D-04

 Cycle   8  Pass 0  IDiag  1:
 E= -631.729274810463     Delta-E=       -0.000003768195 Rises=F Damp=F
 DIIS: error= 2.82D-05 at cycle   8 NSaved=   8.
 NSaved= 8 IEnMin= 8 EnMin= -631.729274810463     IErMin= 8 ErrMin= 2.82D-05
 ErrMax= 2.82D-05  0.00D+00 EMaxC= 1.00D-01 BMatC= 2.64D-07 BMatP= 2.88D-06
 IDIUse=1 WtCom= 1.00D+00 WtEn= 0.00D+00
 Coeff-Com: -0.306D-03 0.705D-03 0.257D-03-0.479D-02-0.469D-01-0.136D-01
 Coeff-Com:  0.198D+00 0.867D+00
 Coeff:     -0.306D-03 0.705D-03 0.257D-03-0.479D-02-0.469D-01-0.136D-01
 Coeff:      0.198D+00 0.867D+00
 Gap=     0.300 Goal=   None    Shift=    0.000
 RMSDP=5.77D-06 MaxDP=1.16D-04 DE=-3.77D-06 OVMax= 6.35D-04

 Initial convergence to 1.0D-05 achieved.  Increase integral accuracy.
 Cycle   9  Pass 1  IDiag  1:
 E= -631.728585061045     Delta-E=        0.000689749418 Rises=F Damp=F
 DIIS: error= 8.43D-05 at cycle   1 NSaved=   1.
 NSaved= 1 IEnMin= 1 EnMin= -631.728585061045     IErMin= 1 ErrMin= 8.43D-05
 ErrMax= 8.43D-05  0.00D+00 EMaxC= 1.00D-01 BMatC= 4.93D-06 BMatP= 4.93D-06
 IDIUse=1 WtCom= 1.00D+00 WtEn= 0.00D+00
 Coeff-Com:  0.100D+01
 Coeff:      0.100D+01
 Gap=     0.300 Goal=   None    Shift=    0.000
 RMSDP=5.77D-06 MaxDP=1.16D-04 DE= 6.90D-04 OVMax= 2.01D-04

 Cycle  10  Pass 1  IDiag  1:
 E= -631.728589077442     Delta-E=       -0.000004016397 Rises=F Damp=F
 DIIS: error= 1.17D-05 at cycle   2 NSaved=   2.
 NSaved= 2 IEnMin= 2 EnMin= -631.728589077442     IErMin= 2 ErrMin= 1.17D-05
 ErrMax= 1.17D-05  0.00D+00 EMaxC= 1.00D-01 BMatC= 1.06D-07 BMatP= 4.93D-06
 IDIUse=1 WtCom= 1.00D+00 WtEn= 0.00D+00
 Coeff-Com: -0.572D-01 0.106D+01
 Coeff:     -0.572D-01 0.106D+01
 Gap=     0.300 Goal=   None    Shift=    0.000
 RMSDP=2.69D-06 MaxDP=8.90D-05 DE=-4.02D-06 OVMax= 1.75D-04

 Cycle  11  Pass 1  IDiag  1:
 E= -631.728589154217     Delta-E=       -0.000000076775 Rises=F Damp=F
 DIIS: error= 1.37D-05 at cycle   3 NSaved=   3.
 NSaved= 3 IEnMin= 3 EnMin= -631.728589154217     IErMin= 2 ErrMin= 1.17D-05
 ErrMax= 1.37D-05  0.00D+00 EMaxC= 1.00D-01 BMatC= 8.42D-08 BMatP= 1.06D-07
 IDIUse=1 WtCom= 1.00D+00 WtEn= 0.00D+00
 Coeff-Com: -0.451D-01 0.523D+00 0.522D+00
 Coeff:     -0.451D-01 0.523D+00 0.522D+00
 Gap=     0.300 Goal=   None    Shift=    0.000
 RMSDP=1.41D-06 MaxDP=5.35D-05 DE=-7.68D-08 OVMax= 7.22D-05

 Cycle  12  Pass 1  IDiag  1:
 E= -631.728589221402     Delta-E=       -0.000000067185 Rises=F Damp=F
 DIIS: error= 2.62D-06 at cycle   4 NSaved=   4.
 NSaved= 4 IEnMin= 4 EnMin= -631.728589221402     IErMin= 4 ErrMin= 2.62D-06
 ErrMax= 2.62D-06  0.00D+00 EMaxC= 1.00D-01 BMatC= 3.85D-09 BMatP= 8.42D-08
 IDIUse=1 WtCom= 1.00D+00 WtEn= 0.00D+00
 Coeff-Com: -0.762D-02 0.348D-01 0.162D+00 0.811D+00
 Coeff:     -0.762D-02 0.348D-01 0.162D+00 0.811D+00
 Gap=     0.300 Goal=   None    Shift=    0.000
 RMSDP=4.07D-07 MaxDP=1.61D-05 DE=-6.72D-08 OVMax= 3.77D-05

 Cycle  13  Pass 1  IDiag  1:
 E= -631.728589226436     Delta-E=       -0.000000005034 Rises=F Damp=F
 DIIS: error= 1.97D-06 at cycle   5 NSaved=   5.
 NSaved= 5 IEnMin= 5 EnMin= -631.728589226436     IErMin= 5 ErrMin= 1.97D-06
 ErrMax= 1.97D-06  0.00D+00 EMaxC= 1.00D-01 BMatC= 8.41D-10 BMatP= 3.85D-09
 IDIUse=1 WtCom= 1.00D+00 WtEn= 0.00D+00
 Coeff-Com:  0.183D-02-0.400D-01-0.799D-03 0.337D+00 0.702D+00
 Coeff:      0.183D-02-0.400D-01-0.799D-03 0.337D+00 0.702D+00
 Gap=     0.300 Goal=   None    Shift=    0.000
 RMSDP=2.08D-07 MaxDP=5.60D-06 DE=-5.03D-09 OVMax= 1.35D-05

 Cycle  14  Pass 1  IDiag  1:
 E= -631.728589227639     Delta-E=       -0.000000001203 Rises=F Damp=F
 DIIS: error= 7.33D-07 at cycle   6 NSaved=   6.
 NSaved= 6 IEnMin= 6 EnMin= -631.728589227639     IErMin= 6 ErrMin= 7.33D-07
 ErrMax= 7.33D-07  0.00D+00 EMaxC= 1.00D-01 BMatC= 1.43D-10 BMatP= 8.41D-10
 IDIUse=1 WtCom= 1.00D+00 WtEn= 0.00D+00
 Coeff-Com:  0.215D-02-0.252D-01-0.326D-01 0.181D-01 0.287D+00 0.750D+00
 Coeff:      0.215D-02-0.252D-01-0.326D-01 0.181D-01 0.287D+00 0.750D+00
 Gap=     0.300 Goal=   None    Shift=    0.000
 RMSDP=1.03D-07 MaxDP=2.22D-06 DE=-1.20D-09 OVMax= 9.70D-06

 Cycle  15  Pass 1  IDiag  1:
 E= -631.728589227953     Delta-E=       -0.000000000314 Rises=F Damp=F
 DIIS: error= 3.46D-07 at cycle   7 NSaved=   7.
 NSaved= 7 IEnMin= 7 EnMin= -631.728589227953     IErMin= 7 ErrMin= 3.46D-07
 ErrMax= 3.46D-07  0.00D+00 EMaxC= 1.00D-01 BMatC= 3.02D-11 BMatP= 1.43D-10
 IDIUse=1 WtCom= 1.00D+00 WtEn= 0.00D+00
 Coeff-Com:  0.458D-03-0.953D-03-0.149D-01-0.648D-01-0.437D-01 0.306D+00
 Coeff-Com:  0.817D+00
 Coeff:      0.458D-03-0.953D-03-0.149D-01-0.648D-01-0.437D-01 0.306D+00
 Coeff:      0.817D+00
 Gap=     0.300 Goal=   None    Shift=    0.000
 RMSDP=5.69D-08 MaxDP=1.28D-06 DE=-3.14D-10 OVMax= 6.19D-06

 Cycle  16  Pass 1  IDiag  1:
 E= -631.728589228042     Delta-E=       -0.000000000088 Rises=F Damp=F
 DIIS: error= 1.35D-07 at cycle   8 NSaved=   8.
 NSaved= 8 IEnMin= 8 EnMin= -631.728589228042     IErMin= 8 ErrMin= 1.35D-07
 ErrMax= 1.35D-07  0.00D+00 EMaxC= 1.00D-01 BMatC= 3.94D-12 BMatP= 3.02D-11
 IDIUse=1 WtCom= 1.00D+00 WtEn= 0.00D+00
 Coeff-Com: -0.343D-03 0.498D-02 0.312D-02-0.163D-01-0.739D-01-0.902D-01
 Coeff-Com:  0.193D+00 0.980D+00
 Coeff:     -0.343D-03 0.498D-02 0.312D-02-0.163D-01-0.739D-01-0.902D-01
 Coeff:      0.193D+00 0.980D+00
 Gap=     0.300 Goal=   None    Shift=    0.000
 RMSDP=2.84D-08 MaxDP=4.82D-07 DE=-8.84D-11 OVMax= 3.03D-06

 Cycle  17  Pass 1  IDiag  1:
 E= -631.728589228075     Delta-E=       -0.000000000033 Rises=F Damp=F
 DIIS: error= 4.01D-08 at cycle   9 NSaved=   9.
 NSaved= 9 IEnMin= 9 EnMin= -631.728589228075     IErMin= 9 ErrMin= 4.01D-08
 ErrMax= 4.01D-08  0.00D+00 EMaxC= 1.00D-01 BMatC= 6.55D-13 BMatP= 3.94D-12
 IDIUse=1 WtCom= 1.00D+00 WtEn= 0.00D+00
 Coeff-Com: -0.185D-03 0.202D-02 0.316D-02 0.248D-02-0.211D-01-0.724D-01
 Coeff-Com: -0.421D-01 0.356D+00 0.772D+00
 Coeff:     -0.185D-03 0.202D-02 0.316D-02 0.248D-02-0.211D-01-0.724D-01
 Coeff:     -0.421D-01 0.356D+00 0.772D+00
 Gap=     0.300 Goal=   None    Shift=    0.000
 RMSDP=8.23D-09 MaxDP=1.35D-07 DE=-3.34D-11 OVMax= 7.82D-07

 SCF Done:  E(RwB97XD) =  -631.728589228     A.U. after   17 cycles
            NFock= 17  Conv=0.82D-08     -V/T= 2.0033
 KE= 6.296526220024D+02 PE=-3.171239854211D+03 EE= 1.060702834763D+03
 Leave Link  502 at Thu Sep 28 11:06:57 2017, MaxMem=  1879048192 cpu:        88.0
 (Enter /share/apps/gaussian/g09_D01/g09/l801.exe)
 DoSCS=F DFT=T ScalE2(SS,OS)=  1.000000  1.000000
 ExpMin= 1.61D-01 ExpMax= 5.48D+03 ExpMxC= 8.25D+02 IAcc=3 IRadAn=         5 AccDes= 0.00D+00
 HarFok:  IExCor=  205 AccDes= 0.00D+00 IRadAn=         5 IDoV=-2 UseB2=F ITyADJ=14
 ICtDFT= 12500011 ScaDFX=  1.000000  1.000000  1.000000  1.000000
 Largest valence mixing into a core orbital is  7.26D-05
 Largest core mixing into a valence orbital is  1.19D-05
 Range of M.O.s used for correlation:    15   236
 NBasis=   236 NAE=    51 NBE=    51 NFC=    14 NFV=     0
 NROrb=    222 NOA=    37 NOB=    37 NVA=   185 NVB=   185
 Leave Link  801 at Thu Sep 28 11:06:58 2017, MaxMem=  1879048192 cpu:         0.8
 (Enter /share/apps/gaussian/g09_D01/g09/l914.exe)
 RHF ground state
 MDV=  1879048192 DFT=T DoStab=F Mixed=T DoRPA=T DoScal=F NonHer=T
 Would need an additional           480300000 words for in-memory AO integral storage.
 Making orbital integer symmetry assigments:
    16 initial guesses have been made.
 Convergence on wavefunction:    0.001000000000000
 Davidson Disk Diagonalization:  ConvIn= 1.00D-03 SkipCon=T Conv= 1.00D-03.
 Max sub-space:   200 roots to seek:    16 dimension of matrix:        13690
 Iteration     1 Dimension    16 NMult     0 NNew     16
 CISAX will form    16 AO SS matrices at one time.
 NMat=    16 NSing=    16 JSym2X= 0.
 FoFJK:  IHMeth= 1 ICntrl=       0 DoSepK=T KAlg= 0 I1Cent=   0 FoldK=F
 IRaf=         1 NMat=  32 IRICut=       1 DoRegI=T DoRafI=F ISym2E= 0.
 FoFCou: FMM=F IPFlag=           0 FMFlag=      100000 FMFlg1=           0
         NFxFlg=           0 DoJE=F BraDBF=F KetDBF=F FulRan=T
         wScrn=  0.000000 ICntrl=     500 IOpCl=  0 I1Cent=           0 NGrid=           0
         NMat0=   16 NMatS0=     16 NMatT0=    0 NMatD0=   16 NMtDS0=    0 NMtDT0=    0
 Symmetry not used in FoFCou.
 New state      1 was old state      3
 New state      2 was old state      1
 New state      3 was old state      2
 Excitation Energies [eV] at current iteration:
 Root      1 :     4.303232440614764
 Root      2 :     4.722394611448929
 Root      3 :     5.334347148809035
 Root      4 :     6.156812041013739
 Root      5 :     6.732062560386606
 Root      6 :     6.821095260646203
 Root      7 :     6.912294943484794
 Root      8 :     7.269429844993635
 Root      9 :     7.347072247971918
 Root     10 :     7.584109048561916
 Root     11 :     7.831813265363270
 Root     12 :     8.195369397120869
 Root     13 :     8.587977207049402
 Root     14 :     8.671048339551351
 Root     15 :     8.911678799927452
 Root     16 :     9.291494591088043
 Iteration     2 Dimension    24 NMult    16 NNew      8
 CISAX will form     8 AO SS matrices at one time.
 NMat=     8 NSing=     8 JSym2X= 0.
 Root      1 not converged, maximum delta is    0.105559795469382
 Root      2 not converged, maximum delta is    0.127349320969876
 Root      3 not converged, maximum delta is    0.139658043150271
 Root      4 not converged, maximum delta is    0.125331921587022
 Excitation Energies [eV] at current iteration:
 Root      1 :     4.065814399895498   Change is   -0.237418040719266
 Root      2 :     4.434824430820058   Change is   -0.287570180628871
 Root      3 :     4.828788519748546   Change is   -0.505558629060489
 Root      4 :     5.628130410408047   Change is   -0.528681630605692
 Iteration     3 Dimension    32 NMult    24 NNew      8
 CISAX will form     8 AO SS matrices at one time.
 NMat=     8 NSing=     8 JSym2X= 0.
 Root      1 not converged, maximum delta is    0.015097698044356
 Root      2 not converged, maximum delta is    0.012190902710870
 Root      3 not converged, maximum delta is    0.017084151104868
 Root      4 not converged, maximum delta is    0.035950267018663
 Excitation Energies [eV] at current iteration:
 Root      1 :     4.054650283248500   Change is   -0.011164116646998
 Root      2 :     4.414530104560891   Change is   -0.020294326259167
 Root      3 :     4.798043491641645   Change is   -0.030745028106901
 Root      4 :     5.580294835631745   Change is   -0.047835574776303
 Iteration     4 Dimension    40 NMult    32 NNew      8
 CISAX will form     8 AO SS matrices at one time.
 NMat=     8 NSing=     8 JSym2X= 0.
 Root      1 not converged, maximum delta is    0.001232632039658
 Root      2 not converged, maximum delta is    0.002454079085574
 Root      3 not converged, maximum delta is    0.004679351357846
 Root      4 not converged, maximum delta is    0.014420996523703
 Excitation Energies [eV] at current iteration:
 Root      1 :     4.054249964778939   Change is   -0.000400318469561
 Root      2 :     4.412465286861812   Change is   -0.002064817699079
 Root      3 :     4.794504793166265   Change is   -0.003538698475379
 Root      4 :     5.574590346536962   Change is   -0.005704489094782
 Iteration     5 Dimension    48 NMult    40 NNew      8
 CISAX will form     8 AO SS matrices at one time.
 NMat=     8 NSing=     8 JSym2X= 0.
 Root      1 has converged.
 Root      2 has converged.
 Root      3 has converged.
 Root      4 not converged, maximum delta is    0.002077573304749
 Excitation Energies [eV] at current iteration:
 Root      1 :     4.054231333578331   Change is   -0.000018631200608
 Root      2 :     4.412351714071602   Change is   -0.000113572790210
 Root      3 :     4.794316610384991   Change is   -0.000188182781274
 Root      4 :     5.573950624020859   Change is   -0.000639722516104
 Iteration     6 Dimension    50 NMult    48 NNew      2
 CISAX will form     2 AO SS matrices at one time.
 NMat=     2 NSing=     2 JSym2X= 0.
 Root      1 has converged.
 Root      2 has converged.
 Root      3 has converged.
 Root      4 has converged.
 Excitation Energies [eV] at current iteration:
 Root      1 :     4.054231299017522   Change is   -0.000000034560810
 Root      2 :     4.412351601099894   Change is   -0.000000112971707
 Root      3 :     4.794315022495588   Change is   -0.000001587889403
 Root      4 :     5.573923853296049   Change is   -0.000026770724810
 Convergence achieved on expansion vectors.
 ***********************************************************************
 Excited states from <AA,BB:AA,BB> singles matrix:
 ***********************************************************************
 
 1PDM for each excited state written to RWF  633
 Ground to excited state transition densities written to RWF  633
 Ground to excited state transition electric dipole moments (Au):
       state          X           Y           Z        Dip. S.      Osc.
         1         0.1445      0.0894      0.0279      0.0296      0.0029
         2         1.9515      1.0672      0.1694      4.9759      0.5379
         3        -1.0753     -0.5118     -0.0582      1.4216      0.1670
         4         0.4301      0.0099     -0.4226      0.3637      0.0497
 Ground to excited state transition velocity dipole moments (Au):
       state          X           Y           Z        Dip. S.      Osc.
         1        -0.0231     -0.0125     -0.0048      0.0007      0.0032
         2        -0.3122     -0.1732     -0.0318      0.1285      0.5282
         3         0.1851      0.0860      0.0055      0.0417      0.1577
         4        -0.0710      0.0038      0.0815      0.0117      0.0381
 Ground to excited state transition magnetic dipole moments (Au):
       state          X           Y           Z
         1        -0.1929      0.1657      0.9249
         2         0.2741     -1.3802      4.3653
         3        -0.8152      1.9098     -3.3817
         4         1.9406     -1.9080      1.7916
 Ground to excited state transition velocity quadrupole moments (Au):
       state          XX          YY          ZZ          XY          XZ          YZ
         1        -0.6561     -0.5555     -0.0772     -0.6799     -0.2229     -0.2086
         2        -9.5630     -8.0935     -0.5566     -9.9266     -2.5715     -1.9969
         3         4.4368      3.5637      0.3028      4.8370      1.0212      0.6908
         4        -2.8600      0.0416      1.1664     -1.8809      0.8642      1.9739
 <0|del|b> * <b|rxdel|0> + <0|del|b> * <b|delr+rdel|0>
 Rotatory Strengths (R) in cgs (10**-40 erg-esu-cm/Gauss)
       state          XX          YY          ZZ    R(velocity)    E-M Angle
         1       -14.2921      3.9449      0.8358     -3.1705       94.48
         2       -64.0563    181.5670    -53.8996     21.2037       89.49
         3       169.2071   -136.2339    -53.9749     -7.0006       90.37
         4       -30.5137     36.5510     -2.6823      1.1183       89.84
 1/2[<0|r|b>*<b|rxdel|0> + (<0|rxdel|b>*<b|r|0>)*]
 Rotatory Strengths (R) in cgs (10**-40 erg-esu-cm/Gauss)
       state          XX          YY          ZZ     R(length)
         1        19.7074    -10.4818    -18.2246     -2.9997
         2      -378.2137   1041.6170   -522.8612     46.8473
         3      -619.9161    691.2135   -139.1457    -22.6161
         4      -590.2940     13.3745    535.4490    -13.8235
  1/2[<0|del|b>*<b|r|0> + (<0|r|b>*<b|del|0>)*] (Au)
       state          X           Y           Z        Dip. S.   Osc.(frdel)
         1        -0.0033     -0.0011     -0.0001      0.0046      0.0031
         2        -0.6093     -0.1848     -0.0054      0.7995      0.5330
         3        -0.1991     -0.0440     -0.0003      0.2434      0.1622
         4        -0.0305      0.0000     -0.0344      0.0649      0.0433

 Excitation energies and oscillator strengths:
 
 Excited state symmetry could not be determined.
 Excited State   1:      Singlet-?Sym    4.0542 eV  305.81 nm  f=0.0029  <S**2>=0.000
      49 -> 52         0.67831
      49 -> 56         0.12861
 This state for optimization and/or second-order correction.
 Total Energy, E(TD-HF/TD-KS) =  -631.579598963    
 Copying the excited state density for this state as the 1-particle RhoCI density.
 
 Excited state symmetry could not be determined.
 Excited State   2:      Singlet-?Sym    4.4124 eV  280.99 nm  f=0.5379  <S**2>=0.000
      50 -> 52         0.20074
      50 -> 53         0.10135
      51 -> 52         0.64648
 
 Excited state symmetry could not be determined.
 Excited State   3:      Singlet-?Sym    4.7943 eV  258.61 nm  f=0.1670  <S**2>=0.000
      48 -> 54        -0.11784
      50 -> 52         0.62903
      51 -> 52        -0.22629
      51 -> 53         0.12974
 
 Excited state symmetry could not be determined.
 Excited State   4:      Singlet-?Sym    5.5739 eV  222.44 nm  f=0.0497  <S**2>=0.000
      48 -> 52         0.57130
      48 -> 54         0.12043
      50 -> 52         0.15666
      50 -> 53        -0.26500
      51 -> 53        -0.19932
      51 -> 54         0.10102
 SavETr:  write IOETrn=   770 NScale= 10 NData=  16 NLR=1 NState=    4 LETran=      82.
 Leave Link  914 at Thu Sep 28 11:09:32 2017, MaxMem=  1879048192 cpu:       309.2
 (Enter /share/apps/gaussian/g09_D01/g09/l601.exe)
 Copying SCF densities to generalized density rwf, IOpCl= 0 IROHF=0.
 Saving Alpha spin NTOs for state    1 to file 10524.

 **********************************************************************

   Populations using transition density between ground and state  1.

 **********************************************************************

 Alpha  occ. eigenvalues --    0.00000   0.00000   0.00000   0.00000   0.00000
 Alpha  occ. eigenvalues --    0.00000   0.00000   0.00000   0.00000   0.00000
 Alpha  occ. eigenvalues --    0.00000   0.00000   0.00000   0.00000   0.00000
 Alpha  occ. eigenvalues --    0.00000   0.00000   0.00000   0.00000   0.00000
 Alpha  occ. eigenvalues --    0.00000   0.00000   0.00000   0.00000   0.00000
 Alpha  occ. eigenvalues --    0.00000   0.00000   0.00000   0.00000   0.00000
 Alpha  occ. eigenvalues --    0.00000   0.00000   0.00000   0.00000   0.00000
 Alpha  occ. eigenvalues --    0.00000   0.00001   0.00001   0.00001   0.00001
 Alpha  occ. eigenvalues --    0.00001   0.00002   0.00002   0.00003   0.00004
 Alpha  occ. eigenvalues --    0.00005   0.00007   0.00016   0.00041   0.00194
 Alpha  occ. eigenvalues --    0.99844
 Alpha virt. eigenvalues --    0.99844   0.00194   0.00041   0.00016   0.00007
 Alpha virt. eigenvalues --    0.00005   0.00004   0.00003   0.00002   0.00002
 Alpha virt. eigenvalues --    0.00001   0.00001   0.00001   0.00001   0.00001
 Alpha virt. eigenvalues --    0.00000   0.00000   0.00000   0.00000   0.00000
 Alpha virt. eigenvalues --    0.00000   0.00000   0.00000   0.00000   0.00000
 Alpha virt. eigenvalues --    0.00000   0.00000   0.00000   0.00000   0.00000
 Alpha virt. eigenvalues --    0.00000   0.00000   0.00000   0.00000   0.00000
 Alpha virt. eigenvalues --    0.00000   0.00000   0.00000   0.00000   0.00000
 Alpha virt. eigenvalues --    0.00000   0.00000   0.00000   0.00000   0.00000
 Alpha virt. eigenvalues --    0.00000   0.00000   0.00000   0.00000   0.00000
 Alpha virt. eigenvalues --    0.00000   0.00000   0.00000   0.00000   0.00000
 Alpha virt. eigenvalues --    0.00000   0.00000   0.00000   0.00000   0.00000
 Alpha virt. eigenvalues --    0.00000   0.00000   0.00000   0.00000   0.00000
 Alpha virt. eigenvalues --    0.00000   0.00000   0.00000   0.00000   0.00000
 Alpha virt. eigenvalues --    0.00000   0.00000   0.00000   0.00000   0.00000
 Alpha virt. eigenvalues --    0.00000   0.00000   0.00000   0.00000   0.00000
 Alpha virt. eigenvalues --    0.00000   0.00000   0.00000   0.00000   0.00000
 Alpha virt. eigenvalues --    0.00000   0.00000   0.00000   0.00000   0.00000
 Alpha virt. eigenvalues --    0.00000   0.00000   0.00000   0.00000   0.00000
 Alpha virt. eigenvalues --    0.00000   0.00000   0.00000   0.00000   0.00000
 Alpha virt. eigenvalues --    0.00000   0.00000   0.00000   0.00000   0.00000
 Alpha virt. eigenvalues --    0.00000   0.00000   0.00000   0.00000   0.00000
 Alpha virt. eigenvalues --    0.00000   0.00000   0.00000   0.00000   0.00000
 Alpha virt. eigenvalues --    0.00000   0.00000   0.00000   0.00000   0.00000
 Alpha virt. eigenvalues --    0.00000   0.00000   0.00000   0.00000   0.00000
 Alpha virt. eigenvalues --    0.00000   0.00000   0.00000   0.00000   0.00000
 Alpha virt. eigenvalues --    0.00000   0.00000   0.00000   0.00000   0.00000
 Alpha virt. eigenvalues --    0.00000   0.00000   0.00000   0.00000   0.00000
 Alpha virt. eigenvalues --    0.00000   0.00000   0.00000   0.00000   0.00000
 Alpha virt. eigenvalues --    0.00000   0.00000   0.00000   0.00000   0.00000
 Alpha virt. eigenvalues --    0.00000   0.00000   0.00000   0.00000   0.00000
 Alpha virt. eigenvalues --    0.00000   0.00000   0.00000   0.00000   0.00000
 Alpha virt. eigenvalues --    0.00000   0.00000   0.00000   0.00000   0.00000
 Alpha virt. eigenvalues --    0.00000   0.00000   0.00000   0.00000   0.00000
 Alpha virt. eigenvalues --    0.00000   0.00000   0.00000   0.00000   0.00000
 Alpha virt. eigenvalues --    0.00000   0.00000   0.00000   0.00000   0.00000
 Alpha virt. eigenvalues --    0.00000   0.00000   0.00000   0.00000   0.00000
          Condensed to atoms (all electrons):
               1          2          3          4          5          6
     1  C    0.008496   0.003106   0.000162  -0.003515  -0.000237  -0.000613
     2  C    0.003106   0.002877   0.000439   0.000549  -0.006890   0.001693
     3  C    0.000162   0.000439  -0.004070   0.000743   0.000439  -0.000944
     4  C   -0.003515   0.000549   0.000743  -0.002545  -0.000008  -0.000243
     5  C   -0.000237  -0.006890   0.000439  -0.000008  -0.005621   0.001107
     6  O   -0.000613   0.001693  -0.000944  -0.000243   0.001107  -0.015328
     7  C   -0.000694  -0.000212  -0.002304   0.000034  -0.000005  -0.000083
     8  O    0.000679   0.000847   0.002046   0.000005  -0.000028  -0.001656
     9  H   -0.000983  -0.001119   0.000276   0.000028   0.000103   0.004873
    10  C    0.000025  -0.000094   0.000081   0.004705   0.000087   0.000008
    11  H   -0.000300   0.000338   0.000073  -0.000119   0.000093   0.000004
    12  C    0.000313  -0.001194  -0.000017  -0.000043   0.009073  -0.002010
    13  H   -0.000785  -0.001694  -0.000015   0.000041   0.002703  -0.000152
    14  C    0.000535   0.000022  -0.000233   0.000083  -0.000001   0.000005
    15  H   -0.000126   0.000000   0.000126  -0.000038   0.000000   0.000000
    16  H   -0.000037   0.000005   0.000035   0.000170  -0.000002   0.000000
    17  H   -0.000040  -0.001226  -0.000002   0.000003  -0.001583  -0.000046
    18  N   -0.000012  -0.000013   0.000000   0.000002  -0.000322   0.000001
    19  H    0.000002   0.000000  -0.000072   0.000027   0.000000   0.000000
    20  C    0.000014   0.000074   0.000000  -0.000004  -0.000326   0.000006
    21  C    0.000000  -0.000008   0.000000   0.000000   0.000079  -0.000003
    22  H   -0.000047  -0.000183   0.000000   0.000017  -0.000140  -0.000013
    23  H    0.000000  -0.000001   0.000000   0.000000  -0.000012   0.000000
    24  H    0.000011   0.000057   0.000000  -0.000004   0.000381   0.000003
    25  H    0.000000   0.000001   0.000000   0.000000  -0.000009   0.000000
    26  H    0.000000   0.000004   0.000000   0.000000  -0.000033   0.000001
    27  H    0.000000  -0.000004   0.000000   0.000000   0.000041  -0.000001
               7          8          9         10         11         12
     1  C   -0.000694   0.000679  -0.000983   0.000025  -0.000300   0.000313
     2  C   -0.000212   0.000847  -0.001119  -0.000094   0.000338  -0.001194
     3  C   -0.002304   0.002046   0.000276   0.000081   0.000073  -0.000017
     4  C    0.000034   0.000005   0.000028   0.004705  -0.000119  -0.000043
     5  C   -0.000005  -0.000028   0.000103   0.000087   0.000093   0.009073
     6  O   -0.000083  -0.001656   0.004873   0.000008   0.000004  -0.002010
     7  C   -0.001567   0.000212  -0.000158  -0.000048  -0.000013   0.000000
     8  O    0.000212  -0.001767  -0.002999  -0.000002  -0.000001  -0.000001
     9  H   -0.000158  -0.002999   0.001118   0.000004   0.000004   0.000002
    10  C   -0.000048  -0.000002   0.000004  -0.002399   0.000655   0.000000
    11  H   -0.000013  -0.000001   0.000004   0.000655  -0.002163  -0.000053
    12  C    0.000000  -0.000001   0.000002   0.000000  -0.000053   0.000033
    13  H    0.000000  -0.000001   0.000003  -0.000027  -0.000014   0.002331
    14  C    0.002922  -0.000032   0.000006  -0.003991  -0.000022   0.000000
    15  H    0.000151   0.000055   0.000029  -0.000031   0.000000   0.000000
    16  H   -0.000057   0.000000   0.000000   0.000744   0.000067   0.000000
    17  H    0.000000   0.000001  -0.000014   0.000000  -0.000001   0.002542
    18  N    0.000000   0.000000   0.000000   0.000000   0.000001  -0.005997
    19  H    0.000304   0.000000   0.000000   0.000189   0.000001   0.000000
    20  C    0.000000   0.000000   0.000000   0.000000  -0.000003   0.000551
    21  C    0.000000   0.000000   0.000000   0.000000   0.000000   0.000690
    22  H    0.000000   0.000000   0.000000   0.000000   0.000015  -0.000636
    23  H    0.000000   0.000000   0.000000   0.000000   0.000000   0.000066
    24  H    0.000000   0.000000   0.000000   0.000000  -0.000006   0.000300
    25  H    0.000000   0.000000   0.000000   0.000000   0.000000  -0.000144
    26  H    0.000000   0.000000   0.000000   0.000000   0.000000  -0.001004
    27  H    0.000000   0.000000   0.000000   0.000000   0.000000   0.001214
              13         14         15         16         17         18
     1  C   -0.000785   0.000535  -0.000126  -0.000037  -0.000040  -0.000012
     2  C   -0.001694   0.000022   0.000000   0.000005  -0.001226  -0.000013
     3  C   -0.000015  -0.000233   0.000126   0.000035  -0.000002   0.000000
     4  C    0.000041   0.000083  -0.000038   0.000170   0.000003   0.000002
     5  C    0.002703  -0.000001   0.000000  -0.000002  -0.001583  -0.000322
     6  O   -0.000152   0.000005   0.000000   0.000000  -0.000046   0.000001
     7  C    0.000000   0.002922   0.000151  -0.000057   0.000000   0.000000
     8  O   -0.000001  -0.000032   0.000055   0.000000   0.000001   0.000000
     9  H    0.000003   0.000006   0.000029   0.000000  -0.000014   0.000000
    10  C   -0.000027  -0.003991  -0.000031   0.000744   0.000000   0.000000
    11  H   -0.000014  -0.000022   0.000000   0.000067  -0.000001   0.000001
    12  C    0.002331   0.000000   0.000000   0.000000   0.002542  -0.005997
    13  H   -0.004593   0.000000   0.000000   0.000002  -0.000107  -0.000170
    14  C    0.000000  -0.000733   0.000465  -0.000052   0.000000   0.000000
    15  H    0.000000   0.000465  -0.002001   0.000001   0.000000   0.000000
    16  H    0.000002  -0.000052   0.000001  -0.002353   0.000000   0.000000
    17  H   -0.000107   0.000000   0.000000   0.000000   0.003850  -0.000269
    18  N   -0.000170   0.000000   0.000000   0.000000  -0.000269   0.009968
    19  H    0.000000   0.000037   0.000049   0.000060   0.000000   0.000000
    20  C    0.000363   0.000000   0.000000   0.000000   0.000240   0.003111
    21  C   -0.000002   0.000000   0.000000   0.000000  -0.000313   0.002563
    22  H   -0.000872   0.000000   0.000000   0.000000  -0.000321  -0.000555
    23  H   -0.000032   0.000000   0.000000   0.000000  -0.000026   0.000239
    24  H    0.000416   0.000000   0.000000   0.000000   0.000205  -0.001929
    25  H    0.000000   0.000000   0.000000   0.000000   0.000108  -0.000141
    26  H    0.000004   0.000000   0.000000   0.000000   0.000305  -0.000018
    27  H   -0.000003   0.000000   0.000000   0.000000  -0.000300  -0.001796
              19         20         21         22         23         24
     1  C    0.000002   0.000014   0.000000  -0.000047   0.000000   0.000011
     2  C    0.000000   0.000074  -0.000008  -0.000183  -0.000001   0.000057
     3  C   -0.000072   0.000000   0.000000   0.000000   0.000000   0.000000
     4  C    0.000027  -0.000004   0.000000   0.000017   0.000000  -0.000004
     5  C    0.000000  -0.000326   0.000079  -0.000140  -0.000012   0.000381
     6  O    0.000000   0.000006  -0.000003  -0.000013   0.000000   0.000003
     7  C    0.000304   0.000000   0.000000   0.000000   0.000000   0.000000
     8  O    0.000000   0.000000   0.000000   0.000000   0.000000   0.000000
     9  H    0.000000   0.000000   0.000000   0.000000   0.000000   0.000000
    10  C    0.000189   0.000000   0.000000   0.000000   0.000000   0.000000
    11  H    0.000001  -0.000003   0.000000   0.000015   0.000000  -0.000006
    12  C    0.000000   0.000551   0.000690  -0.000636   0.000066   0.000300
    13  H    0.000000   0.000363  -0.000002  -0.000872  -0.000032   0.000416
    14  C    0.000037   0.000000   0.000000   0.000000   0.000000   0.000000
    15  H    0.000049   0.000000   0.000000   0.000000   0.000000   0.000000
    16  H    0.000060   0.000000   0.000000   0.000000   0.000000   0.000000
    17  H    0.000000   0.000240  -0.000313  -0.000321  -0.000026   0.000205
    18  N    0.000000   0.003111   0.002563  -0.000555   0.000239  -0.001929
    19  H   -0.002161   0.000000   0.000000   0.000000   0.000000   0.000000
    20  C    0.000000  -0.005472  -0.000543   0.000920   0.000297  -0.000617
    21  C    0.000000  -0.000543  -0.004253  -0.000175  -0.000210   0.000322
    22  H    0.000000   0.000920  -0.000175   0.007681  -0.000780  -0.001859
    23  H    0.000000   0.000297  -0.000210  -0.000780   0.001770   0.000156
    24  H    0.000000  -0.000617   0.000322  -0.001859   0.000156   0.006128
    25  H    0.000000   0.000067   0.000002   0.000002   0.000000  -0.000010
    26  H    0.000000  -0.000085   0.000877  -0.000021   0.000086   0.000105
    27  H    0.000000   0.000037  -0.000423   0.000088  -0.000009  -0.000087
              25         26         27
     1  C    0.000000   0.000000   0.000000
     2  C    0.000001   0.000004  -0.000004
     3  C    0.000000   0.000000   0.000000
     4  C    0.000000   0.000000   0.000000
     5  C   -0.000009  -0.000033   0.000041
     6  O    0.000000   0.000001  -0.000001
     7  C    0.000000   0.000000   0.000000
     8  O    0.000000   0.000000   0.000000
     9  H    0.000000   0.000000   0.000000
    10  C    0.000000   0.000000   0.000000
    11  H    0.000000   0.000000   0.000000
    12  C   -0.000144  -0.001004   0.001214
    13  H    0.000000   0.000004  -0.000003
    14  C    0.000000   0.000000   0.000000
    15  H    0.000000   0.000000   0.000000
    16  H    0.000000   0.000000   0.000000
    17  H    0.000108   0.000305  -0.000300
    18  N   -0.000141  -0.000018  -0.001796
    19  H    0.000000   0.000000   0.000000
    20  C    0.000067  -0.000085   0.000037
    21  C    0.000002   0.000877  -0.000423
    22  H    0.000002  -0.000021   0.000088
    23  H    0.000000   0.000086  -0.000009
    24  H   -0.000010   0.000105  -0.000087
    25  H    0.003394  -0.000497  -0.000128
    26  H   -0.000497   0.003325  -0.001093
    27  H   -0.000128  -0.001093   0.005640
 Mulliken charges:
               1
     1  C    5.994046
     2  C    6.002628
     3  C    6.003236
     4  C    6.000110
     5  C    6.001111
     6  O    8.013390
     7  C    6.001518
     8  O    8.002641
     9  H    0.998826
    10  C    6.000094
    11  H    1.001441
    12  C    5.993982
    13  H    1.002603
    14  C    6.000989
    15  H    1.001319
    16  H    1.001417
    17  H    0.996994
    18  N    6.995336
    19  H    1.001564
    20  C    6.001370
    21  C    6.001399
    22  H    0.996880
    23  H    0.998456
    24  H    0.996426
    25  H    0.997354
    26  H    0.998045
    27  H    0.996824
 Sum of Mulliken charges = 102.00000
 Mulliken charges with hydrogens summed into heavy atoms:
               1
     1  C    5.994046
     2  C    6.002628
     3  C    6.003236
     4  C    7.001551
     5  C    7.003715
     6  O    8.013390
     7  C    7.002837
     8  O    9.001468
    10  C    7.001511
    12  C    6.990976
    14  C    7.002553
    18  N    6.995336
    20  C    8.993132
    21  C    8.993621
 Electronic spatial extent (au):  <R**2>=            -12.1034
 Charge=              0.0000 electrons
 Dipole moment (field-independent basis, Debye):
    X=              0.5193    Y=              0.3215    Z=              0.1002  Tot=              0.6189
 Quadrupole moment (field-independent basis, Debye-Ang):
   XX=              7.8767   YY=              7.5793   ZZ=              0.8235
   XY=              8.3611   XZ=              2.6647   YZ=              2.5929
 Traceless Quadrupole moment (field-independent basis, Debye-Ang):
   XX=              2.4502   YY=              2.1528   ZZ=             -4.6030
   XY=              8.3611   XZ=              2.6647   YZ=              2.5929
 Octapole moment (field-independent basis, Debye-Ang**2):
  XXX=             96.6660  YYY=            135.1895  ZZZ=              5.1496  XYY=            126.0649
  XXY=            110.9404  XXZ=             34.4726  XZZ=             14.4191  YZZ=             16.6634
  YYZ=             47.6735  XYZ=             41.2449
 Hexadecapole moment (field-independent basis, Debye-Ang**3):
 XXXX=           1120.1409 YYYY=           2163.0035 ZZZZ=             28.8285 XXXY=           1306.8709
 XXXZ=            391.6553 YYYX=           1833.2313 YYYZ=            773.4374 ZZZX=             77.4189
 ZZZY=             96.6390 XXYY=           1539.7421 XXZZ=            171.1044 YYZZ=            282.2145
 XXYZ=            483.5269 YYXZ=            609.0087 ZZXY=            218.9130
 N-N= 8.491558082170D+02 E-N= 3.516682340628D-02  KE=-9.069969094970D-05
 Leave Link  601 at Thu Sep 28 11:09:32 2017, MaxMem=  1879048192 cpu:         0.1
 (Enter /share/apps/gaussian/g09_D01/g09/l9999.exe)
 1\1\GINC-NXN37\SP\RwB97XD TD-FC\6-31G(d)\C11H13N1O2\BTX008\28-Sep-2017
 \0\\#p wb97xd 6-31G* td=(nstates=4) nosymm density=(transition=1) pop=
 SaveNTO\\unrelaxed crystal\\0,1\C,0,9.467207,12.94444,3.544461\C,0,8.1
 55126,12.590967,4.158769\C,0,10.336436,13.815495,4.226761\C,0,9.89617,
 12.433378,2.312501\C,0,7.208229,11.814171,3.443876\O,0,7.912238,13.023
 024,5.324355\C,0,11.584305,14.131727,3.689188\O,0,9.992177,14.368953,5
 .406054\H,0,9.268451,14.068397,5.647697\C,0,11.127325,12.763601,1.7877
 72\H,0,9.338838,11.859197,1.839036\C,0,6.031561,11.456386,4.047283\H,0
 ,7.385039,11.548857,2.569686\C,0,11.968414,13.607515,2.48054\H,0,12.15
 7612,14.699596,4.151861\H,0,11.390398,12.416757,0.965926\H,0,5.929588,
 11.721384,4.933236\N,0,5.025329,10.781738,3.526114\H,0,12.801178,13.82
 328,2.127195\C,0,5.036006,10.33285,2.151694\C,0,3.843738,10.458879,4.3
 26484\H,0,5.401543,11.022857,1.592968\H,0,4.138578,10.136021,1.872493\
 H,0,5.57446,9.54164,2.077549\H,0,3.95783,10.79878,5.217078\H,0,3.72984
 9,9.505872,4.359076\H,0,3.067854,10.860848,3.928457\\Version=ES64L-G09
 RevD.01\HF=-631.7285892\RMSD=8.230e-09\PG=C01 [X(C11H13N1O2)]\\@


     SCHOPENHAUER'S LAW OF ENTROPY
 IF YOU PUT A SPOONFUL OF WINE IN A BARREL FULL
 OF SEWAGE, YOU GET SEWAGE.
 IF YOU PUT A SPOONFUL OF SEWAGE IN A BARREL FULL
 OF WINE, YOU GET SEWAGE.
 Job cpu time:       0 days  0 hours  6 minutes 41.5 seconds.
 File lengths (MBytes):  RWF=    119 Int=      0 D2E=      0 Chk=     15 Scr=      1
 Normal termination of Gaussian 09 at Thu Sep 28 11:09:33 2017.
