 Entering Gaussian System, Link 0=g09
 Input=H_HPcrys_mon-2.com
 Output=H_HPcrys_mon-2.out
 Initial command:
 /share/apps/gaussian/g09_D01/g09/l1.exe "/tmp/4049067.1.chemistry.q/Gau-5263.inp" -scrdir="/tmp/4049067.1.chemistry.q/"
 Entering Link 1 = /share/apps/gaussian/g09_D01/g09/l1.exe PID=      5265.
  
 Copyright (c) 1988,1990,1992,1993,1995,1998,2003,2009,2013,
            Gaussian, Inc.  All Rights Reserved.
  
 This is part of the Gaussian(R) 09 program.  It is based on
 the Gaussian(R) 03 system (copyright 2003, Gaussian, Inc.),
 the Gaussian(R) 98 system (copyright 1998, Gaussian, Inc.),
 the Gaussian(R) 94 system (copyright 1995, Gaussian, Inc.),
 the Gaussian 92(TM) system (copyright 1992, Gaussian, Inc.),
 the Gaussian 90(TM) system (copyright 1990, Gaussian, Inc.),
 the Gaussian 88(TM) system (copyright 1988, Gaussian, Inc.),
 the Gaussian 86(TM) system (copyright 1986, Carnegie Mellon
 University), and the Gaussian 82(TM) system (copyright 1983,
 Carnegie Mellon University). Gaussian is a federally registered
 trademark of Gaussian, Inc.
  
 This software contains proprietary and confidential information,
 including trade secrets, belonging to Gaussian, Inc.
  
 This software is provided under written license and may be
 used, copied, transmitted, or stored only in accord with that
 written license.
  
 The following legend is applicable only to US Government
 contracts under FAR:
  
                    RESTRICTED RIGHTS LEGEND
  
 Use, reproduction and disclosure by the US Government is
 subject to restrictions as set forth in subparagraphs (a)
 and (c) of the Commercial Computer Software - Restricted
 Rights clause in FAR 52.227-19.
  
 Gaussian, Inc.
 340 Quinnipiac St., Bldg. 40, Wallingford CT 06492
  
  
 ---------------------------------------------------------------
 Warning -- This program may not be used in any manner that
 competes with the business of Gaussian, Inc. or will provide
 assistance to any competitor of Gaussian, Inc.  The licensee
 of this program is prohibited from giving any competitor of
 Gaussian, Inc. access to this program.  By using this program,
 the user acknowledges that Gaussian, Inc. is engaged in the
 business of creating and licensing software in the field of
 computational chemistry and represents and warrants to the
 licensee that it is not a competitor of Gaussian, Inc. and that
 it will not use this program in any manner prohibited above.
 ---------------------------------------------------------------
  

 Cite this work as:
 Gaussian 09, Revision D.01,
 M. J. Frisch, G. W. Trucks, H. B. Schlegel, G. E. Scuseria, 
 M. A. Robb, J. R. Cheeseman, G. Scalmani, V. Barone, B. Mennucci, 
 G. A. Petersson, H. Nakatsuji, M. Caricato, X. Li, H. P. Hratchian, 
 A. F. Izmaylov, J. Bloino, G. Zheng, J. L. Sonnenberg, M. Hada, 
 M. Ehara, K. Toyota, R. Fukuda, J. Hasegawa, M. Ishida, T. Nakajima, 
 Y. Honda, O. Kitao, H. Nakai, T. Vreven, J. A. Montgomery, Jr., 
 J. E. Peralta, F. Ogliaro, M. Bearpark, J. J. Heyd, E. Brothers, 
 K. N. Kudin, V. N. Staroverov, T. Keith, R. Kobayashi, J. Normand, 
 K. Raghavachari, A. Rendell, J. C. Burant, S. S. Iyengar, J. Tomasi, 
 M. Cossi, N. Rega, J. M. Millam, M. Klene, J. E. Knox, J. B. Cross, 
 V. Bakken, C. Adamo, J. Jaramillo, R. Gomperts, R. E. Stratmann, 
 O. Yazyev, A. J. Austin, R. Cammi, C. Pomelli, J. W. Ochterski, 
 R. L. Martin, K. Morokuma, V. G. Zakrzewski, G. A. Voth, 
 P. Salvador, J. J. Dannenberg, S. Dapprich, A. D. Daniels, 
 O. Farkas, J. B. Foresman, J. V. Ortiz, J. Cioslowski, 
 and D. J. Fox, Gaussian, Inc., Wallingford CT, 2013.
 
 ******************************************
 Gaussian 09:  ES64L-G09RevD.01 24-Apr-2013
                28-Sep-2017 
 ******************************************
 %chk=H_HPcrys_mon-2
 %mem=14GB
 %nproc=2
 Will use up to    2 processors via shared memory.
 ----------------------------------------------------------------------
 #p wb97xd 6-31G* td=(nstates=4) nosymm density=(transition=1) pop=Save
 NTO
 ----------------------------------------------------------------------
 1/38=1/1;
 2/12=2,15=1,17=6,18=5,40=1/2;
 3/5=1,6=6,7=1,11=9,16=1,25=1,30=1,74=-58/1,2,8,3;
 4//1;
 5/5=2,38=5/2;
 8/6=1,10=2,108=4/1;
 9/41=4,42=1,70=2/14;
 6/7=2,8=2,9=2,10=2,29=1,89=10/1;
 99/5=1,9=1/99;
 Leave Link    1 at Thu Sep 28 11:06:07 2017, MaxMem=  1879048192 cpu:         0.1
 (Enter /share/apps/gaussian/g09_D01/g09/l101.exe)
 -----------------
 unrelaxed crystal
 -----------------
 Symbolic Z-matrix:
 Charge =  0 Multiplicity = 1
 C                     4.5855    8.09556   7.248 
 C                     5.89758   8.44903   6.6337 
 C                     3.71627   7.2245    6.5657 
 C                     4.15654   8.60662   8.47996 
 C                     6.84448   9.22583   7.34859 
 O                     6.14047   8.01698   5.46811 
 C                     2.46841   6.90827   7.10328 
 O                     4.06053   6.67105   5.38641 
 H                     4.78426   6.9716    5.14477 
 C                     2.92538   8.2764    9.00469 
 H                     4.71387   9.1808    8.95343 
 C                     8.02115   9.58361   6.74518 
 H                     6.66767   9.49114   8.22278 
 C                     2.0843    7.43249   8.31193 
 H                     1.8951    6.3404    6.6406 
 H                     2.66231   8.62324   9.82654 
 H                     8.12312   9.31862   5.85923 
 N                     9.02738   10.25826   7.26635 
 H                     1.25153   7.21672   8.66527 
 C                     9.0167    10.70715   8.64077 
 C                     10.20897   10.58112   6.46598 
 H                     8.47825   11.49836   8.71491 
 H                     9.91413   10.90398   8.91997 
 H                     8.65117   10.01714   9.1995 
 H                     10.09488   10.24122   5.57539 
 H                     10.98486   10.17915   6.86401 
 H                     10.32286   11.53413   6.43339 
 
 NAtoms=     27 NQM=       27 NQMF=       0 NMMI=      0 NMMIF=      0
                NMic=       0 NMicF=      0.
                    Isotopes and Nuclear Properties:
 (Nuclear quadrupole moments (NQMom) in fm**2, nuclear magnetic moments (NMagM)
  in nuclear magnetons)

  Atom         1           2           3           4           5           6           7           8           9          10
 IAtWgt=          12          12          12          12          12          16          12          16           1          12
 AtmWgt=  12.0000000  12.0000000  12.0000000  12.0000000  12.0000000  15.9949146  12.0000000  15.9949146   1.0078250  12.0000000
 NucSpn=           0           0           0           0           0           0           0           0           1           0
 AtZEff=   0.0000000   0.0000000   0.0000000   0.0000000   0.0000000   0.0000000   0.0000000   0.0000000   0.0000000   0.0000000
 NQMom=    0.0000000   0.0000000   0.0000000   0.0000000   0.0000000   0.0000000   0.0000000   0.0000000   0.0000000   0.0000000
 NMagM=    0.0000000   0.0000000   0.0000000   0.0000000   0.0000000   0.0000000   0.0000000   0.0000000   2.7928460   0.0000000
 AtZNuc=   6.0000000   6.0000000   6.0000000   6.0000000   6.0000000   8.0000000   6.0000000   8.0000000   1.0000000   6.0000000

  Atom        11          12          13          14          15          16          17          18          19          20
 IAtWgt=           1          12           1          12           1           1           1          14           1          12
 AtmWgt=   1.0078250  12.0000000   1.0078250  12.0000000   1.0078250   1.0078250   1.0078250  14.0030740   1.0078250  12.0000000
 NucSpn=           1           0           1           0           1           1           1           2           1           0
 AtZEff=   0.0000000   0.0000000   0.0000000   0.0000000   0.0000000   0.0000000   0.0000000   0.0000000   0.0000000   0.0000000
 NQMom=    0.0000000   0.0000000   0.0000000   0.0000000   0.0000000   0.0000000   0.0000000   2.0440000   0.0000000   0.0000000
 NMagM=    2.7928460   0.0000000   2.7928460   0.0000000   2.7928460   2.7928460   2.7928460   0.4037610   2.7928460   0.0000000
 AtZNuc=   1.0000000   6.0000000   1.0000000   6.0000000   1.0000000   1.0000000   1.0000000   7.0000000   1.0000000   6.0000000

  Atom        21          22          23          24          25          26          27
 IAtWgt=          12           1           1           1           1           1           1
 AtmWgt=  12.0000000   1.0078250   1.0078250   1.0078250   1.0078250   1.0078250   1.0078250
 NucSpn=           0           1           1           1           1           1           1
 AtZEff=   0.0000000   0.0000000   0.0000000   0.0000000   0.0000000   0.0000000   0.0000000
 NQMom=    0.0000000   0.0000000   0.0000000   0.0000000   0.0000000   0.0000000   0.0000000
 NMagM=    0.0000000   2.7928460   2.7928460   2.7928460   2.7928460   2.7928460   2.7928460
 AtZNuc=   6.0000000   1.0000000   1.0000000   1.0000000   1.0000000   1.0000000   1.0000000
 Leave Link  101 at Thu Sep 28 11:06:07 2017, MaxMem=  1879048192 cpu:         0.1
 (Enter /share/apps/gaussian/g09_D01/g09/l202.exe)
                          Input orientation:                          
 ---------------------------------------------------------------------
 Center     Atomic      Atomic             Coordinates (Angstroms)
 Number     Number       Type             X           Y           Z
 ---------------------------------------------------------------------
      1          6           0        4.585503    8.095561    7.248003
      2          6           0        5.897584    8.449033    6.633697
      3          6           0        3.716274    7.224505    6.565704
      4          6           0        4.156540    8.606623    8.479963
      5          6           0        6.844481    9.225830    7.348589
      6          8           0        6.140471    8.016976    5.468110
      7          6           0        2.468405    6.908274    7.103277
      8          8           0        4.060533    6.671048    5.386412
      9          1           0        4.784259    6.971604    5.144768
     10          6           0        2.925384    8.276400    9.004693
     11          1           0        4.713872    9.180804    8.953429
     12          6           0        8.021149    9.583615    6.745183
     13          1           0        6.667671    9.491144    8.222779
     14          6           0        2.084295    7.432486    8.311925
     15          1           0        1.895098    6.340404    6.640604
     16          1           0        2.662313    8.623244    9.826539
     17          1           0        8.123121    9.318617    5.859229
     18          7           0        9.027381   10.258263    7.266351
     19          1           0        1.251532    7.216720    8.665271
     20          6           0        9.016705   10.707151    8.640771
     21          6           0       10.208972   10.581121    6.465982
     22          1           0        8.478251   11.498361    8.714915
     23          1           0        9.914132   10.903980    8.919972
     24          1           0        8.651167   10.017144    9.199497
     25          1           0       10.094880   10.241220    5.575387
     26          1           0       10.984856   10.179152    6.864008
     27          1           0       10.322862   11.534128    6.433388
 ---------------------------------------------------------------------
                    Distance matrix (angstroms):
                    1          2          3          4          5
     1  C    0.000000
     2  C    1.491265   0.000000
     3  C    1.407064   2.502440   0.000000
     4  C    1.401042   2.542591   2.401764   0.000000
     5  C    2.527965   1.418132   3.795246   2.981351   0.000000
     6  O    2.364766   1.266594   2.776590   3.654439   2.343749
     7  C    2.431604   3.788629   1.395050   2.762147   4.957952
     8  O    2.402156   2.844593   1.347427   3.650442   4.257630
     9  H    2.392986   2.374700   1.795441   3.767074   3.766016
    10  C    2.423769   3.805969   2.771400   1.378453   4.359291
    11  H    2.025514   2.705147   3.244000   0.929770   2.667777
    12  C    3.777671   2.410235   4.912185   4.347318   1.369911
    13  H    2.689473   2.050417   4.073609   2.674752   0.930517
    14  C    2.797792   4.288472   2.399146   2.387684   5.177207
    15  H    3.269218   4.523965   2.025815   3.692304   5.772635
    16  H    3.259748   4.548799   3.701398   2.011531   4.898354
    17  H    3.992405   2.511771   4.929981   4.807177   1.965127
    18  N    4.940435   3.670040   6.156497   5.284492   2.416140
    19  H    3.727784   5.218399   3.237776   3.225716   6.086974
    20  C    5.328767   4.342391   6.673027   5.297101   2.929608
    21  C    6.197820   4.812691   7.309716   6.677327   3.733043
    22  H    5.374418   4.504410   6.749917   5.205241   3.114554
    23  H    6.251159   5.233209   7.582517   6.214606   3.835126
    24  H    4.902085   4.077318   6.252109   4.765393   2.704839
    25  H    6.144488   4.685002   7.125160   6.809725   3.839317
    26  H    6.740959   5.378354   7.851828   7.190971   4.276254
    27  H    6.738296   5.398242   7.889066   7.126169   4.273753
                    6          7          8          9         10
     6  O    0.000000
     7  C    4.169779   0.000000
     8  O    2.478778   2.353460   0.000000
     9  H    1.742603   3.033636   0.820064   0.000000
    10  C    4.786596   2.386626   4.117970   4.478496   0.000000
    11  H    3.941716   3.691826   4.410140   4.403569   2.004810
    12  C    2.760837   6.174030   5.100567   4.456612   5.725471
    13  H    3.168487   5.055525   4.774420   4.401076   4.011447
    14  C    4.988134   1.372286   3.611638   4.187255   1.378241
    15  H    4.712624   0.930174   2.524170   3.314090   3.224668
    16  H    5.609015   3.224109   5.047853   5.399032   0.930020
    17  H    2.403777   6.271620   4.872145   4.143299   6.164141
    18  N    4.073240   7.366762   6.408733   5.771250   6.647103
    19  H    5.896098   2.003932   4.351915   4.993414   2.009953
    20  C    5.057227   7.724998   7.172491   6.640026   6.568499
    21  C    4.911546   8.591410   7.365965   6.648438   8.050307
    22  H    5.303489   7.732045   7.341534   6.847120   6.426456
    23  H    5.872875   8.643200   8.041665   7.485409   7.466857
    24  H    4.922145   7.230889   6.841776   6.377234   5.987715
    25  H    4.538295   8.462039   7.013928   6.251281   8.186717
    26  H    5.485581   9.126107   7.901666   7.189684   8.553250
    27  H    5.549281   9.140009   7.997654   7.290630   8.482163
                   11         12         13         14         15
    11  H    0.000000
    12  C    3.997085   0.000000
    13  H    2.108908   2.005927   0.000000
    14  C    3.222238   6.506018   5.025272   0.000000
    15  H    4.621960   6.932377   5.933624   2.005431   0.000000
    16  H    2.298279   6.255733   4.400930   2.011483   3.993765
    17  H    4.606088   0.930342   2.781091   6.785324   6.947559
    18  N    4.755366   1.318813   2.659221   7.568665   8.161534
    19  H    3.991047   7.424058   5.890956   0.930001   2.298126
    20  C    4.576228   2.417999   2.677938   7.673974   8.589903
    21  C    6.192286   2.420649   4.100634   8.906839   9.334596
    22  H    4.427020   2.784787   2.747602   7.587912   8.616565
    23  H    5.478427   3.171192   3.608558   8.586463   9.504033
    24  H    4.032655   2.570706   2.272644   7.112809   8.106221
    25  H    6.441343   2.470066   4.395118   8.918918   9.142619
    26  H    6.684880   3.025284   4.577958   9.426591   9.869630
    27  H    6.584034   3.033084   4.553694   9.392889   9.901763
                   16         17         18         19         20
    16  H    0.000000
    17  H    6.785537   0.000000
    18  N    7.052797   1.918492   0.000000
    19  H    2.305896   7.714310   8.465919   0.000000
    20  C    6.791687   3.234733   1.445906   8.513614   0.000000
    21  C    8.489917   2.512537   1.463211   9.817932   2.483363
    22  H    6.582335   3.610034   1.984370   8.400023   0.959918
    23  H    7.655880   3.884488   1.984374   9.418142   0.960245
    24  H    6.180818   3.453138   1.984119   7.929840   0.960158
    25  H    8.713965   2.195358   1.999801   9.843769   3.282702
    26  H    8.970070   3.152718   1.999962  10.332383   2.703570
    27  H    8.869652   3.174430   1.999982  10.291275   2.694898
                   21         22         23         24         25
    21  C    0.000000
    22  H    2.982352   0.000000
    23  H    2.492636   1.567511   0.000000
    24  H    3.196393   1.568032   1.568341   0.000000
    25  H    0.960057   3.748404   3.414406   3.907517   0.000000
    26  H    0.960208   3.383672   2.428747   3.305580   1.567308
    27  H    0.960341   2.934150   2.597546   3.570317   1.568360
                   26         27
    26  H    0.000000
    27  H    1.568321   0.000000
 Symmetry turned off by external request.
 Stoichiometry    C11H13NO2
 Framework group  C1[X(C11H13NO2)]
 Deg. of freedom    75
 Full point group                 C1      NOp   1
 Rotational constants (GHZ):      1.6536361      0.3227340      0.2712868
 Leave Link  202 at Thu Sep 28 11:06:07 2017, MaxMem=  1879048192 cpu:         0.0
 (Enter /share/apps/gaussian/g09_D01/g09/l301.exe)
 Standard basis: 6-31G(d) (6D, 7F)
 Ernie: Thresh=  0.10000D-02 Tol=  0.10000D-05 Strict=F.
   236 basis functions,   444 primitive gaussians,   236 cartesian basis functions
    51 alpha electrons       51 beta electrons
       nuclear repulsion energy       849.1708417472 Hartrees.
 IExCor= 4639 DFT=T Ex+Corr=wB97XD ExCW=0 ScaHFX=  1.000000
 ScaDFX=  1.000000  1.000000  1.000000  1.000000 ScalE2=  1.000000  1.000000
 IRadAn=      0 IRanWt=     -1 IRanGd=            0 ICorTp=0 IEmpDi=121
  HFx wShort=  0.000000 wLong=  0.200000 cFull=  0.222036 cShort=  0.000000 cLong=  0.777964
  DFx wShort=  0.000000 wLong=  0.200000 cFull=  0.000000 cShort=  0.000000 cLong=  1.000000
 NAtoms=   27 NActive=   27 NUniq=   27 SFac= 1.00D+00 NAtFMM=   60 NAOKFM=F Big=F
 Integral buffers will be    131072 words long.
 Raffenetti 1 integral format.
 Two-electron integral symmetry is turned off.
 R6Disp:  Grimme-D2 Dispersion energy=       -0.0150057686 Hartrees.
 Nuclear repulsion after empirical dispersion term =      849.1558359787 Hartrees.
 Leave Link  301 at Thu Sep 28 11:06:08 2017, MaxMem=  1879048192 cpu:         0.1
 (Enter /share/apps/gaussian/g09_D01/g09/l302.exe)
 NPDir=0 NMtPBC=     1 NCelOv=     1 NCel=       1 NClECP=     1 NCelD=      1
         NCelK=      1 NCelE2=     1 NClLst=     1 CellRange=     0.0.
 One-electron integrals computed using PRISM.
 NBasis=   236 RedAO= T EigKep=  3.48D-04  NBF=   236
 NBsUse=   236 1.00D-06 EigRej= -1.00D+00 NBFU=   236
 Precomputing XC quadrature grid using
 IXCGrd= 4 IRadAn=           0 IRanWt=          -1 IRanGd=           0 AccXCQ= 0.00D+00.
 Generated NRdTot=       0 NPtTot=           0 NUsed=           0 NTot=          32
 NSgBfM=   235   235   235   235   235 MxSgAt=    27 MxSgA2=    27.
 Leave Link  302 at Thu Sep 28 11:06:08 2017, MaxMem=  1879048192 cpu:         0.7
 (Enter /share/apps/gaussian/g09_D01/g09/l308.exe)
 Leave Link  308 at Thu Sep 28 11:06:08 2017, MaxMem=  1879048192 cpu:         0.1
 (Enter /share/apps/gaussian/g09_D01/g09/l303.exe)
 DipDrv:  MaxL=1.
 Leave Link  303 at Thu Sep 28 11:06:08 2017, MaxMem=  1879048192 cpu:         0.1
 (Enter /share/apps/gaussian/g09_D01/g09/l401.exe)
 ExpMin= 1.61D-01 ExpMax= 5.48D+03 ExpMxC= 8.25D+02 IAcc=1 IRadAn=         1 AccDes= 0.00D+00
 Harris functional with IExCor= 4639 and IRadAn=       1 diagonalized for initial guess.
 HarFok:  IExCor= 4639 AccDes= 0.00D+00 IRadAn=         1 IDoV= 1 UseB2=F ITyADJ=14
 ICtDFT=  3500011 ScaDFX=  1.000000  1.000000  1.000000  1.000000
 FoFCou: FMM=F IPFlag=           0 FMFlag=      100000 FMFlg1=           0
         NFxFlg=           0 DoJE=T BraDBF=F KetDBF=T FulRan=T
         wScrn=  0.000000 ICntrl=     500 IOpCl=  0 I1Cent=   200000004 NGrid=           0
         NMat0=    1 NMatS0=      1 NMatT0=    0 NMatD0=    1 NMtDS0=    0 NMtDT0=    0
 Symmetry not used in FoFCou.
 Harris En= -604.457624360339    
 JPrj=0 DoOrth=F DoCkMO=F.
 Leave Link  401 at Thu Sep 28 11:06:09 2017, MaxMem=  1879048192 cpu:         2.1
 (Enter /share/apps/gaussian/g09_D01/g09/l502.exe)
 Closed shell SCF:
 Using DIIS extrapolation, IDIIS=  1040.
 Two-electron integral symmetry not used.
 Keep R1 ints in memory in canonical form, NReq=788969554.
 IVT=      188524 IEndB=      188524 NGot=  1879048192 MDV=  1096734547
 LenX=  1096734547 LenY=  1096678410
 Requested convergence on RMS density matrix=1.00D-08 within 128 cycles.
 Requested convergence on MAX density matrix=1.00D-06.
 Requested convergence on             energy=1.00D-06.
 No special actions if energy rises.
 FoFCou: FMM=F IPFlag=           0 FMFlag=           0 FMFlg1=           0
         NFxFlg=           0 DoJE=F BraDBF=F KetDBF=F FulRan=T
         wScrn=  0.000000 ICntrl=     600 IOpCl=  0 I1Cent=           0 NGrid=           0
         NMat0=    1 NMatS0=  27966 NMatT0=    0 NMatD0=    1 NMtDS0=    0 NMtDT0=    0
 Symmetry not used in FoFCou.
 Integral accuracy reduced to 1.0D-05 until final iterations.

 Cycle   1  Pass 0  IDiag  1:
 E= -631.483517803982    
 DIIS: error= 5.86D-02 at cycle   1 NSaved=   1.
 NSaved= 1 IEnMin= 1 EnMin= -631.483517803982     IErMin= 1 ErrMin= 5.86D-02
 ErrMax= 5.86D-02  0.00D+00 EMaxC= 1.00D-01 BMatC= 6.52D-01 BMatP= 6.52D-01
 IDIUse=3 WtCom= 4.14D-01 WtEn= 5.86D-01
 Coeff-Com:  0.100D+01
 Coeff-En:   0.100D+01
 Coeff:      0.100D+01
 Gap=     0.366 Goal=   None    Shift=    0.000
 GapD=    0.366 DampG=1.000 DampE=0.500 DampFc=0.5000 IDamp=-1.
 Damping current iteration by 5.00D-01
 RMSDP=3.89D-03 MaxDP=1.60D-01              OVMax= 1.75D-01

 Cycle   2  Pass 0  IDiag  1:
 E= -631.597841012669     Delta-E=       -0.114323208687 Rises=F Damp=T
 DIIS: error= 3.12D-02 at cycle   2 NSaved=   2.
 NSaved= 2 IEnMin= 2 EnMin= -631.597841012669     IErMin= 2 ErrMin= 3.12D-02
 ErrMax= 3.12D-02  0.00D+00 EMaxC= 1.00D-01 BMatC= 1.23D-01 BMatP= 6.52D-01
 IDIUse=3 WtCom= 6.88D-01 WtEn= 3.12D-01
 Coeff-Com: -0.302D+00 0.130D+01
 Coeff-En:   0.000D+00 0.100D+01
 Coeff:     -0.208D+00 0.121D+01
 Gap=     0.331 Goal=   None    Shift=    0.000
 RMSDP=1.46D-03 MaxDP=4.78D-02 DE=-1.14D-01 OVMax= 1.58D-01

 Cycle   3  Pass 0  IDiag  1:
 E= -631.702301094991     Delta-E=       -0.104460082322 Rises=F Damp=F
 DIIS: error= 8.94D-03 at cycle   3 NSaved=   3.
 NSaved= 3 IEnMin= 3 EnMin= -631.702301094991     IErMin= 3 ErrMin= 8.94D-03
 ErrMax= 8.94D-03  0.00D+00 EMaxC= 1.00D-01 BMatC= 3.10D-02 BMatP= 1.23D-01
 IDIUse=3 WtCom= 9.11D-01 WtEn= 8.94D-02
 Coeff-Com: -0.244D+00 0.517D+00 0.727D+00
 Coeff-En:   0.000D+00 0.000D+00 0.100D+01
 Coeff:     -0.222D+00 0.471D+00 0.751D+00
 Gap=     0.305 Goal=   None    Shift=    0.000
 RMSDP=8.12D-04 MaxDP=4.20D-02 DE=-1.04D-01 OVMax= 5.60D-02

 Cycle   4  Pass 0  IDiag  1:
 E= -631.726508974985     Delta-E=       -0.024207879994 Rises=F Damp=F
 DIIS: error= 3.34D-03 at cycle   4 NSaved=   4.
 NSaved= 4 IEnMin= 4 EnMin= -631.726508974985     IErMin= 4 ErrMin= 3.34D-03
 ErrMax= 3.34D-03  0.00D+00 EMaxC= 1.00D-01 BMatC= 3.25D-03 BMatP= 3.10D-02
 IDIUse=3 WtCom= 9.67D-01 WtEn= 3.34D-02
 Coeff-Com: -0.104D+00 0.210D+00 0.402D+00 0.492D+00
 Coeff-En:   0.000D+00 0.000D+00 0.000D+00 0.100D+01
 Coeff:     -0.100D+00 0.203D+00 0.388D+00 0.509D+00
 Gap=     0.300 Goal=   None    Shift=    0.000
 RMSDP=2.33D-04 MaxDP=7.70D-03 DE=-2.42D-02 OVMax= 1.16D-02

 Cycle   5  Pass 0  IDiag  1:
 E= -631.729136559282     Delta-E=       -0.002627584297 Rises=F Damp=F
 DIIS: error= 5.83D-04 at cycle   5 NSaved=   5.
 NSaved= 5 IEnMin= 5 EnMin= -631.729136559282     IErMin= 5 ErrMin= 5.83D-04
 ErrMax= 5.83D-04  0.00D+00 EMaxC= 1.00D-01 BMatC= 1.05D-04 BMatP= 3.25D-03
 IDIUse=3 WtCom= 9.94D-01 WtEn= 5.83D-03
 Coeff-Com: -0.208D-01 0.408D-01 0.109D+00 0.206D+00 0.665D+00
 Coeff-En:   0.000D+00 0.000D+00 0.000D+00 0.000D+00 0.100D+01
 Coeff:     -0.207D-01 0.406D-01 0.108D+00 0.205D+00 0.667D+00
 Gap=     0.299 Goal=   None    Shift=    0.000
 RMSDP=6.43D-05 MaxDP=1.92D-03 DE=-2.63D-03 OVMax= 2.35D-03

 Cycle   6  Pass 0  IDiag  1:
 E= -631.729241529968     Delta-E=       -0.000104970685 Rises=F Damp=F
 DIIS: error= 2.43D-04 at cycle   6 NSaved=   6.
 NSaved= 6 IEnMin= 6 EnMin= -631.729241529968     IErMin= 6 ErrMin= 2.43D-04
 ErrMax= 2.43D-04  0.00D+00 EMaxC= 1.00D-01 BMatC= 1.65D-05 BMatP= 1.05D-04
 IDIUse=3 WtCom= 9.98D-01 WtEn= 2.43D-03
 Coeff-Com:  0.186D-01-0.381D-01-0.520D-01-0.490D-01 0.235D+00 0.886D+00
 Coeff-En:   0.000D+00 0.000D+00 0.000D+00 0.000D+00 0.000D+00 0.100D+01
 Coeff:      0.185D-01-0.380D-01-0.519D-01-0.489D-01 0.234D+00 0.886D+00
 Gap=     0.300 Goal=   None    Shift=    0.000
 RMSDP=3.68D-05 MaxDP=1.03D-03 DE=-1.05D-04 OVMax= 3.56D-03

 Cycle   7  Pass 0  IDiag  1:
 E= -631.729271494261     Delta-E=       -0.000029964294 Rises=F Damp=F
 DIIS: error= 8.29D-05 at cycle   7 NSaved=   7.
 NSaved= 7 IEnMin= 7 EnMin= -631.729271494261     IErMin= 7 ErrMin= 8.29D-05
 ErrMax= 8.29D-05  0.00D+00 EMaxC= 1.00D-01 BMatC= 2.88D-06 BMatP= 1.65D-05
 IDIUse=1 WtCom= 1.00D+00 WtEn= 0.00D+00
 Coeff-Com:  0.993D-02-0.203D-01-0.314D-01-0.418D-01 0.151D-01 0.388D+00
 Coeff-Com:  0.681D+00
 Coeff:      0.993D-02-0.203D-01-0.314D-01-0.418D-01 0.151D-01 0.388D+00
 Coeff:      0.681D+00
 Gap=     0.300 Goal=   None    Shift=    0.000
 RMSDP=1.40D-05 MaxDP=3.36D-04 DE=-3.00D-05 OVMax= 8.62D-04

 Cycle   8  Pass 0  IDiag  1:
 E= -631.729275262438     Delta-E=       -0.000003768177 Rises=F Damp=F
 DIIS: error= 2.82D-05 at cycle   8 NSaved=   8.
 NSaved= 8 IEnMin= 8 EnMin= -631.729275262438     IErMin= 8 ErrMin= 2.82D-05
 ErrMax= 2.82D-05  0.00D+00 EMaxC= 1.00D-01 BMatC= 2.64D-07 BMatP= 2.88D-06
 IDIUse=1 WtCom= 1.00D+00 WtEn= 0.00D+00
 Coeff-Com: -0.306D-03 0.705D-03 0.257D-03-0.479D-02-0.469D-01-0.136D-01
 Coeff-Com:  0.198D+00 0.867D+00
 Coeff:     -0.306D-03 0.705D-03 0.257D-03-0.479D-02-0.469D-01-0.136D-01
 Coeff:      0.198D+00 0.867D+00
 Gap=     0.300 Goal=   None    Shift=    0.000
 RMSDP=5.77D-06 MaxDP=1.16D-04 DE=-3.77D-06 OVMax= 6.35D-04

 Initial convergence to 1.0D-05 achieved.  Increase integral accuracy.
 Cycle   9  Pass 1  IDiag  1:
 E= -631.728585514373     Delta-E=        0.000689748065 Rises=F Damp=F
 DIIS: error= 8.43D-05 at cycle   1 NSaved=   1.
 NSaved= 1 IEnMin= 1 EnMin= -631.728585514373     IErMin= 1 ErrMin= 8.43D-05
 ErrMax= 8.43D-05  0.00D+00 EMaxC= 1.00D-01 BMatC= 4.93D-06 BMatP= 4.93D-06
 IDIUse=1 WtCom= 1.00D+00 WtEn= 0.00D+00
 Coeff-Com:  0.100D+01
 Coeff:      0.100D+01
 Gap=     0.300 Goal=   None    Shift=    0.000
 RMSDP=5.77D-06 MaxDP=1.16D-04 DE= 6.90D-04 OVMax= 2.01D-04

 Cycle  10  Pass 1  IDiag  1:
 E= -631.728589530769     Delta-E=       -0.000004016396 Rises=F Damp=F
 DIIS: error= 1.17D-05 at cycle   2 NSaved=   2.
 NSaved= 2 IEnMin= 2 EnMin= -631.728589530769     IErMin= 2 ErrMin= 1.17D-05
 ErrMax= 1.17D-05  0.00D+00 EMaxC= 1.00D-01 BMatC= 1.06D-07 BMatP= 4.93D-06
 IDIUse=1 WtCom= 1.00D+00 WtEn= 0.00D+00
 Coeff-Com: -0.572D-01 0.106D+01
 Coeff:     -0.572D-01 0.106D+01
 Gap=     0.300 Goal=   None    Shift=    0.000
 RMSDP=2.69D-06 MaxDP=8.90D-05 DE=-4.02D-06 OVMax= 1.75D-04

 Cycle  11  Pass 1  IDiag  1:
 E= -631.728589607552     Delta-E=       -0.000000076782 Rises=F Damp=F
 DIIS: error= 1.37D-05 at cycle   3 NSaved=   3.
 NSaved= 3 IEnMin= 3 EnMin= -631.728589607552     IErMin= 2 ErrMin= 1.17D-05
 ErrMax= 1.37D-05  0.00D+00 EMaxC= 1.00D-01 BMatC= 8.42D-08 BMatP= 1.06D-07
 IDIUse=1 WtCom= 1.00D+00 WtEn= 0.00D+00
 Coeff-Com: -0.451D-01 0.523D+00 0.522D+00
 Coeff:     -0.451D-01 0.523D+00 0.522D+00
 Gap=     0.300 Goal=   None    Shift=    0.000
 RMSDP=1.41D-06 MaxDP=5.35D-05 DE=-7.68D-08 OVMax= 7.22D-05

 Cycle  12  Pass 1  IDiag  1:
 E= -631.728589674743     Delta-E=       -0.000000067191 Rises=F Damp=F
 DIIS: error= 2.62D-06 at cycle   4 NSaved=   4.
 NSaved= 4 IEnMin= 4 EnMin= -631.728589674743     IErMin= 4 ErrMin= 2.62D-06
 ErrMax= 2.62D-06  0.00D+00 EMaxC= 1.00D-01 BMatC= 3.85D-09 BMatP= 8.42D-08
 IDIUse=1 WtCom= 1.00D+00 WtEn= 0.00D+00
 Coeff-Com: -0.762D-02 0.348D-01 0.162D+00 0.811D+00
 Coeff:     -0.762D-02 0.348D-01 0.162D+00 0.811D+00
 Gap=     0.300 Goal=   None    Shift=    0.000
 RMSDP=4.07D-07 MaxDP=1.61D-05 DE=-6.72D-08 OVMax= 3.77D-05

 Cycle  13  Pass 1  IDiag  1:
 E= -631.728589679766     Delta-E=       -0.000000005023 Rises=F Damp=F
 DIIS: error= 1.97D-06 at cycle   5 NSaved=   5.
 NSaved= 5 IEnMin= 5 EnMin= -631.728589679766     IErMin= 5 ErrMin= 1.97D-06
 ErrMax= 1.97D-06  0.00D+00 EMaxC= 1.00D-01 BMatC= 8.41D-10 BMatP= 3.85D-09
 IDIUse=1 WtCom= 1.00D+00 WtEn= 0.00D+00
 Coeff-Com:  0.183D-02-0.400D-01-0.799D-03 0.337D+00 0.702D+00
 Coeff:      0.183D-02-0.400D-01-0.799D-03 0.337D+00 0.702D+00
 Gap=     0.300 Goal=   None    Shift=    0.000
 RMSDP=2.08D-07 MaxDP=5.60D-06 DE=-5.02D-09 OVMax= 1.35D-05

 Cycle  14  Pass 1  IDiag  1:
 E= -631.728589680974     Delta-E=       -0.000000001207 Rises=F Damp=F
 DIIS: error= 7.33D-07 at cycle   6 NSaved=   6.
 NSaved= 6 IEnMin= 6 EnMin= -631.728589680974     IErMin= 6 ErrMin= 7.33D-07
 ErrMax= 7.33D-07  0.00D+00 EMaxC= 1.00D-01 BMatC= 1.43D-10 BMatP= 8.41D-10
 IDIUse=1 WtCom= 1.00D+00 WtEn= 0.00D+00
 Coeff-Com:  0.215D-02-0.252D-01-0.326D-01 0.181D-01 0.287D+00 0.750D+00
 Coeff:      0.215D-02-0.252D-01-0.326D-01 0.181D-01 0.287D+00 0.750D+00
 Gap=     0.300 Goal=   None    Shift=    0.000
 RMSDP=1.03D-07 MaxDP=2.22D-06 DE=-1.21D-09 OVMax= 9.70D-06

 Cycle  15  Pass 1  IDiag  1:
 E= -631.728589681284     Delta-E=       -0.000000000310 Rises=F Damp=F
 DIIS: error= 3.46D-07 at cycle   7 NSaved=   7.
 NSaved= 7 IEnMin= 7 EnMin= -631.728589681284     IErMin= 7 ErrMin= 3.46D-07
 ErrMax= 3.46D-07  0.00D+00 EMaxC= 1.00D-01 BMatC= 3.02D-11 BMatP= 1.43D-10
 IDIUse=1 WtCom= 1.00D+00 WtEn= 0.00D+00
 Coeff-Com:  0.458D-03-0.953D-03-0.149D-01-0.648D-01-0.437D-01 0.306D+00
 Coeff-Com:  0.817D+00
 Coeff:      0.458D-03-0.953D-03-0.149D-01-0.648D-01-0.437D-01 0.306D+00
 Coeff:      0.817D+00
 Gap=     0.300 Goal=   None    Shift=    0.000
 RMSDP=5.69D-08 MaxDP=1.28D-06 DE=-3.10D-10 OVMax= 6.19D-06

 Cycle  16  Pass 1  IDiag  1:
 E= -631.728589681391     Delta-E=       -0.000000000107 Rises=F Damp=F
 DIIS: error= 1.35D-07 at cycle   8 NSaved=   8.
 NSaved= 8 IEnMin= 8 EnMin= -631.728589681391     IErMin= 8 ErrMin= 1.35D-07
 ErrMax= 1.35D-07  0.00D+00 EMaxC= 1.00D-01 BMatC= 3.94D-12 BMatP= 3.02D-11
 IDIUse=1 WtCom= 1.00D+00 WtEn= 0.00D+00
 Coeff-Com: -0.343D-03 0.498D-02 0.312D-02-0.163D-01-0.739D-01-0.902D-01
 Coeff-Com:  0.193D+00 0.980D+00
 Coeff:     -0.343D-03 0.498D-02 0.312D-02-0.163D-01-0.739D-01-0.902D-01
 Coeff:      0.193D+00 0.980D+00
 Gap=     0.300 Goal=   None    Shift=    0.000
 RMSDP=2.84D-08 MaxDP=4.82D-07 DE=-1.07D-10 OVMax= 3.03D-06

 Cycle  17  Pass 1  IDiag  1:
 E= -631.728589681395     Delta-E=       -0.000000000005 Rises=F Damp=F
 DIIS: error= 4.01D-08 at cycle   9 NSaved=   9.
 NSaved= 9 IEnMin= 9 EnMin= -631.728589681395     IErMin= 9 ErrMin= 4.01D-08
 ErrMax= 4.01D-08  0.00D+00 EMaxC= 1.00D-01 BMatC= 6.55D-13 BMatP= 3.94D-12
 IDIUse=1 WtCom= 1.00D+00 WtEn= 0.00D+00
 Coeff-Com: -0.185D-03 0.202D-02 0.316D-02 0.248D-02-0.211D-01-0.724D-01
 Coeff-Com: -0.421D-01 0.356D+00 0.772D+00
 Coeff:     -0.185D-03 0.202D-02 0.316D-02 0.248D-02-0.211D-01-0.724D-01
 Coeff:     -0.421D-01 0.356D+00 0.772D+00
 Gap=     0.300 Goal=   None    Shift=    0.000
 RMSDP=8.23D-09 MaxDP=1.35D-07 DE=-4.55D-12 OVMax= 7.82D-07

 SCF Done:  E(RwB97XD) =  -631.728589681     A.U. after   17 cycles
            NFock= 17  Conv=0.82D-08     -V/T= 2.0033
 KE= 6.296526206655D+02 PE=-3.171239908123D+03 EE= 1.060702861798D+03
 Leave Link  502 at Thu Sep 28 11:06:59 2017, MaxMem=  1879048192 cpu:        90.2
 (Enter /share/apps/gaussian/g09_D01/g09/l801.exe)
 DoSCS=F DFT=T ScalE2(SS,OS)=  1.000000  1.000000
 ExpMin= 1.61D-01 ExpMax= 5.48D+03 ExpMxC= 8.25D+02 IAcc=3 IRadAn=         5 AccDes= 0.00D+00
 HarFok:  IExCor=  205 AccDes= 0.00D+00 IRadAn=         5 IDoV=-2 UseB2=F ITyADJ=14
 ICtDFT= 12500011 ScaDFX=  1.000000  1.000000  1.000000  1.000000
 Largest valence mixing into a core orbital is  7.26D-05
 Largest core mixing into a valence orbital is  1.19D-05
 Range of M.O.s used for correlation:    15   236
 NBasis=   236 NAE=    51 NBE=    51 NFC=    14 NFV=     0
 NROrb=    222 NOA=    37 NOB=    37 NVA=   185 NVB=   185
 Leave Link  801 at Thu Sep 28 11:06:59 2017, MaxMem=  1879048192 cpu:         0.8
 (Enter /share/apps/gaussian/g09_D01/g09/l914.exe)
 RHF ground state
 MDV=  1879048192 DFT=T DoStab=F Mixed=T DoRPA=T DoScal=F NonHer=T
 Would need an additional           480300000 words for in-memory AO integral storage.
 Making orbital integer symmetry assigments:
    16 initial guesses have been made.
 Convergence on wavefunction:    0.001000000000000
 Davidson Disk Diagonalization:  ConvIn= 1.00D-03 SkipCon=T Conv= 1.00D-03.
 Max sub-space:   200 roots to seek:    16 dimension of matrix:        13690
 Iteration     1 Dimension    16 NMult     0 NNew     16
 CISAX will form    16 AO SS matrices at one time.
 NMat=    16 NSing=    16 JSym2X= 0.
 FoFJK:  IHMeth= 1 ICntrl=       0 DoSepK=T KAlg= 0 I1Cent=   0 FoldK=F
 IRaf=         1 NMat=  32 IRICut=       1 DoRegI=T DoRafI=F ISym2E= 0.
 FoFCou: FMM=F IPFlag=           0 FMFlag=      100000 FMFlg1=           0
         NFxFlg=           0 DoJE=F BraDBF=F KetDBF=F FulRan=T
         wScrn=  0.000000 ICntrl=     500 IOpCl=  0 I1Cent=           0 NGrid=           0
         NMat0=   16 NMatS0=     16 NMatT0=    0 NMatD0=   16 NMtDS0=    0 NMtDT0=    0
 Symmetry not used in FoFCou.
 New state      1 was old state      3
 New state      2 was old state      1
 New state      3 was old state      2
 Excitation Energies [eV] at current iteration:
 Root      1 :     4.303229097979306
 Root      2 :     4.722389789473438
 Root      3 :     5.334345267107757
 Root      4 :     6.156811554726439
 Root      5 :     6.732060348333962
 Root      6 :     6.821094373550667
 Root      7 :     6.912295441427567
 Root      8 :     7.269427484148395
 Root      9 :     7.347073074906795
 Root     10 :     7.584110673091401
 Root     11 :     7.831806289827218
 Root     12 :     8.195366659072880
 Root     13 :     8.587974519362909
 Root     14 :     8.671064593316141
 Root     15 :     8.911678035711272
 Root     16 :     9.291494481819454
 Iteration     2 Dimension    24 NMult    16 NNew      8
 CISAX will form     8 AO SS matrices at one time.
 NMat=     8 NSing=     8 JSym2X= 0.
 Root      1 not converged, maximum delta is    0.105559778450254
 Root      2 not converged, maximum delta is    0.127347415070246
 Root      3 not converged, maximum delta is    0.139656152198430
 Root      4 not converged, maximum delta is    0.125331890968325
 Excitation Energies [eV] at current iteration:
 Root      1 :     4.065811236265132   Change is   -0.237417861714175
 Root      2 :     4.434820756731662   Change is   -0.287569032741777
 Root      3 :     4.828785931910288   Change is   -0.505559335197469
 Root      4 :     5.628127896445879   Change is   -0.528683658280559
 Iteration     3 Dimension    32 NMult    24 NNew      8
 CISAX will form     8 AO SS matrices at one time.
 NMat=     8 NSing=     8 JSym2X= 0.
 Root      1 not converged, maximum delta is    0.015097646863070
 Root      2 not converged, maximum delta is    0.012190726382323
 Root      3 not converged, maximum delta is    0.017084159292864
 Root      4 not converged, maximum delta is    0.035950220195936
 Excitation Energies [eV] at current iteration:
 Root      1 :     4.054647174345322   Change is   -0.011164061919809
 Root      2 :     4.414526544900575   Change is   -0.020294211831087
 Root      3 :     4.798040905666538   Change is   -0.030745026243750
 Root      4 :     5.580292113122807   Change is   -0.047835783323073
 Iteration     4 Dimension    40 NMult    32 NNew      8
 CISAX will form     8 AO SS matrices at one time.
 NMat=     8 NSing=     8 JSym2X= 0.
 Root      1 not converged, maximum delta is    0.001232624585587
 Root      2 not converged, maximum delta is    0.002454051244056
 Root      3 not converged, maximum delta is    0.004679369570747
 Root      4 not converged, maximum delta is    0.014420948275009
 Excitation Energies [eV] at current iteration:
 Root      1 :     4.054246859900255   Change is   -0.000400314445067
 Root      2 :     4.412461748140540   Change is   -0.002064796760035
 Root      3 :     4.794502197334275   Change is   -0.003538708332263
 Root      4 :     5.574587614079598   Change is   -0.005704499043209
 Iteration     5 Dimension    48 NMult    40 NNew      8
 CISAX will form     8 AO SS matrices at one time.
 NMat=     8 NSing=     8 JSym2X= 0.
 Root      1 has converged.
 Root      2 has converged.
 Root      3 has converged.
 Root      4 not converged, maximum delta is    0.002077569835645
 Excitation Energies [eV] at current iteration:
 Root      1 :     4.054228229261265   Change is   -0.000018630638990
 Root      2 :     4.412348175922051   Change is   -0.000113572218489
 Root      3 :     4.794314014714418   Change is   -0.000188182619856
 Root      4 :     5.573947890579703   Change is   -0.000639723499896
 Iteration     6 Dimension    50 NMult    48 NNew      2
 CISAX will form     2 AO SS matrices at one time.
 NMat=     2 NSing=     2 JSym2X= 0.
 Root      1 has converged.
 Root      2 has converged.
 Root      3 has converged.
 Root      4 has converged.
 Excitation Energies [eV] at current iteration:
 Root      1 :     4.054228194691466   Change is   -0.000000034569799
 Root      2 :     4.412348062943861   Change is   -0.000000112978189
 Root      3 :     4.794312426824240   Change is   -0.000001587890178
 Root      4 :     5.573921119919564   Change is   -0.000026770660139
 Convergence achieved on expansion vectors.
 ***********************************************************************
 Excited states from <AA,BB:AA,BB> singles matrix:
 ***********************************************************************
 
 1PDM for each excited state written to RWF  633
 Ground to excited state transition densities written to RWF  633
 Ground to excited state transition electric dipole moments (Au):
       state          X           Y           Z        Dip. S.      Osc.
         1        -0.1445     -0.0894     -0.0279      0.0296      0.0029
         2        -1.9515     -1.0672     -0.1694      4.9758      0.5379
         3         1.0753      0.5118      0.0582      1.4216      0.1670
         4        -0.4301     -0.0099      0.4226      0.3637      0.0497
 Ground to excited state transition velocity dipole moments (Au):
       state          X           Y           Z        Dip. S.      Osc.
         1         0.0231      0.0125      0.0048      0.0007      0.0032
         2         0.3122      0.1732      0.0318      0.1285      0.5282
         3        -0.1851     -0.0860     -0.0055      0.0417      0.1578
         4         0.0710     -0.0038     -0.0815      0.0117      0.0381
 Ground to excited state transition magnetic dipole moments (Au):
       state          X           Y           Z
         1        -0.2589      0.5113      0.3372
         2        -1.9929      4.1427     -3.4499
         3         0.7207     -1.7210      1.6965
         4        -1.2219      1.7038     -1.1318
 Ground to excited state transition velocity quadrupole moments (Au):
       state          XX          YY          ZZ          XY          XZ          YZ
         1         0.5725      0.4385      0.1166      0.5717      0.3750      0.2353
         2         7.0195      5.6769      0.7410      7.0859      4.6410      2.7997
         3        -5.3957     -3.2711      0.0803     -4.8062     -2.8994     -1.2791
         4         0.9119     -0.2569     -2.1565      0.8432      0.1493     -1.3417
 <0|del|b> * <b|rxdel|0> + <0|del|b> * <b|delr+rdel|0>
 Rotatory Strengths (R) in cgs (10**-40 erg-esu-cm/Gauss)
       state          XX          YY          ZZ    R(velocity)    E-M Angle
         1        14.2917     -3.9446     -0.8358      3.1704       83.52
         2        64.0591   -181.5688     53.8989    -21.2036       90.41
         3      -169.2098    136.2354     53.9759      7.0005       89.42
         4        30.5142    -36.5513      2.6822     -1.1183       90.22
 1/2[<0|r|b>*<b|rxdel|0> + (<0|rxdel|b>*<b|r|0>)*]
 Rotatory Strengths (R) in cgs (10**-40 erg-esu-cm/Gauss)
       state          XX          YY          ZZ     R(length)
         1       -26.4499     32.3374      6.6430      4.1769
         2     -2750.2574   3126.3270   -413.2238    -12.3847
         3      -548.0674    622.8974    -69.8051      1.6750
         4      -371.6688     11.9414    338.2471     -7.1601
  1/2[<0|del|b>*<b|r|0> + (<0|r|b>*<b|del|0>)*] (Au)
       state          X           Y           Z        Dip. S.   Osc.(frdel)
         1        -0.0033     -0.0011     -0.0001      0.0046      0.0031
         2        -0.6093     -0.1848     -0.0054      0.7995      0.5330
         3        -0.1991     -0.0440     -0.0003      0.2434      0.1623
         4        -0.0305      0.0000     -0.0344      0.0649      0.0433

 Excitation energies and oscillator strengths:
 
 Excited state symmetry could not be determined.
 Excited State   1:      Singlet-?Sym    4.0542 eV  305.81 nm  f=0.0029  <S**2>=0.000
      49 -> 52         0.67831
      49 -> 56         0.12861
 This state for optimization and/or second-order correction.
 Total Energy, E(TD-HF/TD-KS) =  -631.579599530    
 Copying the excited state density for this state as the 1-particle RhoCI density.
 
 Excited state symmetry could not be determined.
 Excited State   2:      Singlet-?Sym    4.4123 eV  280.99 nm  f=0.5379  <S**2>=0.000
      50 -> 52         0.20074
      50 -> 53         0.10135
      51 -> 52         0.64648
 
 Excited state symmetry could not be determined.
 Excited State   3:      Singlet-?Sym    4.7943 eV  258.61 nm  f=0.1670  <S**2>=0.000
      48 -> 54        -0.11784
      50 -> 52         0.62904
      51 -> 52        -0.22629
      51 -> 53         0.12974
 
 Excited state symmetry could not be determined.
 Excited State   4:      Singlet-?Sym    5.5739 eV  222.44 nm  f=0.0497  <S**2>=0.000
      48 -> 52         0.57130
      48 -> 54         0.12043
      50 -> 52         0.15666
      50 -> 53        -0.26500
      51 -> 53        -0.19932
      51 -> 54         0.10102
 SavETr:  write IOETrn=   770 NScale= 10 NData=  16 NLR=1 NState=    4 LETran=      82.
 Leave Link  914 at Thu Sep 28 11:09:38 2017, MaxMem=  1879048192 cpu:       316.7
 (Enter /share/apps/gaussian/g09_D01/g09/l601.exe)
 Copying SCF densities to generalized density rwf, IOpCl= 0 IROHF=0.
 Saving Alpha spin NTOs for state    1 to file 10524.

 **********************************************************************

   Populations using transition density between ground and state  1.

 **********************************************************************

 Alpha  occ. eigenvalues --    0.00000   0.00000   0.00000   0.00000   0.00000
 Alpha  occ. eigenvalues --    0.00000   0.00000   0.00000   0.00000   0.00000
 Alpha  occ. eigenvalues --    0.00000   0.00000   0.00000   0.00000   0.00000
 Alpha  occ. eigenvalues --    0.00000   0.00000   0.00000   0.00000   0.00000
 Alpha  occ. eigenvalues --    0.00000   0.00000   0.00000   0.00000   0.00000
 Alpha  occ. eigenvalues --    0.00000   0.00000   0.00000   0.00000   0.00000
 Alpha  occ. eigenvalues --    0.00000   0.00000   0.00000   0.00000   0.00000
 Alpha  occ. eigenvalues --    0.00000   0.00001   0.00001   0.00001   0.00001
 Alpha  occ. eigenvalues --    0.00001   0.00002   0.00002   0.00003   0.00004
 Alpha  occ. eigenvalues --    0.00005   0.00007   0.00016   0.00041   0.00194
 Alpha  occ. eigenvalues --    0.99844
 Alpha virt. eigenvalues --    0.99844   0.00194   0.00041   0.00016   0.00007
 Alpha virt. eigenvalues --    0.00005   0.00004   0.00003   0.00002   0.00002
 Alpha virt. eigenvalues --    0.00001   0.00001   0.00001   0.00001   0.00001
 Alpha virt. eigenvalues --    0.00000   0.00000   0.00000   0.00000   0.00000
 Alpha virt. eigenvalues --    0.00000   0.00000   0.00000   0.00000   0.00000
 Alpha virt. eigenvalues --    0.00000   0.00000   0.00000   0.00000   0.00000
 Alpha virt. eigenvalues --    0.00000   0.00000   0.00000   0.00000   0.00000
 Alpha virt. eigenvalues --    0.00000   0.00000   0.00000   0.00000   0.00000
 Alpha virt. eigenvalues --    0.00000   0.00000   0.00000   0.00000   0.00000
 Alpha virt. eigenvalues --    0.00000   0.00000   0.00000   0.00000   0.00000
 Alpha virt. eigenvalues --    0.00000   0.00000   0.00000   0.00000   0.00000
 Alpha virt. eigenvalues --    0.00000   0.00000   0.00000   0.00000   0.00000
 Alpha virt. eigenvalues --    0.00000   0.00000   0.00000   0.00000   0.00000
 Alpha virt. eigenvalues --    0.00000   0.00000   0.00000   0.00000   0.00000
 Alpha virt. eigenvalues --    0.00000   0.00000   0.00000   0.00000   0.00000
 Alpha virt. eigenvalues --    0.00000   0.00000   0.00000   0.00000   0.00000
 Alpha virt. eigenvalues --    0.00000   0.00000   0.00000   0.00000   0.00000
 Alpha virt. eigenvalues --    0.00000   0.00000   0.00000   0.00000   0.00000
 Alpha virt. eigenvalues --    0.00000   0.00000   0.00000   0.00000   0.00000
 Alpha virt. eigenvalues --    0.00000   0.00000   0.00000   0.00000   0.00000
 Alpha virt. eigenvalues --    0.00000   0.00000   0.00000   0.00000   0.00000
 Alpha virt. eigenvalues --    0.00000   0.00000   0.00000   0.00000   0.00000
 Alpha virt. eigenvalues --    0.00000   0.00000   0.00000   0.00000   0.00000
 Alpha virt. eigenvalues --    0.00000   0.00000   0.00000   0.00000   0.00000
 Alpha virt. eigenvalues --    0.00000   0.00000   0.00000   0.00000   0.00000
 Alpha virt. eigenvalues --    0.00000   0.00000   0.00000   0.00000   0.00000
 Alpha virt. eigenvalues --    0.00000   0.00000   0.00000   0.00000   0.00000
 Alpha virt. eigenvalues --    0.00000   0.00000   0.00000   0.00000   0.00000
 Alpha virt. eigenvalues --    0.00000   0.00000   0.00000   0.00000   0.00000
 Alpha virt. eigenvalues --    0.00000   0.00000   0.00000   0.00000   0.00000
 Alpha virt. eigenvalues --    0.00000   0.00000   0.00000   0.00000   0.00000
 Alpha virt. eigenvalues --    0.00000   0.00000   0.00000   0.00000   0.00000
 Alpha virt. eigenvalues --    0.00000   0.00000   0.00000   0.00000   0.00000
 Alpha virt. eigenvalues --    0.00000   0.00000   0.00000   0.00000   0.00000
 Alpha virt. eigenvalues --    0.00000   0.00000   0.00000   0.00000   0.00000
 Alpha virt. eigenvalues --    0.00000   0.00000   0.00000   0.00000   0.00000
 Alpha virt. eigenvalues --    0.00000   0.00000   0.00000   0.00000   0.00000
          Condensed to atoms (all electrons):
               1          2          3          4          5          6
     1  C    0.008495   0.003107   0.000162  -0.003515  -0.000237  -0.000613
     2  C    0.003107   0.002877   0.000439   0.000549  -0.006890   0.001692
     3  C    0.000162   0.000439  -0.004071   0.000744   0.000439  -0.000944
     4  C   -0.003515   0.000549   0.000744  -0.002545  -0.000008  -0.000243
     5  C   -0.000237  -0.006890   0.000439  -0.000008  -0.005620   0.001107
     6  O   -0.000613   0.001692  -0.000944  -0.000243   0.001107  -0.015327
     7  C   -0.000694  -0.000212  -0.002304   0.000034  -0.000005  -0.000083
     8  O    0.000679   0.000847   0.002046   0.000005  -0.000028  -0.001656
     9  H   -0.000983  -0.001119   0.000276   0.000028   0.000103   0.004873
    10  C    0.000025  -0.000094   0.000081   0.004705   0.000087   0.000008
    11  H   -0.000300   0.000338   0.000073  -0.000119   0.000093   0.000004
    12  C    0.000313  -0.001194  -0.000017  -0.000043   0.009073  -0.002010
    13  H   -0.000785  -0.001694  -0.000015   0.000041   0.002703  -0.000152
    14  C    0.000535   0.000022  -0.000233   0.000083  -0.000001   0.000005
    15  H   -0.000126   0.000000   0.000126  -0.000038   0.000000   0.000000
    16  H   -0.000037   0.000005   0.000035   0.000170  -0.000002   0.000000
    17  H   -0.000040  -0.001226  -0.000002   0.000003  -0.001583  -0.000046
    18  N   -0.000012  -0.000013   0.000000   0.000002  -0.000322   0.000001
    19  H    0.000002   0.000000  -0.000072   0.000027   0.000000   0.000000
    20  C    0.000014   0.000074   0.000000  -0.000004  -0.000326   0.000006
    21  C    0.000000  -0.000008   0.000000   0.000000   0.000079  -0.000003
    22  H    0.000011   0.000057   0.000000  -0.000004   0.000381   0.000003
    23  H    0.000000  -0.000001   0.000000   0.000000  -0.000012   0.000000
    24  H   -0.000047  -0.000183   0.000000   0.000017  -0.000140  -0.000013
    25  H    0.000000   0.000001   0.000000   0.000000  -0.000009   0.000000
    26  H    0.000000  -0.000004   0.000000   0.000000   0.000041  -0.000001
    27  H    0.000000   0.000004   0.000000   0.000000  -0.000033   0.000001
               7          8          9         10         11         12
     1  C   -0.000694   0.000679  -0.000983   0.000025  -0.000300   0.000313
     2  C   -0.000212   0.000847  -0.001119  -0.000094   0.000338  -0.001194
     3  C   -0.002304   0.002046   0.000276   0.000081   0.000073  -0.000017
     4  C    0.000034   0.000005   0.000028   0.004705  -0.000119  -0.000043
     5  C   -0.000005  -0.000028   0.000103   0.000087   0.000093   0.009073
     6  O   -0.000083  -0.001656   0.004873   0.000008   0.000004  -0.002010
     7  C   -0.001567   0.000212  -0.000158  -0.000048  -0.000013   0.000000
     8  O    0.000212  -0.001767  -0.002999  -0.000002  -0.000001  -0.000001
     9  H   -0.000158  -0.002999   0.001118   0.000004   0.000004   0.000002
    10  C   -0.000048  -0.000002   0.000004  -0.002399   0.000655   0.000000
    11  H   -0.000013  -0.000001   0.000004   0.000655  -0.002162  -0.000053
    12  C    0.000000  -0.000001   0.000002   0.000000  -0.000053   0.000033
    13  H    0.000000  -0.000001   0.000003  -0.000027  -0.000014   0.002331
    14  C    0.002922  -0.000032   0.000006  -0.003991  -0.000022   0.000000
    15  H    0.000151   0.000055   0.000029  -0.000031   0.000000   0.000000
    16  H   -0.000057   0.000000   0.000000   0.000744   0.000067   0.000000
    17  H    0.000000   0.000001  -0.000014   0.000000  -0.000001   0.002542
    18  N    0.000000   0.000000   0.000000   0.000000   0.000001  -0.005996
    19  H    0.000304   0.000000   0.000000   0.000189   0.000001   0.000000
    20  C    0.000000   0.000000   0.000000   0.000000  -0.000003   0.000551
    21  C    0.000000   0.000000   0.000000   0.000000   0.000000   0.000690
    22  H    0.000000   0.000000   0.000000   0.000000  -0.000006   0.000300
    23  H    0.000000   0.000000   0.000000   0.000000   0.000000   0.000066
    24  H    0.000000   0.000000   0.000000   0.000000   0.000015  -0.000636
    25  H    0.000000   0.000000   0.000000   0.000000   0.000000  -0.000144
    26  H    0.000000   0.000000   0.000000   0.000000   0.000000   0.001214
    27  H    0.000000   0.000000   0.000000   0.000000   0.000000  -0.001004
              13         14         15         16         17         18
     1  C   -0.000785   0.000535  -0.000126  -0.000037  -0.000040  -0.000012
     2  C   -0.001694   0.000022   0.000000   0.000005  -0.001226  -0.000013
     3  C   -0.000015  -0.000233   0.000126   0.000035  -0.000002   0.000000
     4  C    0.000041   0.000083  -0.000038   0.000170   0.000003   0.000002
     5  C    0.002703  -0.000001   0.000000  -0.000002  -0.001583  -0.000322
     6  O   -0.000152   0.000005   0.000000   0.000000  -0.000046   0.000001
     7  C    0.000000   0.002922   0.000151  -0.000057   0.000000   0.000000
     8  O   -0.000001  -0.000032   0.000055   0.000000   0.000001   0.000000
     9  H    0.000003   0.000006   0.000029   0.000000  -0.000014   0.000000
    10  C   -0.000027  -0.003991  -0.000031   0.000744   0.000000   0.000000
    11  H   -0.000014  -0.000022   0.000000   0.000067  -0.000001   0.000001
    12  C    0.002331   0.000000   0.000000   0.000000   0.002542  -0.005996
    13  H   -0.004593   0.000000   0.000000   0.000002  -0.000107  -0.000170
    14  C    0.000000  -0.000733   0.000465  -0.000052   0.000000   0.000000
    15  H    0.000000   0.000465  -0.002001   0.000001   0.000000   0.000000
    16  H    0.000002  -0.000052   0.000001  -0.002353   0.000000   0.000000
    17  H   -0.000107   0.000000   0.000000   0.000000   0.003850  -0.000269
    18  N   -0.000170   0.000000   0.000000   0.000000  -0.000269   0.009968
    19  H    0.000000   0.000037   0.000049   0.000060   0.000000   0.000000
    20  C    0.000363   0.000000   0.000000   0.000000   0.000240   0.003111
    21  C   -0.000002   0.000000   0.000000   0.000000  -0.000313   0.002563
    22  H    0.000416   0.000000   0.000000   0.000000   0.000205  -0.001929
    23  H   -0.000032   0.000000   0.000000   0.000000  -0.000026   0.000239
    24  H   -0.000872   0.000000   0.000000   0.000000  -0.000321  -0.000555
    25  H    0.000000   0.000000   0.000000   0.000000   0.000108  -0.000141
    26  H   -0.000003   0.000000   0.000000   0.000000  -0.000300  -0.001796
    27  H    0.000004   0.000000   0.000000   0.000000   0.000305  -0.000018
              19         20         21         22         23         24
     1  C    0.000002   0.000014   0.000000   0.000011   0.000000  -0.000047
     2  C    0.000000   0.000074  -0.000008   0.000057  -0.000001  -0.000183
     3  C   -0.000072   0.000000   0.000000   0.000000   0.000000   0.000000
     4  C    0.000027  -0.000004   0.000000  -0.000004   0.000000   0.000017
     5  C    0.000000  -0.000326   0.000079   0.000381  -0.000012  -0.000140
     6  O    0.000000   0.000006  -0.000003   0.000003   0.000000  -0.000013
     7  C    0.000304   0.000000   0.000000   0.000000   0.000000   0.000000
     8  O    0.000000   0.000000   0.000000   0.000000   0.000000   0.000000
     9  H    0.000000   0.000000   0.000000   0.000000   0.000000   0.000000
    10  C    0.000189   0.000000   0.000000   0.000000   0.000000   0.000000
    11  H    0.000001  -0.000003   0.000000  -0.000006   0.000000   0.000015
    12  C    0.000000   0.000551   0.000690   0.000300   0.000066  -0.000636
    13  H    0.000000   0.000363  -0.000002   0.000416  -0.000032  -0.000872
    14  C    0.000037   0.000000   0.000000   0.000000   0.000000   0.000000
    15  H    0.000049   0.000000   0.000000   0.000000   0.000000   0.000000
    16  H    0.000060   0.000000   0.000000   0.000000   0.000000   0.000000
    17  H    0.000000   0.000240  -0.000313   0.000205  -0.000026  -0.000321
    18  N    0.000000   0.003111   0.002563  -0.001929   0.000239  -0.000555
    19  H   -0.002161   0.000000   0.000000   0.000000   0.000000   0.000000
    20  C    0.000000  -0.005472  -0.000543  -0.000617   0.000297   0.000920
    21  C    0.000000  -0.000543  -0.004253   0.000322  -0.000210  -0.000175
    22  H    0.000000  -0.000617   0.000322   0.006127   0.000156  -0.001859
    23  H    0.000000   0.000297  -0.000210   0.000156   0.001770  -0.000780
    24  H    0.000000   0.000920  -0.000175  -0.001859  -0.000780   0.007681
    25  H    0.000000   0.000067   0.000002  -0.000010   0.000000   0.000002
    26  H    0.000000   0.000037  -0.000423  -0.000087  -0.000009   0.000088
    27  H    0.000000  -0.000085   0.000877   0.000105   0.000086  -0.000021
              25         26         27
     1  C    0.000000   0.000000   0.000000
     2  C    0.000001  -0.000004   0.000004
     3  C    0.000000   0.000000   0.000000
     4  C    0.000000   0.000000   0.000000
     5  C   -0.000009   0.000041  -0.000033
     6  O    0.000000  -0.000001   0.000001
     7  C    0.000000   0.000000   0.000000
     8  O    0.000000   0.000000   0.000000
     9  H    0.000000   0.000000   0.000000
    10  C    0.000000   0.000000   0.000000
    11  H    0.000000   0.000000   0.000000
    12  C   -0.000144   0.001214  -0.001004
    13  H    0.000000  -0.000003   0.000004
    14  C    0.000000   0.000000   0.000000
    15  H    0.000000   0.000000   0.000000
    16  H    0.000000   0.000000   0.000000
    17  H    0.000108  -0.000300   0.000305
    18  N   -0.000141  -0.001796  -0.000018
    19  H    0.000000   0.000000   0.000000
    20  C    0.000067   0.000037  -0.000085
    21  C    0.000002  -0.000423   0.000877
    22  H   -0.000010  -0.000087   0.000105
    23  H    0.000000  -0.000009   0.000086
    24  H    0.000002   0.000088  -0.000021
    25  H    0.003394  -0.000128  -0.000497
    26  H   -0.000128   0.005639  -0.001093
    27  H   -0.000497  -0.001093   0.003325
 Mulliken charges:
               1
     1  C    5.994047
     2  C    6.002628
     3  C    6.003236
     4  C    6.000110
     5  C    6.001111
     6  O    8.013390
     7  C    6.001518
     8  O    8.002641
     9  H    0.998826
    10  C    6.000094
    11  H    1.001441
    12  C    5.993982
    13  H    1.002603
    14  C    6.000988
    15  H    1.001319
    16  H    1.001417
    17  H    0.996994
    18  N    6.995336
    19  H    1.001564
    20  C    6.001370
    21  C    6.001399
    22  H    0.996426
    23  H    0.998456
    24  H    0.996880
    25  H    0.997354
    26  H    0.996824
    27  H    0.998045
 Sum of Mulliken charges = 102.00000
 Mulliken charges with hydrogens summed into heavy atoms:
               1
     1  C    5.994047
     2  C    6.002628
     3  C    6.003236
     4  C    7.001551
     5  C    7.003714
     6  O    8.013390
     7  C    7.002837
     8  O    9.001467
    10  C    7.001511
    12  C    6.990977
    14  C    7.002553
    18  N    6.995336
    20  C    8.993132
    21  C    8.993621
 Electronic spatial extent (au):  <R**2>=             10.4115
 Charge=              0.0000 electrons
 Dipole moment (field-independent basis, Debye):
    X=             -0.5192    Y=             -0.3215    Z=             -0.1002  Tot=              0.6189
 Quadrupole moment (field-independent basis, Debye-Ang):
   XX=             -6.7174   YY=             -5.9482   ZZ=             -1.3383
   XY=             -7.0817   XZ=             -4.3468   YZ=             -2.9837
 Traceless Quadrupole moment (field-independent basis, Debye-Ang):
   XX=             -2.0494   YY=             -1.2802   ZZ=              3.3297
   XY=             -7.0817   XZ=             -4.3468   YZ=             -2.9837
 Octapole moment (field-independent basis, Debye-Ang**2):
  XXX=            -72.2324  YYY=            -83.7145  ZZZ=            -13.4841  XYY=            -87.6900
  XXY=            -80.7699  XXZ=            -51.8561  XZZ=            -36.1905  YZZ=            -26.2973
  YYZ=            -47.0951  XYZ=            -54.7839
 Hexadecapole moment (field-independent basis, Debye-Ang**3):
 XXXX=           -744.8031 YYYY=          -1060.0925 ZZZZ=           -121.5773 XXXY=           -828.6960
 XXXZ=           -540.4874 YYYX=          -1033.0112 YYYZ=           -628.5023 ZZZX=           -300.5387
 ZZZY=           -224.6430 XXYY=           -931.7184 XXZZ=           -408.4104 YYZZ=           -378.1500
 XXYZ=           -601.0362 YYXZ=           -653.0406 ZZXY=           -432.7940
 N-N= 8.491558359787D+02 E-N= 3.516596445188D-02  KE=-9.069261494608D-05
 Leave Link  601 at Thu Sep 28 11:09:38 2017, MaxMem=  1879048192 cpu:         0.1
 (Enter /share/apps/gaussian/g09_D01/g09/l9999.exe)
 1\1\GINC-NXN37\SP\RwB97XD TD-FC\6-31G(d)\C11H13N1O2\BTX008\28-Sep-2017
 \0\\#p wb97xd 6-31G* td=(nstates=4) nosymm density=(transition=1) pop=
 SaveNTO\\unrelaxed crystal\\0,1\C,0,4.585503,8.095561,7.248003\C,0,5.8
 97584,8.449033,6.633697\C,0,3.716274,7.224505,6.565704\C,0,4.15654,8.6
 06623,8.479963\C,0,6.844481,9.22583,7.348589\O,0,6.140471,8.016976,5.4
 6811\C,0,2.468405,6.908274,7.103277\O,0,4.060533,6.671048,5.386412\H,0
 ,4.784259,6.971604,5.144768\C,0,2.925384,8.2764,9.004693\H,0,4.713872,
 9.180804,8.953429\C,0,8.021149,9.583615,6.745183\H,0,6.667671,9.491144
 ,8.222779\C,0,2.084295,7.432486,8.311925\H,0,1.895098,6.340404,6.64060
 4\H,0,2.662313,8.623244,9.826539\H,0,8.123121,9.318617,5.859229\N,0,9.
 027381,10.258263,7.266351\H,0,1.251532,7.21672,8.665271\C,0,9.016705,1
 0.707151,8.640771\C,0,10.208972,10.581121,6.465982\H,0,8.478251,11.498
 361,8.714915\H,0,9.914132,10.90398,8.919972\H,0,8.651167,10.017144,9.1
 99497\H,0,10.09488,10.24122,5.575387\H,0,10.984856,10.179152,6.864008\
 H,0,10.322862,11.534128,6.433388\\Version=ES64L-G09RevD.01\HF=-631.728
 5897\RMSD=8.230e-09\PG=C01 [X(C11H13N1O2)]\\@


 Discoveries are often made by not following instructions,
 by going off the main road, by trying the untried.
 -- Frank Tyger
 Job cpu time:       0 days  0 hours  6 minutes 51.3 seconds.
 File lengths (MBytes):  RWF=    119 Int=      0 D2E=      0 Chk=     15 Scr=      1
 Normal termination of Gaussian 09 at Thu Sep 28 11:09:38 2017.
