 Entering Gaussian System, Link 0=g09
 Input=J_HPcrys_mon-2.com
 Output=J_HPcrys_mon-2.out
 Initial command:
 /share/apps/gaussian/g09_D01/g09/l1.exe "/tmp/4049085.1.chemistry.q/Gau-9190.inp" -scrdir="/tmp/4049085.1.chemistry.q/"
 Entering Link 1 = /share/apps/gaussian/g09_D01/g09/l1.exe PID=      9192.
  
 Copyright (c) 1988,1990,1992,1993,1995,1998,2003,2009,2013,
            Gaussian, Inc.  All Rights Reserved.
  
 This is part of the Gaussian(R) 09 program.  It is based on
 the Gaussian(R) 03 system (copyright 2003, Gaussian, Inc.),
 the Gaussian(R) 98 system (copyright 1998, Gaussian, Inc.),
 the Gaussian(R) 94 system (copyright 1995, Gaussian, Inc.),
 the Gaussian 92(TM) system (copyright 1992, Gaussian, Inc.),
 the Gaussian 90(TM) system (copyright 1990, Gaussian, Inc.),
 the Gaussian 88(TM) system (copyright 1988, Gaussian, Inc.),
 the Gaussian 86(TM) system (copyright 1986, Carnegie Mellon
 University), and the Gaussian 82(TM) system (copyright 1983,
 Carnegie Mellon University). Gaussian is a federally registered
 trademark of Gaussian, Inc.
  
 This software contains proprietary and confidential information,
 including trade secrets, belonging to Gaussian, Inc.
  
 This software is provided under written license and may be
 used, copied, transmitted, or stored only in accord with that
 written license.
  
 The following legend is applicable only to US Government
 contracts under FAR:
  
                    RESTRICTED RIGHTS LEGEND
  
 Use, reproduction and disclosure by the US Government is
 subject to restrictions as set forth in subparagraphs (a)
 and (c) of the Commercial Computer Software - Restricted
 Rights clause in FAR 52.227-19.
  
 Gaussian, Inc.
 340 Quinnipiac St., Bldg. 40, Wallingford CT 06492
  
  
 ---------------------------------------------------------------
 Warning -- This program may not be used in any manner that
 competes with the business of Gaussian, Inc. or will provide
 assistance to any competitor of Gaussian, Inc.  The licensee
 of this program is prohibited from giving any competitor of
 Gaussian, Inc. access to this program.  By using this program,
 the user acknowledges that Gaussian, Inc. is engaged in the
 business of creating and licensing software in the field of
 computational chemistry and represents and warrants to the
 licensee that it is not a competitor of Gaussian, Inc. and that
 it will not use this program in any manner prohibited above.
 ---------------------------------------------------------------
  

 Cite this work as:
 Gaussian 09, Revision D.01,
 M. J. Frisch, G. W. Trucks, H. B. Schlegel, G. E. Scuseria, 
 M. A. Robb, J. R. Cheeseman, G. Scalmani, V. Barone, B. Mennucci, 
 G. A. Petersson, H. Nakatsuji, M. Caricato, X. Li, H. P. Hratchian, 
 A. F. Izmaylov, J. Bloino, G. Zheng, J. L. Sonnenberg, M. Hada, 
 M. Ehara, K. Toyota, R. Fukuda, J. Hasegawa, M. Ishida, T. Nakajima, 
 Y. Honda, O. Kitao, H. Nakai, T. Vreven, J. A. Montgomery, Jr., 
 J. E. Peralta, F. Ogliaro, M. Bearpark, J. J. Heyd, E. Brothers, 
 K. N. Kudin, V. N. Staroverov, T. Keith, R. Kobayashi, J. Normand, 
 K. Raghavachari, A. Rendell, J. C. Burant, S. S. Iyengar, J. Tomasi, 
 M. Cossi, N. Rega, J. M. Millam, M. Klene, J. E. Knox, J. B. Cross, 
 V. Bakken, C. Adamo, J. Jaramillo, R. Gomperts, R. E. Stratmann, 
 O. Yazyev, A. J. Austin, R. Cammi, C. Pomelli, J. W. Ochterski, 
 R. L. Martin, K. Morokuma, V. G. Zakrzewski, G. A. Voth, 
 P. Salvador, J. J. Dannenberg, S. Dapprich, A. D. Daniels, 
 O. Farkas, J. B. Foresman, J. V. Ortiz, J. Cioslowski, 
 and D. J. Fox, Gaussian, Inc., Wallingford CT, 2013.
 
 ******************************************
 Gaussian 09:  ES64L-G09RevD.01 24-Apr-2013
                28-Sep-2017 
 ******************************************
 %chk=J_HPcrys_mon-2
 %mem=14GB
 %nproc=2
 Will use up to    2 processors via shared memory.
 ----------------------------------------------------------------------
 #p wb97xd 6-31G* td=(nstates=4) nosymm density=(transition=1) pop=Save
 NTO
 ----------------------------------------------------------------------
 1/38=1/1;
 2/12=2,15=1,17=6,18=5,40=1/2;
 3/5=1,6=6,7=1,11=9,16=1,25=1,30=1,74=-58/1,2,8,3;
 4//1;
 5/5=2,38=5/2;
 8/6=1,10=2,108=4/1;
 9/41=4,42=1,70=2/14;
 6/7=2,8=2,9=2,10=2,29=1,89=10/1;
 99/5=1,9=1/99;
 Leave Link    1 at Thu Sep 28 12:19:52 2017, MaxMem=  1879048192 cpu:         0.1
 (Enter /share/apps/gaussian/g09_D01/g09/l101.exe)
 -----
 title
 -----
 Symbolic Z-matrix:
 Charge =  0 Multiplicity = 1
 C                     12.01166   2.83556   8.94069 
 C                     10.69958   3.18903   9.555 
 C                     12.88089   1.96451   9.62299 
 C                     12.44062   3.34662   7.70873 
 C                     9.75268   3.96583   8.84011 
 O                     10.45669   2.75698   10.72059 
 C                     14.12876   1.64827   9.08542 
 O                     12.53663   1.41105   10.80229 
 H                     11.81291   1.7116    11.04393 
 C                     13.67178   3.0164    7.184 
 H                     11.88329   3.9208    7.23527 
 C                     8.57601   4.32362   9.44351 
 H                     9.92949   4.23114   7.96592 
 C                     14.51287   2.17248   7.87677 
 H                     14.70207   1.0804    9.54809 
 H                     13.93485   3.36324   6.36216 
 H                     8.47404   4.05862   10.32947 
 N                     7.56978   4.99826   8.92235 
 H                     15.34563   1.95672   7.52343 
 C                     7.58046   5.44715   7.54793 
 C                     6.38819   5.32112   9.72272 
 H                     8.11891   6.23836   7.47378 
 H                     6.68303   5.64398   7.26872 
 H                     7.946     4.75714   6.9892 
 H                     6.50229   4.98122   10.61331 
 H                     5.61231   4.91915   9.32469 
 H                     6.2743    6.27413   9.75531 
 
 NAtoms=     27 NQM=       27 NQMF=       0 NMMI=      0 NMMIF=      0
                NMic=       0 NMicF=      0.
                    Isotopes and Nuclear Properties:
 (Nuclear quadrupole moments (NQMom) in fm**2, nuclear magnetic moments (NMagM)
  in nuclear magnetons)

  Atom         1           2           3           4           5           6           7           8           9          10
 IAtWgt=          12          12          12          12          12          16          12          16           1          12
 AtmWgt=  12.0000000  12.0000000  12.0000000  12.0000000  12.0000000  15.9949146  12.0000000  15.9949146   1.0078250  12.0000000
 NucSpn=           0           0           0           0           0           0           0           0           1           0
 AtZEff=   0.0000000   0.0000000   0.0000000   0.0000000   0.0000000   0.0000000   0.0000000   0.0000000   0.0000000   0.0000000
 NQMom=    0.0000000   0.0000000   0.0000000   0.0000000   0.0000000   0.0000000   0.0000000   0.0000000   0.0000000   0.0000000
 NMagM=    0.0000000   0.0000000   0.0000000   0.0000000   0.0000000   0.0000000   0.0000000   0.0000000   2.7928460   0.0000000
 AtZNuc=   6.0000000   6.0000000   6.0000000   6.0000000   6.0000000   8.0000000   6.0000000   8.0000000   1.0000000   6.0000000

  Atom        11          12          13          14          15          16          17          18          19          20
 IAtWgt=           1          12           1          12           1           1           1          14           1          12
 AtmWgt=   1.0078250  12.0000000   1.0078250  12.0000000   1.0078250   1.0078250   1.0078250  14.0030740   1.0078250  12.0000000
 NucSpn=           1           0           1           0           1           1           1           2           1           0
 AtZEff=   0.0000000   0.0000000   0.0000000   0.0000000   0.0000000   0.0000000   0.0000000   0.0000000   0.0000000   0.0000000
 NQMom=    0.0000000   0.0000000   0.0000000   0.0000000   0.0000000   0.0000000   0.0000000   2.0440000   0.0000000   0.0000000
 NMagM=    2.7928460   0.0000000   2.7928460   0.0000000   2.7928460   2.7928460   2.7928460   0.4037610   2.7928460   0.0000000
 AtZNuc=   1.0000000   6.0000000   1.0000000   6.0000000   1.0000000   1.0000000   1.0000000   7.0000000   1.0000000   6.0000000

  Atom        21          22          23          24          25          26          27
 IAtWgt=          12           1           1           1           1           1           1
 AtmWgt=  12.0000000   1.0078250   1.0078250   1.0078250   1.0078250   1.0078250   1.0078250
 NucSpn=           0           1           1           1           1           1           1
 AtZEff=   0.0000000   0.0000000   0.0000000   0.0000000   0.0000000   0.0000000   0.0000000
 NQMom=    0.0000000   0.0000000   0.0000000   0.0000000   0.0000000   0.0000000   0.0000000
 NMagM=    0.0000000   2.7928460   2.7928460   2.7928460   2.7928460   2.7928460   2.7928460
 AtZNuc=   6.0000000   1.0000000   1.0000000   1.0000000   1.0000000   1.0000000   1.0000000
 Leave Link  101 at Thu Sep 28 12:19:52 2017, MaxMem=  1879048192 cpu:         0.1
 (Enter /share/apps/gaussian/g09_D01/g09/l202.exe)
                          Input orientation:                          
 ---------------------------------------------------------------------
 Center     Atomic      Atomic             Coordinates (Angstroms)
 Number     Number       Type             X           Y           Z
 ---------------------------------------------------------------------
      1          6           0       12.011662    2.835561    8.940695
      2          6           0       10.699581    3.189033    9.555001
      3          6           0       12.880891    1.964505    9.622993
      4          6           0       12.440624    3.346622    7.708734
      5          6           0        9.752684    3.965830    8.840109
      6          8           0       10.456694    2.756977   10.720588
      7          6           0       14.128759    1.648274    9.085422
      8          8           0       12.536632    1.411048   10.802287
      9          1           0       11.812906    1.711604   11.043929
     10          6           0       13.671781    3.016400    7.184005
     11          1           0       11.883292    3.920804    7.235269
     12          6           0        8.576015    4.323615    9.443515
     13          1           0        9.929493    4.231144    7.965919
     14          6           0       14.512870    2.172485    7.876772
     15          1           0       14.702066    1.080404    9.548094
     16          1           0       13.934852    3.363244    6.362158
     17          1           0        8.474043    4.058616   10.329469
     18          7           0        7.569783    4.998263    8.922347
     19          1           0       15.345633    1.956720    7.523427
     20          6           0        7.580461    5.447151    7.547927
     21          6           0        6.388193    5.321122    9.722715
     22          1           0        8.118914    6.238360    7.473782
     23          1           0        6.683033    5.643980    7.268725
     24          1           0        7.945997    4.757144    6.989201
     25          1           0        6.502285    4.981220   10.613310
     26          1           0        5.612309    4.919152    9.324690
     27          1           0        6.274303    6.274128    9.755310
 ---------------------------------------------------------------------
                    Distance matrix (angstroms):
                    1          2          3          4          5
     1  C    0.000000
     2  C    1.491265   0.000000
     3  C    1.407064   2.502440   0.000000
     4  C    1.401042   2.542591   2.401764   0.000000
     5  C    2.527965   1.418132   3.795245   2.981350   0.000000
     6  O    2.364766   1.266594   2.776591   3.654439   2.343748
     7  C    2.431604   3.788628   1.395048   2.762147   4.957951
     8  O    2.402156   2.844593   1.347428   3.650443   4.257631
     9  H    2.392985   2.374699   1.795441   3.767073   3.766015
    10  C    2.423769   3.805969   2.771399   1.378454   4.359291
    11  H    2.025515   2.705146   3.244000   0.929770   2.667776
    12  C    3.777672   2.410236   4.912186   4.347319   1.369912
    13  H    2.689474   2.050418   4.073610   2.674753   0.930517
    14  C    2.797793   4.288472   2.399145   2.387685   5.177207
    15  H    3.269218   4.523964   2.025814   3.692304   5.772634
    16  H    3.259749   4.548799   3.701398   2.011532   4.898355
    17  H    3.992406   2.511771   4.929982   4.807177   1.965127
    18  N    4.940436   3.670041   6.156497   5.284493   2.416141
    19  H    3.727784   5.218399   3.237776   3.225716   6.086974
    20  C    5.328766   4.342390   6.673026   5.297100   2.929607
    21  C    6.197820   4.812691   7.309716   6.677327   3.733043
    22  H    5.374417   4.504410   6.749916   5.205240   3.114554
    23  H    6.251159   5.233209   7.582517   6.214605   3.835126
    24  H    4.902085   4.077319   6.252109   4.765393   2.704839
    25  H    6.144488   4.685002   7.125160   6.809724   3.839317
    26  H    6.740959   5.378354   7.851828   7.190970   4.276254
    27  H    6.738296   5.398242   7.889066   7.126169   4.273753
                    6          7          8          9         10
     6  O    0.000000
     7  C    4.169778   0.000000
     8  O    2.478778   2.353459   0.000000
     9  H    1.742603   3.033634   0.820063   0.000000
    10  C    4.786596   2.386626   4.117971   4.478496   0.000000
    11  H    3.941716   3.691826   4.410141   4.403568   2.004811
    12  C    2.760837   6.174030   5.100568   4.456612   5.725472
    13  H    3.168487   5.055526   4.774421   4.401076   4.011448
    14  C    4.988134   1.372288   3.611640   4.187255   1.378241
    15  H    4.712624   0.930173   2.524169   3.314088   3.224668
    16  H    5.609015   3.224111   5.047854   5.399032   0.930021
    17  H    2.403777   6.271620   4.872146   4.143299   6.164141
    18  N    4.073241   7.366762   6.408734   5.771250   6.647104
    19  H    5.896098   2.003934   4.351915   4.993413   2.009953
    20  C    5.057226   7.724996   7.172490   6.640025   6.568498
    21  C    4.911547   8.591409   7.365966   6.648439   8.050307
    22  H    5.303489   7.732044   7.341534   6.847120   6.426455
    23  H    5.872875   8.643199   8.041666   7.485409   7.466857
    24  H    4.922146   7.230889   6.841777   6.377234   5.987716
    25  H    4.538294   8.462037   7.013928   6.251281   8.186716
    26  H    5.485581   9.126106   7.901667   7.189684   8.553250
    27  H    5.549280   9.140008   7.997654   7.290630   8.482163
                   11         12         13         14         15
    11  H    0.000000
    12  C    3.997085   0.000000
    13  H    2.108908   2.005927   0.000000
    14  C    3.222239   6.506020   5.025273   0.000000
    15  H    4.621960   6.932377   5.933624   2.005431   0.000000
    16  H    2.298281   6.255734   4.400932   2.011484   3.993766
    17  H    4.606088   0.930343   2.781091   6.785326   6.947558
    18  N    4.755366   1.318813   2.659221   7.568666   8.161534
    19  H    3.991048   7.424059   5.890957   0.930001   2.298126
    20  C    4.576226   2.417998   2.677936   7.673974   8.589901
    21  C    6.192285   2.420648   4.100633   8.906840   9.334595
    22  H    4.427019   2.784787   2.747601   7.587912   8.616564
    23  H    5.478426   3.171192   3.608558   8.586463   9.504033
    24  H    4.032655   2.570706   2.272644   7.112810   8.106221
    25  H    6.441341   2.470065   4.395116   8.918918   9.142618
    26  H    6.684879   3.025283   4.577957   9.426592   9.869629
    27  H    6.584034   3.033083   4.553693   9.392889   9.901762
                   16         17         18         19         20
    16  H    0.000000
    17  H    6.785539   0.000000
    18  N    7.052798   1.918493   0.000000
    19  H    2.305896   7.714311   8.465920   0.000000
    20  C    6.791686   3.234732   1.445906   8.513613   0.000000
    21  C    8.489917   2.512537   1.463209   9.817933   2.483362
    22  H    6.582335   3.610034   1.984370   8.400022   0.959917
    23  H    7.655880   3.884488   1.984374   9.418142   0.960246
    24  H    6.180819   3.453138   1.984119   7.929841   0.960157
    25  H    8.713965   2.195357   1.999800   9.843769   3.282701
    26  H    8.970071   3.152717   1.999961  10.332383   2.703570
    27  H    8.869653   3.174430   1.999982  10.291275   2.694899
                   21         22         23         24         25
    21  C    0.000000
    22  H    2.982351   0.000000
    23  H    2.492636   1.567511   0.000000
    24  H    3.196392   1.568031   1.568340   0.000000
    25  H    0.960057   3.748403   3.414406   3.907516   0.000000
    26  H    0.960208   3.383672   2.428748   3.305579   1.567307
    27  H    0.960340   2.934150   2.597547   3.570317   1.568359
                   26         27
    26  H    0.000000
    27  H    1.568321   0.000000
 Symmetry turned off by external request.
 Stoichiometry    C11H13NO2
 Framework group  C1[X(C11H13NO2)]
 Deg. of freedom    75
 Full point group                 C1      NOp   1
 Rotational constants (GHZ):      1.6536359      0.3227340      0.2712867
 Leave Link  202 at Thu Sep 28 12:19:53 2017, MaxMem=  1879048192 cpu:         0.0
 (Enter /share/apps/gaussian/g09_D01/g09/l301.exe)
 Standard basis: 6-31G(d) (6D, 7F)
 Ernie: Thresh=  0.10000D-02 Tol=  0.10000D-05 Strict=F.
   236 basis functions,   444 primitive gaussians,   236 cartesian basis functions
    51 alpha electrons       51 beta electrons
       nuclear repulsion energy       849.1708192366 Hartrees.
 IExCor= 4639 DFT=T Ex+Corr=wB97XD ExCW=0 ScaHFX=  1.000000
 ScaDFX=  1.000000  1.000000  1.000000  1.000000 ScalE2=  1.000000  1.000000
 IRadAn=      0 IRanWt=     -1 IRanGd=            0 ICorTp=0 IEmpDi=121
  HFx wShort=  0.000000 wLong=  0.200000 cFull=  0.222036 cShort=  0.000000 cLong=  0.777964
  DFx wShort=  0.000000 wLong=  0.200000 cFull=  0.000000 cShort=  0.000000 cLong=  1.000000
 NAtoms=   27 NActive=   27 NUniq=   27 SFac= 1.00D+00 NAtFMM=   60 NAOKFM=F Big=F
 Integral buffers will be    131072 words long.
 Raffenetti 1 integral format.
 Two-electron integral symmetry is turned off.
 R6Disp:  Grimme-D2 Dispersion energy=       -0.0150057678 Hartrees.
 Nuclear repulsion after empirical dispersion term =      849.1558134688 Hartrees.
 Leave Link  301 at Thu Sep 28 12:19:53 2017, MaxMem=  1879048192 cpu:         0.1
 (Enter /share/apps/gaussian/g09_D01/g09/l302.exe)
 NPDir=0 NMtPBC=     1 NCelOv=     1 NCel=       1 NClECP=     1 NCelD=      1
         NCelK=      1 NCelE2=     1 NClLst=     1 CellRange=     0.0.
 One-electron integrals computed using PRISM.
 NBasis=   236 RedAO= T EigKep=  3.48D-04  NBF=   236
 NBsUse=   236 1.00D-06 EigRej= -1.00D+00 NBFU=   236
 Precomputing XC quadrature grid using
 IXCGrd= 4 IRadAn=           0 IRanWt=          -1 IRanGd=           0 AccXCQ= 0.00D+00.
 Generated NRdTot=       0 NPtTot=           0 NUsed=           0 NTot=          32
 NSgBfM=   235   235   235   235   235 MxSgAt=    27 MxSgA2=    27.
 Leave Link  302 at Thu Sep 28 12:19:53 2017, MaxMem=  1879048192 cpu:         0.7
 (Enter /share/apps/gaussian/g09_D01/g09/l308.exe)
 Leave Link  308 at Thu Sep 28 12:19:53 2017, MaxMem=  1879048192 cpu:         0.1
 (Enter /share/apps/gaussian/g09_D01/g09/l303.exe)
 DipDrv:  MaxL=1.
 Leave Link  303 at Thu Sep 28 12:19:53 2017, MaxMem=  1879048192 cpu:         0.1
 (Enter /share/apps/gaussian/g09_D01/g09/l401.exe)
 ExpMin= 1.61D-01 ExpMax= 5.48D+03 ExpMxC= 8.25D+02 IAcc=1 IRadAn=         1 AccDes= 0.00D+00
 Harris functional with IExCor= 4639 and IRadAn=       1 diagonalized for initial guess.
 HarFok:  IExCor= 4639 AccDes= 0.00D+00 IRadAn=         1 IDoV= 1 UseB2=F ITyADJ=14
 ICtDFT=  3500011 ScaDFX=  1.000000  1.000000  1.000000  1.000000
 FoFCou: FMM=F IPFlag=           0 FMFlag=      100000 FMFlg1=           0
         NFxFlg=           0 DoJE=T BraDBF=F KetDBF=T FulRan=T
         wScrn=  0.000000 ICntrl=     500 IOpCl=  0 I1Cent=   200000004 NGrid=           0
         NMat0=    1 NMatS0=      1 NMatT0=    0 NMatD0=    1 NMtDS0=    0 NMtDT0=    0
 Symmetry not used in FoFCou.
 Harris En= -604.457623670166    
 JPrj=0 DoOrth=F DoCkMO=F.
 Leave Link  401 at Thu Sep 28 12:19:54 2017, MaxMem=  1879048192 cpu:         2.2
 (Enter /share/apps/gaussian/g09_D01/g09/l502.exe)
 Closed shell SCF:
 Using DIIS extrapolation, IDIIS=  1040.
 Two-electron integral symmetry not used.
 Keep R1 ints in memory in canonical form, NReq=788969554.
 IVT=      188524 IEndB=      188524 NGot=  1879048192 MDV=  1096734547
 LenX=  1096734547 LenY=  1096678410
 Requested convergence on RMS density matrix=1.00D-08 within 128 cycles.
 Requested convergence on MAX density matrix=1.00D-06.
 Requested convergence on             energy=1.00D-06.
 No special actions if energy rises.
 FoFCou: FMM=F IPFlag=           0 FMFlag=           0 FMFlg1=           0
         NFxFlg=           0 DoJE=F BraDBF=F KetDBF=F FulRan=T
         wScrn=  0.000000 ICntrl=     600 IOpCl=  0 I1Cent=           0 NGrid=           0
         NMat0=    1 NMatS0=  27966 NMatT0=    0 NMatD0=    1 NMtDS0=    0 NMtDT0=    0
 Symmetry not used in FoFCou.
 Integral accuracy reduced to 1.0D-05 until final iterations.

 Cycle   1  Pass 0  IDiag  1:
 E= -631.483517670112    
 DIIS: error= 5.86D-02 at cycle   1 NSaved=   1.
 NSaved= 1 IEnMin= 1 EnMin= -631.483517670112     IErMin= 1 ErrMin= 5.86D-02
 ErrMax= 5.86D-02  0.00D+00 EMaxC= 1.00D-01 BMatC= 6.52D-01 BMatP= 6.52D-01
 IDIUse=3 WtCom= 4.14D-01 WtEn= 5.86D-01
 Coeff-Com:  0.100D+01
 Coeff-En:   0.100D+01
 Coeff:      0.100D+01
 Gap=     0.366 Goal=   None    Shift=    0.000
 GapD=    0.366 DampG=1.000 DampE=0.500 DampFc=0.5000 IDamp=-1.
 Damping current iteration by 5.00D-01
 RMSDP=3.89D-03 MaxDP=1.60D-01              OVMax= 1.75D-01

 Cycle   2  Pass 0  IDiag  1:
 E= -631.597840689909     Delta-E=       -0.114323019797 Rises=F Damp=T
 DIIS: error= 3.12D-02 at cycle   2 NSaved=   2.
 NSaved= 2 IEnMin= 2 EnMin= -631.597840689909     IErMin= 2 ErrMin= 3.12D-02
 ErrMax= 3.12D-02  0.00D+00 EMaxC= 1.00D-01 BMatC= 1.23D-01 BMatP= 6.52D-01
 IDIUse=3 WtCom= 6.88D-01 WtEn= 3.12D-01
 Coeff-Com: -0.302D+00 0.130D+01
 Coeff-En:   0.000D+00 0.100D+01
 Coeff:     -0.208D+00 0.121D+01
 Gap=     0.331 Goal=   None    Shift=    0.000
 RMSDP=1.46D-03 MaxDP=4.78D-02 DE=-1.14D-01 OVMax= 1.58D-01

 Cycle   3  Pass 0  IDiag  1:
 E= -631.702300515349     Delta-E=       -0.104459825440 Rises=F Damp=F
 DIIS: error= 8.94D-03 at cycle   3 NSaved=   3.
 NSaved= 3 IEnMin= 3 EnMin= -631.702300515349     IErMin= 3 ErrMin= 8.94D-03
 ErrMax= 8.94D-03  0.00D+00 EMaxC= 1.00D-01 BMatC= 3.10D-02 BMatP= 1.23D-01
 IDIUse=3 WtCom= 9.11D-01 WtEn= 8.94D-02
 Coeff-Com: -0.244D+00 0.517D+00 0.727D+00
 Coeff-En:   0.000D+00 0.000D+00 0.100D+01
 Coeff:     -0.222D+00 0.471D+00 0.751D+00
 Gap=     0.305 Goal=   None    Shift=    0.000
 RMSDP=8.12D-04 MaxDP=4.20D-02 DE=-1.04D-01 OVMax= 5.60D-02

 Cycle   4  Pass 0  IDiag  1:
 E= -631.726508353269     Delta-E=       -0.024207837921 Rises=F Damp=F
 DIIS: error= 3.34D-03 at cycle   4 NSaved=   4.
 NSaved= 4 IEnMin= 4 EnMin= -631.726508353269     IErMin= 4 ErrMin= 3.34D-03
 ErrMax= 3.34D-03  0.00D+00 EMaxC= 1.00D-01 BMatC= 3.25D-03 BMatP= 3.10D-02
 IDIUse=3 WtCom= 9.67D-01 WtEn= 3.34D-02
 Coeff-Com: -0.104D+00 0.210D+00 0.402D+00 0.492D+00
 Coeff-En:   0.000D+00 0.000D+00 0.000D+00 0.100D+01
 Coeff:     -0.100D+00 0.203D+00 0.388D+00 0.509D+00
 Gap=     0.300 Goal=   None    Shift=    0.000
 RMSDP=2.33D-04 MaxDP=7.70D-03 DE=-2.42D-02 OVMax= 1.16D-02

 Cycle   5  Pass 0  IDiag  1:
 E= -631.729135949510     Delta-E=       -0.002627596241 Rises=F Damp=F
 DIIS: error= 5.83D-04 at cycle   5 NSaved=   5.
 NSaved= 5 IEnMin= 5 EnMin= -631.729135949510     IErMin= 5 ErrMin= 5.83D-04
 ErrMax= 5.83D-04  0.00D+00 EMaxC= 1.00D-01 BMatC= 1.05D-04 BMatP= 3.25D-03
 IDIUse=3 WtCom= 9.94D-01 WtEn= 5.83D-03
 Coeff-Com: -0.208D-01 0.408D-01 0.109D+00 0.206D+00 0.665D+00
 Coeff-En:   0.000D+00 0.000D+00 0.000D+00 0.000D+00 0.100D+01
 Coeff:     -0.207D-01 0.406D-01 0.108D+00 0.205D+00 0.667D+00
 Gap=     0.299 Goal=   None    Shift=    0.000
 RMSDP=6.43D-05 MaxDP=1.92D-03 DE=-2.63D-03 OVMax= 2.35D-03

 Cycle   6  Pass 0  IDiag  1:
 E= -631.729240919964     Delta-E=       -0.000104970454 Rises=F Damp=F
 DIIS: error= 2.43D-04 at cycle   6 NSaved=   6.
 NSaved= 6 IEnMin= 6 EnMin= -631.729240919964     IErMin= 6 ErrMin= 2.43D-04
 ErrMax= 2.43D-04  0.00D+00 EMaxC= 1.00D-01 BMatC= 1.65D-05 BMatP= 1.05D-04
 IDIUse=3 WtCom= 9.98D-01 WtEn= 2.43D-03
 Coeff-Com:  0.186D-01-0.381D-01-0.520D-01-0.490D-01 0.235D+00 0.886D+00
 Coeff-En:   0.000D+00 0.000D+00 0.000D+00 0.000D+00 0.000D+00 0.100D+01
 Coeff:      0.185D-01-0.380D-01-0.519D-01-0.489D-01 0.234D+00 0.886D+00
 Gap=     0.300 Goal=   None    Shift=    0.000
 RMSDP=3.68D-05 MaxDP=1.03D-03 DE=-1.05D-04 OVMax= 3.56D-03

 Cycle   7  Pass 0  IDiag  1:
 E= -631.729270884179     Delta-E=       -0.000029964214 Rises=F Damp=F
 DIIS: error= 8.29D-05 at cycle   7 NSaved=   7.
 NSaved= 7 IEnMin= 7 EnMin= -631.729270884179     IErMin= 7 ErrMin= 8.29D-05
 ErrMax= 8.29D-05  0.00D+00 EMaxC= 1.00D-01 BMatC= 2.88D-06 BMatP= 1.65D-05
 IDIUse=1 WtCom= 1.00D+00 WtEn= 0.00D+00
 Coeff-Com:  0.993D-02-0.203D-01-0.314D-01-0.418D-01 0.151D-01 0.388D+00
 Coeff-Com:  0.681D+00
 Coeff:      0.993D-02-0.203D-01-0.314D-01-0.418D-01 0.151D-01 0.388D+00
 Coeff:      0.681D+00
 Gap=     0.300 Goal=   None    Shift=    0.000
 RMSDP=1.40D-05 MaxDP=3.36D-04 DE=-3.00D-05 OVMax= 8.62D-04

 Cycle   8  Pass 0  IDiag  1:
 E= -631.729274652319     Delta-E=       -0.000003768141 Rises=F Damp=F
 DIIS: error= 2.82D-05 at cycle   8 NSaved=   8.
 NSaved= 8 IEnMin= 8 EnMin= -631.729274652319     IErMin= 8 ErrMin= 2.82D-05
 ErrMax= 2.82D-05  0.00D+00 EMaxC= 1.00D-01 BMatC= 2.64D-07 BMatP= 2.88D-06
 IDIUse=1 WtCom= 1.00D+00 WtEn= 0.00D+00
 Coeff-Com: -0.306D-03 0.705D-03 0.257D-03-0.479D-02-0.469D-01-0.136D-01
 Coeff-Com:  0.198D+00 0.867D+00
 Coeff:     -0.306D-03 0.705D-03 0.257D-03-0.479D-02-0.469D-01-0.136D-01
 Coeff:      0.198D+00 0.867D+00
 Gap=     0.300 Goal=   None    Shift=    0.000
 RMSDP=5.77D-06 MaxDP=1.16D-04 DE=-3.77D-06 OVMax= 6.35D-04

 Initial convergence to 1.0D-05 achieved.  Increase integral accuracy.
 Cycle   9  Pass 1  IDiag  1:
 E= -631.728584906521     Delta-E=        0.000689745798 Rises=F Damp=F
 DIIS: error= 8.43D-05 at cycle   1 NSaved=   1.
 NSaved= 1 IEnMin= 1 EnMin= -631.728584906521     IErMin= 1 ErrMin= 8.43D-05
 ErrMax= 8.43D-05  0.00D+00 EMaxC= 1.00D-01 BMatC= 4.93D-06 BMatP= 4.93D-06
 IDIUse=1 WtCom= 1.00D+00 WtEn= 0.00D+00
 Coeff-Com:  0.100D+01
 Coeff:      0.100D+01
 Gap=     0.300 Goal=   None    Shift=    0.000
 RMSDP=5.77D-06 MaxDP=1.16D-04 DE= 6.90D-04 OVMax= 2.01D-04

 Cycle  10  Pass 1  IDiag  1:
 E= -631.728588922919     Delta-E=       -0.000004016398 Rises=F Damp=F
 DIIS: error= 1.17D-05 at cycle   2 NSaved=   2.
 NSaved= 2 IEnMin= 2 EnMin= -631.728588922919     IErMin= 2 ErrMin= 1.17D-05
 ErrMax= 1.17D-05  0.00D+00 EMaxC= 1.00D-01 BMatC= 1.06D-07 BMatP= 4.93D-06
 IDIUse=1 WtCom= 1.00D+00 WtEn= 0.00D+00
 Coeff-Com: -0.572D-01 0.106D+01
 Coeff:     -0.572D-01 0.106D+01
 Gap=     0.300 Goal=   None    Shift=    0.000
 RMSDP=2.69D-06 MaxDP=8.90D-05 DE=-4.02D-06 OVMax= 1.75D-04

 Cycle  11  Pass 1  IDiag  1:
 E= -631.728588999713     Delta-E=       -0.000000076794 Rises=F Damp=F
 DIIS: error= 1.37D-05 at cycle   3 NSaved=   3.
 NSaved= 3 IEnMin= 3 EnMin= -631.728588999713     IErMin= 2 ErrMin= 1.17D-05
 ErrMax= 1.37D-05  0.00D+00 EMaxC= 1.00D-01 BMatC= 8.42D-08 BMatP= 1.06D-07
 IDIUse=1 WtCom= 1.00D+00 WtEn= 0.00D+00
 Coeff-Com: -0.451D-01 0.523D+00 0.522D+00
 Coeff:     -0.451D-01 0.523D+00 0.522D+00
 Gap=     0.300 Goal=   None    Shift=    0.000
 RMSDP=1.41D-06 MaxDP=5.35D-05 DE=-7.68D-08 OVMax= 7.22D-05

 Cycle  12  Pass 1  IDiag  1:
 E= -631.728589066896     Delta-E=       -0.000000067183 Rises=F Damp=F
 DIIS: error= 2.62D-06 at cycle   4 NSaved=   4.
 NSaved= 4 IEnMin= 4 EnMin= -631.728589066896     IErMin= 4 ErrMin= 2.62D-06
 ErrMax= 2.62D-06  0.00D+00 EMaxC= 1.00D-01 BMatC= 3.85D-09 BMatP= 8.42D-08
 IDIUse=1 WtCom= 1.00D+00 WtEn= 0.00D+00
 Coeff-Com: -0.762D-02 0.348D-01 0.162D+00 0.811D+00
 Coeff:     -0.762D-02 0.348D-01 0.162D+00 0.811D+00
 Gap=     0.300 Goal=   None    Shift=    0.000
 RMSDP=4.07D-07 MaxDP=1.61D-05 DE=-6.72D-08 OVMax= 3.77D-05

 Cycle  13  Pass 1  IDiag  1:
 E= -631.728589071909     Delta-E=       -0.000000005013 Rises=F Damp=F
 DIIS: error= 1.97D-06 at cycle   5 NSaved=   5.
 NSaved= 5 IEnMin= 5 EnMin= -631.728589071909     IErMin= 5 ErrMin= 1.97D-06
 ErrMax= 1.97D-06  0.00D+00 EMaxC= 1.00D-01 BMatC= 8.41D-10 BMatP= 3.85D-09
 IDIUse=1 WtCom= 1.00D+00 WtEn= 0.00D+00
 Coeff-Com:  0.183D-02-0.400D-01-0.799D-03 0.337D+00 0.702D+00
 Coeff:      0.183D-02-0.400D-01-0.799D-03 0.337D+00 0.702D+00
 Gap=     0.300 Goal=   None    Shift=    0.000
 RMSDP=2.08D-07 MaxDP=5.60D-06 DE=-5.01D-09 OVMax= 1.35D-05

 Cycle  14  Pass 1  IDiag  1:
 E= -631.728589073143     Delta-E=       -0.000000001234 Rises=F Damp=F
 DIIS: error= 7.33D-07 at cycle   6 NSaved=   6.
 NSaved= 6 IEnMin= 6 EnMin= -631.728589073143     IErMin= 6 ErrMin= 7.33D-07
 ErrMax= 7.33D-07  0.00D+00 EMaxC= 1.00D-01 BMatC= 1.43D-10 BMatP= 8.41D-10
 IDIUse=1 WtCom= 1.00D+00 WtEn= 0.00D+00
 Coeff-Com:  0.215D-02-0.252D-01-0.326D-01 0.181D-01 0.287D+00 0.750D+00
 Coeff:      0.215D-02-0.252D-01-0.326D-01 0.181D-01 0.287D+00 0.750D+00
 Gap=     0.300 Goal=   None    Shift=    0.000
 RMSDP=1.03D-07 MaxDP=2.22D-06 DE=-1.23D-09 OVMax= 9.70D-06

 Cycle  15  Pass 1  IDiag  1:
 E= -631.728589073430     Delta-E=       -0.000000000287 Rises=F Damp=F
 DIIS: error= 3.46D-07 at cycle   7 NSaved=   7.
 NSaved= 7 IEnMin= 7 EnMin= -631.728589073430     IErMin= 7 ErrMin= 3.46D-07
 ErrMax= 3.46D-07  0.00D+00 EMaxC= 1.00D-01 BMatC= 3.02D-11 BMatP= 1.43D-10
 IDIUse=1 WtCom= 1.00D+00 WtEn= 0.00D+00
 Coeff-Com:  0.458D-03-0.954D-03-0.149D-01-0.648D-01-0.437D-01 0.306D+00
 Coeff-Com:  0.817D+00
 Coeff:      0.458D-03-0.954D-03-0.149D-01-0.648D-01-0.437D-01 0.306D+00
 Coeff:      0.817D+00
 Gap=     0.300 Goal=   None    Shift=    0.000
 RMSDP=5.69D-08 MaxDP=1.28D-06 DE=-2.87D-10 OVMax= 6.19D-06

 Cycle  16  Pass 1  IDiag  1:
 E= -631.728589073537     Delta-E=       -0.000000000106 Rises=F Damp=F
 DIIS: error= 1.35D-07 at cycle   8 NSaved=   8.
 NSaved= 8 IEnMin= 8 EnMin= -631.728589073537     IErMin= 8 ErrMin= 1.35D-07
 ErrMax= 1.35D-07  0.00D+00 EMaxC= 1.00D-01 BMatC= 3.94D-12 BMatP= 3.02D-11
 IDIUse=1 WtCom= 1.00D+00 WtEn= 0.00D+00
 Coeff-Com: -0.343D-03 0.498D-02 0.312D-02-0.163D-01-0.739D-01-0.902D-01
 Coeff-Com:  0.193D+00 0.980D+00
 Coeff:     -0.343D-03 0.498D-02 0.312D-02-0.163D-01-0.739D-01-0.902D-01
 Coeff:      0.193D+00 0.980D+00
 Gap=     0.300 Goal=   None    Shift=    0.000
 RMSDP=2.84D-08 MaxDP=4.82D-07 DE=-1.06D-10 OVMax= 3.03D-06

 Cycle  17  Pass 1  IDiag  1:
 E= -631.728589073558     Delta-E=       -0.000000000021 Rises=F Damp=F
 DIIS: error= 4.01D-08 at cycle   9 NSaved=   9.
 NSaved= 9 IEnMin= 9 EnMin= -631.728589073558     IErMin= 9 ErrMin= 4.01D-08
 ErrMax= 4.01D-08  0.00D+00 EMaxC= 1.00D-01 BMatC= 6.55D-13 BMatP= 3.94D-12
 IDIUse=1 WtCom= 1.00D+00 WtEn= 0.00D+00
 Coeff-Com: -0.185D-03 0.202D-02 0.316D-02 0.248D-02-0.211D-01-0.724D-01
 Coeff-Com: -0.421D-01 0.356D+00 0.772D+00
 Coeff:     -0.185D-03 0.202D-02 0.316D-02 0.248D-02-0.211D-01-0.724D-01
 Coeff:     -0.421D-01 0.356D+00 0.772D+00
 Gap=     0.300 Goal=   None    Shift=    0.000
 RMSDP=8.23D-09 MaxDP=1.35D-07 DE=-2.09D-11 OVMax= 7.82D-07

 SCF Done:  E(RwB97XD) =  -631.728589074     A.U. after   17 cycles
            NFock= 17  Conv=0.82D-08     -V/T= 2.0033
 KE= 6.296526216707D+02 PE=-3.171239860521D+03 EE= 1.060702836308D+03
 Leave Link  502 at Thu Sep 28 12:20:45 2017, MaxMem=  1879048192 cpu:        91.8
 (Enter /share/apps/gaussian/g09_D01/g09/l801.exe)
 DoSCS=F DFT=T ScalE2(SS,OS)=  1.000000  1.000000
 ExpMin= 1.61D-01 ExpMax= 5.48D+03 ExpMxC= 8.25D+02 IAcc=3 IRadAn=         5 AccDes= 0.00D+00
 HarFok:  IExCor=  205 AccDes= 0.00D+00 IRadAn=         5 IDoV=-2 UseB2=F ITyADJ=14
 ICtDFT= 12500011 ScaDFX=  1.000000  1.000000  1.000000  1.000000
 Largest valence mixing into a core orbital is  7.26D-05
 Largest core mixing into a valence orbital is  1.19D-05
 Range of M.O.s used for correlation:    15   236
 NBasis=   236 NAE=    51 NBE=    51 NFC=    14 NFV=     0
 NROrb=    222 NOA=    37 NOB=    37 NVA=   185 NVB=   185
 Leave Link  801 at Thu Sep 28 12:20:45 2017, MaxMem=  1879048192 cpu:         0.8
 (Enter /share/apps/gaussian/g09_D01/g09/l914.exe)
 RHF ground state
 MDV=  1879048192 DFT=T DoStab=F Mixed=T DoRPA=T DoScal=F NonHer=T
 Would need an additional           480300000 words for in-memory AO integral storage.
 Making orbital integer symmetry assigments:
    16 initial guesses have been made.
 Convergence on wavefunction:    0.001000000000000
 Davidson Disk Diagonalization:  ConvIn= 1.00D-03 SkipCon=T Conv= 1.00D-03.
 Max sub-space:   200 roots to seek:    16 dimension of matrix:        13690
 Iteration     1 Dimension    16 NMult     0 NNew     16
 CISAX will form    16 AO SS matrices at one time.
 NMat=    16 NSing=    16 JSym2X= 0.
 FoFJK:  IHMeth= 1 ICntrl=       0 DoSepK=T KAlg= 0 I1Cent=   0 FoldK=F
 IRaf=         1 NMat=  32 IRICut=       1 DoRegI=T DoRafI=F ISym2E= 0.
 FoFCou: FMM=F IPFlag=           0 FMFlag=      100000 FMFlg1=           0
         NFxFlg=           0 DoJE=F BraDBF=F KetDBF=F FulRan=T
         wScrn=  0.000000 ICntrl=     500 IOpCl=  0 I1Cent=           0 NGrid=           0
         NMat0=   16 NMatS0=     16 NMatT0=    0 NMatD0=   16 NMtDS0=    0 NMtDT0=    0
 Symmetry not used in FoFCou.
 New state      1 was old state      3
 New state      2 was old state      1
 New state      3 was old state      2
 Excitation Energies [eV] at current iteration:
 Root      1 :     4.303228262702254
 Root      2 :     4.722390547140980
 Root      3 :     5.334341426298038
 Root      4 :     6.156811494921389
 Root      5 :     6.732058594025324
 Root      6 :     6.821090864440737
 Root      7 :     6.912291862730113
 Root      8 :     7.269428166483260
 Root      9 :     7.347076281208968
 Root     10 :     7.584108437759215
 Root     11 :     7.831805801486316
 Root     12 :     8.195360344079388
 Root     13 :     8.587969084259202
 Root     14 :     8.671051439071652
 Root     15 :     8.911672404987877
 Root     16 :     9.291493666797866
 Iteration     2 Dimension    24 NMult    16 NNew      8
 CISAX will form     8 AO SS matrices at one time.
 NMat=     8 NSing=     8 JSym2X= 0.
 Root      1 not converged, maximum delta is    0.105559894422364
 Root      2 not converged, maximum delta is    0.127348771468868
 Root      3 not converged, maximum delta is    0.139657081443434
 Root      4 not converged, maximum delta is    0.125330911492543
 Excitation Energies [eV] at current iteration:
 Root      1 :     4.065810203988299   Change is   -0.237418058713954
 Root      2 :     4.434821278004951   Change is   -0.287569269136030
 Root      3 :     4.828783190965388   Change is   -0.505558235332650
 Root      4 :     5.628127373676042   Change is   -0.528684121245348
 Iteration     3 Dimension    32 NMult    24 NNew      8
 CISAX will form     8 AO SS matrices at one time.
 NMat=     8 NSing=     8 JSym2X= 0.
 Root      1 not converged, maximum delta is    0.015097673481034
 Root      2 not converged, maximum delta is    0.012190862393634
 Root      3 not converged, maximum delta is    0.017084072442266
 Root      4 not converged, maximum delta is    0.035951135774252
 Excitation Energies [eV] at current iteration:
 Root      1 :     4.054646116218942   Change is   -0.011164087769357
 Root      2 :     4.414527006281959   Change is   -0.020294271722993
 Root      3 :     4.798038280519843   Change is   -0.030744910445545
 Root      4 :     5.580291401648509   Change is   -0.047835972027532
 Iteration     4 Dimension    40 NMult    32 NNew      8
 CISAX will form     8 AO SS matrices at one time.
 NMat=     8 NSing=     8 JSym2X= 0.
 Root      1 not converged, maximum delta is    0.001232624664150
 Root      2 not converged, maximum delta is    0.002454085023302
 Root      3 not converged, maximum delta is    0.004679354060017
 Root      4 not converged, maximum delta is    0.014421340975475
 Excitation Energies [eV] at current iteration:
 Root      1 :     4.054245800444974   Change is   -0.000400315773967
 Root      2 :     4.412462195853310   Change is   -0.002064810428649
 Root      3 :     4.794499584999175   Change is   -0.003538695520668
 Root      4 :     5.574586808161423   Change is   -0.005704593487086
 Iteration     5 Dimension    48 NMult    40 NNew      8
 CISAX will form     8 AO SS matrices at one time.
 NMat=     8 NSing=     8 JSym2X= 0.
 Root      1 has converged.
 Root      2 has converged.
 Root      3 has converged.
 Root      4 not converged, maximum delta is    0.002077603851792
 Excitation Energies [eV] at current iteration:
 Root      1 :     4.054227169797569   Change is   -0.000018630647406
 Root      2 :     4.412348623865839   Change is   -0.000113571987471
 Root      3 :     4.794311402856002   Change is   -0.000188182143172
 Root      4 :     5.573947076042319   Change is   -0.000639732119105
 Iteration     6 Dimension    50 NMult    48 NNew      2
 CISAX will form     2 AO SS matrices at one time.
 NMat=     2 NSing=     2 JSym2X= 0.
 Root      1 has converged.
 Root      2 has converged.
 Root      3 has converged.
 Root      4 has converged.
 Excitation Energies [eV] at current iteration:
 Root      1 :     4.054227135116338   Change is   -0.000000034681231
 Root      2 :     4.412348510870838   Change is   -0.000000112995001
 Root      3 :     4.794309815092344   Change is   -0.000001587763659
 Root      4 :     5.573920305353179   Change is   -0.000026770689139
 Convergence achieved on expansion vectors.
 ***********************************************************************
 Excited states from <AA,BB:AA,BB> singles matrix:
 ***********************************************************************
 
 1PDM for each excited state written to RWF  633
 Ground to excited state transition densities written to RWF  633
 Ground to excited state transition electric dipole moments (Au):
       state          X           Y           Z        Dip. S.      Osc.
         1        -0.1445      0.0894     -0.0279      0.0296      0.0029
         2         1.9515     -1.0672      0.1694      4.9758      0.5379
         3        -1.0753      0.5118     -0.0582      1.4216      0.1670
         4         0.4301     -0.0099     -0.4226      0.3637      0.0497
 Ground to excited state transition velocity dipole moments (Au):
       state          X           Y           Z        Dip. S.      Osc.
         1         0.0231     -0.0125      0.0048      0.0007      0.0032
         2        -0.3122      0.1732     -0.0318      0.1285      0.5282
         3         0.1851     -0.0860      0.0055      0.0417      0.1577
         4        -0.0710     -0.0038      0.0815      0.0117      0.0381
 Ground to excited state transition magnetic dipole moments (Au):
       state          X           Y           Z
         1         0.0762      0.0473      0.1750
         2        -2.9885     -4.4111      5.7778
         3         1.8544      3.7714     -2.5521
         4         0.5270     -3.0240      0.3081
 Ground to excited state transition velocity quadrupole moments (Au):
       state          XX          YY          ZZ          XY          XZ          YZ
         1         0.8785     -0.1900      0.1741     -0.0502      0.4816     -0.1944
         2       -12.5655      2.2343     -1.2053      1.4488     -5.9083      2.8142
         3         6.2171     -1.5624      0.4141      0.2702      2.9353     -1.4046
         4        -3.5430     -0.1823      2.8279     -0.2550      0.5317      0.4171
 <0|del|b> * <b|rxdel|0> + <0|del|b> * <b|delr+rdel|0>
 Rotatory Strengths (R) in cgs (10**-40 erg-esu-cm/Gauss)
       state          XX          YY          ZZ    R(velocity)    E-M Angle
         1        14.2920     -3.9447     -0.8360      3.1704       67.59
         2        64.0573   -181.5674     53.8996    -21.2035       90.30
         3      -169.2092    136.2353     53.9756      7.0006       89.70
         4        30.5154    -36.5519      2.6819     -1.1182       90.17
 1/2[<0|r|b>*<b|rxdel|0> + (<0|rxdel|b>*<b|r|0>)*]
 Rotatory Strengths (R) in cgs (10**-40 erg-esu-cm/Gauss)
       state          XX          YY          ZZ     R(length)
         1         7.7876     -2.9916      3.4490      2.7483
         2      4124.2171  -3328.8975   -692.0470     34.4242
         3      1410.1310  -1365.0008   -105.0031    -19.9576
         4      -160.2898    -21.1944     92.0870    -29.7991
  1/2[<0|del|b>*<b|r|0> + (<0|r|b>*<b|del|0>)*] (Au)
       state          X           Y           Z        Dip. S.   Osc.(frdel)
         1        -0.0033     -0.0011     -0.0001      0.0046      0.0031
         2        -0.6093     -0.1848     -0.0054      0.7995      0.5330
         3        -0.1991     -0.0440     -0.0003      0.2434      0.1623
         4        -0.0305      0.0000     -0.0344      0.0649      0.0433

 Excitation energies and oscillator strengths:
 
 Excited state symmetry could not be determined.
 Excited State   1:      Singlet-?Sym    4.0542 eV  305.81 nm  f=0.0029  <S**2>=0.000
      49 -> 52         0.67831
      49 -> 56         0.12861
 This state for optimization and/or second-order correction.
 Total Energy, E(TD-HF/TD-KS) =  -631.579598961    
 Copying the excited state density for this state as the 1-particle RhoCI density.
 
 Excited state symmetry could not be determined.
 Excited State   2:      Singlet-?Sym    4.4123 eV  280.99 nm  f=0.5379  <S**2>=0.000
      50 -> 52         0.20074
      50 -> 53         0.10135
      51 -> 52         0.64648
 
 Excited state symmetry could not be determined.
 Excited State   3:      Singlet-?Sym    4.7943 eV  258.61 nm  f=0.1670  <S**2>=0.000
      48 -> 54        -0.11784
      50 -> 52         0.62903
      51 -> 52        -0.22629
      51 -> 53         0.12974
 
 Excited state symmetry could not be determined.
 Excited State   4:      Singlet-?Sym    5.5739 eV  222.44 nm  f=0.0497  <S**2>=0.000
      48 -> 52         0.57130
      48 -> 54         0.12043
      50 -> 52         0.15666
      50 -> 53        -0.26500
      51 -> 53        -0.19931
      51 -> 54         0.10102
 SavETr:  write IOETrn=   770 NScale= 10 NData=  16 NLR=1 NState=    4 LETran=      82.
 Leave Link  914 at Thu Sep 28 12:23:18 2017, MaxMem=  1879048192 cpu:       305.9
 (Enter /share/apps/gaussian/g09_D01/g09/l601.exe)
 Copying SCF densities to generalized density rwf, IOpCl= 0 IROHF=0.
 Saving Alpha spin NTOs for state    1 to file 10524.

 **********************************************************************

   Populations using transition density between ground and state  1.

 **********************************************************************

 Alpha  occ. eigenvalues --    0.00000   0.00000   0.00000   0.00000   0.00000
 Alpha  occ. eigenvalues --    0.00000   0.00000   0.00000   0.00000   0.00000
 Alpha  occ. eigenvalues --    0.00000   0.00000   0.00000   0.00000   0.00000
 Alpha  occ. eigenvalues --    0.00000   0.00000   0.00000   0.00000   0.00000
 Alpha  occ. eigenvalues --    0.00000   0.00000   0.00000   0.00000   0.00000
 Alpha  occ. eigenvalues --    0.00000   0.00000   0.00000   0.00000   0.00000
 Alpha  occ. eigenvalues --    0.00000   0.00000   0.00000   0.00000   0.00000
 Alpha  occ. eigenvalues --    0.00000   0.00001   0.00001   0.00001   0.00001
 Alpha  occ. eigenvalues --    0.00001   0.00002   0.00002   0.00003   0.00004
 Alpha  occ. eigenvalues --    0.00005   0.00007   0.00016   0.00041   0.00194
 Alpha  occ. eigenvalues --    0.99844
 Alpha virt. eigenvalues --    0.99844   0.00194   0.00041   0.00016   0.00007
 Alpha virt. eigenvalues --    0.00005   0.00004   0.00003   0.00002   0.00002
 Alpha virt. eigenvalues --    0.00001   0.00001   0.00001   0.00001   0.00001
 Alpha virt. eigenvalues --    0.00000   0.00000   0.00000   0.00000   0.00000
 Alpha virt. eigenvalues --    0.00000   0.00000   0.00000   0.00000   0.00000
 Alpha virt. eigenvalues --    0.00000   0.00000   0.00000   0.00000   0.00000
 Alpha virt. eigenvalues --    0.00000   0.00000   0.00000   0.00000   0.00000
 Alpha virt. eigenvalues --    0.00000   0.00000   0.00000   0.00000   0.00000
 Alpha virt. eigenvalues --    0.00000   0.00000   0.00000   0.00000   0.00000
 Alpha virt. eigenvalues --    0.00000   0.00000   0.00000   0.00000   0.00000
 Alpha virt. eigenvalues --    0.00000   0.00000   0.00000   0.00000   0.00000
 Alpha virt. eigenvalues --    0.00000   0.00000   0.00000   0.00000   0.00000
 Alpha virt. eigenvalues --    0.00000   0.00000   0.00000   0.00000   0.00000
 Alpha virt. eigenvalues --    0.00000   0.00000   0.00000   0.00000   0.00000
 Alpha virt. eigenvalues --    0.00000   0.00000   0.00000   0.00000   0.00000
 Alpha virt. eigenvalues --    0.00000   0.00000   0.00000   0.00000   0.00000
 Alpha virt. eigenvalues --    0.00000   0.00000   0.00000   0.00000   0.00000
 Alpha virt. eigenvalues --    0.00000   0.00000   0.00000   0.00000   0.00000
 Alpha virt. eigenvalues --    0.00000   0.00000   0.00000   0.00000   0.00000
 Alpha virt. eigenvalues --    0.00000   0.00000   0.00000   0.00000   0.00000
 Alpha virt. eigenvalues --    0.00000   0.00000   0.00000   0.00000   0.00000
 Alpha virt. eigenvalues --    0.00000   0.00000   0.00000   0.00000   0.00000
 Alpha virt. eigenvalues --    0.00000   0.00000   0.00000   0.00000   0.00000
 Alpha virt. eigenvalues --    0.00000   0.00000   0.00000   0.00000   0.00000
 Alpha virt. eigenvalues --    0.00000   0.00000   0.00000   0.00000   0.00000
 Alpha virt. eigenvalues --    0.00000   0.00000   0.00000   0.00000   0.00000
 Alpha virt. eigenvalues --    0.00000   0.00000   0.00000   0.00000   0.00000
 Alpha virt. eigenvalues --    0.00000   0.00000   0.00000   0.00000   0.00000
 Alpha virt. eigenvalues --    0.00000   0.00000   0.00000   0.00000   0.00000
 Alpha virt. eigenvalues --    0.00000   0.00000   0.00000   0.00000   0.00000
 Alpha virt. eigenvalues --    0.00000   0.00000   0.00000   0.00000   0.00000
 Alpha virt. eigenvalues --    0.00000   0.00000   0.00000   0.00000   0.00000
 Alpha virt. eigenvalues --    0.00000   0.00000   0.00000   0.00000   0.00000
 Alpha virt. eigenvalues --    0.00000   0.00000   0.00000   0.00000   0.00000
 Alpha virt. eigenvalues --    0.00000   0.00000   0.00000   0.00000   0.00000
 Alpha virt. eigenvalues --    0.00000   0.00000   0.00000   0.00000   0.00000
 Alpha virt. eigenvalues --    0.00000   0.00000   0.00000   0.00000   0.00000
          Condensed to atoms (all electrons):
               1          2          3          4          5          6
     1  C   -0.008494  -0.003108  -0.000163   0.003515   0.000237   0.000613
     2  C   -0.003108  -0.002877  -0.000439  -0.000549   0.006891  -0.001692
     3  C   -0.000163  -0.000439   0.004071  -0.000744  -0.000439   0.000944
     4  C    0.003515  -0.000549  -0.000744   0.002545   0.000008   0.000243
     5  C    0.000237   0.006891  -0.000439   0.000008   0.005620  -0.001107
     6  O    0.000613  -0.001692   0.000944   0.000243  -0.001107   0.015327
     7  C    0.000694   0.000212   0.002304  -0.000034   0.000005   0.000083
     8  O   -0.000679  -0.000847  -0.002046  -0.000005   0.000028   0.001656
     9  H    0.000983   0.001119  -0.000276  -0.000028  -0.000103  -0.004873
    10  C   -0.000025   0.000094  -0.000081  -0.004705  -0.000087  -0.000008
    11  H    0.000300  -0.000338  -0.000073   0.000119  -0.000093  -0.000004
    12  C   -0.000313   0.001194   0.000017   0.000043  -0.009073   0.002010
    13  H    0.000785   0.001694   0.000015  -0.000041  -0.002703   0.000152
    14  C   -0.000535  -0.000022   0.000234  -0.000083   0.000001  -0.000005
    15  H    0.000126   0.000000  -0.000126   0.000038   0.000000   0.000000
    16  H    0.000037  -0.000005  -0.000035  -0.000170   0.000002   0.000000
    17  H    0.000040   0.001226   0.000002  -0.000003   0.001583   0.000046
    18  N    0.000012   0.000013   0.000000  -0.000002   0.000322  -0.000001
    19  H   -0.000002   0.000000   0.000072  -0.000027   0.000000   0.000000
    20  C   -0.000014  -0.000074   0.000000   0.000004   0.000326  -0.000006
    21  C    0.000000   0.000008   0.000000   0.000000  -0.000079   0.000003
    22  H   -0.000011  -0.000057   0.000000   0.000004  -0.000381  -0.000003
    23  H    0.000000   0.000001   0.000000   0.000000   0.000012   0.000000
    24  H    0.000047   0.000183   0.000000  -0.000017   0.000140   0.000013
    25  H    0.000000  -0.000001   0.000000   0.000000   0.000009   0.000000
    26  H    0.000000   0.000004   0.000000   0.000000  -0.000041   0.000001
    27  H    0.000000  -0.000004   0.000000   0.000000   0.000033  -0.000001
               7          8          9         10         11         12
     1  C    0.000694  -0.000679   0.000983  -0.000025   0.000300  -0.000313
     2  C    0.000212  -0.000847   0.001119   0.000094  -0.000338   0.001194
     3  C    0.002304  -0.002046  -0.000276  -0.000081  -0.000073   0.000017
     4  C   -0.000034  -0.000005  -0.000028  -0.004705   0.000119   0.000043
     5  C    0.000005   0.000028  -0.000103  -0.000087  -0.000093  -0.009073
     6  O    0.000083   0.001656  -0.004873  -0.000008  -0.000004   0.002010
     7  C    0.001567  -0.000212   0.000158   0.000048   0.000013   0.000000
     8  O   -0.000212   0.001767   0.002999   0.000002   0.000001   0.000001
     9  H    0.000158   0.002999  -0.001118  -0.000004  -0.000004  -0.000002
    10  C    0.000048   0.000002  -0.000004   0.002399  -0.000655   0.000000
    11  H    0.000013   0.000001  -0.000004  -0.000655   0.002162   0.000053
    12  C    0.000000   0.000001  -0.000002   0.000000   0.000053  -0.000033
    13  H    0.000000   0.000001  -0.000003   0.000027   0.000014  -0.002331
    14  C   -0.002922   0.000032  -0.000006   0.003991   0.000022   0.000000
    15  H   -0.000151  -0.000055  -0.000029   0.000031   0.000000   0.000000
    16  H    0.000057   0.000000   0.000000  -0.000744  -0.000067   0.000000
    17  H    0.000000  -0.000001   0.000014   0.000000   0.000001  -0.002542
    18  N    0.000000   0.000000   0.000000   0.000000  -0.000001   0.005996
    19  H   -0.000304   0.000000   0.000000  -0.000189  -0.000001   0.000000
    20  C    0.000000   0.000000   0.000000   0.000000   0.000003  -0.000551
    21  C    0.000000   0.000000   0.000000   0.000000   0.000000  -0.000690
    22  H    0.000000   0.000000   0.000000   0.000000   0.000006  -0.000300
    23  H    0.000000   0.000000   0.000000   0.000000   0.000000  -0.000066
    24  H    0.000000   0.000000   0.000000   0.000000  -0.000015   0.000636
    25  H    0.000000   0.000000   0.000000   0.000000   0.000000   0.000144
    26  H    0.000000   0.000000   0.000000   0.000000   0.000000  -0.001214
    27  H    0.000000   0.000000   0.000000   0.000000   0.000000   0.001004
              13         14         15         16         17         18
     1  C    0.000785  -0.000535   0.000126   0.000037   0.000040   0.000012
     2  C    0.001694  -0.000022   0.000000  -0.000005   0.001226   0.000013
     3  C    0.000015   0.000234  -0.000126  -0.000035   0.000002   0.000000
     4  C   -0.000041  -0.000083   0.000038  -0.000170  -0.000003  -0.000002
     5  C   -0.002703   0.000001   0.000000   0.000002   0.001583   0.000322
     6  O    0.000152  -0.000005   0.000000   0.000000   0.000046  -0.000001
     7  C    0.000000  -0.002922  -0.000151   0.000057   0.000000   0.000000
     8  O    0.000001   0.000032  -0.000055   0.000000  -0.000001   0.000000
     9  H   -0.000003  -0.000006  -0.000029   0.000000   0.000014   0.000000
    10  C    0.000027   0.003991   0.000031  -0.000744   0.000000   0.000000
    11  H    0.000014   0.000022   0.000000  -0.000067   0.000001  -0.000001
    12  C   -0.002331   0.000000   0.000000   0.000000  -0.002542   0.005996
    13  H    0.004593   0.000000   0.000000  -0.000002   0.000107   0.000170
    14  C    0.000000   0.000733  -0.000465   0.000052   0.000000   0.000000
    15  H    0.000000  -0.000465   0.002001  -0.000001   0.000000   0.000000
    16  H   -0.000002   0.000052  -0.000001   0.002353   0.000000   0.000000
    17  H    0.000107   0.000000   0.000000   0.000000  -0.003850   0.000268
    18  N    0.000170   0.000000   0.000000   0.000000   0.000268  -0.009968
    19  H    0.000000  -0.000037  -0.000049  -0.000060   0.000000   0.000000
    20  C   -0.000363   0.000000   0.000000   0.000000  -0.000240  -0.003111
    21  C    0.000002   0.000000   0.000000   0.000000   0.000313  -0.002563
    22  H   -0.000416   0.000000   0.000000   0.000000  -0.000205   0.001929
    23  H    0.000032   0.000000   0.000000   0.000000   0.000026  -0.000239
    24  H    0.000872   0.000000   0.000000   0.000000   0.000321   0.000555
    25  H    0.000000   0.000000   0.000000   0.000000  -0.000108   0.000141
    26  H    0.000003   0.000000   0.000000   0.000000   0.000300   0.001796
    27  H   -0.000004   0.000000   0.000000   0.000000  -0.000305   0.000018
              19         20         21         22         23         24
     1  C   -0.000002  -0.000014   0.000000  -0.000011   0.000000   0.000047
     2  C    0.000000  -0.000074   0.000008  -0.000057   0.000001   0.000183
     3  C    0.000072   0.000000   0.000000   0.000000   0.000000   0.000000
     4  C   -0.000027   0.000004   0.000000   0.000004   0.000000  -0.000017
     5  C    0.000000   0.000326  -0.000079  -0.000381   0.000012   0.000140
     6  O    0.000000  -0.000006   0.000003  -0.000003   0.000000   0.000013
     7  C   -0.000304   0.000000   0.000000   0.000000   0.000000   0.000000
     8  O    0.000000   0.000000   0.000000   0.000000   0.000000   0.000000
     9  H    0.000000   0.000000   0.000000   0.000000   0.000000   0.000000
    10  C   -0.000189   0.000000   0.000000   0.000000   0.000000   0.000000
    11  H   -0.000001   0.000003   0.000000   0.000006   0.000000  -0.000015
    12  C    0.000000  -0.000551  -0.000690  -0.000300  -0.000066   0.000636
    13  H    0.000000  -0.000363   0.000002  -0.000416   0.000032   0.000872
    14  C   -0.000037   0.000000   0.000000   0.000000   0.000000   0.000000
    15  H   -0.000049   0.000000   0.000000   0.000000   0.000000   0.000000
    16  H   -0.000060   0.000000   0.000000   0.000000   0.000000   0.000000
    17  H    0.000000  -0.000240   0.000313  -0.000205   0.000026   0.000321
    18  N    0.000000  -0.003111  -0.002563   0.001929  -0.000239   0.000555
    19  H    0.002161   0.000000   0.000000   0.000000   0.000000   0.000000
    20  C    0.000000   0.005472   0.000543   0.000617  -0.000297  -0.000920
    21  C    0.000000   0.000543   0.004253  -0.000322   0.000210   0.000175
    22  H    0.000000   0.000617  -0.000322  -0.006128  -0.000156   0.001859
    23  H    0.000000  -0.000297   0.000210  -0.000156  -0.001770   0.000780
    24  H    0.000000  -0.000920   0.000175   0.001859   0.000780  -0.007681
    25  H    0.000000  -0.000067  -0.000002   0.000010   0.000000  -0.000002
    26  H    0.000000  -0.000037   0.000423   0.000087   0.000009  -0.000088
    27  H    0.000000   0.000085  -0.000877  -0.000105  -0.000086   0.000021
              25         26         27
     1  C    0.000000   0.000000   0.000000
     2  C   -0.000001   0.000004  -0.000004
     3  C    0.000000   0.000000   0.000000
     4  C    0.000000   0.000000   0.000000
     5  C    0.000009  -0.000041   0.000033
     6  O    0.000000   0.000001  -0.000001
     7  C    0.000000   0.000000   0.000000
     8  O    0.000000   0.000000   0.000000
     9  H    0.000000   0.000000   0.000000
    10  C    0.000000   0.000000   0.000000
    11  H    0.000000   0.000000   0.000000
    12  C    0.000144  -0.001214   0.001004
    13  H    0.000000   0.000003  -0.000004
    14  C    0.000000   0.000000   0.000000
    15  H    0.000000   0.000000   0.000000
    16  H    0.000000   0.000000   0.000000
    17  H   -0.000108   0.000300  -0.000305
    18  N    0.000141   0.001796   0.000018
    19  H    0.000000   0.000000   0.000000
    20  C   -0.000067  -0.000037   0.000085
    21  C   -0.000002   0.000423  -0.000877
    22  H    0.000010   0.000087  -0.000105
    23  H    0.000000   0.000009  -0.000086
    24  H   -0.000002  -0.000088   0.000021
    25  H   -0.003394   0.000128   0.000497
    26  H    0.000128  -0.005640   0.001093
    27  H    0.000497   0.001093  -0.003325
 Mulliken charges:
               1
     1  C    6.005953
     2  C    5.997372
     3  C    5.996764
     4  C    5.999890
     5  C    5.998889
     6  O    7.986610
     7  C    5.998482
     8  O    7.997359
     9  H    1.001174
    10  C    5.999906
    11  H    0.998559
    12  C    6.006018
    13  H    0.997397
    14  C    5.999012
    15  H    0.998681
    16  H    0.998583
    17  H    1.003006
    18  N    7.004664
    19  H    0.998436
    20  C    5.998630
    21  C    5.998601
    22  H    1.003574
    23  H    1.001544
    24  H    1.003120
    25  H    1.002646
    26  H    1.003176
    27  H    1.001955
 Sum of Mulliken charges = 102.00000
 Mulliken charges with hydrogens summed into heavy atoms:
               1
     1  C    6.005953
     2  C    5.997372
     3  C    5.996764
     4  C    6.998449
     5  C    6.996286
     6  O    7.986610
     7  C    6.997163
     8  O    8.998533
    10  C    6.998489
    12  C    7.009023
    14  C    6.997447
    18  N    7.004664
    20  C    9.006868
    21  C    9.006379
 Electronic spatial extent (au):  <R**2>=              7.3284
 Charge=              0.0000 electrons
 Dipole moment (field-independent basis, Debye):
    X=             -0.5193    Y=              0.3215    Z=             -0.1002  Tot=              0.6189
 Quadrupole moment (field-independent basis, Debye-Ang):
   XX=            -10.5190   YY=              2.5664   ZZ=             -1.9044
   XY=              0.9850   XZ=             -5.7216   YZ=              2.7472
 Traceless Quadrupole moment (field-independent basis, Debye-Ang):
   XX=             -7.2334   YY=              5.8521   ZZ=              1.3813
   XY=              0.9850   XZ=             -5.7216   YZ=              2.7472
 Octapole moment (field-independent basis, Debye-Ang**2):
  XXX=           -166.8751  YYY=             16.5348  ZZZ=            -27.2298  XYY=             15.0381
  XXY=            -10.4220  XXZ=           -105.4442  XZZ=            -63.1436  YZZ=             23.9570
  YYZ=             23.0694  XYZ=              7.0870
 Hexadecapole moment (field-independent basis, Debye-Ang**3):
 XXXX=          -2444.1532 YYYY=             99.0405 ZZZZ=           -346.8061 XXXY=           -311.9061
 XXXZ=          -1608.6930 YYYX=            112.9309 YYYZ=            149.2514 ZZZX=           -694.5018
 ZZZY=            213.7323 XXYY=             60.0966 XXZZ=          -1081.5063 YYZZ=            212.8685
 XXYZ=           -114.2286 YYXZ=            133.7537 ZZXY=             48.5199
 N-N= 8.491558134688D+02 E-N=-3.516688006887D-02  KE= 9.096182378395D-05
 Leave Link  601 at Thu Sep 28 12:23:18 2017, MaxMem=  1879048192 cpu:         0.1
 (Enter /share/apps/gaussian/g09_D01/g09/l9999.exe)
 1\1\GINC-NXN37\SP\RwB97XD TD-FC\6-31G(d)\C11H13N1O2\BTX008\28-Sep-2017
 \0\\#p wb97xd 6-31G* td=(nstates=4) nosymm density=(transition=1) pop=
 SaveNTO\\title\\0,1\C,0,12.011662,2.835561,8.940695\C,0,10.699581,3.18
 9033,9.555001\C,0,12.880891,1.964505,9.622993\C,0,12.440624,3.346622,7
 .708734\C,0,9.752684,3.96583,8.840109\O,0,10.456694,2.756977,10.720588
 \C,0,14.128759,1.648274,9.085422\O,0,12.536632,1.411048,10.802287\H,0,
 11.812906,1.711604,11.043929\C,0,13.671781,3.0164,7.184005\H,0,11.8832
 92,3.920804,7.235269\C,0,8.576015,4.323615,9.443515\H,0,9.929493,4.231
 144,7.965919\C,0,14.51287,2.172485,7.876772\H,0,14.702066,1.080404,9.5
 48094\H,0,13.934852,3.363244,6.362158\H,0,8.474043,4.058616,10.329469\
 N,0,7.569783,4.998263,8.922347\H,0,15.345633,1.95672,7.523427\C,0,7.58
 0461,5.447151,7.547927\C,0,6.388193,5.321122,9.722715\H,0,8.118914,6.2
 3836,7.473782\H,0,6.683033,5.64398,7.268725\H,0,7.945997,4.757144,6.98
 9201\H,0,6.502285,4.98122,10.61331\H,0,5.612309,4.919152,9.32469\H,0,6
 .274303,6.274128,9.75531\\Version=ES64L-G09RevD.01\HF=-631.7285891\RMS
 D=8.231e-09\PG=C01 [X(C11H13N1O2)]\\@


 Money is a good servant but a bad master.
                        -- French Proverb
 Job cpu time:       0 days  0 hours  6 minutes 42.3 seconds.
 File lengths (MBytes):  RWF=    119 Int=      0 D2E=      0 Chk=     15 Scr=      1
 Normal termination of Gaussian 09 at Thu Sep 28 12:23:18 2017.
