 Entering Gaussian System, Link 0=g09
 Input=J_HPcrys_dim.com
 Output=J_HPcrys_dim.out
 Initial command:
 /share/apps/gaussian/g09_D01/g09/l1.exe "/tmp/4049086.1.chemistry.q/Gau-9191.inp" -scrdir="/tmp/4049086.1.chemistry.q/"
 Entering Link 1 = /share/apps/gaussian/g09_D01/g09/l1.exe PID=      9194.
  
 Copyright (c) 1988,1990,1992,1993,1995,1998,2003,2009,2013,
            Gaussian, Inc.  All Rights Reserved.
  
 This is part of the Gaussian(R) 09 program.  It is based on
 the Gaussian(R) 03 system (copyright 2003, Gaussian, Inc.),
 the Gaussian(R) 98 system (copyright 1998, Gaussian, Inc.),
 the Gaussian(R) 94 system (copyright 1995, Gaussian, Inc.),
 the Gaussian 92(TM) system (copyright 1992, Gaussian, Inc.),
 the Gaussian 90(TM) system (copyright 1990, Gaussian, Inc.),
 the Gaussian 88(TM) system (copyright 1988, Gaussian, Inc.),
 the Gaussian 86(TM) system (copyright 1986, Carnegie Mellon
 University), and the Gaussian 82(TM) system (copyright 1983,
 Carnegie Mellon University). Gaussian is a federally registered
 trademark of Gaussian, Inc.
  
 This software contains proprietary and confidential information,
 including trade secrets, belonging to Gaussian, Inc.
  
 This software is provided under written license and may be
 used, copied, transmitted, or stored only in accord with that
 written license.
  
 The following legend is applicable only to US Government
 contracts under FAR:
  
                    RESTRICTED RIGHTS LEGEND
  
 Use, reproduction and disclosure by the US Government is
 subject to restrictions as set forth in subparagraphs (a)
 and (c) of the Commercial Computer Software - Restricted
 Rights clause in FAR 52.227-19.
  
 Gaussian, Inc.
 340 Quinnipiac St., Bldg. 40, Wallingford CT 06492
  
  
 ---------------------------------------------------------------
 Warning -- This program may not be used in any manner that
 competes with the business of Gaussian, Inc. or will provide
 assistance to any competitor of Gaussian, Inc.  The licensee
 of this program is prohibited from giving any competitor of
 Gaussian, Inc. access to this program.  By using this program,
 the user acknowledges that Gaussian, Inc. is engaged in the
 business of creating and licensing software in the field of
 computational chemistry and represents and warrants to the
 licensee that it is not a competitor of Gaussian, Inc. and that
 it will not use this program in any manner prohibited above.
 ---------------------------------------------------------------
  

 Cite this work as:
 Gaussian 09, Revision D.01,
 M. J. Frisch, G. W. Trucks, H. B. Schlegel, G. E. Scuseria, 
 M. A. Robb, J. R. Cheeseman, G. Scalmani, V. Barone, B. Mennucci, 
 G. A. Petersson, H. Nakatsuji, M. Caricato, X. Li, H. P. Hratchian, 
 A. F. Izmaylov, J. Bloino, G. Zheng, J. L. Sonnenberg, M. Hada, 
 M. Ehara, K. Toyota, R. Fukuda, J. Hasegawa, M. Ishida, T. Nakajima, 
 Y. Honda, O. Kitao, H. Nakai, T. Vreven, J. A. Montgomery, Jr., 
 J. E. Peralta, F. Ogliaro, M. Bearpark, J. J. Heyd, E. Brothers, 
 K. N. Kudin, V. N. Staroverov, T. Keith, R. Kobayashi, J. Normand, 
 K. Raghavachari, A. Rendell, J. C. Burant, S. S. Iyengar, J. Tomasi, 
 M. Cossi, N. Rega, J. M. Millam, M. Klene, J. E. Knox, J. B. Cross, 
 V. Bakken, C. Adamo, J. Jaramillo, R. Gomperts, R. E. Stratmann, 
 O. Yazyev, A. J. Austin, R. Cammi, C. Pomelli, J. W. Ochterski, 
 R. L. Martin, K. Morokuma, V. G. Zakrzewski, G. A. Voth, 
 P. Salvador, J. J. Dannenberg, S. Dapprich, A. D. Daniels, 
 O. Farkas, J. B. Foresman, J. V. Ortiz, J. Cioslowski, 
 and D. J. Fox, Gaussian, Inc., Wallingford CT, 2013.
 
 ******************************************
 Gaussian 09:  ES64L-G09RevD.01 24-Apr-2013
                28-Sep-2017 
 ******************************************
 %chk=J_HPcrys_dim
 %mem=14GB
 %nproc=2
 Will use up to    2 processors via shared memory.
 ----------------------------------
 #p wb97xd 6-31G* td=(add=2) nosymm
 ----------------------------------
 1/38=1/1;
 2/12=2,15=1,17=6,18=5,40=1/2;
 3/5=1,6=6,7=1,11=9,16=1,25=1,30=1,74=-58/1,2,8,3;
 4//1;
 5/5=2,38=5/2;
 8/6=1,10=2/1;
 9/39=2,42=1,70=2/14;
 6/7=2,8=2,9=2,10=2/1;
 99/5=1,9=1/99;
 Leave Link    1 at Thu Sep 28 12:19:52 2017, MaxMem=  1879048192 cpu:         0.1
 (Enter /share/apps/gaussian/g09_D01/g09/l101.exe)
 -----
 title
 -----
 Symbolic Z-matrix:
 Charge =  0 Multiplicity = 1
 C                     9.46721   2.42444   3.54446 
 C                     8.15513   2.07097   4.15877 
 C                     10.33644   3.2955    4.22676 
 C                     9.89617   1.91338   2.3125 
 C                     7.20823   1.29417   3.44388 
 O                     7.91224   2.50302   5.32436 
 C                     11.58431   3.61173   3.68919 
 O                     9.99218   3.84895   5.40605 
 H                     9.26845   3.5484    5.6477 
 C                     11.12733   2.2436    1.78777 
 H                     9.33884   1.3392    1.83904 
 C                     6.03156   0.93639   4.04728 
 H                     7.38504   1.02886   2.56969 
 C                     11.96841   3.08752   2.48054 
 H                     12.15761   4.1796    4.15186 
 H                     11.3904   1.89676   0.96593 
 H                     5.92959   1.20138   4.93324 
 N                     5.02533   0.26174   3.52611 
 H                     12.80118   3.30328   2.12719 
 C                     5.03601  -0.18715   2.15169 
 C                     3.84374  -0.06112   4.32648 
 H                     5.40154   0.50286   1.59297 
 H                     4.13858  -0.38398   1.87249 
 H                     5.57446  -0.97836   2.07755 
 H                     3.95783   0.27878   5.21708 
 H                     3.72985  -1.01413   4.35908 
 H                     3.06785   0.34085   3.92846 
 C                     12.01166   2.83556   8.94069 
 C                     10.69958   3.18903   9.555 
 C                     12.88089   1.96451   9.62299 
 C                     12.44062   3.34662   7.70873 
 C                     9.75268   3.96583   8.84011 
 O                     10.45669   2.75698   10.72059 
 C                     14.12876   1.64827   9.08542 
 O                     12.53663   1.41105   10.80229 
 H                     11.81291   1.7116    11.04393 
 C                     13.67178   3.0164    7.184 
 H                     11.88329   3.9208    7.23527 
 C                     8.57601   4.32362   9.44351 
 H                     9.92949   4.23114   7.96592 
 C                     14.51287   2.17248   7.87677 
 H                     14.70207   1.0804    9.54809 
 H                     13.93485   3.36324   6.36216 
 H                     8.47404   4.05862   10.32947 
 N                     7.56978   4.99826   8.92235 
 H                     15.34563   1.95672   7.52343 
 C                     7.58046   5.44715   7.54793 
 C                     6.38819   5.32112   9.72272 
 H                     8.11891   6.23836   7.47378 
 H                     6.68303   5.64398   7.26872 
 H                     7.946     4.75714   6.9892 
 H                     6.50229   4.98122   10.61331 
 H                     5.61231   4.91915   9.32469 
 H                     6.2743    6.27413   9.75531 
 
 NAtoms=     54 NQM=       54 NQMF=       0 NMMI=      0 NMMIF=      0
                NMic=       0 NMicF=      0.
                    Isotopes and Nuclear Properties:
 (Nuclear quadrupole moments (NQMom) in fm**2, nuclear magnetic moments (NMagM)
  in nuclear magnetons)

  Atom         1           2           3           4           5           6           7           8           9          10
 IAtWgt=          12          12          12          12          12          16          12          16           1          12
 AtmWgt=  12.0000000  12.0000000  12.0000000  12.0000000  12.0000000  15.9949146  12.0000000  15.9949146   1.0078250  12.0000000
 NucSpn=           0           0           0           0           0           0           0           0           1           0
 AtZEff=   0.0000000   0.0000000   0.0000000   0.0000000   0.0000000   0.0000000   0.0000000   0.0000000   0.0000000   0.0000000
 NQMom=    0.0000000   0.0000000   0.0000000   0.0000000   0.0000000   0.0000000   0.0000000   0.0000000   0.0000000   0.0000000
 NMagM=    0.0000000   0.0000000   0.0000000   0.0000000   0.0000000   0.0000000   0.0000000   0.0000000   2.7928460   0.0000000
 AtZNuc=   6.0000000   6.0000000   6.0000000   6.0000000   6.0000000   8.0000000   6.0000000   8.0000000   1.0000000   6.0000000

  Atom        11          12          13          14          15          16          17          18          19          20
 IAtWgt=           1          12           1          12           1           1           1          14           1          12
 AtmWgt=   1.0078250  12.0000000   1.0078250  12.0000000   1.0078250   1.0078250   1.0078250  14.0030740   1.0078250  12.0000000
 NucSpn=           1           0           1           0           1           1           1           2           1           0
 AtZEff=   0.0000000   0.0000000   0.0000000   0.0000000   0.0000000   0.0000000   0.0000000   0.0000000   0.0000000   0.0000000
 NQMom=    0.0000000   0.0000000   0.0000000   0.0000000   0.0000000   0.0000000   0.0000000   2.0440000   0.0000000   0.0000000
 NMagM=    2.7928460   0.0000000   2.7928460   0.0000000   2.7928460   2.7928460   2.7928460   0.4037610   2.7928460   0.0000000
 AtZNuc=   1.0000000   6.0000000   1.0000000   6.0000000   1.0000000   1.0000000   1.0000000   7.0000000   1.0000000   6.0000000

  Atom        21          22          23          24          25          26          27          28          29          30
 IAtWgt=          12           1           1           1           1           1           1          12          12          12
 AtmWgt=  12.0000000   1.0078250   1.0078250   1.0078250   1.0078250   1.0078250   1.0078250  12.0000000  12.0000000  12.0000000
 NucSpn=           0           1           1           1           1           1           1           0           0           0
 AtZEff=   0.0000000   0.0000000   0.0000000   0.0000000   0.0000000   0.0000000   0.0000000   0.0000000   0.0000000   0.0000000
 NQMom=    0.0000000   0.0000000   0.0000000   0.0000000   0.0000000   0.0000000   0.0000000   0.0000000   0.0000000   0.0000000
 NMagM=    0.0000000   2.7928460   2.7928460   2.7928460   2.7928460   2.7928460   2.7928460   0.0000000   0.0000000   0.0000000
 AtZNuc=   6.0000000   1.0000000   1.0000000   1.0000000   1.0000000   1.0000000   1.0000000   6.0000000   6.0000000   6.0000000

  Atom        31          32          33          34          35          36          37          38          39          40
 IAtWgt=          12          12          16          12          16           1          12           1          12           1
 AtmWgt=  12.0000000  12.0000000  15.9949146  12.0000000  15.9949146   1.0078250  12.0000000   1.0078250  12.0000000   1.0078250
 NucSpn=           0           0           0           0           0           1           0           1           0           1
 AtZEff=   0.0000000   0.0000000   0.0000000   0.0000000   0.0000000   0.0000000   0.0000000   0.0000000   0.0000000   0.0000000
 NQMom=    0.0000000   0.0000000   0.0000000   0.0000000   0.0000000   0.0000000   0.0000000   0.0000000   0.0000000   0.0000000
 NMagM=    0.0000000   0.0000000   0.0000000   0.0000000   0.0000000   2.7928460   0.0000000   2.7928460   0.0000000   2.7928460
 AtZNuc=   6.0000000   6.0000000   8.0000000   6.0000000   8.0000000   1.0000000   6.0000000   1.0000000   6.0000000   1.0000000

  Atom        41          42          43          44          45          46          47          48          49          50
 IAtWgt=          12           1           1           1          14           1          12          12           1           1
 AtmWgt=  12.0000000   1.0078250   1.0078250   1.0078250  14.0030740   1.0078250  12.0000000  12.0000000   1.0078250   1.0078250
 NucSpn=           0           1           1           1           2           1           0           0           1           1
 AtZEff=   0.0000000   0.0000000   0.0000000   0.0000000   0.0000000   0.0000000   0.0000000   0.0000000   0.0000000   0.0000000
 NQMom=    0.0000000   0.0000000   0.0000000   0.0000000   2.0440000   0.0000000   0.0000000   0.0000000   0.0000000   0.0000000
 NMagM=    0.0000000   2.7928460   2.7928460   2.7928460   0.4037610   2.7928460   0.0000000   0.0000000   2.7928460   2.7928460
 AtZNuc=   6.0000000   1.0000000   1.0000000   1.0000000   7.0000000   1.0000000   6.0000000   6.0000000   1.0000000   1.0000000

  Atom        51          52          53          54
 IAtWgt=           1           1           1           1
 AtmWgt=   1.0078250   1.0078250   1.0078250   1.0078250
 NucSpn=           1           1           1           1
 AtZEff=   0.0000000   0.0000000   0.0000000   0.0000000
 NQMom=    0.0000000   0.0000000   0.0000000   0.0000000
 NMagM=    2.7928460   2.7928460   2.7928460   2.7928460
 AtZNuc=   1.0000000   1.0000000   1.0000000   1.0000000
 Leave Link  101 at Thu Sep 28 12:19:53 2017, MaxMem=  1879048192 cpu:         0.2
 (Enter /share/apps/gaussian/g09_D01/g09/l202.exe)
 Symmetry turned off by external request.
 Stoichiometry    C22H26N2O4
 Framework group  C1[X(C22H26N2O4)]
 Deg. of freedom   156
 Full point group                 C1      NOp   1
                          Input orientation:                          
 ---------------------------------------------------------------------
 Center     Atomic      Atomic             Coordinates (Angstroms)
 Number     Number       Type             X           Y           Z
 ---------------------------------------------------------------------
      1          6           0        9.467207    2.424439    3.544461
      2          6           0        8.155126    2.070967    4.158769
      3          6           0       10.336436    3.295495    4.226761
      4          6           0        9.896170    1.913378    2.312501
      5          6           0        7.208229    1.294170    3.443876
      6          8           0        7.912238    2.503024    5.324355
      7          6           0       11.584305    3.611727    3.689188
      8          8           0        9.992177    3.848953    5.406054
      9          1           0        9.268451    3.548396    5.647697
     10          6           0       11.127325    2.243600    1.787772
     11          1           0        9.338838    1.339196    1.839036
     12          6           0        6.031561    0.936385    4.047283
     13          1           0        7.385039    1.028856    2.569686
     14          6           0       11.968414    3.087515    2.480540
     15          1           0       12.157612    4.179596    4.151861
     16          1           0       11.390398    1.896756    0.965926
     17          1           0        5.929588    1.201384    4.933236
     18          7           0        5.025329    0.261738    3.526114
     19          1           0       12.801178    3.303280    2.127195
     20          6           0        5.036006   -0.187151    2.151694
     21          6           0        3.843738   -0.061121    4.326484
     22          1           0        5.401543    0.502856    1.592968
     23          1           0        4.138578   -0.383980    1.872493
     24          1           0        5.574460   -0.978360    2.077549
     25          1           0        3.957830    0.278780    5.217078
     26          1           0        3.729849   -1.014129    4.359076
     27          1           0        3.067854    0.340848    3.928457
     28          6           0       12.011662    2.835561    8.940695
     29          6           0       10.699581    3.189033    9.555001
     30          6           0       12.880891    1.964505    9.622993
     31          6           0       12.440624    3.346622    7.708734
     32          6           0        9.752684    3.965830    8.840109
     33          8           0       10.456694    2.756977   10.720588
     34          6           0       14.128759    1.648274    9.085422
     35          8           0       12.536632    1.411048   10.802287
     36          1           0       11.812906    1.711604   11.043929
     37          6           0       13.671781    3.016400    7.184005
     38          1           0       11.883292    3.920804    7.235269
     39          6           0        8.576015    4.323615    9.443515
     40          1           0        9.929493    4.231144    7.965919
     41          6           0       14.512870    2.172485    7.876772
     42          1           0       14.702066    1.080404    9.548094
     43          1           0       13.934852    3.363244    6.362158
     44          1           0        8.474043    4.058616   10.329469
     45          7           0        7.569783    4.998263    8.922347
     46          1           0       15.345633    1.956720    7.523427
     47          6           0        7.580461    5.447151    7.547927
     48          6           0        6.388193    5.321122    9.722715
     49          1           0        8.118914    6.238360    7.473782
     50          1           0        6.683033    5.643980    7.268725
     51          1           0        7.945997    4.757144    6.989201
     52          1           0        6.502285    4.981220   10.613310
     53          1           0        5.612309    4.919152    9.324690
     54          1           0        6.274303    6.274128    9.755310
 ---------------------------------------------------------------------
 Rotational constants (GHZ):      0.1816466      0.0970332      0.0759032
 Leave Link  202 at Thu Sep 28 12:19:53 2017, MaxMem=  1879048192 cpu:         0.0
 (Enter /share/apps/gaussian/g09_D01/g09/l301.exe)
 Standard basis: 6-31G(d) (6D, 7F)
 Ernie: Thresh=  0.10000D-02 Tol=  0.10000D-05 Strict=F.
   472 basis functions,   888 primitive gaussians,   472 cartesian basis functions
   102 alpha electrons      102 beta electrons
       nuclear repulsion energy      2506.8416252793 Hartrees.
 IExCor= 4639 DFT=T Ex+Corr=wB97XD ExCW=0 ScaHFX=  1.000000
 ScaDFX=  1.000000  1.000000  1.000000  1.000000 ScalE2=  1.000000  1.000000
 IRadAn=      0 IRanWt=     -1 IRanGd=            0 ICorTp=0 IEmpDi=121
  HFx wShort=  0.000000 wLong=  0.200000 cFull=  0.222036 cShort=  0.000000 cLong=  0.777964
  DFx wShort=  0.000000 wLong=  0.200000 cFull=  0.000000 cShort=  0.000000 cLong=  1.000000
 NAtoms=   54 NActive=   54 NUniq=   54 SFac= 1.00D+00 NAtFMM=   60 NAOKFM=F Big=F
 Integral buffers will be    131072 words long.
 Raffenetti 1 integral format.
 Two-electron integral symmetry is turned off.
 R6Disp:  Grimme-D2 Dispersion energy=       -0.0362235016 Hartrees.
 Nuclear repulsion after empirical dispersion term =     2506.8054017777 Hartrees.
 Leave Link  301 at Thu Sep 28 12:19:53 2017, MaxMem=  1879048192 cpu:         0.1
 (Enter /share/apps/gaussian/g09_D01/g09/l302.exe)
 NPDir=0 NMtPBC=     1 NCelOv=     1 NCel=       1 NClECP=     1 NCelD=      1
         NCelK=      1 NCelE2=     1 NClLst=     1 CellRange=     0.0.
 One-electron integrals computed using PRISM.
 NBasis=   472 RedAO= T EigKep=  3.38D-04  NBF=   472
 NBsUse=   472 1.00D-06 EigRej= -1.00D+00 NBFU=   472
 Precomputing XC quadrature grid using
 IXCGrd= 4 IRadAn=           0 IRanWt=          -1 IRanGd=           0 AccXCQ= 0.00D+00.
 Generated NRdTot=       0 NPtTot=           0 NUsed=           0 NTot=          32
 NSgBfM=   461   462   462   462   462 MxSgAt=    54 MxSgA2=    54.
 Leave Link  302 at Thu Sep 28 12:19:54 2017, MaxMem=  1879048192 cpu:         2.4
 (Enter /share/apps/gaussian/g09_D01/g09/l308.exe)
 Leave Link  308 at Thu Sep 28 12:19:54 2017, MaxMem=  1879048192 cpu:         0.1
 (Enter /share/apps/gaussian/g09_D01/g09/l303.exe)
 DipDrv:  MaxL=1.
 Leave Link  303 at Thu Sep 28 12:19:54 2017, MaxMem=  1879048192 cpu:         0.1
 (Enter /share/apps/gaussian/g09_D01/g09/l401.exe)
 ExpMin= 1.61D-01 ExpMax= 5.48D+03 ExpMxC= 8.25D+02 IAcc=1 IRadAn=         1 AccDes= 0.00D+00
 Harris functional with IExCor= 4639 and IRadAn=       1 diagonalized for initial guess.
 HarFok:  IExCor= 4639 AccDes= 0.00D+00 IRadAn=         1 IDoV= 1 UseB2=F ITyADJ=14
 ICtDFT=  3500011 ScaDFX=  1.000000  1.000000  1.000000  1.000000
 FoFCou: FMM=F IPFlag=           0 FMFlag=      100000 FMFlg1=           0
         NFxFlg=           0 DoJE=T BraDBF=F KetDBF=T FulRan=T
         wScrn=  0.000000 ICntrl=     500 IOpCl=  0 I1Cent=   200000004 NGrid=           0
         NMat0=    1 NMatS0=      1 NMatT0=    0 NMatD0=    1 NMtDS0=    0 NMtDT0=    0
 Symmetry not used in FoFCou.
 Harris En= -1208.92312959960    
 JPrj=0 DoOrth=F DoCkMO=F.
 Leave Link  401 at Thu Sep 28 12:19:57 2017, MaxMem=  1879048192 cpu:         6.5
 (Enter /share/apps/gaussian/g09_D01/g09/l502.exe)
 Closed shell SCF:
 Using DIIS extrapolation, IDIIS=  1040.
 Two-electron integral symmetry not used.
 IVT=      692674 IEndB=      692674 NGot=  1879048192 MDV=  1878595415
 LenX=  1878595415 LenY=  1878372159
 Requested convergence on RMS density matrix=1.00D-08 within 128 cycles.
 Requested convergence on MAX density matrix=1.00D-06.
 Requested convergence on             energy=1.00D-06.
 No special actions if energy rises.
 Fock matrices will be formed incrementally for  20 cycles.
 Integral accuracy reduced to 1.0D-05 until final iterations.

 Cycle   1  Pass 0  IDiag  1:
 FoFJK:  IHMeth= 1 ICntrl=       0 DoSepK=T KAlg= 0 I1Cent=   0 FoldK=F
 IRaf=         1 NMat=   1 IRICut=       1 DoRegI=T DoRafI=F ISym2E= 0.
 FoFCou: FMM=F IPFlag=           0 FMFlag=      100000 FMFlg1=           0
         NFxFlg=           0 DoJE=T BraDBF=F KetDBF=F FulRan=T
         wScrn=  0.000000 ICntrl=     500 IOpCl=  0 I1Cent=           0 NGrid=           0
         NMat0=    1 NMatS0=      1 NMatT0=    0 NMatD0=    1 NMtDS0=    0 NMtDT0=    0
 Symmetry not used in FoFCou.
 E= -1262.97016738891    
 DIIS: error= 5.43D-02 at cycle   1 NSaved=   1.
 NSaved= 1 IEnMin= 1 EnMin= -1262.97016738891     IErMin= 1 ErrMin= 5.43D-02
 ErrMax= 5.43D-02  0.00D+00 EMaxC= 1.00D-01 BMatC= 1.31D+00 BMatP= 1.31D+00
 IDIUse=3 WtCom= 4.57D-01 WtEn= 5.43D-01
 Coeff-Com:  0.100D+01
 Coeff-En:   0.100D+01
 Coeff:      0.100D+01
 Gap=     0.364 Goal=   None    Shift=    0.000
 GapD=    0.364 DampG=1.000 DampE=0.500 DampFc=0.5000 IDamp=-1.
 Damping current iteration by 5.00D-01
 RMSDP=2.81D-03 MaxDP=1.61D-01              OVMax= 1.85D-01

 Cycle   2  Pass 0  IDiag  1:
 RMSU=  1.41D-03    CP:  9.96D-01
 E= -1263.20133518990     Delta-E=       -0.231167800989 Rises=F Damp=T
 DIIS: error= 2.90D-02 at cycle   2 NSaved=   2.
 NSaved= 2 IEnMin= 2 EnMin= -1263.20133518990     IErMin= 2 ErrMin= 2.90D-02
 ErrMax= 2.90D-02  0.00D+00 EMaxC= 1.00D-01 BMatC= 2.46D-01 BMatP= 1.31D+00
 IDIUse=3 WtCom= 7.10D-01 WtEn= 2.90D-01
 Coeff-Com: -0.295D+00 0.130D+01
 Coeff-En:   0.000D+00 0.100D+01
 Coeff:     -0.210D+00 0.121D+01
 Gap=     0.308 Goal=   None    Shift=    0.000
 RMSDP=1.04D-03 MaxDP=4.84D-02 DE=-2.31D-01 OVMax= 1.65D-01

 Cycle   3  Pass 0  IDiag  1:
 RMSU=  1.03D-03    CP:  9.97D-01  1.09D+00
 E= -1263.41197062507     Delta-E=       -0.210635435178 Rises=F Damp=F
 DIIS: error= 9.54D-03 at cycle   3 NSaved=   3.
 NSaved= 3 IEnMin= 3 EnMin= -1263.41197062507     IErMin= 3 ErrMin= 9.54D-03
 ErrMax= 9.54D-03  0.00D+00 EMaxC= 1.00D-01 BMatC= 6.48D-02 BMatP= 2.46D-01
 IDIUse=3 WtCom= 9.05D-01 WtEn= 9.54D-02
 Coeff-Com: -0.246D+00 0.520D+00 0.725D+00
 Coeff-En:   0.000D+00 0.000D+00 0.100D+01
 Coeff:     -0.222D+00 0.471D+00 0.752D+00
 Gap=     0.282 Goal=   None    Shift=    0.000
 RMSDP=5.82D-04 MaxDP=4.27D-02 DE=-2.11D-01 OVMax= 5.98D-02

 Cycle   4  Pass 0  IDiag  1:
 RMSU=  2.79D-04    CP:  9.95D-01  1.39D+00  7.19D-01
 E= -1263.46248139638     Delta-E=       -0.050510771302 Rises=F Damp=F
 DIIS: error= 2.75D-03 at cycle   4 NSaved=   4.
 NSaved= 4 IEnMin= 4 EnMin= -1263.46248139638     IErMin= 4 ErrMin= 2.75D-03
 ErrMax= 2.75D-03  0.00D+00 EMaxC= 1.00D-01 BMatC= 6.68D-03 BMatP= 6.48D-02
 IDIUse=3 WtCom= 9.73D-01 WtEn= 2.75D-02
 Coeff-Com: -0.104D+00 0.211D+00 0.402D+00 0.492D+00
 Coeff-En:   0.000D+00 0.000D+00 0.000D+00 0.100D+01
 Coeff:     -0.101D+00 0.205D+00 0.391D+00 0.506D+00
 Gap=     0.274 Goal=   None    Shift=    0.000
 RMSDP=1.64D-04 MaxDP=8.03D-03 DE=-5.05D-02 OVMax= 1.20D-02

 Cycle   5  Pass 0  IDiag  1:
 RMSU=  1.01D-04    CP:  9.95D-01  1.35D+00  7.89D-01  6.53D-01
 E= -1263.46783855740     Delta-E=       -0.005357161023 Rises=F Damp=F
 DIIS: error= 5.66D-04 at cycle   5 NSaved=   5.
 NSaved= 5 IEnMin= 5 EnMin= -1263.46783855740     IErMin= 5 ErrMin= 5.66D-04
 ErrMax= 5.66D-04  0.00D+00 EMaxC= 1.00D-01 BMatC= 1.95D-04 BMatP= 6.68D-03
 IDIUse=3 WtCom= 9.94D-01 WtEn= 5.66D-03
 Coeff-Com: -0.197D-01 0.385D-01 0.104D+00 0.196D+00 0.680D+00
 Coeff-En:   0.000D+00 0.000D+00 0.000D+00 0.000D+00 0.100D+01
 Coeff:     -0.196D-01 0.383D-01 0.104D+00 0.195D+00 0.682D+00
 Gap=     0.274 Goal=   None    Shift=    0.000
 RMSDP=4.49D-05 MaxDP=1.88D-03 DE=-5.36D-03 OVMax= 2.35D-03

 Cycle   6  Pass 0  IDiag  1:
 RMSU=  3.51D-05    CP:  9.95D-01  1.36D+00  7.96D-01  7.46D-01  1.03D+00
 E= -1263.46804012636     Delta-E=       -0.000201568957 Rises=F Damp=F
 DIIS: error= 2.35D-04 at cycle   6 NSaved=   6.
 NSaved= 6 IEnMin= 6 EnMin= -1263.46804012636     IErMin= 6 ErrMin= 2.35D-04
 ErrMax= 2.35D-04  0.00D+00 EMaxC= 1.00D-01 BMatC= 3.25D-05 BMatP= 1.95D-04
 IDIUse=3 WtCom= 9.98D-01 WtEn= 2.35D-03
 Coeff-Com:  0.185D-01-0.380D-01-0.523D-01-0.514D-01 0.242D+00 0.881D+00
 Coeff-En:   0.000D+00 0.000D+00 0.000D+00 0.000D+00 0.000D+00 0.100D+01
 Coeff:      0.185D-01-0.379D-01-0.522D-01-0.513D-01 0.241D+00 0.882D+00
 Gap=     0.275 Goal=   None    Shift=    0.000
 RMSDP=2.56D-05 MaxDP=9.89D-04 DE=-2.02D-04 OVMax= 3.68D-03

 Cycle   7  Pass 0  IDiag  1:
 RMSU=  1.40D-05    CP:  9.95D-01  1.36D+00  8.05D-01  7.81D-01  1.20D+00
                    CP:  1.02D+00
 E= -1263.46809906002     Delta-E=       -0.000058933666 Rises=F Damp=F
 DIIS: error= 7.63D-05 at cycle   7 NSaved=   7.
 NSaved= 7 IEnMin= 7 EnMin= -1263.46809906002     IErMin= 7 ErrMin= 7.63D-05
 ErrMax= 7.63D-05  0.00D+00 EMaxC= 1.00D-01 BMatC= 5.37D-06 BMatP= 3.25D-05
 IDIUse=1 WtCom= 1.00D+00 WtEn= 0.00D+00
 Coeff-Com:  0.970D-02-0.198D-01-0.308D-01-0.413D-01 0.193D-01 0.381D+00
 Coeff-Com:  0.682D+00
 Coeff:      0.970D-02-0.198D-01-0.308D-01-0.413D-01 0.193D-01 0.381D+00
 Coeff:      0.682D+00
 Gap=     0.275 Goal=   None    Shift=    0.000
 RMSDP=9.64D-06 MaxDP=3.35D-04 DE=-5.89D-05 OVMax= 7.79D-04

 Initial convergence to 1.0D-05 achieved.  Increase integral accuracy.
 Cycle   8  Pass 1  IDiag  1:
 E= -1263.46672921549     Delta-E=        0.001369844534 Rises=F Damp=F
 DIIS: error= 7.72D-05 at cycle   1 NSaved=   1.
 NSaved= 1 IEnMin= 1 EnMin= -1263.46672921549     IErMin= 1 ErrMin= 7.72D-05
 ErrMax= 7.72D-05  0.00D+00 EMaxC= 1.00D-01 BMatC= 1.22D-05 BMatP= 1.22D-05
 IDIUse=1 WtCom= 1.00D+00 WtEn= 0.00D+00
 Coeff-Com:  0.100D+01
 Coeff:      0.100D+01
 Gap=     0.275 Goal=   None    Shift=    0.000
 RMSDP=9.64D-06 MaxDP=3.35D-04 DE= 1.37D-03 OVMax= 5.68D-04

 Cycle   9  Pass 1  IDiag  1:
 RMSU=  4.43D-05    CP:  1.00D+00
 E= -1263.46673936492     Delta-E=       -0.000010149433 Rises=F Damp=F
 DIIS: error= 3.09D-05 at cycle   2 NSaved=   2.
 NSaved= 2 IEnMin= 2 EnMin= -1263.46673936492     IErMin= 2 ErrMin= 3.09D-05
 ErrMax= 3.09D-05  0.00D+00 EMaxC= 1.00D-01 BMatC= 8.00D-07 BMatP= 1.22D-05
 IDIUse=1 WtCom= 1.00D+00 WtEn= 0.00D+00
 Coeff-Com:  0.391D-01 0.961D+00
 Coeff:      0.391D-01 0.961D+00
 Gap=     0.275 Goal=   None    Shift=    0.000
 RMSDP=4.65D-06 MaxDP=1.80D-04 DE=-1.01D-05 OVMax= 3.48D-04

 Cycle  10  Pass 1  IDiag  1:
 RMSU=  4.20D-06    CP:  1.00D+00  1.04D+00
 E= -1263.46673962049     Delta-E=       -0.000000255569 Rises=F Damp=F
 DIIS: error= 2.53D-05 at cycle   3 NSaved=   3.
 NSaved= 3 IEnMin= 3 EnMin= -1263.46673962049     IErMin= 3 ErrMin= 2.53D-05
 ErrMax= 2.53D-05  0.00D+00 EMaxC= 1.00D-01 BMatC= 7.30D-07 BMatP= 8.00D-07
 IDIUse=1 WtCom= 1.00D+00 WtEn= 0.00D+00
 Coeff-Com: -0.445D-01 0.502D+00 0.543D+00
 Coeff:     -0.445D-01 0.502D+00 0.543D+00
 Gap=     0.275 Goal=   None    Shift=    0.000
 RMSDP=1.99D-06 MaxDP=8.47D-05 DE=-2.56D-07 OVMax= 2.08D-04

 Cycle  11  Pass 1  IDiag  1:
 RMSU=  1.23D-06    CP:  1.00D+00  1.05D+00  6.38D-01
 E= -1263.46674035732     Delta-E=       -0.000000736829 Rises=F Damp=F
 DIIS: error= 4.68D-06 at cycle   4 NSaved=   4.
 NSaved= 4 IEnMin= 4 EnMin= -1263.46674035732     IErMin= 4 ErrMin= 4.68D-06
 ErrMax= 4.68D-06  0.00D+00 EMaxC= 1.00D-01 BMatC= 1.68D-08 BMatP= 7.30D-07
 IDIUse=1 WtCom= 1.00D+00 WtEn= 0.00D+00
 Coeff-Com: -0.116D-01 0.592D-01 0.136D+00 0.816D+00
 Coeff:     -0.116D-01 0.592D-01 0.136D+00 0.816D+00
 Gap=     0.275 Goal=   None    Shift=    0.000
 RMSDP=5.98D-07 MaxDP=2.19D-05 DE=-7.37D-07 OVMax= 5.43D-05

 Cycle  12  Pass 1  IDiag  1:
 RMSU=  4.09D-07    CP:  1.00D+00  1.05D+00  7.23D-01  1.20D+00
 E= -1263.46674038729     Delta-E=       -0.000000029971 Rises=F Damp=F
 DIIS: error= 2.51D-06 at cycle   5 NSaved=   5.
 NSaved= 5 IEnMin= 5 EnMin= -1263.46674038729     IErMin= 5 ErrMin= 2.51D-06
 ErrMax= 2.51D-06  0.00D+00 EMaxC= 1.00D-01 BMatC= 3.94D-09 BMatP= 1.68D-08
 IDIUse=1 WtCom= 1.00D+00 WtEn= 0.00D+00
 Coeff-Com:  0.442D-02-0.761D-01-0.447D-01 0.316D+00 0.801D+00
 Coeff:      0.442D-02-0.761D-01-0.447D-01 0.316D+00 0.801D+00
 Gap=     0.275 Goal=   None    Shift=    0.000
 RMSDP=3.15D-07 MaxDP=1.15D-05 DE=-3.00D-08 OVMax= 5.38D-05

 Cycle  13  Pass 1  IDiag  1:
 RMSU=  1.70D-07    CP:  1.00D+00  1.05D+00  7.59D-01  1.38D+00  1.01D+00
 E= -1263.46674039801     Delta-E=       -0.000000010716 Rises=F Damp=F
 DIIS: error= 1.25D-06 at cycle   6 NSaved=   6.
 NSaved= 6 IEnMin= 6 EnMin= -1263.46674039801     IErMin= 6 ErrMin= 1.25D-06
 ErrMax= 1.25D-06  0.00D+00 EMaxC= 1.00D-01 BMatC= 9.87D-10 BMatP= 3.94D-09
 IDIUse=1 WtCom= 1.00D+00 WtEn= 0.00D+00
 Coeff-Com:  0.357D-02-0.389D-01-0.386D-01-0.477D-01 0.321D+00 0.801D+00
 Coeff:      0.357D-02-0.389D-01-0.386D-01-0.477D-01 0.321D+00 0.801D+00
 Gap=     0.275 Goal=   None    Shift=    0.000
 RMSDP=1.70D-07 MaxDP=5.54D-06 DE=-1.07D-08 OVMax= 2.15D-05

 Cycle  14  Pass 1  IDiag  1:
 RMSU=  7.83D-08    CP:  1.00D+00  1.05D+00  7.74D-01  1.47D+00  1.21D+00
                    CP:  1.12D+00
 E= -1263.46674040035     Delta-E=       -0.000000002340 Rises=F Damp=F
 DIIS: error= 7.04D-07 at cycle   7 NSaved=   7.
 NSaved= 7 IEnMin= 7 EnMin= -1263.46674040035     IErMin= 7 ErrMin= 7.04D-07
 ErrMax= 7.04D-07  0.00D+00 EMaxC= 1.00D-01 BMatC= 1.59D-10 BMatP= 9.87D-10
 IDIUse=1 WtCom= 1.00D+00 WtEn= 0.00D+00
 Coeff-Com:  0.490D-03 0.632D-03-0.586D-02-0.975D-01-0.371D-01 0.331D+00
 Coeff-Com:  0.809D+00
 Coeff:      0.490D-03 0.632D-03-0.586D-02-0.975D-01-0.371D-01 0.331D+00
 Coeff:      0.809D+00
 Gap=     0.275 Goal=   None    Shift=    0.000
 RMSDP=7.40D-08 MaxDP=1.50D-06 DE=-2.34D-09 OVMax= 1.20D-05

 Cycle  15  Pass 1  IDiag  1:
 RMSU=  3.15D-08    CP:  1.00D+00  1.05D+00  7.81D-01  1.50D+00  1.28D+00
                    CP:  1.34D+00  1.01D+00
 E= -1263.46674040090     Delta-E=       -0.000000000549 Rises=F Damp=F
 DIIS: error= 1.68D-07 at cycle   8 NSaved=   8.
 NSaved= 8 IEnMin= 8 EnMin= -1263.46674040090     IErMin= 8 ErrMin= 1.68D-07
 ErrMax= 1.68D-07  0.00D+00 EMaxC= 1.00D-01 BMatC= 2.61D-11 BMatP= 1.59D-10
 IDIUse=1 WtCom= 1.00D+00 WtEn= 0.00D+00
 Coeff-Com: -0.305D-03 0.614D-02 0.355D-02-0.316D-01-0.594D-01 0.253D-01
 Coeff-Com:  0.326D+00 0.730D+00
 Coeff:     -0.305D-03 0.614D-02 0.355D-02-0.316D-01-0.594D-01 0.253D-01
 Coeff:      0.326D+00 0.730D+00
 Gap=     0.275 Goal=   None    Shift=    0.000
 RMSDP=2.12D-08 MaxDP=7.61D-07 DE=-5.49D-10 OVMax= 2.78D-06

 Cycle  16  Pass 1  IDiag  1:
 RMSU=  1.20D-08    CP:  1.00D+00  1.05D+00  7.82D-01  1.50D+00  1.30D+00
                    CP:  1.40D+00  1.16D+00  1.06D+00
 E= -1263.46674040088     Delta-E=        0.000000000020 Rises=F Damp=F
 DIIS: error= 6.69D-08 at cycle   9 NSaved=   9.
 NSaved= 9 IEnMin= 8 EnMin= -1263.46674040090     IErMin= 9 ErrMin= 6.69D-08
 ErrMax= 6.69D-08  0.00D+00 EMaxC= 1.00D-01 BMatC= 4.89D-12 BMatP= 2.61D-11
 IDIUse=1 WtCom= 1.00D+00 WtEn= 0.00D+00
 Coeff-Com: -0.243D-03 0.266D-02 0.261D-02 0.567D-02-0.246D-01-0.557D-01
 Coeff-Com: -0.139D-01 0.308D+00 0.776D+00
 Coeff:     -0.243D-03 0.266D-02 0.261D-02 0.567D-02-0.246D-01-0.557D-01
 Coeff:     -0.139D-01 0.308D+00 0.776D+00
 Gap=     0.275 Goal=   None    Shift=    0.000
 RMSDP=1.05D-08 MaxDP=3.03D-07 DE= 1.96D-11 OVMax= 1.79D-06

 Cycle  17  Pass 1  IDiag  1:
 RMSU=  5.12D-09    CP:  1.00D+00  1.05D+00  7.82D-01  1.50D+00  1.30D+00
                    CP:  1.43D+00  1.22D+00  1.25D+00  1.03D+00
 E= -1263.46674040087     Delta-E=        0.000000000009 Rises=F Damp=F
 DIIS: error= 2.22D-08 at cycle  10 NSaved=  10.
 NSaved=10 IEnMin= 8 EnMin= -1263.46674040090     IErMin=10 ErrMin= 2.22D-08
 ErrMax= 2.22D-08  0.00D+00 EMaxC= 1.00D-01 BMatC= 5.58D-13 BMatP= 4.89D-12
 IDIUse=1 WtCom= 1.00D+00 WtEn= 0.00D+00
 Coeff-Com:  0.110D-04-0.469D-03-0.285D-03 0.573D-02 0.327D-02-0.434D-02
 Coeff-Com: -0.448D-01-0.859D-01 0.127D+00 0.100D+01
 Coeff:      0.110D-04-0.469D-03-0.285D-03 0.573D-02 0.327D-02-0.434D-02
 Coeff:     -0.448D-01-0.859D-01 0.127D+00 0.100D+01
 Gap=     0.275 Goal=   None    Shift=    0.000
 RMSDP=4.38D-09 MaxDP=1.17D-07 DE= 9.09D-12 OVMax= 6.60D-07

 SCF Done:  E(RwB97XD) =  -1263.46674040     A.U. after   17 cycles
            NFock= 17  Conv=0.44D-08     -V/T= 2.0033
 KE= 1.259316381300D+03 PE=-7.960347991858D+03 EE= 2.930759468380D+03
 Leave Link  502 at Thu Sep 28 12:24:56 2017, MaxMem=  1879048192 cpu:       597.7
 (Enter /share/apps/gaussian/g09_D01/g09/l801.exe)
 DoSCS=F DFT=T ScalE2(SS,OS)=  1.000000  1.000000
 ExpMin= 1.61D-01 ExpMax= 5.48D+03 ExpMxC= 8.25D+02 IAcc=3 IRadAn=         5 AccDes= 0.00D+00
 HarFok:  IExCor=  205 AccDes= 0.00D+00 IRadAn=         5 IDoV=-2 UseB2=F ITyADJ=14
 ICtDFT= 12500011 ScaDFX=  1.000000  1.000000  1.000000  1.000000
 Largest valence mixing into a core orbital is  7.26D-05
 Largest core mixing into a valence orbital is  1.27D-05
 Range of M.O.s used for correlation:    29   472
 NBasis=   472 NAE=   102 NBE=   102 NFC=    28 NFV=     0
 NROrb=    444 NOA=    74 NOB=    74 NVA=   370 NVB=   370
 Leave Link  801 at Thu Sep 28 12:24:57 2017, MaxMem=  1879048192 cpu:         1.5
 (Enter /share/apps/gaussian/g09_D01/g09/l914.exe)
 RHF ground state
 MDV=  1879048192 DFT=T DoStab=F Mixed=T DoRPA=T DoScal=F NonHer=T
 Would need an additional         35556700000 words for in-memory AO integral storage.
 Making orbital integer symmetry assigments:
 Restoring state from the checkpoint file.
    2 states for AA,BB on restart file.
     2 initial guesses have been made.
 Convergence on wavefunction:    0.001000000000000
 Davidson Disk Diagonalization:  ConvIn= 1.00D-03 SkipCon=T Conv= 1.00D-03.
 Max sub-space:   200 roots to seek:     4 dimension of matrix:        54760
 Iteration     1 Dimension     6 NMult     0 NNew      6
 CISAX will form     6 AO SS matrices at one time.
 NMat=     6 NSing=     6 JSym2X= 0.
 FoFJK:  IHMeth= 1 ICntrl=       0 DoSepK=T KAlg= 0 I1Cent=   0 FoldK=F
 IRaf=         1 NMat=  12 IRICut=       1 DoRegI=T DoRafI=F ISym2E= 0.
 FoFCou: FMM=F IPFlag=           0 FMFlag=      100000 FMFlg1=           0
         NFxFlg=           0 DoJE=F BraDBF=F KetDBF=F FulRan=T
         wScrn=  0.000000 ICntrl=     500 IOpCl=  0 I1Cent=           0 NGrid=           0
         NMat0=    6 NMatS0=      6 NMatT0=    0 NMatD0=    6 NMtDS0=    0 NMtDT0=    0
 Symmetry not used in FoFCou.
 New state      3 was old state      4
 New state      4 was old state      3
 Excitation Energies [eV] at current iteration:
 Root      1 :     4.071600903346548
 Root      2 :     4.098412042825362
 Root      3 :     5.076135479557689
 Root      4 :     5.091700901371083
 Iteration     2 Dimension    14 NMult     6 NNew      8
 CISAX will form     8 AO SS matrices at one time.
 NMat=     8 NSing=     8 JSym2X= 0.
 Root      1 has converged.
 Root      2 has converged.
 New state      3 was old state      4
 Root      3 not converged, maximum delta is    0.059290479878365
 New state      4 was old state      3
 Root      4 not converged, maximum delta is    0.058949131690257
 Excitation Energies [eV] at current iteration:
 Root      1 :     4.071597760109205   Change is   -0.000003143237342
 Root      2 :     4.098411304293190   Change is   -0.000000738532171
 Root      3 :     4.508934061951889   Change is   -0.582766839419194
 Root      4 :     4.515671404174777   Change is   -0.560464075382912
 Iteration     3 Dimension    18 NMult    14 NNew      4
 CISAX will form     4 AO SS matrices at one time.
 NMat=     4 NSing=     4 JSym2X= 0.
 Root      1 has converged.
 Root      2 has converged.
 Root      3 not converged, maximum delta is    0.045356699181216
 Root      4 not converged, maximum delta is    0.045508795840334
 Excitation Energies [eV] at current iteration:
 Root      1 :     4.071597757212962   Change is   -0.000000002896244
 Root      2 :     4.098411298826719   Change is   -0.000000005466471
 Root      3 :     4.442077171662070   Change is   -0.066856890289820
 Root      4 :     4.457071593050480   Change is   -0.058599811124297
 Iteration     4 Dimension    22 NMult    18 NNew      4
 CISAX will form     4 AO SS matrices at one time.
 NMat=     4 NSing=     4 JSym2X= 0.
 Root      1 has converged.
 Root      2 has converged.
 Root      3 not converged, maximum delta is    0.032807750465568
 Root      4 not converged, maximum delta is    0.034433115352516
 Excitation Energies [eV] at current iteration:
 Root      1 :     4.071597739677411   Change is   -0.000000017535552
 Root      2 :     4.098411281728310   Change is   -0.000000017098409
 Root      3 :     4.425079177246690   Change is   -0.016997994415380
 Root      4 :     4.438588973806397   Change is   -0.018482619244083
 Iteration     5 Dimension    26 NMult    22 NNew      4
 CISAX will form     4 AO SS matrices at one time.
 NMat=     4 NSing=     4 JSym2X= 0.
 Root      1 has converged.
 Root      2 has converged.
 Root      3 not converged, maximum delta is    0.045579800844648
 Root      4 not converged, maximum delta is    0.045395989596140
 Excitation Energies [eV] at current iteration:
 Root      1 :     4.071597718735159   Change is   -0.000000020942251
 Root      2 :     4.098411267234101   Change is   -0.000000014494209
 Root      3 :     4.412402280838624   Change is   -0.012676896408065
 Root      4 :     4.426341800145663   Change is   -0.012247173660734
 Iteration     6 Dimension    30 NMult    26 NNew      4
 CISAX will form     4 AO SS matrices at one time.
 NMat=     4 NSing=     4 JSym2X= 0.
 Root      1 has converged.
 Root      2 has converged.
 Root      3 not converged, maximum delta is    0.025436242152811
 Root      4 not converged, maximum delta is    0.026436778989239
 Excitation Energies [eV] at current iteration:
 Root      1 :     4.071597707741544   Change is   -0.000000010993615
 Root      2 :     4.098411263733071   Change is   -0.000000003501030
 Root      3 :     4.408523151040422   Change is   -0.003879129798202
 Root      4 :     4.421832576474634   Change is   -0.004509223671029
 Iteration     7 Dimension    34 NMult    30 NNew      4
 CISAX will form     4 AO SS matrices at one time.
 NMat=     4 NSing=     4 JSym2X= 0.
 Root      1 has converged.
 Root      2 has converged.
 Root      3 not converged, maximum delta is    0.009183115806072
 Root      4 not converged, maximum delta is    0.010860946291862
 Excitation Energies [eV] at current iteration:
 Root      1 :     4.071597690387827   Change is   -0.000000017353717
 Root      2 :     4.098411257440997   Change is   -0.000000006292074
 Root      3 :     4.407740441797912   Change is   -0.000782709242510
 Root      4 :     4.420823581230195   Change is   -0.001008995244439
 Iteration     8 Dimension    38 NMult    34 NNew      4
 CISAX will form     4 AO SS matrices at one time.
 NMat=     4 NSing=     4 JSym2X= 0.
 Root      1 has converged.
 Root      2 has converged.
 Root      3 not converged, maximum delta is    0.001133460496794
 Root      4 not converged, maximum delta is    0.001516409626498
 Excitation Energies [eV] at current iteration:
 Root      1 :     4.071597675872568   Change is   -0.000000014515259
 Root      2 :     4.098411245932459   Change is   -0.000000011508538
 Root      3 :     4.407660190377436   Change is   -0.000080251420475
 Root      4 :     4.420695366239256   Change is   -0.000128214990939
 Iteration     9 Dimension    42 NMult    38 NNew      4
 CISAX will form     4 AO SS matrices at one time.
 NMat=     4 NSing=     4 JSym2X= 0.
 Root      1 has converged.
 Root      2 has converged.
 Root      3 has converged.
 Root      4 has converged.
 Excitation Energies [eV] at current iteration:
 Root      1 :     4.071597628528277   Change is   -0.000000047344292
 Root      2 :     4.098411229873334   Change is   -0.000000016059124
 Root      3 :     4.407645747224141   Change is   -0.000014443153296
 Root      4 :     4.420678804672482   Change is   -0.000016561566774
 Convergence achieved on expansion vectors.
 ***********************************************************************
 Excited states from <AA,BB:AA,BB> singles matrix:
 ***********************************************************************
 
 1PDM for each excited state written to RWF  633
 Ground to excited state transition densities written to RWF  633
 Ground to excited state transition electric dipole moments (Au):
       state          X           Y           Z        Dip. S.      Osc.
         1         0.1620     -0.1034      0.0353      0.0382      0.0038
         2         0.1707      0.1042      0.0424      0.0418      0.0042
         3         0.4255     -1.5056      0.0120      2.4481      0.2644
         4         2.7311      0.2410      0.4510      7.7205      0.8362
 Ground to excited state transition velocity dipole moments (Au):
       state          X           Y           Z        Dip. S.      Osc.
         1        -0.0259      0.0148     -0.0060      0.0009      0.0041
         2        -0.0276     -0.0147     -0.0069      0.0010      0.0045
         3        -0.0684      0.2441     -0.0027      0.0643      0.2645
         4        -0.4379     -0.0384     -0.0779      0.1993      0.8177
 Ground to excited state transition magnetic dipole moments (Au):
       state          X           Y           Z
         1        -0.1204     -0.0957     -0.1054
         2        -0.0967      0.1840      0.4462
         3        -2.9917     -3.1760      5.7851
         4        -1.2614     -3.1247      1.9983
 Ground to excited state transition velocity quadrupole moments (Au):
       state          XX          YY          ZZ          XY          XZ          YZ
         1        -0.9886      0.2248     -0.2053      0.0732     -0.5632      0.2277
         2        -0.7896     -0.0722     -0.1368     -0.2557     -0.2890     -0.1387
         3        -4.4201      2.6142     -0.3890      3.2479     -3.2714      3.1429
         4       -15.1045      0.3906     -2.0393     -1.9936     -6.2118      0.4468
 <0|del|b> * <b|rxdel|0> + <0|del|b> * <b|delr+rdel|0>
 Rotatory Strengths (R) in cgs (10**-40 erg-esu-cm/Gauss)
       state          XX          YY          ZZ    R(velocity)    E-M Angle
         1        16.8393     -4.0424     -1.8069      3.6633       65.80
         2       -19.4238      3.8800      0.9116     -4.8774      101.41
         3        -3.1708    -37.7483  -2518.5993   -853.1728      108.61
         4      -258.5916     99.5548   2407.6315    749.5316       72.82
 1/2[<0|r|b>*<b|rxdel|0> + (<0|rxdel|b>*<b|r|0>)*]
 Rotatory Strengths (R) in cgs (10**-40 erg-esu-cm/Gauss)
       state          XX          YY          ZZ     R(length)
         1        13.7958     -6.9997      2.6297      3.1419
         2        11.6680    -13.5606    -13.3681     -5.0869
         3       900.1471  -3381.5716    -49.1425   -843.5223
         4      2436.2921    532.4951   -637.2606    777.1756
  1/2[<0|del|b>*<b|r|0> + (<0|r|b>*<b|del|0>)*] (Au)
       state          X           Y           Z        Dip. S.   Osc.(frdel)
         1        -0.0042     -0.0015     -0.0002      0.0059      0.0040
         2        -0.0047     -0.0015     -0.0003      0.0065      0.0044
         3        -0.0291     -0.3675      0.0000      0.3966      0.2644
         4        -1.1959     -0.0092     -0.0351      1.2402      0.8268

 Excitation energies and oscillator strengths:
 
 Excited state symmetry could not be determined.
 Excited State   1:      Singlet-?Sym    4.0716 eV  304.51 nm  f=0.0038  <S**2>=0.000
      98 ->104        -0.67683
      98 ->113         0.10998
 This state for optimization and/or second-order correction.
 Total Energy, E(TD-HF/TD-KS) =  -1263.31711193    
 Copying the excited state density for this state as the 1-particle RhoCI density.
 
 Excited state symmetry could not be determined.
 Excited State   2:      Singlet-?Sym    4.0984 eV  302.52 nm  f=0.0042  <S**2>=0.000
      95 ->103         0.10477
      96 ->103         0.67213
      96 ->110         0.12191
 
 Excited state symmetry could not be determined.
 Excited State   3:      Singlet-?Sym    4.4076 eV  281.29 nm  f=0.2644  <S**2>=0.000
      99 ->103        -0.14715
     100 ->103        -0.37993
     101 ->104         0.15015
     102 ->104         0.51939
 
 Excited state symmetry could not be determined.
 Excited State   4:      Singlet-?Sym    4.4207 eV  280.46 nm  f=0.8362  <S**2>=0.000
      99 ->103         0.15104
     100 ->103         0.51765
     101 ->104         0.16423
     102 ->104         0.37618
 SavETr:  write IOETrn=   770 NScale= 10 NData=  16 NLR=1 NState=    4 LETran=      82.
 Leave Link  914 at Thu Sep 28 12:36:52 2017, MaxMem=  1879048192 cpu:      1431.7
 (Enter /share/apps/gaussian/g09_D01/g09/l601.exe)
 Copying SCF densities to generalized density rwf, IOpCl= 0 IROHF=0.

 **********************************************************************

            Population analysis using the SCF density.

 **********************************************************************

 Alpha  occ. eigenvalues --  -19.26622 -19.23848 -19.22875 -19.20374 -14.51001
 Alpha  occ. eigenvalues --  -14.48606 -10.37155 -10.35840 -10.34637 -10.34176
 Alpha  occ. eigenvalues --  -10.33462 -10.31697 -10.31659 -10.31239 -10.29817
 Alpha  occ. eigenvalues --  -10.29694 -10.28577 -10.28575 -10.28069 -10.27251
 Alpha  occ. eigenvalues --  -10.27151 -10.26998 -10.26254 -10.26019 -10.25973
 Alpha  occ. eigenvalues --  -10.24920 -10.24754 -10.23582  -1.18343  -1.15609
 Alpha  occ. eigenvalues --   -1.09989  -1.09216  -1.07522  -1.06812  -0.95778
 Alpha  occ. eigenvalues --   -0.93472  -0.90435  -0.89040  -0.88092  -0.86863
 Alpha  occ. eigenvalues --   -0.86669  -0.85019  -0.84532  -0.82678  -0.82117
 Alpha  occ. eigenvalues --   -0.79735  -0.74808  -0.72450  -0.72134  -0.71285
 Alpha  occ. eigenvalues --   -0.69713  -0.68828  -0.67313  -0.65114  -0.64803
 Alpha  occ. eigenvalues --   -0.63108  -0.62655  -0.61043  -0.60770  -0.60619
 Alpha  occ. eigenvalues --   -0.59172  -0.58792  -0.58384  -0.56722  -0.55449
 Alpha  occ. eigenvalues --   -0.55353  -0.54777  -0.53815  -0.53193  -0.52946
 Alpha  occ. eigenvalues --   -0.52923  -0.52477  -0.51772  -0.51507  -0.50640
 Alpha  occ. eigenvalues --   -0.50308  -0.50031  -0.49447  -0.48039  -0.47702
 Alpha  occ. eigenvalues --   -0.47527  -0.47235  -0.45935  -0.45248  -0.45150
 Alpha  occ. eigenvalues --   -0.44895  -0.43450  -0.42972  -0.42397  -0.41957
 Alpha  occ. eigenvalues --   -0.41610  -0.39929  -0.39516  -0.39265  -0.32515
 Alpha  occ. eigenvalues --   -0.32019  -0.30217  -0.29511  -0.29336  -0.28092
 Alpha  occ. eigenvalues --   -0.26938  -0.25614
 Alpha virt. eigenvalues --    0.01903   0.04294   0.08042   0.10027   0.10422
 Alpha virt. eigenvalues --    0.12344   0.16721   0.18352   0.18752   0.20095
 Alpha virt. eigenvalues --    0.20574   0.21516   0.22041   0.22362   0.22728
 Alpha virt. eigenvalues --    0.23423   0.24158   0.24681   0.24798   0.25829
 Alpha virt. eigenvalues --    0.26245   0.26580   0.27076   0.27649   0.28162
 Alpha virt. eigenvalues --    0.28347   0.28486   0.29278   0.29639   0.29842
 Alpha virt. eigenvalues --    0.30144   0.30352   0.30757   0.31929   0.32186
 Alpha virt. eigenvalues --    0.32747   0.33426   0.35631   0.36046   0.37422
 Alpha virt. eigenvalues --    0.37635   0.38470   0.38740   0.39430   0.40324
 Alpha virt. eigenvalues --    0.40875   0.42690   0.43587   0.43894   0.44015
 Alpha virt. eigenvalues --    0.44851   0.46113   0.47693   0.48659   0.49246
 Alpha virt. eigenvalues --    0.50359   0.51339   0.53020   0.53211   0.53881
 Alpha virt. eigenvalues --    0.55351   0.55931   0.56706   0.58642   0.59138
 Alpha virt. eigenvalues --    0.60082   0.60207   0.60785   0.61951   0.62407
 Alpha virt. eigenvalues --    0.62583   0.62995   0.63979   0.64511   0.65065
 Alpha virt. eigenvalues --    0.65610   0.66058   0.66637   0.67054   0.67297
 Alpha virt. eigenvalues --    0.68063   0.68238   0.69111   0.69182   0.69975
 Alpha virt. eigenvalues --    0.70412   0.71415   0.71442   0.71915   0.72047
 Alpha virt. eigenvalues --    0.72554   0.73011   0.73394   0.73663   0.74420
 Alpha virt. eigenvalues --    0.74887   0.75112   0.75777   0.76254   0.76867
 Alpha virt. eigenvalues --    0.77419   0.78291   0.78827   0.79619   0.80639
 Alpha virt. eigenvalues --    0.81333   0.81631   0.82761   0.84129   0.85126
 Alpha virt. eigenvalues --    0.85601   0.86605   0.88463   0.89443   0.89727
 Alpha virt. eigenvalues --    0.91397   0.93996   0.94310   0.95092   0.96142
 Alpha virt. eigenvalues --    0.96632   0.97715   0.98987   0.99364   0.99720
 Alpha virt. eigenvalues --    1.00234   1.01727   1.01912   1.03448   1.03783
 Alpha virt. eigenvalues --    1.04185   1.04682   1.05274   1.05993   1.06343
 Alpha virt. eigenvalues --    1.06540   1.07151   1.08208   1.08754   1.09072
 Alpha virt. eigenvalues --    1.09917   1.10030   1.10393   1.10882   1.11268
 Alpha virt. eigenvalues --    1.11759   1.12490   1.12850   1.13541   1.14222
 Alpha virt. eigenvalues --    1.14271   1.14626   1.15900   1.16353   1.17038
 Alpha virt. eigenvalues --    1.17620   1.17754   1.19206   1.19653   1.20113
 Alpha virt. eigenvalues --    1.21104   1.21607   1.22248   1.22656   1.25957
 Alpha virt. eigenvalues --    1.27000   1.27548   1.28396   1.28679   1.30040
 Alpha virt. eigenvalues --    1.30207   1.30622   1.32283   1.33509   1.34736
 Alpha virt. eigenvalues --    1.36091   1.36361   1.37196   1.38805   1.39463
 Alpha virt. eigenvalues --    1.40855   1.41357   1.42270   1.42732   1.43756
 Alpha virt. eigenvalues --    1.44103   1.44628   1.45253   1.46531   1.46967
 Alpha virt. eigenvalues --    1.47638   1.49309   1.50167   1.50651   1.51857
 Alpha virt. eigenvalues --    1.52084   1.53309   1.54458   1.54837   1.56350
 Alpha virt. eigenvalues --    1.56803   1.57356   1.58195   1.58694   1.59268
 Alpha virt. eigenvalues --    1.59783   1.60631   1.62434   1.63081   1.64029
 Alpha virt. eigenvalues --    1.64627   1.65799   1.66820   1.66888   1.68990
 Alpha virt. eigenvalues --    1.70553   1.81540   1.83062   1.84327   1.84849
 Alpha virt. eigenvalues --    1.86544   1.86650   1.88731   1.89053   1.89146
 Alpha virt. eigenvalues --    1.90736   1.90959   1.91221   1.91451   1.92053
 Alpha virt. eigenvalues --    1.93683   1.94617   1.95289   1.96560   1.97859
 Alpha virt. eigenvalues --    1.98060   2.00175   2.00467   2.03070   2.04622
 Alpha virt. eigenvalues --    2.05387   2.06387   2.06993   2.07374   2.07774
 Alpha virt. eigenvalues --    2.08313   2.09355   2.10368   2.10738   2.12526
 Alpha virt. eigenvalues --    2.12827   2.14443   2.14497   2.16955   2.19545
 Alpha virt. eigenvalues --    2.20009   2.21069   2.21250   2.22056   2.22388
 Alpha virt. eigenvalues --    2.23285   2.23603   2.23792   2.24226   2.25826
 Alpha virt. eigenvalues --    2.26406   2.26948   2.29111   2.29458   2.31372
 Alpha virt. eigenvalues --    2.32059   2.33807   2.33883   2.36219   2.38415
 Alpha virt. eigenvalues --    2.38910   2.40693   2.40854   2.40891   2.42271
 Alpha virt. eigenvalues --    2.43166   2.44434   2.44831   2.45690   2.47655
 Alpha virt. eigenvalues --    2.48214   2.48393   2.49076   2.50387   2.51298
 Alpha virt. eigenvalues --    2.51667   2.53563   2.54604   2.56593   2.58455
 Alpha virt. eigenvalues --    2.60649   2.62932   2.63948   2.65222   2.65378
 Alpha virt. eigenvalues --    2.66094   2.66944   2.67810   2.69379   2.70429
 Alpha virt. eigenvalues --    2.72514   2.72822   2.73618   2.75265   2.75700
 Alpha virt. eigenvalues --    2.76667   2.78637   2.79189   2.80965   2.81089
 Alpha virt. eigenvalues --    2.82719   2.82732   2.84954   2.90180   2.91996
 Alpha virt. eigenvalues --    2.92612   2.93512   2.94623   2.95866   2.97484
 Alpha virt. eigenvalues --    2.99563   3.01173   3.03276   3.06117   3.06840
 Alpha virt. eigenvalues --    3.07898   3.10464   3.20485   3.22379   3.25483
 Alpha virt. eigenvalues --    3.26331   3.33976   3.36555   3.38358   3.40810
 Alpha virt. eigenvalues --    3.67628   3.69808   4.10963   4.11854   4.13395
 Alpha virt. eigenvalues --    4.16068   4.17444   4.19975   4.24322   4.25775
 Alpha virt. eigenvalues --    4.26750   4.28330   4.30655   4.33191   4.37695
 Alpha virt. eigenvalues --    4.38588   4.40286   4.42351   4.43673   4.47462
 Alpha virt. eigenvalues --    4.50134   4.52766   4.55817   4.57190   4.62341
 Alpha virt. eigenvalues --    4.65546   4.81896   4.84641   4.93713   4.95284
          Condensed to atoms (all electrons):
 Mulliken charges:
               1
     1  C   -0.013919
     2  C    0.429815
     3  C    0.252049
     4  C   -0.179198
     5  C   -0.303251
     6  O   -0.620555
     7  C   -0.168545
     8  O   -0.632137
     9  H    0.454636
    10  C   -0.150944
    11  H    0.139725
    12  C    0.156014
    13  H    0.124790
    14  C   -0.127745
    15  H    0.151716
    16  H    0.140712
    17  H    0.184108
    18  N   -0.472590
    19  H    0.150555
    20  C   -0.350818
    21  C   -0.350615
    22  H    0.206845
    23  H    0.193782
    24  H    0.207976
    25  H    0.205917
    26  H    0.201965
    27  H    0.198808
    28  C   -0.023578
    29  C    0.420885
    30  C    0.249748
    31  C   -0.168100
    32  C   -0.294118
    33  O   -0.619755
    34  C   -0.171773
    35  O   -0.605852
    36  H    0.415130
    37  C   -0.156196
    38  H    0.152767
    39  C    0.149126
    40  H    0.133904
    41  C   -0.129054
    42  H    0.145314
    43  H    0.128622
    44  H    0.178153
    45  N   -0.471070
    46  H    0.141189
    47  C   -0.351216
    48  C   -0.348338
    49  H    0.201271
    50  H    0.184285
    51  H    0.217699
    52  H    0.202385
    53  H    0.194369
    54  H    0.195107
 Sum of Mulliken charges =   0.00000
 Mulliken charges with hydrogens summed into heavy atoms:
               1
     1  C   -0.013919
     2  C    0.429815
     3  C    0.252049
     4  C   -0.039473
     5  C   -0.178462
     6  O   -0.620555
     7  C   -0.016829
     8  O   -0.177501
    10  C   -0.010232
    12  C    0.340122
    14  C    0.022810
    18  N   -0.472590
    20  C    0.257785
    21  C    0.256076
    28  C   -0.023578
    29  C    0.420885
    30  C    0.249748
    31  C   -0.015334
    32  C   -0.160214
    33  O   -0.619755
    34  C   -0.026460
    35  O   -0.190722
    37  C   -0.027574
    39  C    0.327279
    41  C    0.012136
    45  N   -0.471070
    47  C    0.252039
    48  C    0.243522
 Electronic spatial extent (au):  <R**2>=         114890.9667
 Charge=              0.0000 electrons
 Dipole moment (field-independent basis, Debye):
    X=            -10.2226    Y=             -0.2549    Z=             -7.7774  Tot=             12.8473
 Quadrupole moment (field-independent basis, Debye-Ang):
   XX=           -308.9739   YY=           -145.9735   ZZ=           -260.0068
   XY=            -16.9345   XZ=           -145.9422   YZ=              1.2055
 Traceless Quadrupole moment (field-independent basis, Debye-Ang):
   XX=            -70.6559   YY=             92.3446   ZZ=            -21.6887
   XY=            -16.9345   XZ=           -145.9422   YZ=              1.2055
 Octapole moment (field-independent basis, Debye-Ang**2):
  XXX=          -6271.7447  YYY=          -1150.1523  ZZZ=          -4173.4030  XYY=          -1494.7784
  XXY=           -679.3668  XXZ=          -2901.1378  XZZ=          -3124.8873  YZZ=           -422.6078
  YYZ=           -865.3800  XYZ=           -183.7376
 Hexadecapole moment (field-independent basis, Debye-Ang**3):
 XXXX=        -112965.5264 YYYY=          -8306.8751 ZZZZ=         -59465.0178 XXXY=         -15620.4437
 XXXZ=         -52441.1934 YYYX=         -12027.6393 YYYZ=          -7822.6344 ZZZX=         -47631.1438
 ZZZY=          -9232.2126 XXYY=         -17872.7524 XXZZ=         -44264.6487 YYZZ=          -7991.6800
 XXYZ=          -6259.6892 YYXZ=          -9792.6115 ZZXY=          -6283.8037
 N-N= 2.506805401778D+03 E-N=-7.960347989677D+03  KE= 1.259316381300D+03
 Leave Link  601 at Thu Sep 28 12:36:52 2017, MaxMem=  1879048192 cpu:         0.1
 (Enter /share/apps/gaussian/g09_D01/g09/l9999.exe)
 1\1\GINC-NXN37\SP\RwB97XD TD-FC\6-31G(d)\C22H26N2O4\BTX008\28-Sep-2017
 \0\\#p wb97xd 6-31G* td=(add=2) nosymm\\title\\0,1\C,0,9.467207,2.4244
 39,3.544461\C,0,8.155126,2.070967,4.158769\C,0,10.336436,3.295495,4.22
 6761\C,0,9.89617,1.913378,2.312501\C,0,7.208229,1.29417,3.443876\O,0,7
 .912238,2.503024,5.324355\C,0,11.584305,3.611727,3.689188\O,0,9.992177
 ,3.848953,5.406054\H,0,9.268451,3.548396,5.647697\C,0,11.127325,2.2436
 ,1.787772\H,0,9.338838,1.339196,1.839036\C,0,6.031561,0.936385,4.04728
 3\H,0,7.385039,1.028856,2.569686\C,0,11.968414,3.087515,2.48054\H,0,12
 .157612,4.179596,4.151861\H,0,11.390398,1.896756,0.965926\H,0,5.929588
 ,1.201384,4.933236\N,0,5.025329,0.261738,3.526114\H,0,12.801178,3.3032
 8,2.127195\C,0,5.036006,-0.187151,2.151694\C,0,3.843738,-0.061121,4.32
 6484\H,0,5.401543,0.502856,1.592968\H,0,4.138578,-0.38398,1.872493\H,0
 ,5.57446,-0.97836,2.077549\H,0,3.95783,0.27878,5.217078\H,0,3.729849,-
 1.014129,4.359076\H,0,3.067854,0.340848,3.928457\C,0,12.011662,2.83556
 1,8.940695\C,0,10.699581,3.189033,9.555001\C,0,12.880891,1.964505,9.62
 2993\C,0,12.440624,3.346622,7.708734\C,0,9.752684,3.96583,8.840109\O,0
 ,10.456694,2.756977,10.720588\C,0,14.128759,1.648274,9.085422\O,0,12.5
 36632,1.411048,10.802287\H,0,11.812906,1.711604,11.043929\C,0,13.67178
 1,3.0164,7.184005\H,0,11.883292,3.920804,7.235269\C,0,8.576015,4.32361
 5,9.443515\H,0,9.929493,4.231144,7.965919\C,0,14.51287,2.172485,7.8767
 72\H,0,14.702066,1.080404,9.548094\H,0,13.934852,3.363244,6.362158\H,0
 ,8.474043,4.058616,10.329469\N,0,7.569783,4.998263,8.922347\H,0,15.345
 633,1.95672,7.523427\C,0,7.580461,5.447151,7.547927\C,0,6.388193,5.321
 122,9.722715\H,0,8.118914,6.23836,7.473782\H,0,6.683033,5.64398,7.2687
 25\H,0,7.945997,4.757144,6.989201\H,0,6.502285,4.98122,10.61331\H,0,5.
 612309,4.919152,9.32469\H,0,6.274303,6.274128,9.75531\\Version=ES64L-G
 09RevD.01\HF=-1263.4667404\RMSD=4.376e-09\PG=C01 [X(C22H26N2O4)]\\@


 ERWIN WITH HIS PSI CAN DO
 CALCULATIONS QUITE A FEW.
 BUT ONE THING HAS NOT BEEN SEEN
 JUST WHAT DOES PSI REALLY MEAN.
 -- WALTER HUCKEL, TRANS. BY FELIX BLOCH
 Job cpu time:       0 days  0 hours 34 minutes  0.9 seconds.
 File lengths (MBytes):  RWF=    229 Int=      0 D2E=      0 Chk=     44 Scr=      1
 Normal termination of Gaussian 09 at Thu Sep 28 12:36:53 2017.
