 Entering Gaussian System, Link 0=g09
 Input=J_HPcrys_mon-1.com
 Output=J_HPcrys_mon-1.out
 Initial command:
 /share/apps/gaussian/g09_D01/g09/l1.exe "/tmp/4049068.1.chemistry.q/Gau-5702.inp" -scrdir="/tmp/4049068.1.chemistry.q/"
 Entering Link 1 = /share/apps/gaussian/g09_D01/g09/l1.exe PID=      5703.
  
 Copyright (c) 1988,1990,1992,1993,1995,1998,2003,2009,2013,
            Gaussian, Inc.  All Rights Reserved.
  
 This is part of the Gaussian(R) 09 program.  It is based on
 the Gaussian(R) 03 system (copyright 2003, Gaussian, Inc.),
 the Gaussian(R) 98 system (copyright 1998, Gaussian, Inc.),
 the Gaussian(R) 94 system (copyright 1995, Gaussian, Inc.),
 the Gaussian 92(TM) system (copyright 1992, Gaussian, Inc.),
 the Gaussian 90(TM) system (copyright 1990, Gaussian, Inc.),
 the Gaussian 88(TM) system (copyright 1988, Gaussian, Inc.),
 the Gaussian 86(TM) system (copyright 1986, Carnegie Mellon
 University), and the Gaussian 82(TM) system (copyright 1983,
 Carnegie Mellon University). Gaussian is a federally registered
 trademark of Gaussian, Inc.
  
 This software contains proprietary and confidential information,
 including trade secrets, belonging to Gaussian, Inc.
  
 This software is provided under written license and may be
 used, copied, transmitted, or stored only in accord with that
 written license.
  
 The following legend is applicable only to US Government
 contracts under FAR:
  
                    RESTRICTED RIGHTS LEGEND
  
 Use, reproduction and disclosure by the US Government is
 subject to restrictions as set forth in subparagraphs (a)
 and (c) of the Commercial Computer Software - Restricted
 Rights clause in FAR 52.227-19.
  
 Gaussian, Inc.
 340 Quinnipiac St., Bldg. 40, Wallingford CT 06492
  
  
 ---------------------------------------------------------------
 Warning -- This program may not be used in any manner that
 competes with the business of Gaussian, Inc. or will provide
 assistance to any competitor of Gaussian, Inc.  The licensee
 of this program is prohibited from giving any competitor of
 Gaussian, Inc. access to this program.  By using this program,
 the user acknowledges that Gaussian, Inc. is engaged in the
 business of creating and licensing software in the field of
 computational chemistry and represents and warrants to the
 licensee that it is not a competitor of Gaussian, Inc. and that
 it will not use this program in any manner prohibited above.
 ---------------------------------------------------------------
  

 Cite this work as:
 Gaussian 09, Revision D.01,
 M. J. Frisch, G. W. Trucks, H. B. Schlegel, G. E. Scuseria, 
 M. A. Robb, J. R. Cheeseman, G. Scalmani, V. Barone, B. Mennucci, 
 G. A. Petersson, H. Nakatsuji, M. Caricato, X. Li, H. P. Hratchian, 
 A. F. Izmaylov, J. Bloino, G. Zheng, J. L. Sonnenberg, M. Hada, 
 M. Ehara, K. Toyota, R. Fukuda, J. Hasegawa, M. Ishida, T. Nakajima, 
 Y. Honda, O. Kitao, H. Nakai, T. Vreven, J. A. Montgomery, Jr., 
 J. E. Peralta, F. Ogliaro, M. Bearpark, J. J. Heyd, E. Brothers, 
 K. N. Kudin, V. N. Staroverov, T. Keith, R. Kobayashi, J. Normand, 
 K. Raghavachari, A. Rendell, J. C. Burant, S. S. Iyengar, J. Tomasi, 
 M. Cossi, N. Rega, J. M. Millam, M. Klene, J. E. Knox, J. B. Cross, 
 V. Bakken, C. Adamo, J. Jaramillo, R. Gomperts, R. E. Stratmann, 
 O. Yazyev, A. J. Austin, R. Cammi, C. Pomelli, J. W. Ochterski, 
 R. L. Martin, K. Morokuma, V. G. Zakrzewski, G. A. Voth, 
 P. Salvador, J. J. Dannenberg, S. Dapprich, A. D. Daniels, 
 O. Farkas, J. B. Foresman, J. V. Ortiz, J. Cioslowski, 
 and D. J. Fox, Gaussian, Inc., Wallingford CT, 2013.
 
 ******************************************
 Gaussian 09:  ES64L-G09RevD.01 24-Apr-2013
                28-Sep-2017 
 ******************************************
 %chk=J_HPcrys_mon-1
 %mem=14GB
 %nproc=2
 Will use up to    2 processors via shared memory.
 ----------------------------------------------------------------------
 #p wb97xd 6-31G* td=(nstates=4) nosymm density=(transition=1) pop=Save
 NTO
 ----------------------------------------------------------------------
 1/38=1/1;
 2/12=2,15=1,17=6,18=5,40=1/2;
 3/5=1,6=6,7=1,11=9,16=1,25=1,30=1,74=-58/1,2,8,3;
 4//1;
 5/5=2,38=5/2;
 8/6=1,10=2,108=4/1;
 9/41=4,42=1,70=2/14;
 6/7=2,8=2,9=2,10=2,29=1,89=10/1;
 99/5=1,9=1/99;
 Leave Link    1 at Thu Sep 28 11:09:37 2017, MaxMem=  1879048192 cpu:         0.1
 (Enter /share/apps/gaussian/g09_D01/g09/l101.exe)
 -----
 title
 -----
 Symbolic Z-matrix:
 Charge =  0 Multiplicity = 1
 C                     9.46721   2.42444   3.54446 
 C                     8.15513   2.07097   4.15877 
 C                     10.33644   3.2955    4.22676 
 C                     9.89617   1.91338   2.3125 
 C                     7.20823   1.29417   3.44388 
 O                     7.91224   2.50302   5.32436 
 C                     11.58431   3.61173   3.68919 
 O                     9.99218   3.84895   5.40605 
 H                     9.26845   3.5484    5.6477 
 C                     11.12733   2.2436    1.78777 
 H                     9.33884   1.3392    1.83904 
 C                     6.03156   0.93639   4.04728 
 H                     7.38504   1.02886   2.56969 
 C                     11.96841   3.08752   2.48054 
 H                     12.15761   4.1796    4.15186 
 H                     11.3904   1.89676   0.96593 
 H                     5.92959   1.20138   4.93324 
 N                     5.02533   0.26174   3.52611 
 H                     12.80118   3.30328   2.12719 
 C                     5.03601  -0.18715   2.15169 
 C                     3.84374  -0.06112   4.32648 
 H                     5.40154   0.50286   1.59297 
 H                     4.13858  -0.38398   1.87249 
 H                     5.57446  -0.97836   2.07755 
 H                     3.95783   0.27878   5.21708 
 H                     3.72985  -1.01413   4.35908 
 H                     3.06785   0.34085   3.92846 
 
 NAtoms=     27 NQM=       27 NQMF=       0 NMMI=      0 NMMIF=      0
                NMic=       0 NMicF=      0.
                    Isotopes and Nuclear Properties:
 (Nuclear quadrupole moments (NQMom) in fm**2, nuclear magnetic moments (NMagM)
  in nuclear magnetons)

  Atom         1           2           3           4           5           6           7           8           9          10
 IAtWgt=          12          12          12          12          12          16          12          16           1          12
 AtmWgt=  12.0000000  12.0000000  12.0000000  12.0000000  12.0000000  15.9949146  12.0000000  15.9949146   1.0078250  12.0000000
 NucSpn=           0           0           0           0           0           0           0           0           1           0
 AtZEff=   0.0000000   0.0000000   0.0000000   0.0000000   0.0000000   0.0000000   0.0000000   0.0000000   0.0000000   0.0000000
 NQMom=    0.0000000   0.0000000   0.0000000   0.0000000   0.0000000   0.0000000   0.0000000   0.0000000   0.0000000   0.0000000
 NMagM=    0.0000000   0.0000000   0.0000000   0.0000000   0.0000000   0.0000000   0.0000000   0.0000000   2.7928460   0.0000000
 AtZNuc=   6.0000000   6.0000000   6.0000000   6.0000000   6.0000000   8.0000000   6.0000000   8.0000000   1.0000000   6.0000000

  Atom        11          12          13          14          15          16          17          18          19          20
 IAtWgt=           1          12           1          12           1           1           1          14           1          12
 AtmWgt=   1.0078250  12.0000000   1.0078250  12.0000000   1.0078250   1.0078250   1.0078250  14.0030740   1.0078250  12.0000000
 NucSpn=           1           0           1           0           1           1           1           2           1           0
 AtZEff=   0.0000000   0.0000000   0.0000000   0.0000000   0.0000000   0.0000000   0.0000000   0.0000000   0.0000000   0.0000000
 NQMom=    0.0000000   0.0000000   0.0000000   0.0000000   0.0000000   0.0000000   0.0000000   2.0440000   0.0000000   0.0000000
 NMagM=    2.7928460   0.0000000   2.7928460   0.0000000   2.7928460   2.7928460   2.7928460   0.4037610   2.7928460   0.0000000
 AtZNuc=   1.0000000   6.0000000   1.0000000   6.0000000   1.0000000   1.0000000   1.0000000   7.0000000   1.0000000   6.0000000

  Atom        21          22          23          24          25          26          27
 IAtWgt=          12           1           1           1           1           1           1
 AtmWgt=  12.0000000   1.0078250   1.0078250   1.0078250   1.0078250   1.0078250   1.0078250
 NucSpn=           0           1           1           1           1           1           1
 AtZEff=   0.0000000   0.0000000   0.0000000   0.0000000   0.0000000   0.0000000   0.0000000
 NQMom=    0.0000000   0.0000000   0.0000000   0.0000000   0.0000000   0.0000000   0.0000000
 NMagM=    0.0000000   2.7928460   2.7928460   2.7928460   2.7928460   2.7928460   2.7928460
 AtZNuc=   6.0000000   1.0000000   1.0000000   1.0000000   1.0000000   1.0000000   1.0000000
 Leave Link  101 at Thu Sep 28 11:09:37 2017, MaxMem=  1879048192 cpu:         0.1
 (Enter /share/apps/gaussian/g09_D01/g09/l202.exe)
                          Input orientation:                          
 ---------------------------------------------------------------------
 Center     Atomic      Atomic             Coordinates (Angstroms)
 Number     Number       Type             X           Y           Z
 ---------------------------------------------------------------------
      1          6           0        9.467207    2.424439    3.544461
      2          6           0        8.155126    2.070967    4.158769
      3          6           0       10.336436    3.295495    4.226761
      4          6           0        9.896170    1.913378    2.312501
      5          6           0        7.208229    1.294170    3.443876
      6          8           0        7.912238    2.503024    5.324355
      7          6           0       11.584305    3.611727    3.689188
      8          8           0        9.992177    3.848953    5.406054
      9          1           0        9.268451    3.548396    5.647697
     10          6           0       11.127325    2.243600    1.787772
     11          1           0        9.338838    1.339196    1.839036
     12          6           0        6.031561    0.936385    4.047283
     13          1           0        7.385039    1.028856    2.569686
     14          6           0       11.968414    3.087515    2.480540
     15          1           0       12.157612    4.179596    4.151861
     16          1           0       11.390398    1.896756    0.965926
     17          1           0        5.929588    1.201384    4.933236
     18          7           0        5.025329    0.261738    3.526114
     19          1           0       12.801178    3.303280    2.127195
     20          6           0        5.036006   -0.187151    2.151694
     21          6           0        3.843738   -0.061121    4.326484
     22          1           0        5.401543    0.502856    1.592968
     23          1           0        4.138578   -0.383980    1.872493
     24          1           0        5.574460   -0.978360    2.077549
     25          1           0        3.957830    0.278780    5.217078
     26          1           0        3.729849   -1.014129    4.359076
     27          1           0        3.067854    0.340848    3.928457
 ---------------------------------------------------------------------
                    Distance matrix (angstroms):
                    1          2          3          4          5
     1  C    0.000000
     2  C    1.491266   0.000000
     3  C    1.407065   2.502440   0.000000
     4  C    1.401042   2.542592   2.401765   0.000000
     5  C    2.527965   1.418132   3.795246   2.981351   0.000000
     6  O    2.364768   1.266593   2.776591   3.654440   2.343749
     7  C    2.431605   3.788630   1.395050   2.762147   4.957952
     8  O    2.402158   2.844593   1.347428   3.650444   4.257631
     9  H    2.392987   2.374699   1.795441   3.767074   3.766016
    10  C    2.423768   3.805968   2.771400   1.378452   4.359290
    11  H    2.025514   2.705148   3.244000   0.929770   2.667777
    12  C    3.777671   2.410235   4.912185   4.347319   1.369912
    13  H    2.689472   2.050418   4.073609   2.674753   0.930517
    14  C    2.797791   4.288471   2.399145   2.387683   5.177206
    15  H    3.269219   4.523965   2.025815   3.692304   5.772635
    16  H    3.259748   4.548800   3.701399   2.011531   4.898355
    17  H    3.992406   2.511771   4.929981   4.807178   1.965127
    18  N    4.940434   3.670040   6.156496   5.284493   2.416140
    19  H    3.727783   5.218399   3.237776   3.225715   6.086974
    20  C    5.328766   4.342391   6.673027   5.297101   2.929607
    21  C    6.197820   4.812691   7.309716   6.677328   3.733043
    22  H    4.902084   4.077319   6.252109   4.765393   2.704839
    23  H    6.251158   5.233209   7.582517   6.214606   3.835126
    24  H    5.374416   4.504410   6.749916   5.205240   3.114553
    25  H    6.144488   4.685002   7.125160   6.809725   3.839317
    26  H    6.738295   5.398242   7.889066   7.126169   4.273753
    27  H    6.740959   5.378354   7.851828   7.190971   4.276254
                    6          7          8          9         10
     6  O    0.000000
     7  C    4.169781   0.000000
     8  O    2.478779   2.353461   0.000000
     9  H    1.742603   3.033636   0.820064   0.000000
    10  C    4.786596   2.386626   4.117971   4.478496   0.000000
    11  H    3.941717   3.691826   4.410142   4.403569   2.004809
    12  C    2.760836   6.174031   5.100568   4.456611   5.725470
    13  H    3.168487   5.055526   4.774421   4.401076   4.011446
    14  C    4.988134   1.372286   3.611639   4.187254   1.378242
    15  H    4.712625   0.930173   2.524170   3.314090   3.224669
    16  H    5.609016   3.224109   5.047854   5.399033   0.930021
    17  H    2.403777   6.271621   4.872146   4.143299   6.164140
    18  N    4.073239   7.366762   6.408733   5.771249   6.647102
    19  H    5.896098   2.003932   4.351915   4.993413   2.009954
    20  C    5.057226   7.724997   7.172491   6.640026   6.568497
    21  C    4.911545   8.591411   7.365966   6.648438   8.050307
    22  H    4.922145   7.230890   6.841777   6.377234   5.987714
    23  H    5.872874   8.643200   8.041666   7.485409   7.466856
    24  H    5.303488   7.732045   7.341534   6.847120   6.426454
    25  H    4.538294   8.462039   7.013928   6.251281   8.186716
    26  H    5.549280   9.140009   7.997655   7.290630   8.482161
    27  H    5.485580   9.126107   7.901667   7.189684   8.553249
                   11         12         13         14         15
    11  H    0.000000
    12  C    3.997086   0.000000
    13  H    2.108908   2.005928   0.000000
    14  C    3.222238   6.506018   5.025271   0.000000
    15  H    4.621960   6.932377   5.933624   2.005430   0.000000
    16  H    2.298280   6.255734   4.400931   2.011483   3.993765
    17  H    4.606089   0.930342   2.781092   6.785324   6.947559
    18  N    4.755366   1.318813   2.659221   7.568664   8.161534
    19  H    3.991047   7.424058   5.890956   0.930002   2.298125
    20  C    4.576227   2.417999   2.677937   7.673973   8.589902
    21  C    6.192286   2.420649   4.100634   8.906839   9.334596
    22  H    4.032655   2.570707   2.272644   7.112808   8.106221
    23  H    5.478427   3.171192   3.608558   8.586462   9.504033
    24  H    4.427019   2.784788   2.747601   7.587911   8.616564
    25  H    6.441343   2.470066   4.395118   8.918917   9.142619
    26  H    6.584034   3.033084   4.553693   9.392887   9.901763
    27  H    6.684880   3.025284   4.577958   9.426591   9.869630
                   16         17         18         19         20
    16  H    0.000000
    17  H    6.785539   0.000000
    18  N    7.052797   1.918492   0.000000
    19  H    2.305896   7.714310   8.465919   0.000000
    20  C    6.791687   3.234732   1.445907   8.513613   0.000000
    21  C    8.489918   2.512536   1.463211   9.817932   2.483364
    22  H    6.180819   3.453138   1.984119   7.929841   0.960157
    23  H    7.655881   3.884488   1.984374   9.418142   0.960246
    24  H    6.582335   3.610034   1.984371   8.400021   0.959918
    25  H    8.713966   2.195357   1.999801   9.843769   3.282702
    26  H    8.869652   3.174431   1.999983  10.291274   2.694898
    27  H    8.970071   3.152717   1.999962  10.332383   2.703570
                   21         22         23         24         25
    21  C    0.000000
    22  H    3.196394   0.000000
    23  H    2.492637   1.568341   0.000000
    24  H    2.982354   1.568031   1.567512   0.000000
    25  H    0.960056   3.907517   3.414406   3.748404   0.000000
    26  H    0.960342   3.570316   2.597545   2.934150   1.568361
    27  H    0.960209   3.305580   2.428747   3.383673   1.567308
                   26         27
    26  H    0.000000
    27  H    1.568322   0.000000
 Symmetry turned off by external request.
 Stoichiometry    C11H13NO2
 Framework group  C1[X(C11H13NO2)]
 Deg. of freedom    75
 Full point group                 C1      NOp   1
 Rotational constants (GHZ):      1.6536354      0.3227340      0.2712868
 Leave Link  202 at Thu Sep 28 11:09:37 2017, MaxMem=  1879048192 cpu:         0.0
 (Enter /share/apps/gaussian/g09_D01/g09/l301.exe)
 Standard basis: 6-31G(d) (6D, 7F)
 Ernie: Thresh=  0.10000D-02 Tol=  0.10000D-05 Strict=F.
   236 basis functions,   444 primitive gaussians,   236 cartesian basis functions
    51 alpha electrons       51 beta electrons
       nuclear repulsion energy       849.1707826354 Hartrees.
 IExCor= 4639 DFT=T Ex+Corr=wB97XD ExCW=0 ScaHFX=  1.000000
 ScaDFX=  1.000000  1.000000  1.000000  1.000000 ScalE2=  1.000000  1.000000
 IRadAn=      0 IRanWt=     -1 IRanGd=            0 ICorTp=0 IEmpDi=121
  HFx wShort=  0.000000 wLong=  0.200000 cFull=  0.222036 cShort=  0.000000 cLong=  0.777964
  DFx wShort=  0.000000 wLong=  0.200000 cFull=  0.000000 cShort=  0.000000 cLong=  1.000000
 NAtoms=   27 NActive=   27 NUniq=   27 SFac= 1.00D+00 NAtFMM=   60 NAOKFM=F Big=F
 Integral buffers will be    131072 words long.
 Raffenetti 1 integral format.
 Two-electron integral symmetry is turned off.
 R6Disp:  Grimme-D2 Dispersion energy=       -0.0150057694 Hartrees.
 Nuclear repulsion after empirical dispersion term =      849.1557768660 Hartrees.
 Leave Link  301 at Thu Sep 28 11:09:38 2017, MaxMem=  1879048192 cpu:         0.1
 (Enter /share/apps/gaussian/g09_D01/g09/l302.exe)
 NPDir=0 NMtPBC=     1 NCelOv=     1 NCel=       1 NClECP=     1 NCelD=      1
         NCelK=      1 NCelE2=     1 NClLst=     1 CellRange=     0.0.
 One-electron integrals computed using PRISM.
 NBasis=   236 RedAO= T EigKep=  3.48D-04  NBF=   236
 NBsUse=   236 1.00D-06 EigRej= -1.00D+00 NBFU=   236
 Precomputing XC quadrature grid using
 IXCGrd= 4 IRadAn=           0 IRanWt=          -1 IRanGd=           0 AccXCQ= 0.00D+00.
 Generated NRdTot=       0 NPtTot=           0 NUsed=           0 NTot=          32
 NSgBfM=   234   234   234   234   234 MxSgAt=    27 MxSgA2=    27.
 Leave Link  302 at Thu Sep 28 11:09:38 2017, MaxMem=  1879048192 cpu:         0.7
 (Enter /share/apps/gaussian/g09_D01/g09/l308.exe)
 Leave Link  308 at Thu Sep 28 11:09:38 2017, MaxMem=  1879048192 cpu:         0.1
 (Enter /share/apps/gaussian/g09_D01/g09/l303.exe)
 DipDrv:  MaxL=1.
 Leave Link  303 at Thu Sep 28 11:09:38 2017, MaxMem=  1879048192 cpu:         0.1
 (Enter /share/apps/gaussian/g09_D01/g09/l401.exe)
 ExpMin= 1.61D-01 ExpMax= 5.48D+03 ExpMxC= 8.25D+02 IAcc=1 IRadAn=         1 AccDes= 0.00D+00
 Harris functional with IExCor= 4639 and IRadAn=       1 diagonalized for initial guess.
 HarFok:  IExCor= 4639 AccDes= 0.00D+00 IRadAn=         1 IDoV= 1 UseB2=F ITyADJ=14
 ICtDFT=  3500011 ScaDFX=  1.000000  1.000000  1.000000  1.000000
 FoFCou: FMM=F IPFlag=           0 FMFlag=      100000 FMFlg1=           0
         NFxFlg=           0 DoJE=T BraDBF=F KetDBF=T FulRan=T
         wScrn=  0.000000 ICntrl=     500 IOpCl=  0 I1Cent=   200000004 NGrid=           0
         NMat0=    1 NMatS0=      1 NMatT0=    0 NMatD0=    1 NMtDS0=    0 NMtDT0=    0
 Symmetry not used in FoFCou.
 Harris En= -604.457624677238    
 JPrj=0 DoOrth=F DoCkMO=F.
 Leave Link  401 at Thu Sep 28 11:09:39 2017, MaxMem=  1879048192 cpu:         2.2
 (Enter /share/apps/gaussian/g09_D01/g09/l502.exe)
 Closed shell SCF:
 Using DIIS extrapolation, IDIIS=  1040.
 Two-electron integral symmetry not used.
 Keep R1 ints in memory in canonical form, NReq=788969554.
 IVT=      188524 IEndB=      188524 NGot=  1879048192 MDV=  1096734547
 LenX=  1096734547 LenY=  1096678410
 Requested convergence on RMS density matrix=1.00D-08 within 128 cycles.
 Requested convergence on MAX density matrix=1.00D-06.
 Requested convergence on             energy=1.00D-06.
 No special actions if energy rises.
 FoFCou: FMM=F IPFlag=           0 FMFlag=           0 FMFlg1=           0
         NFxFlg=           0 DoJE=F BraDBF=F KetDBF=F FulRan=T
         wScrn=  0.000000 ICntrl=     600 IOpCl=  0 I1Cent=           0 NGrid=           0
         NMat0=    1 NMatS0=  27966 NMatT0=    0 NMatD0=    1 NMtDS0=    0 NMtDT0=    0
 Symmetry not used in FoFCou.
 Integral accuracy reduced to 1.0D-05 until final iterations.

 Cycle   1  Pass 0  IDiag  1:
 E= -631.483517660432    
 DIIS: error= 5.86D-02 at cycle   1 NSaved=   1.
 NSaved= 1 IEnMin= 1 EnMin= -631.483517660432     IErMin= 1 ErrMin= 5.86D-02
 ErrMax= 5.86D-02  0.00D+00 EMaxC= 1.00D-01 BMatC= 6.52D-01 BMatP= 6.52D-01
 IDIUse=3 WtCom= 4.14D-01 WtEn= 5.86D-01
 Coeff-Com:  0.100D+01
 Coeff-En:   0.100D+01
 Coeff:      0.100D+01
 Gap=     0.366 Goal=   None    Shift=    0.000
 GapD=    0.366 DampG=1.000 DampE=0.500 DampFc=0.5000 IDamp=-1.
 Damping current iteration by 5.00D-01
 RMSDP=3.89D-03 MaxDP=1.60D-01              OVMax= 1.75D-01

 Cycle   2  Pass 0  IDiag  1:
 E= -631.597840964998     Delta-E=       -0.114323304565 Rises=F Damp=T
 DIIS: error= 3.12D-02 at cycle   2 NSaved=   2.
 NSaved= 2 IEnMin= 2 EnMin= -631.597840964998     IErMin= 2 ErrMin= 3.12D-02
 ErrMax= 3.12D-02  0.00D+00 EMaxC= 1.00D-01 BMatC= 1.23D-01 BMatP= 6.52D-01
 IDIUse=3 WtCom= 6.88D-01 WtEn= 3.12D-01
 Coeff-Com: -0.302D+00 0.130D+01
 Coeff-En:   0.000D+00 0.100D+01
 Coeff:     -0.208D+00 0.121D+01
 Gap=     0.331 Goal=   None    Shift=    0.000
 RMSDP=1.46D-03 MaxDP=4.78D-02 DE=-1.14D-01 OVMax= 1.58D-01

 Cycle   3  Pass 0  IDiag  1:
 E= -631.702301085475     Delta-E=       -0.104460120478 Rises=F Damp=F
 DIIS: error= 8.94D-03 at cycle   3 NSaved=   3.
 NSaved= 3 IEnMin= 3 EnMin= -631.702301085475     IErMin= 3 ErrMin= 8.94D-03
 ErrMax= 8.94D-03  0.00D+00 EMaxC= 1.00D-01 BMatC= 3.10D-02 BMatP= 1.23D-01
 IDIUse=3 WtCom= 9.11D-01 WtEn= 8.94D-02
 Coeff-Com: -0.244D+00 0.517D+00 0.727D+00
 Coeff-En:   0.000D+00 0.000D+00 0.100D+01
 Coeff:     -0.222D+00 0.471D+00 0.751D+00
 Gap=     0.305 Goal=   None    Shift=    0.000
 RMSDP=8.12D-04 MaxDP=4.20D-02 DE=-1.04D-01 OVMax= 5.60D-02

 Cycle   4  Pass 0  IDiag  1:
 E= -631.726509092464     Delta-E=       -0.024208006989 Rises=F Damp=F
 DIIS: error= 3.34D-03 at cycle   4 NSaved=   4.
 NSaved= 4 IEnMin= 4 EnMin= -631.726509092464     IErMin= 4 ErrMin= 3.34D-03
 ErrMax= 3.34D-03  0.00D+00 EMaxC= 1.00D-01 BMatC= 3.25D-03 BMatP= 3.10D-02
 IDIUse=3 WtCom= 9.67D-01 WtEn= 3.34D-02
 Coeff-Com: -0.104D+00 0.210D+00 0.402D+00 0.492D+00
 Coeff-En:   0.000D+00 0.000D+00 0.000D+00 0.100D+01
 Coeff:     -0.100D+00 0.203D+00 0.388D+00 0.509D+00
 Gap=     0.300 Goal=   None    Shift=    0.000
 RMSDP=2.33D-04 MaxDP=7.70D-03 DE=-2.42D-02 OVMax= 1.16D-02

 Cycle   5  Pass 0  IDiag  1:
 E= -631.729136656833     Delta-E=       -0.002627564369 Rises=F Damp=F
 DIIS: error= 5.83D-04 at cycle   5 NSaved=   5.
 NSaved= 5 IEnMin= 5 EnMin= -631.729136656833     IErMin= 5 ErrMin= 5.83D-04
 ErrMax= 5.83D-04  0.00D+00 EMaxC= 1.00D-01 BMatC= 1.05D-04 BMatP= 3.25D-03
 IDIUse=3 WtCom= 9.94D-01 WtEn= 5.83D-03
 Coeff-Com: -0.208D-01 0.408D-01 0.109D+00 0.206D+00 0.665D+00
 Coeff-En:   0.000D+00 0.000D+00 0.000D+00 0.000D+00 0.100D+01
 Coeff:     -0.207D-01 0.406D-01 0.108D+00 0.205D+00 0.667D+00
 Gap=     0.299 Goal=   None    Shift=    0.000
 RMSDP=6.43D-05 MaxDP=1.92D-03 DE=-2.63D-03 OVMax= 2.35D-03

 Cycle   6  Pass 0  IDiag  1:
 E= -631.729241627242     Delta-E=       -0.000104970410 Rises=F Damp=F
 DIIS: error= 2.43D-04 at cycle   6 NSaved=   6.
 NSaved= 6 IEnMin= 6 EnMin= -631.729241627242     IErMin= 6 ErrMin= 2.43D-04
 ErrMax= 2.43D-04  0.00D+00 EMaxC= 1.00D-01 BMatC= 1.65D-05 BMatP= 1.05D-04
 IDIUse=3 WtCom= 9.98D-01 WtEn= 2.43D-03
 Coeff-Com:  0.186D-01-0.381D-01-0.520D-01-0.490D-01 0.235D+00 0.886D+00
 Coeff-En:   0.000D+00 0.000D+00 0.000D+00 0.000D+00 0.000D+00 0.100D+01
 Coeff:      0.185D-01-0.380D-01-0.519D-01-0.489D-01 0.234D+00 0.886D+00
 Gap=     0.300 Goal=   None    Shift=    0.000
 RMSDP=3.68D-05 MaxDP=1.03D-03 DE=-1.05D-04 OVMax= 3.56D-03

 Cycle   7  Pass 0  IDiag  1:
 E= -631.729271591587     Delta-E=       -0.000029964345 Rises=F Damp=F
 DIIS: error= 8.29D-05 at cycle   7 NSaved=   7.
 NSaved= 7 IEnMin= 7 EnMin= -631.729271591587     IErMin= 7 ErrMin= 8.29D-05
 ErrMax= 8.29D-05  0.00D+00 EMaxC= 1.00D-01 BMatC= 2.88D-06 BMatP= 1.65D-05
 IDIUse=1 WtCom= 1.00D+00 WtEn= 0.00D+00
 Coeff-Com:  0.993D-02-0.203D-01-0.314D-01-0.418D-01 0.151D-01 0.388D+00
 Coeff-Com:  0.681D+00
 Coeff:      0.993D-02-0.203D-01-0.314D-01-0.418D-01 0.151D-01 0.388D+00
 Coeff:      0.681D+00
 Gap=     0.300 Goal=   None    Shift=    0.000
 RMSDP=1.40D-05 MaxDP=3.36D-04 DE=-3.00D-05 OVMax= 8.62D-04

 Cycle   8  Pass 0  IDiag  1:
 E= -631.729275359758     Delta-E=       -0.000003768170 Rises=F Damp=F
 DIIS: error= 2.82D-05 at cycle   8 NSaved=   8.
 NSaved= 8 IEnMin= 8 EnMin= -631.729275359758     IErMin= 8 ErrMin= 2.82D-05
 ErrMax= 2.82D-05  0.00D+00 EMaxC= 1.00D-01 BMatC= 2.64D-07 BMatP= 2.88D-06
 IDIUse=1 WtCom= 1.00D+00 WtEn= 0.00D+00
 Coeff-Com: -0.306D-03 0.705D-03 0.257D-03-0.479D-02-0.469D-01-0.136D-01
 Coeff-Com:  0.198D+00 0.867D+00
 Coeff:     -0.306D-03 0.705D-03 0.257D-03-0.479D-02-0.469D-01-0.136D-01
 Coeff:      0.198D+00 0.867D+00
 Gap=     0.300 Goal=   None    Shift=    0.000
 RMSDP=5.77D-06 MaxDP=1.16D-04 DE=-3.77D-06 OVMax= 6.35D-04

 Initial convergence to 1.0D-05 achieved.  Increase integral accuracy.
 Cycle   9  Pass 1  IDiag  1:
 E= -631.728585608741     Delta-E=        0.000689751016 Rises=F Damp=F
 DIIS: error= 8.43D-05 at cycle   1 NSaved=   1.
 NSaved= 1 IEnMin= 1 EnMin= -631.728585608741     IErMin= 1 ErrMin= 8.43D-05
 ErrMax= 8.43D-05  0.00D+00 EMaxC= 1.00D-01 BMatC= 4.93D-06 BMatP= 4.93D-06
 IDIUse=1 WtCom= 1.00D+00 WtEn= 0.00D+00
 Coeff-Com:  0.100D+01
 Coeff:      0.100D+01
 Gap=     0.300 Goal=   None    Shift=    0.000
 RMSDP=5.77D-06 MaxDP=1.16D-04 DE= 6.90D-04 OVMax= 2.01D-04

 Cycle  10  Pass 1  IDiag  1:
 E= -631.728589625123     Delta-E=       -0.000004016382 Rises=F Damp=F
 DIIS: error= 1.17D-05 at cycle   2 NSaved=   2.
 NSaved= 2 IEnMin= 2 EnMin= -631.728589625123     IErMin= 2 ErrMin= 1.17D-05
 ErrMax= 1.17D-05  0.00D+00 EMaxC= 1.00D-01 BMatC= 1.06D-07 BMatP= 4.93D-06
 IDIUse=1 WtCom= 1.00D+00 WtEn= 0.00D+00
 Coeff-Com: -0.572D-01 0.106D+01
 Coeff:     -0.572D-01 0.106D+01
 Gap=     0.300 Goal=   None    Shift=    0.000
 RMSDP=2.69D-06 MaxDP=8.90D-05 DE=-4.02D-06 OVMax= 1.75D-04

 Cycle  11  Pass 1  IDiag  1:
 E= -631.728589701920     Delta-E=       -0.000000076797 Rises=F Damp=F
 DIIS: error= 1.37D-05 at cycle   3 NSaved=   3.
 NSaved= 3 IEnMin= 3 EnMin= -631.728589701920     IErMin= 2 ErrMin= 1.17D-05
 ErrMax= 1.37D-05  0.00D+00 EMaxC= 1.00D-01 BMatC= 8.42D-08 BMatP= 1.06D-07
 IDIUse=1 WtCom= 1.00D+00 WtEn= 0.00D+00
 Coeff-Com: -0.451D-01 0.523D+00 0.522D+00
 Coeff:     -0.451D-01 0.523D+00 0.522D+00
 Gap=     0.300 Goal=   None    Shift=    0.000
 RMSDP=1.41D-06 MaxDP=5.35D-05 DE=-7.68D-08 OVMax= 7.22D-05

 Cycle  12  Pass 1  IDiag  1:
 E= -631.728589769096     Delta-E=       -0.000000067176 Rises=F Damp=F
 DIIS: error= 2.62D-06 at cycle   4 NSaved=   4.
 NSaved= 4 IEnMin= 4 EnMin= -631.728589769096     IErMin= 4 ErrMin= 2.62D-06
 ErrMax= 2.62D-06  0.00D+00 EMaxC= 1.00D-01 BMatC= 3.85D-09 BMatP= 8.42D-08
 IDIUse=1 WtCom= 1.00D+00 WtEn= 0.00D+00
 Coeff-Com: -0.762D-02 0.348D-01 0.162D+00 0.811D+00
 Coeff:     -0.762D-02 0.348D-01 0.162D+00 0.811D+00
 Gap=     0.300 Goal=   None    Shift=    0.000
 RMSDP=4.07D-07 MaxDP=1.61D-05 DE=-6.72D-08 OVMax= 3.77D-05

 Cycle  13  Pass 1  IDiag  1:
 E= -631.728589774114     Delta-E=       -0.000000005018 Rises=F Damp=F
 DIIS: error= 1.97D-06 at cycle   5 NSaved=   5.
 NSaved= 5 IEnMin= 5 EnMin= -631.728589774114     IErMin= 5 ErrMin= 1.97D-06
 ErrMax= 1.97D-06  0.00D+00 EMaxC= 1.00D-01 BMatC= 8.41D-10 BMatP= 3.85D-09
 IDIUse=1 WtCom= 1.00D+00 WtEn= 0.00D+00
 Coeff-Com:  0.183D-02-0.400D-01-0.799D-03 0.337D+00 0.702D+00
 Coeff:      0.183D-02-0.400D-01-0.799D-03 0.337D+00 0.702D+00
 Gap=     0.300 Goal=   None    Shift=    0.000
 RMSDP=2.08D-07 MaxDP=5.60D-06 DE=-5.02D-09 OVMax= 1.35D-05

 Cycle  14  Pass 1  IDiag  1:
 E= -631.728589775321     Delta-E=       -0.000000001207 Rises=F Damp=F
 DIIS: error= 7.33D-07 at cycle   6 NSaved=   6.
 NSaved= 6 IEnMin= 6 EnMin= -631.728589775321     IErMin= 6 ErrMin= 7.33D-07
 ErrMax= 7.33D-07  0.00D+00 EMaxC= 1.00D-01 BMatC= 1.43D-10 BMatP= 8.41D-10
 IDIUse=1 WtCom= 1.00D+00 WtEn= 0.00D+00
 Coeff-Com:  0.215D-02-0.252D-01-0.326D-01 0.181D-01 0.287D+00 0.750D+00
 Coeff:      0.215D-02-0.252D-01-0.326D-01 0.181D-01 0.287D+00 0.750D+00
 Gap=     0.300 Goal=   None    Shift=    0.000
 RMSDP=1.03D-07 MaxDP=2.22D-06 DE=-1.21D-09 OVMax= 9.70D-06

 Cycle  15  Pass 1  IDiag  1:
 E= -631.728589775656     Delta-E=       -0.000000000334 Rises=F Damp=F
 DIIS: error= 3.46D-07 at cycle   7 NSaved=   7.
 NSaved= 7 IEnMin= 7 EnMin= -631.728589775656     IErMin= 7 ErrMin= 3.46D-07
 ErrMax= 3.46D-07  0.00D+00 EMaxC= 1.00D-01 BMatC= 3.02D-11 BMatP= 1.43D-10
 IDIUse=1 WtCom= 1.00D+00 WtEn= 0.00D+00
 Coeff-Com:  0.458D-03-0.953D-03-0.149D-01-0.648D-01-0.437D-01 0.306D+00
 Coeff-Com:  0.817D+00
 Coeff:      0.458D-03-0.953D-03-0.149D-01-0.648D-01-0.437D-01 0.306D+00
 Coeff:      0.817D+00
 Gap=     0.300 Goal=   None    Shift=    0.000
 RMSDP=5.69D-08 MaxDP=1.28D-06 DE=-3.34D-10 OVMax= 6.19D-06

 Cycle  16  Pass 1  IDiag  1:
 E= -631.728589775745     Delta-E=       -0.000000000089 Rises=F Damp=F
 DIIS: error= 1.35D-07 at cycle   8 NSaved=   8.
 NSaved= 8 IEnMin= 8 EnMin= -631.728589775745     IErMin= 8 ErrMin= 1.35D-07
 ErrMax= 1.35D-07  0.00D+00 EMaxC= 1.00D-01 BMatC= 3.94D-12 BMatP= 3.02D-11
 IDIUse=1 WtCom= 1.00D+00 WtEn= 0.00D+00
 Coeff-Com: -0.343D-03 0.498D-02 0.312D-02-0.163D-01-0.739D-01-0.902D-01
 Coeff-Com:  0.193D+00 0.980D+00
 Coeff:     -0.343D-03 0.498D-02 0.312D-02-0.163D-01-0.739D-01-0.902D-01
 Coeff:      0.193D+00 0.980D+00
 Gap=     0.300 Goal=   None    Shift=    0.000
 RMSDP=2.84D-08 MaxDP=4.82D-07 DE=-8.91D-11 OVMax= 3.03D-06

 Cycle  17  Pass 1  IDiag  1:
 E= -631.728589775777     Delta-E=       -0.000000000032 Rises=F Damp=F
 DIIS: error= 4.01D-08 at cycle   9 NSaved=   9.
 NSaved= 9 IEnMin= 9 EnMin= -631.728589775777     IErMin= 9 ErrMin= 4.01D-08
 ErrMax= 4.01D-08  0.00D+00 EMaxC= 1.00D-01 BMatC= 6.55D-13 BMatP= 3.94D-12
 IDIUse=1 WtCom= 1.00D+00 WtEn= 0.00D+00
 Coeff-Com: -0.185D-03 0.202D-02 0.316D-02 0.248D-02-0.211D-01-0.724D-01
 Coeff-Com: -0.421D-01 0.356D+00 0.772D+00
 Coeff:     -0.185D-03 0.202D-02 0.316D-02 0.248D-02-0.211D-01-0.724D-01
 Coeff:     -0.421D-01 0.356D+00 0.772D+00
 Gap=     0.300 Goal=   None    Shift=    0.000
 RMSDP=8.23D-09 MaxDP=1.35D-07 DE=-3.18D-11 OVMax= 7.82D-07

 SCF Done:  E(RwB97XD) =  -631.728589776     A.U. after   17 cycles
            NFock= 17  Conv=0.82D-08     -V/T= 2.0033
 KE= 6.296526171184D+02 PE=-3.171239788276D+03 EE= 1.060702804516D+03
 Leave Link  502 at Thu Sep 28 11:10:29 2017, MaxMem=  1879048192 cpu:        90.2
 (Enter /share/apps/gaussian/g09_D01/g09/l801.exe)
 DoSCS=F DFT=T ScalE2(SS,OS)=  1.000000  1.000000
 ExpMin= 1.61D-01 ExpMax= 5.48D+03 ExpMxC= 8.25D+02 IAcc=3 IRadAn=         5 AccDes= 0.00D+00
 HarFok:  IExCor=  205 AccDes= 0.00D+00 IRadAn=         5 IDoV=-2 UseB2=F ITyADJ=14
 ICtDFT= 12500011 ScaDFX=  1.000000  1.000000  1.000000  1.000000
 Largest valence mixing into a core orbital is  7.26D-05
 Largest core mixing into a valence orbital is  1.19D-05
 Range of M.O.s used for correlation:    15   236
 NBasis=   236 NAE=    51 NBE=    51 NFC=    14 NFV=     0
 NROrb=    222 NOA=    37 NOB=    37 NVA=   185 NVB=   185
 Leave Link  801 at Thu Sep 28 11:10:29 2017, MaxMem=  1879048192 cpu:         0.7
 (Enter /share/apps/gaussian/g09_D01/g09/l914.exe)
 RHF ground state
 MDV=  1879048192 DFT=T DoStab=F Mixed=T DoRPA=T DoScal=F NonHer=T
 Would need an additional           480300000 words for in-memory AO integral storage.
 Making orbital integer symmetry assigments:
    16 initial guesses have been made.
 Convergence on wavefunction:    0.001000000000000
 Davidson Disk Diagonalization:  ConvIn= 1.00D-03 SkipCon=T Conv= 1.00D-03.
 Max sub-space:   200 roots to seek:    16 dimension of matrix:        13690
 Iteration     1 Dimension    16 NMult     0 NNew     16
 CISAX will form    16 AO SS matrices at one time.
 NMat=    16 NSing=    16 JSym2X= 0.
 FoFJK:  IHMeth= 1 ICntrl=       0 DoSepK=T KAlg= 0 I1Cent=   0 FoldK=F
 IRaf=         1 NMat=  32 IRICut=       1 DoRegI=T DoRafI=F ISym2E= 0.
 FoFCou: FMM=F IPFlag=           0 FMFlag=      100000 FMFlg1=           0
         NFxFlg=           0 DoJE=F BraDBF=F KetDBF=F FulRan=T
         wScrn=  0.000000 ICntrl=     500 IOpCl=  0 I1Cent=           0 NGrid=           0
         NMat0=   16 NMatS0=     16 NMatT0=    0 NMatD0=   16 NMtDS0=    0 NMtDT0=    0
 Symmetry not used in FoFCou.
 New state      1 was old state      3
 New state      2 was old state      1
 New state      3 was old state      2
 Excitation Energies [eV] at current iteration:
 Root      1 :     4.303234323128193
 Root      2 :     4.722393739237918
 Root      3 :     5.334346457876959
 Root      4 :     6.156812200006404
 Root      5 :     6.732064293475877
 Root      6 :     6.821099090698803
 Root      7 :     6.912296870026972
 Root      8 :     7.269430432006915
 Root      9 :     7.347071039802133
 Root     10 :     7.584107180849704
 Root     11 :     7.831811175934458
 Root     12 :     8.195367775426938
 Root     13 :     8.587978796755360
 Root     14 :     8.671047459173753
 Root     15 :     8.911679127864124
 Root     16 :     9.291497077136874
 Iteration     2 Dimension    24 NMult    16 NNew      8
 CISAX will form     8 AO SS matrices at one time.
 NMat=     8 NSing=     8 JSym2X= 0.
 Root      1 not converged, maximum delta is    0.105559868415205
 Root      2 not converged, maximum delta is    0.127348786827733
 Root      3 not converged, maximum delta is    0.139657744418759
 Root      4 not converged, maximum delta is    0.125331923585225
 Excitation Energies [eV] at current iteration:
 Root      1 :     4.065816224705825   Change is   -0.237418098422368
 Root      2 :     4.434823063691464   Change is   -0.287570675546454
 Root      3 :     4.828788200299624   Change is   -0.505558257577335
 Root      4 :     5.628130335183652   Change is   -0.528681864822752
 Iteration     3 Dimension    32 NMult    24 NNew      8
 CISAX will form     8 AO SS matrices at one time.
 NMat=     8 NSing=     8 JSym2X= 0.
 Root      1 not converged, maximum delta is    0.015097703479053
 Root      2 not converged, maximum delta is    0.012190822158963
 Root      3 not converged, maximum delta is    0.017084108677048
 Root      4 not converged, maximum delta is    0.035950109547972
 Excitation Energies [eV] at current iteration:
 Root      1 :     4.054652106152903   Change is   -0.011164118552922
 Root      2 :     4.414528717537856   Change is   -0.020294346153609
 Root      3 :     4.798043181196238   Change is   -0.030745019103386
 Root      4 :     5.580294883603743   Change is   -0.047835451579909
 Iteration     4 Dimension    40 NMult    32 NNew      8
 CISAX will form     8 AO SS matrices at one time.
 NMat=     8 NSing=     8 JSym2X= 0.
 Root      1 not converged, maximum delta is    0.001232630751672
 Root      2 not converged, maximum delta is    0.002454072989135
 Root      3 not converged, maximum delta is    0.004679347673080
 Root      4 not converged, maximum delta is    0.014420918213773
 Excitation Energies [eV] at current iteration:
 Root      1 :     4.054251788554048   Change is   -0.000400317598856
 Root      2 :     4.412463899895245   Change is   -0.002064817642611
 Root      3 :     4.794504484379748   Change is   -0.003538696816491
 Root      4 :     5.574590416611677   Change is   -0.005704466992066
 Iteration     5 Dimension    48 NMult    40 NNew      8
 CISAX will form     8 AO SS matrices at one time.
 NMat=     8 NSing=     8 JSym2X= 0.
 Root      1 has converged.
 Root      2 has converged.
 Root      3 has converged.
 Root      4 not converged, maximum delta is    0.002077558519179
 Excitation Energies [eV] at current iteration:
 Root      1 :     4.054233157491330   Change is   -0.000018631062717
 Root      2 :     4.412350327577110   Change is   -0.000113572318134
 Root      3 :     4.794316301256103   Change is   -0.000188183123644
 Root      4 :     5.573950695855607   Change is   -0.000639720756070
 Iteration     6 Dimension    50 NMult    48 NNew      2
 CISAX will form     2 AO SS matrices at one time.
 NMat=     2 NSing=     2 JSym2X= 0.
 Root      1 has converged.
 Root      2 has converged.
 Root      3 has converged.
 Root      4 has converged.
 Excitation Energies [eV] at current iteration:
 Root      1 :     4.054233122929887   Change is   -0.000000034561444
 Root      2 :     4.412350214593630   Change is   -0.000000112983481
 Root      3 :     4.794314713378017   Change is   -0.000001587878086
 Root      4 :     5.573923925271520   Change is   -0.000026770584087
 Convergence achieved on expansion vectors.
 ***********************************************************************
 Excited states from <AA,BB:AA,BB> singles matrix:
 ***********************************************************************
 
 1PDM for each excited state written to RWF  633
 Ground to excited state transition densities written to RWF  633
 Ground to excited state transition electric dipole moments (Au):
       state          X           Y           Z        Dip. S.      Osc.
         1         0.1445      0.0894      0.0279      0.0296      0.0029
         2         1.9515      1.0672      0.1694      4.9759      0.5379
         3        -1.0753     -0.5118     -0.0582      1.4216      0.1670
         4         0.4301      0.0099     -0.4226      0.3637      0.0497
 Ground to excited state transition velocity dipole moments (Au):
       state          X           Y           Z        Dip. S.      Osc.
         1        -0.0231     -0.0125     -0.0048      0.0007      0.0032
         2        -0.3122     -0.1732     -0.0318      0.1285      0.5282
         3         0.1851      0.0860      0.0055      0.0417      0.1577
         4        -0.0710      0.0038      0.0815      0.0117      0.0381
 Ground to excited state transition magnetic dipole moments (Au):
       state          X           Y           Z
         1        -0.0985      0.1657      0.4651
         2         0.9065     -1.3802     -1.8417
         3        -0.9237      1.9098      0.2986
         4         0.3211     -1.9080      0.3798
 Ground to excited state transition velocity quadrupole moments (Au):
       state          XX          YY          ZZ          XY          XZ          YZ
         1        -0.6561     -0.0585     -0.0772     -0.2201     -0.2229     -0.1141
         2        -9.5630     -1.2083     -0.5566     -3.7197     -2.5715     -1.3645
         3         4.4368      0.1463      0.3028      1.1567      1.0212      0.5823
         4        -2.8600     -0.1077      1.1664     -0.4690      0.8642      0.3544
 <0|del|b> * <b|rxdel|0> + <0|del|b> * <b|delr+rdel|0>
 Rotatory Strengths (R) in cgs (10**-40 erg-esu-cm/Gauss)
       state          XX          YY          ZZ    R(velocity)    E-M Angle
         1       -14.2920      3.9450      0.8358     -3.1704       98.57
         2       -64.0566    181.5673    -53.8997     21.2037       89.06
         3       169.2070   -136.2339    -53.9749     -7.0006       90.69
         4       -30.5138     36.5509     -2.6822      1.1183       89.74
 1/2[<0|r|b>*<b|rxdel|0> + (<0|rxdel|b>*<b|r|0>)*]
 Rotatory Strengths (R) in cgs (10**-40 erg-esu-cm/Gauss)
       state          XX          YY          ZZ     R(length)
         1        10.0579    -10.4817     -9.1635     -3.1958
         2     -1250.9266   1041.6175    220.5888      3.7599
         3      -702.4054    691.2126     12.2872      0.3648
         4       -97.6714     13.3764    113.4959      9.7336
  1/2[<0|del|b>*<b|r|0> + (<0|r|b>*<b|del|0>)*] (Au)
       state          X           Y           Z        Dip. S.   Osc.(frdel)
         1        -0.0033     -0.0011     -0.0001      0.0046      0.0031
         2        -0.6093     -0.1848     -0.0054      0.7995      0.5330
         3        -0.1991     -0.0440     -0.0003      0.2434      0.1622
         4        -0.0305      0.0000     -0.0344      0.0649      0.0433

 Excitation energies and oscillator strengths:
 
 Excited state symmetry could not be determined.
 Excited State   1:      Singlet-?Sym    4.0542 eV  305.81 nm  f=0.0029  <S**2>=0.000
      49 -> 52         0.67831
      49 -> 56         0.12861
 This state for optimization and/or second-order correction.
 Total Energy, E(TD-HF/TD-KS) =  -631.579599444    
 Copying the excited state density for this state as the 1-particle RhoCI density.
 
 Excited state symmetry could not be determined.
 Excited State   2:      Singlet-?Sym    4.4124 eV  280.99 nm  f=0.5379  <S**2>=0.000
      50 -> 52         0.20074
      50 -> 53         0.10135
      51 -> 52         0.64648
 
 Excited state symmetry could not be determined.
 Excited State   3:      Singlet-?Sym    4.7943 eV  258.61 nm  f=0.1670  <S**2>=0.000
      48 -> 54        -0.11784
      50 -> 52         0.62903
      51 -> 52        -0.22629
      51 -> 53         0.12974
 
 Excited state symmetry could not be determined.
 Excited State   4:      Singlet-?Sym    5.5739 eV  222.44 nm  f=0.0497  <S**2>=0.000
      48 -> 52         0.57130
      48 -> 54         0.12043
      50 -> 52         0.15666
      50 -> 53        -0.26500
      51 -> 53        -0.19932
      51 -> 54         0.10102
 SavETr:  write IOETrn=   770 NScale= 10 NData=  16 NLR=1 NState=    4 LETran=      82.
 Leave Link  914 at Thu Sep 28 11:13:06 2017, MaxMem=  1879048192 cpu:       313.2
 (Enter /share/apps/gaussian/g09_D01/g09/l601.exe)
 Copying SCF densities to generalized density rwf, IOpCl= 0 IROHF=0.
 Saving Alpha spin NTOs for state    1 to file 10524.

 **********************************************************************

   Populations using transition density between ground and state  1.

 **********************************************************************

 Alpha  occ. eigenvalues --    0.00000   0.00000   0.00000   0.00000   0.00000
 Alpha  occ. eigenvalues --    0.00000   0.00000   0.00000   0.00000   0.00000
 Alpha  occ. eigenvalues --    0.00000   0.00000   0.00000   0.00000   0.00000
 Alpha  occ. eigenvalues --    0.00000   0.00000   0.00000   0.00000   0.00000
 Alpha  occ. eigenvalues --    0.00000   0.00000   0.00000   0.00000   0.00000
 Alpha  occ. eigenvalues --    0.00000   0.00000   0.00000   0.00000   0.00000
 Alpha  occ. eigenvalues --    0.00000   0.00000   0.00000   0.00000   0.00000
 Alpha  occ. eigenvalues --    0.00000   0.00001   0.00001   0.00001   0.00001
 Alpha  occ. eigenvalues --    0.00001   0.00002   0.00002   0.00003   0.00004
 Alpha  occ. eigenvalues --    0.00005   0.00007   0.00016   0.00041   0.00194
 Alpha  occ. eigenvalues --    0.99844
 Alpha virt. eigenvalues --    0.99844   0.00194   0.00041   0.00016   0.00007
 Alpha virt. eigenvalues --    0.00005   0.00004   0.00003   0.00002   0.00002
 Alpha virt. eigenvalues --    0.00001   0.00001   0.00001   0.00001   0.00001
 Alpha virt. eigenvalues --    0.00000   0.00000   0.00000   0.00000   0.00000
 Alpha virt. eigenvalues --    0.00000   0.00000   0.00000   0.00000   0.00000
 Alpha virt. eigenvalues --    0.00000   0.00000   0.00000   0.00000   0.00000
 Alpha virt. eigenvalues --    0.00000   0.00000   0.00000   0.00000   0.00000
 Alpha virt. eigenvalues --    0.00000   0.00000   0.00000   0.00000   0.00000
 Alpha virt. eigenvalues --    0.00000   0.00000   0.00000   0.00000   0.00000
 Alpha virt. eigenvalues --    0.00000   0.00000   0.00000   0.00000   0.00000
 Alpha virt. eigenvalues --    0.00000   0.00000   0.00000   0.00000   0.00000
 Alpha virt. eigenvalues --    0.00000   0.00000   0.00000   0.00000   0.00000
 Alpha virt. eigenvalues --    0.00000   0.00000   0.00000   0.00000   0.00000
 Alpha virt. eigenvalues --    0.00000   0.00000   0.00000   0.00000   0.00000
 Alpha virt. eigenvalues --    0.00000   0.00000   0.00000   0.00000   0.00000
 Alpha virt. eigenvalues --    0.00000   0.00000   0.00000   0.00000   0.00000
 Alpha virt. eigenvalues --    0.00000   0.00000   0.00000   0.00000   0.00000
 Alpha virt. eigenvalues --    0.00000   0.00000   0.00000   0.00000   0.00000
 Alpha virt. eigenvalues --    0.00000   0.00000   0.00000   0.00000   0.00000
 Alpha virt. eigenvalues --    0.00000   0.00000   0.00000   0.00000   0.00000
 Alpha virt. eigenvalues --    0.00000   0.00000   0.00000   0.00000   0.00000
 Alpha virt. eigenvalues --    0.00000   0.00000   0.00000   0.00000   0.00000
 Alpha virt. eigenvalues --    0.00000   0.00000   0.00000   0.00000   0.00000
 Alpha virt. eigenvalues --    0.00000   0.00000   0.00000   0.00000   0.00000
 Alpha virt. eigenvalues --    0.00000   0.00000   0.00000   0.00000   0.00000
 Alpha virt. eigenvalues --    0.00000   0.00000   0.00000   0.00000   0.00000
 Alpha virt. eigenvalues --    0.00000   0.00000   0.00000   0.00000   0.00000
 Alpha virt. eigenvalues --    0.00000   0.00000   0.00000   0.00000   0.00000
 Alpha virt. eigenvalues --    0.00000   0.00000   0.00000   0.00000   0.00000
 Alpha virt. eigenvalues --    0.00000   0.00000   0.00000   0.00000   0.00000
 Alpha virt. eigenvalues --    0.00000   0.00000   0.00000   0.00000   0.00000
 Alpha virt. eigenvalues --    0.00000   0.00000   0.00000   0.00000   0.00000
 Alpha virt. eigenvalues --    0.00000   0.00000   0.00000   0.00000   0.00000
 Alpha virt. eigenvalues --    0.00000   0.00000   0.00000   0.00000   0.00000
 Alpha virt. eigenvalues --    0.00000   0.00000   0.00000   0.00000   0.00000
 Alpha virt. eigenvalues --    0.00000   0.00000   0.00000   0.00000   0.00000
 Alpha virt. eigenvalues --    0.00000   0.00000   0.00000   0.00000   0.00000
          Condensed to atoms (all electrons):
               1          2          3          4          5          6
     1  C    0.008495   0.003107   0.000162  -0.003515  -0.000237  -0.000613
     2  C    0.003107   0.002877   0.000439   0.000549  -0.006890   0.001692
     3  C    0.000162   0.000439  -0.004071   0.000743   0.000439  -0.000944
     4  C   -0.003515   0.000549   0.000743  -0.002545  -0.000008  -0.000243
     5  C   -0.000237  -0.006890   0.000439  -0.000008  -0.005620   0.001107
     6  O   -0.000613   0.001692  -0.000944  -0.000243   0.001107  -0.015328
     7  C   -0.000694  -0.000212  -0.002304   0.000034  -0.000005  -0.000083
     8  O    0.000679   0.000847   0.002046   0.000005  -0.000028  -0.001656
     9  H   -0.000983  -0.001119   0.000276   0.000028   0.000103   0.004873
    10  C    0.000025  -0.000094   0.000081   0.004705   0.000087   0.000008
    11  H   -0.000300   0.000338   0.000073  -0.000119   0.000093   0.000004
    12  C    0.000313  -0.001194  -0.000017  -0.000043   0.009073  -0.002010
    13  H   -0.000785  -0.001694  -0.000015   0.000041   0.002703  -0.000152
    14  C    0.000535   0.000022  -0.000233   0.000083  -0.000001   0.000005
    15  H   -0.000126   0.000000   0.000126  -0.000038   0.000000   0.000000
    16  H   -0.000037   0.000005   0.000035   0.000170  -0.000002   0.000000
    17  H   -0.000040  -0.001226  -0.000002   0.000003  -0.001583  -0.000046
    18  N   -0.000012  -0.000013   0.000000   0.000002  -0.000322   0.000001
    19  H    0.000002   0.000000  -0.000072   0.000027   0.000000   0.000000
    20  C    0.000014   0.000074   0.000000  -0.000004  -0.000326   0.000006
    21  C    0.000000  -0.000008   0.000000   0.000000   0.000079  -0.000003
    22  H   -0.000047  -0.000183   0.000000   0.000017  -0.000140  -0.000013
    23  H    0.000000  -0.000001   0.000000   0.000000  -0.000012   0.000000
    24  H    0.000011   0.000057   0.000000  -0.000004   0.000381   0.000003
    25  H    0.000000   0.000001   0.000000   0.000000  -0.000009   0.000000
    26  H    0.000000   0.000004   0.000000   0.000000  -0.000033   0.000001
    27  H    0.000000  -0.000004   0.000000   0.000000   0.000041  -0.000001
               7          8          9         10         11         12
     1  C   -0.000694   0.000679  -0.000983   0.000025  -0.000300   0.000313
     2  C   -0.000212   0.000847  -0.001119  -0.000094   0.000338  -0.001194
     3  C   -0.002304   0.002046   0.000276   0.000081   0.000073  -0.000017
     4  C    0.000034   0.000005   0.000028   0.004705  -0.000119  -0.000043
     5  C   -0.000005  -0.000028   0.000103   0.000087   0.000093   0.009073
     6  O   -0.000083  -0.001656   0.004873   0.000008   0.000004  -0.002010
     7  C   -0.001567   0.000212  -0.000158  -0.000048  -0.000013   0.000000
     8  O    0.000212  -0.001767  -0.002999  -0.000002  -0.000001  -0.000001
     9  H   -0.000158  -0.002999   0.001118   0.000004   0.000004   0.000002
    10  C   -0.000048  -0.000002   0.000004  -0.002399   0.000655   0.000000
    11  H   -0.000013  -0.000001   0.000004   0.000655  -0.002162  -0.000053
    12  C    0.000000  -0.000001   0.000002   0.000000  -0.000053   0.000033
    13  H    0.000000  -0.000001   0.000003  -0.000027  -0.000014   0.002331
    14  C    0.002922  -0.000032   0.000006  -0.003991  -0.000022   0.000000
    15  H    0.000151   0.000055   0.000029  -0.000031   0.000000   0.000000
    16  H   -0.000057   0.000000   0.000000   0.000744   0.000067   0.000000
    17  H    0.000000   0.000001  -0.000014   0.000000  -0.000001   0.002542
    18  N    0.000000   0.000000   0.000000   0.000000   0.000001  -0.005997
    19  H    0.000304   0.000000   0.000000   0.000189   0.000001   0.000000
    20  C    0.000000   0.000000   0.000000   0.000000  -0.000003   0.000551
    21  C    0.000000   0.000000   0.000000   0.000000   0.000000   0.000690
    22  H    0.000000   0.000000   0.000000   0.000000   0.000015  -0.000636
    23  H    0.000000   0.000000   0.000000   0.000000   0.000000   0.000066
    24  H    0.000000   0.000000   0.000000   0.000000  -0.000006   0.000300
    25  H    0.000000   0.000000   0.000000   0.000000   0.000000  -0.000144
    26  H    0.000000   0.000000   0.000000   0.000000   0.000000  -0.001004
    27  H    0.000000   0.000000   0.000000   0.000000   0.000000   0.001214
              13         14         15         16         17         18
     1  C   -0.000785   0.000535  -0.000126  -0.000037  -0.000040  -0.000012
     2  C   -0.001694   0.000022   0.000000   0.000005  -0.001226  -0.000013
     3  C   -0.000015  -0.000233   0.000126   0.000035  -0.000002   0.000000
     4  C    0.000041   0.000083  -0.000038   0.000170   0.000003   0.000002
     5  C    0.002703  -0.000001   0.000000  -0.000002  -0.001583  -0.000322
     6  O   -0.000152   0.000005   0.000000   0.000000  -0.000046   0.000001
     7  C    0.000000   0.002922   0.000151  -0.000057   0.000000   0.000000
     8  O   -0.000001  -0.000032   0.000055   0.000000   0.000001   0.000000
     9  H    0.000003   0.000006   0.000029   0.000000  -0.000014   0.000000
    10  C   -0.000027  -0.003991  -0.000031   0.000744   0.000000   0.000000
    11  H   -0.000014  -0.000022   0.000000   0.000067  -0.000001   0.000001
    12  C    0.002331   0.000000   0.000000   0.000000   0.002542  -0.005997
    13  H   -0.004593   0.000000   0.000000   0.000002  -0.000107  -0.000170
    14  C    0.000000  -0.000733   0.000465  -0.000052   0.000000   0.000000
    15  H    0.000000   0.000465  -0.002001   0.000001   0.000000   0.000000
    16  H    0.000002  -0.000052   0.000001  -0.002353   0.000000   0.000000
    17  H   -0.000107   0.000000   0.000000   0.000000   0.003850  -0.000268
    18  N   -0.000170   0.000000   0.000000   0.000000  -0.000268   0.009968
    19  H    0.000000   0.000037   0.000049   0.000060   0.000000   0.000000
    20  C    0.000363   0.000000   0.000000   0.000000   0.000240   0.003111
    21  C   -0.000002   0.000000   0.000000   0.000000  -0.000313   0.002563
    22  H   -0.000872   0.000000   0.000000   0.000000  -0.000321  -0.000555
    23  H   -0.000032   0.000000   0.000000   0.000000  -0.000026   0.000239
    24  H    0.000416   0.000000   0.000000   0.000000   0.000205  -0.001929
    25  H    0.000000   0.000000   0.000000   0.000000   0.000108  -0.000141
    26  H    0.000004   0.000000   0.000000   0.000000   0.000305  -0.000018
    27  H   -0.000003   0.000000   0.000000   0.000000  -0.000300  -0.001796
              19         20         21         22         23         24
     1  C    0.000002   0.000014   0.000000  -0.000047   0.000000   0.000011
     2  C    0.000000   0.000074  -0.000008  -0.000183  -0.000001   0.000057
     3  C   -0.000072   0.000000   0.000000   0.000000   0.000000   0.000000
     4  C    0.000027  -0.000004   0.000000   0.000017   0.000000  -0.000004
     5  C    0.000000  -0.000326   0.000079  -0.000140  -0.000012   0.000381
     6  O    0.000000   0.000006  -0.000003  -0.000013   0.000000   0.000003
     7  C    0.000304   0.000000   0.000000   0.000000   0.000000   0.000000
     8  O    0.000000   0.000000   0.000000   0.000000   0.000000   0.000000
     9  H    0.000000   0.000000   0.000000   0.000000   0.000000   0.000000
    10  C    0.000189   0.000000   0.000000   0.000000   0.000000   0.000000
    11  H    0.000001  -0.000003   0.000000   0.000015   0.000000  -0.000006
    12  C    0.000000   0.000551   0.000690  -0.000636   0.000066   0.000300
    13  H    0.000000   0.000363  -0.000002  -0.000872  -0.000032   0.000416
    14  C    0.000037   0.000000   0.000000   0.000000   0.000000   0.000000
    15  H    0.000049   0.000000   0.000000   0.000000   0.000000   0.000000
    16  H    0.000060   0.000000   0.000000   0.000000   0.000000   0.000000
    17  H    0.000000   0.000240  -0.000313  -0.000321  -0.000026   0.000205
    18  N    0.000000   0.003111   0.002563  -0.000555   0.000239  -0.001929
    19  H   -0.002161   0.000000   0.000000   0.000000   0.000000   0.000000
    20  C    0.000000  -0.005472  -0.000543   0.000920   0.000297  -0.000617
    21  C    0.000000  -0.000543  -0.004253  -0.000175  -0.000210   0.000322
    22  H    0.000000   0.000920  -0.000175   0.007681  -0.000780  -0.001859
    23  H    0.000000   0.000297  -0.000210  -0.000780   0.001770   0.000156
    24  H    0.000000  -0.000617   0.000322  -0.001859   0.000156   0.006128
    25  H    0.000000   0.000067   0.000002   0.000002   0.000000  -0.000010
    26  H    0.000000  -0.000085   0.000877  -0.000021   0.000086   0.000105
    27  H    0.000000   0.000037  -0.000423   0.000088  -0.000009  -0.000087
              25         26         27
     1  C    0.000000   0.000000   0.000000
     2  C    0.000001   0.000004  -0.000004
     3  C    0.000000   0.000000   0.000000
     4  C    0.000000   0.000000   0.000000
     5  C   -0.000009  -0.000033   0.000041
     6  O    0.000000   0.000001  -0.000001
     7  C    0.000000   0.000000   0.000000
     8  O    0.000000   0.000000   0.000000
     9  H    0.000000   0.000000   0.000000
    10  C    0.000000   0.000000   0.000000
    11  H    0.000000   0.000000   0.000000
    12  C   -0.000144  -0.001004   0.001214
    13  H    0.000000   0.000004  -0.000003
    14  C    0.000000   0.000000   0.000000
    15  H    0.000000   0.000000   0.000000
    16  H    0.000000   0.000000   0.000000
    17  H    0.000108   0.000305  -0.000300
    18  N   -0.000141  -0.000018  -0.001796
    19  H    0.000000   0.000000   0.000000
    20  C    0.000067  -0.000085   0.000037
    21  C    0.000002   0.000877  -0.000423
    22  H    0.000002  -0.000021   0.000088
    23  H    0.000000   0.000086  -0.000009
    24  H   -0.000010   0.000105  -0.000087
    25  H    0.003394  -0.000497  -0.000128
    26  H   -0.000497   0.003325  -0.001093
    27  H   -0.000128  -0.001093   0.005640
 Mulliken charges:
               1
     1  C    5.994047
     2  C    6.002628
     3  C    6.003236
     4  C    6.000110
     5  C    6.001111
     6  O    8.013390
     7  C    6.001518
     8  O    8.002641
     9  H    0.998826
    10  C    6.000094
    11  H    1.001441
    12  C    5.993982
    13  H    1.002603
    14  C    6.000989
    15  H    1.001319
    16  H    1.001417
    17  H    0.996994
    18  N    6.995336
    19  H    1.001564
    20  C    6.001370
    21  C    6.001399
    22  H    0.996880
    23  H    0.998456
    24  H    0.996426
    25  H    0.997354
    26  H    0.998045
    27  H    0.996824
 Sum of Mulliken charges = 102.00000
 Mulliken charges with hydrogens summed into heavy atoms:
               1
     1  C    5.994047
     2  C    6.002628
     3  C    6.003236
     4  C    7.001551
     5  C    7.003714
     6  O    8.013390
     7  C    7.002837
     8  O    9.001468
    10  C    7.001511
    12  C    6.990976
    14  C    7.002553
    18  N    6.995336
    20  C    8.993132
    21  C    8.993621
 Electronic spatial extent (au):  <R**2>=             -7.0746
 Charge=              0.0000 electrons
 Dipole moment (field-independent basis, Debye):
    X=              0.5193    Y=              0.3215    Z=              0.1002  Tot=              0.6189
 Quadrupole moment (field-independent basis, Debye-Ang):
   XX=              7.8767   YY=              0.8155   ZZ=              0.8235
   XY=              2.8984   XZ=              2.6647   YZ=              1.5393
 Traceless Quadrupole moment (field-independent basis, Debye-Ang):
   XX=              4.7048   YY=             -2.3564   ZZ=             -2.3484
   XY=              2.8984   XZ=              2.6647   YZ=              1.5393
 Octapole moment (field-independent basis, Debye-Ang**2):
  XXX=             96.6662  YYY=              2.7198  ZZZ=              5.1496  XYY=              7.6157
  XXY=             28.0781  XXZ=             34.4726  XZZ=             14.4190  YZZ=              8.0002
  YYZ=              4.2021  XYZ=             13.2121
 Hexadecapole moment (field-independent basis, Debye-Ang**3):
 XXXX=           1120.1441 YYYY=              9.9494 ZZZZ=             28.8282 XXXY=            289.9457
 XXXZ=            391.6551 YYYX=             26.0332 YYYZ=             13.1430 ZZZX=             77.4184
 ZZZY=             42.4650 XXYY=             77.2680 XXZZ=            171.1039 YYZZ=             22.7530
 XXYZ=            120.8746 YYXZ=             36.1210 ZZXY=             67.2244
 N-N= 8.491557768660D+02 E-N= 3.516640247595D-02  KE=-9.062779862695D-05
 Leave Link  601 at Thu Sep 28 11:13:06 2017, MaxMem=  1879048192 cpu:         0.1
 (Enter /share/apps/gaussian/g09_D01/g09/l9999.exe)
 1\1\GINC-NXN37\SP\RwB97XD TD-FC\6-31G(d)\C11H13N1O2\BTX008\28-Sep-2017
 \0\\#p wb97xd 6-31G* td=(nstates=4) nosymm density=(transition=1) pop=
 SaveNTO\\title\\0,1\C,0,9.467207,2.424439,3.544461\C,0,8.155126,2.0709
 67,4.158769\C,0,10.336436,3.295495,4.226761\C,0,9.89617,1.913378,2.312
 501\C,0,7.208229,1.29417,3.443876\O,0,7.912238,2.503024,5.324355\C,0,1
 1.584305,3.611727,3.689188\O,0,9.992177,3.848953,5.406054\H,0,9.268451
 ,3.548396,5.647697\C,0,11.127325,2.2436,1.787772\H,0,9.338838,1.339196
 ,1.839036\C,0,6.031561,0.936385,4.047283\H,0,7.385039,1.028856,2.56968
 6\C,0,11.968414,3.087515,2.48054\H,0,12.157612,4.179596,4.151861\H,0,1
 1.390398,1.896756,0.965926\H,0,5.929588,1.201384,4.933236\N,0,5.025329
 ,0.261738,3.526114\H,0,12.801178,3.30328,2.127195\C,0,5.036006,-0.1871
 51,2.151694\C,0,3.843738,-0.061121,4.326484\H,0,5.401543,0.502856,1.59
 2968\H,0,4.138578,-0.38398,1.872493\H,0,5.57446,-0.97836,2.077549\H,0,
 3.95783,0.27878,5.217078\H,0,3.729849,-1.014129,4.359076\H,0,3.067854,
 0.340848,3.928457\\Version=ES64L-G09RevD.01\HF=-631.7285898\RMSD=8.230
 e-09\PG=C01 [X(C11H13N1O2)]\\@



 WE LOSE BECAUSE WE WIN

 GAMBLERS,

 RECOLLECTING WHICH,

 TOSS THEIR DICE AGAIN....


                          EMILY DICKINSON  BOLTS OF MELODY NO. 533
 Job cpu time:       0 days  0 hours  6 minutes 47.9 seconds.
 File lengths (MBytes):  RWF=    119 Int=      0 D2E=      0 Chk=     15 Scr=      1
 Normal termination of Gaussian 09 at Thu Sep 28 11:13:06 2017.
