 Entering Gaussian System, Link 0=g09
 Input=mon-1.com
 Output=mon-1.out
 Initial command:
 /share/apps/gaussian/g09_D01/g09/l1.exe "/tmp/165497.1.all.q/Gau-22656.inp" -scrdir="/tmp/165497.1.all.q/"
 Entering Link 1 = /share/apps/gaussian/g09_D01/g09/l1.exe PID=     22657.
  
 Copyright (c) 1988,1990,1992,1993,1995,1998,2003,2009,2013,
            Gaussian, Inc.  All Rights Reserved.
  
 This is part of the Gaussian(R) 09 program.  It is based on
 the Gaussian(R) 03 system (copyright 2003, Gaussian, Inc.),
 the Gaussian(R) 98 system (copyright 1998, Gaussian, Inc.),
 the Gaussian(R) 94 system (copyright 1995, Gaussian, Inc.),
 the Gaussian 92(TM) system (copyright 1992, Gaussian, Inc.),
 the Gaussian 90(TM) system (copyright 1990, Gaussian, Inc.),
 the Gaussian 88(TM) system (copyright 1988, Gaussian, Inc.),
 the Gaussian 86(TM) system (copyright 1986, Carnegie Mellon
 University), and the Gaussian 82(TM) system (copyright 1983,
 Carnegie Mellon University). Gaussian is a federally registered
 trademark of Gaussian, Inc.
  
 This software contains proprietary and confidential information,
 including trade secrets, belonging to Gaussian, Inc.
  
 This software is provided under written license and may be
 used, copied, transmitted, or stored only in accord with that
 written license.
  
 The following legend is applicable only to US Government
 contracts under FAR:
  
                    RESTRICTED RIGHTS LEGEND
  
 Use, reproduction and disclosure by the US Government is
 subject to restrictions as set forth in subparagraphs (a)
 and (c) of the Commercial Computer Software - Restricted
 Rights clause in FAR 52.227-19.
  
 Gaussian, Inc.
 340 Quinnipiac St., Bldg. 40, Wallingford CT 06492
  
  
 ---------------------------------------------------------------
 Warning -- This program may not be used in any manner that
 competes with the business of Gaussian, Inc. or will provide
 assistance to any competitor of Gaussian, Inc.  The licensee
 of this program is prohibited from giving any competitor of
 Gaussian, Inc. access to this program.  By using this program,
 the user acknowledges that Gaussian, Inc. is engaged in the
 business of creating and licensing software in the field of
 computational chemistry and represents and warrants to the
 licensee that it is not a competitor of Gaussian, Inc. and that
 it will not use this program in any manner prohibited above.
 ---------------------------------------------------------------
  

 Cite this work as:
 Gaussian 09, Revision D.01,
 M. J. Frisch, G. W. Trucks, H. B. Schlegel, G. E. Scuseria, 
 M. A. Robb, J. R. Cheeseman, G. Scalmani, V. Barone, B. Mennucci, 
 G. A. Petersson, H. Nakatsuji, M. Caricato, X. Li, H. P. Hratchian, 
 A. F. Izmaylov, J. Bloino, G. Zheng, J. L. Sonnenberg, M. Hada, 
 M. Ehara, K. Toyota, R. Fukuda, J. Hasegawa, M. Ishida, T. Nakajima, 
 Y. Honda, O. Kitao, H. Nakai, T. Vreven, J. A. Montgomery, Jr., 
 J. E. Peralta, F. Ogliaro, M. Bearpark, J. J. Heyd, E. Brothers, 
 K. N. Kudin, V. N. Staroverov, T. Keith, R. Kobayashi, J. Normand, 
 K. Raghavachari, A. Rendell, J. C. Burant, S. S. Iyengar, J. Tomasi, 
 M. Cossi, N. Rega, J. M. Millam, M. Klene, J. E. Knox, J. B. Cross, 
 V. Bakken, C. Adamo, J. Jaramillo, R. Gomperts, R. E. Stratmann, 
 O. Yazyev, A. J. Austin, R. Cammi, C. Pomelli, J. W. Ochterski, 
 R. L. Martin, K. Morokuma, V. G. Zakrzewski, G. A. Voth, 
 P. Salvador, J. J. Dannenberg, S. Dapprich, A. D. Daniels, 
 O. Farkas, J. B. Foresman, J. V. Ortiz, J. Cioslowski, 
 and D. J. Fox, Gaussian, Inc., Wallingford CT, 2013.
 
 ******************************************
 Gaussian 09:  ES64L-G09RevD.01 24-Apr-2013
                 7-Nov-2017 
 ******************************************
 %chk=mon-1.chk
 %nproc=4
 Will use up to    4 processors via shared memory.
 %mem=28GB
 ------------------------------------------
 #p wb97xd 6-311++G** td=(nstates=4) nosymm
 ------------------------------------------
 1/38=1/1;
 2/12=2,15=1,17=6,18=5,40=1/2;
 3/5=4,6=6,7=1111,11=9,16=1,25=1,30=1,74=-58/1,2,8,3;
 4//1;
 5/5=2,38=5/2;
 8/6=1,10=2,108=4/1;
 9/41=4,42=1,70=2/14;
 6/7=2,8=2,9=2,10=2/1;
 99/5=1,9=1/99;
 Leave Link    1 at Tue Nov  7 13:22:07 2017, MaxMem=  3758096384 cpu:         0.3
 (Enter /share/apps/gaussian/g09_D01/g09/l101.exe)
 -----
 Title
 -----
 Symbolic Z-matrix:
 Charge =  0 Multiplicity = 1
 C                     9.2273   -0.03097  -1.15335 
 C                     8.9748   -0.56599   1.25346 
 C                     7.04579  -0.68456  -0.24604 
 C                     6.4372   -0.52801  -1.50113 
 C                     6.22755  -1.14954   0.80767 
 C                     5.11155  -0.8321   -1.67984 
 C                     4.91218  -1.45492   0.59879 
 C                     4.30363  -1.30653  -0.65285 
 C                     2.90637  -1.57439  -0.89729 
 C                     1.95272  -1.8266    0.02108 
 C                     0.54433  -1.94186  -0.38777 
 C                    -0.50865  -2.18339   0.62246 
 C                    -0.22252  -2.50409   1.96206 
 C                    -1.86937  -2.06996   0.24374 
 C                    -1.22494  -2.67907   2.89612 
 C                    -2.88312  -2.23055   1.19541 
 C                    -2.56019  -2.52992   2.50536 
 H                     10.24695   0.09264  -0.79026 
 H                     8.9146    0.91781  -1.60988 
 H                     10.00997  -0.22804   1.21379 
 H                     9.23791  -0.7986   -1.93879 
 H                     8.45829   0.03453   2.01295 
 H                     8.97078  -1.61365   1.586 
 H                     7.01002  -0.16689  -2.34743 
 H                     6.64653  -1.29734   1.7961 
 H                     4.67653  -0.69697  -2.66807 
 H                     4.33523  -1.83224   1.43848 
 H                     2.57267  -1.50819  -1.93259 
 H                     2.19398  -1.86732   1.07605 
 H                     0.80726  -2.63206   2.27609 
 H                    -1.41156  -1.7444   -1.553 
 H                    -0.97805  -2.92567   3.92319 
 H                    -3.91404  -2.11821   0.87558 
 H                    -3.35507  -2.65285   3.23497 
 N                     8.36499  -0.40604  -0.05153 
 O                     0.23639  -1.77311  -1.58051 
 O                    -2.24183  -1.77834  -1.01228 
 
 NAtoms=     37 NQM=       37 NQMF=       0 NMMI=      0 NMMIF=      0
                NMic=       0 NMicF=      0.
                    Isotopes and Nuclear Properties:
 (Nuclear quadrupole moments (NQMom) in fm**2, nuclear magnetic moments (NMagM)
  in nuclear magnetons)

  Atom         1           2           3           4           5           6           7           8           9          10
 IAtWgt=          12          12          12          12          12          12          12          12          12          12
 AtmWgt=  12.0000000  12.0000000  12.0000000  12.0000000  12.0000000  12.0000000  12.0000000  12.0000000  12.0000000  12.0000000
 NucSpn=           0           0           0           0           0           0           0           0           0           0
 AtZEff=   0.0000000   0.0000000   0.0000000   0.0000000   0.0000000   0.0000000   0.0000000   0.0000000   0.0000000   0.0000000
 NQMom=    0.0000000   0.0000000   0.0000000   0.0000000   0.0000000   0.0000000   0.0000000   0.0000000   0.0000000   0.0000000
 NMagM=    0.0000000   0.0000000   0.0000000   0.0000000   0.0000000   0.0000000   0.0000000   0.0000000   0.0000000   0.0000000
 AtZNuc=   6.0000000   6.0000000   6.0000000   6.0000000   6.0000000   6.0000000   6.0000000   6.0000000   6.0000000   6.0000000

  Atom        11          12          13          14          15          16          17          18          19          20
 IAtWgt=          12          12          12          12          12          12          12           1           1           1
 AtmWgt=  12.0000000  12.0000000  12.0000000  12.0000000  12.0000000  12.0000000  12.0000000   1.0078250   1.0078250   1.0078250
 NucSpn=           0           0           0           0           0           0           0           1           1           1
 AtZEff=   0.0000000   0.0000000   0.0000000   0.0000000   0.0000000   0.0000000   0.0000000   0.0000000   0.0000000   0.0000000
 NQMom=    0.0000000   0.0000000   0.0000000   0.0000000   0.0000000   0.0000000   0.0000000   0.0000000   0.0000000   0.0000000
 NMagM=    0.0000000   0.0000000   0.0000000   0.0000000   0.0000000   0.0000000   0.0000000   2.7928460   2.7928460   2.7928460
 AtZNuc=   6.0000000   6.0000000   6.0000000   6.0000000   6.0000000   6.0000000   6.0000000   1.0000000   1.0000000   1.0000000

  Atom        21          22          23          24          25          26          27          28          29          30
 IAtWgt=           1           1           1           1           1           1           1           1           1           1
 AtmWgt=   1.0078250   1.0078250   1.0078250   1.0078250   1.0078250   1.0078250   1.0078250   1.0078250   1.0078250   1.0078250
 NucSpn=           1           1           1           1           1           1           1           1           1           1
 AtZEff=   0.0000000   0.0000000   0.0000000   0.0000000   0.0000000   0.0000000   0.0000000   0.0000000   0.0000000   0.0000000
 NQMom=    0.0000000   0.0000000   0.0000000   0.0000000   0.0000000   0.0000000   0.0000000   0.0000000   0.0000000   0.0000000
 NMagM=    2.7928460   2.7928460   2.7928460   2.7928460   2.7928460   2.7928460   2.7928460   2.7928460   2.7928460   2.7928460
 AtZNuc=   1.0000000   1.0000000   1.0000000   1.0000000   1.0000000   1.0000000   1.0000000   1.0000000   1.0000000   1.0000000

  Atom        31          32          33          34          35          36          37
 IAtWgt=           1           1           1           1          14          16          16
 AtmWgt=   1.0078250   1.0078250   1.0078250   1.0078250  14.0030740  15.9949146  15.9949146
 NucSpn=           1           1           1           1           2           0           0
 AtZEff=   0.0000000   0.0000000   0.0000000   0.0000000   0.0000000   0.0000000   0.0000000
 NQMom=    0.0000000   0.0000000   0.0000000   0.0000000   2.0440000   0.0000000   0.0000000
 NMagM=    2.7928460   2.7928460   2.7928460   2.7928460   0.4037610   0.0000000   0.0000000
 AtZNuc=   1.0000000   1.0000000   1.0000000   1.0000000   7.0000000   8.0000000   8.0000000
 Leave Link  101 at Tue Nov  7 13:22:07 2017, MaxMem=  3758096384 cpu:         0.3
 (Enter /share/apps/gaussian/g09_D01/g09/l202.exe)
                          Input orientation:                          
 ---------------------------------------------------------------------
 Center     Atomic      Atomic             Coordinates (Angstroms)
 Number     Number       Type             X           Y           Z
 ---------------------------------------------------------------------
      1          6           0        9.227302   -0.030970   -1.153349
      2          6           0        8.974800   -0.565989    1.253459
      3          6           0        7.045788   -0.684560   -0.246042
      4          6           0        6.437198   -0.528006   -1.501128
      5          6           0        6.227547   -1.149542    0.807668
      6          6           0        5.111548   -0.832102   -1.679839
      7          6           0        4.912184   -1.454922    0.598785
      8          6           0        4.303630   -1.306525   -0.652848
      9          6           0        2.906369   -1.574385   -0.897290
     10          6           0        1.952724   -1.826599    0.021082
     11          6           0        0.544329   -1.941861   -0.387772
     12          6           0       -0.508646   -2.183387    0.622455
     13          6           0       -0.222517   -2.504085    1.962064
     14          6           0       -1.869371   -2.069959    0.243736
     15          6           0       -1.224939   -2.679071    2.896120
     16          6           0       -2.883115   -2.230548    1.195411
     17          6           0       -2.560188   -2.529920    2.505362
     18          1           0       10.246952    0.092641   -0.790262
     19          1           0        8.914603    0.917810   -1.609878
     20          1           0       10.009972   -0.228040    1.213789
     21          1           0        9.237913   -0.798596   -1.938786
     22          1           0        8.458290    0.034530    2.012955
     23          1           0        8.970783   -1.613651    1.586002
     24          1           0        7.010025   -0.166889   -2.347425
     25          1           0        6.646525   -1.297339    1.796101
     26          1           0        4.676532   -0.696973   -2.668067
     27          1           0        4.335226   -1.832237    1.438483
     28          1           0        2.572668   -1.508187   -1.932586
     29          1           0        2.193975   -1.867318    1.076048
     30          1           0        0.807257   -2.632060    2.276089
     31          1           0       -1.411562   -1.744397   -1.552999
     32          1           0       -0.978052   -2.925674    3.923186
     33          1           0       -3.914040   -2.118211    0.875582
     34          1           0       -3.355068   -2.652847    3.234969
     35          7           0        8.364992   -0.406044   -0.051530
     36          8           0        0.236392   -1.773113   -1.580511
     37          8           0       -2.241827   -1.778338   -1.012282
 ---------------------------------------------------------------------
                    Distance matrix (angstroms):
                    1          2          3          4          5
     1  C    0.000000
     2  C    2.478453   0.000000
     3  C    2.451406   2.446150   0.000000
     4  C    2.855289   3.745479   1.403614   0.000000
     5  C    3.754374   2.843706   1.412810   2.400167   0.000000
     6  C    4.225924   4.857959   2.412224   1.371773   2.744797
     7  C    4.870098   4.209946   2.420631   2.755808   1.366407
     8  C    5.110782   5.099238   2.841085   2.424414   2.420580
     9  C    6.511673   6.516781   4.283772   3.731794   3.757339
    10  C    7.584396   7.239989   5.226367   4.910598   4.399004
    11  C    8.923656   8.698247   6.623433   6.161530   5.861383
    12  C   10.127935   9.641052   7.750499   7.449472   6.817583
    13  C   10.252862   9.425974   7.811188   7.762113   6.691094
    14  C   11.368618  10.994431   9.035445   8.626776   8.168554
    15  C   11.517811  10.545052   9.069519   9.092371   7.889274
    16  C   12.530643  11.974317  10.151403   9.850797   9.182760
    17  C   12.592690  11.767762  10.161218  10.050501   9.056042
    18  H    1.089403   2.495788   3.338812   3.924890   4.500224
    19  H    1.098355   3.225520   2.814269   2.870496   4.163982
    20  H    2.500950   1.089662   3.335552   4.497273   3.914184
    21  H    1.098305   3.211505   2.771967   2.847590   4.090046
    22  H    3.259011   1.097379   2.759587   4.092681   2.798385
    23  H    3.174071   1.099180   2.815173   4.138605   2.889039
    24  H    2.522025   4.121406   2.164503   1.083861   3.395952
    25  H    4.118659   2.500040   2.169160   3.392257   1.083691
    26  H    4.842255   5.819848   3.388175   2.119019   3.832910
    27  H    5.821904   4.812823   3.391450   3.841955   2.108288
    28  H    6.861016   7.212899   4.850938   4.010175   4.582113
    29  H    7.603294   6.906846   5.165939   5.142036   4.105720
    30  H    9.456420   8.486647   7.005224   7.098637   5.808069
    31  H   10.783366  10.823187   8.623118   7.942627   8.017642
    32  H   11.760092  10.571415   9.315957   9.495153   8.048711
    33  H   13.459866  12.987470  11.109961  10.738977  10.187969
    34  H   13.581149  12.661240  11.143132  11.083052   9.998911
    35  N    1.448539   1.449291   1.362243   2.415077   2.420678
    36  O    9.168096   9.265436   7.023790   6.325076   6.479674
    37  O   11.602332  11.507219   9.383137   8.782242   8.685499
                    6          7          8          9         10
     6  C    0.000000
     7  C    2.370607   0.000000
     8  C    1.390151   1.399623   0.000000
     9  C    2.454828   2.505156   1.443551   0.000000
    10  C    3.722946   3.038139   2.500284   1.347760   0.000000
    11  C    4.874473   4.504283   3.821814   2.444152   1.471062
    12  C    6.221986   5.469609   5.055026   3.787194   2.558767
    13  C    6.671674   5.415203   5.362641   4.339375   2.993004
    14  C    7.346132   6.818638   6.284317   4.935101   3.836301
    15  C    8.031299   6.666376   6.711492   5.716467   4.369221
    16  C    8.610305   7.856478   7.477913   6.190967   4.992751
    17  C    8.902473   7.786334   7.653952   6.509557   5.199296
    18  H    5.293285   5.725745   6.107342   7.528253   8.551958
    19  H    4.186922   5.150476   5.208133   6.543523   7.658954
    20  H    5.721235   5.279291   6.099984   7.531964   8.300433
    21  H    4.134618   5.057861   5.124332   6.463359   7.613925
    22  H    5.058504   4.097952   5.115284   6.471627   7.053634
    23  H    5.115685   4.179954   5.185469   6.553274   7.193572
    24  H    2.119527   3.839286   3.390418   4.574268   5.825870
    25  H    3.828153   2.113371   3.389188   4.617345   5.046046
    26  H    1.088161   3.361895   2.138157   2.653108   3.990828
    27  H    3.365543   1.086434   2.156626   2.750265   2.772251
    28  H    2.639485   3.447319   2.162088   1.089760   2.074255
    29  H    4.144734   2.790432   2.784639   2.118343   1.082965
    30  H    6.116873   4.587966   4.749773   3.949086   2.654415
    31  H    6.587817   6.686085   5.802191   4.370742   3.715227
    32  H    8.535816   6.921679   7.173416   6.336537   5.002382
    33  H    9.468130   8.855439   8.397918   7.068013   5.935834
    34  H    9.957612   8.759677   8.693869   7.579198   6.259745
    35  N    3.663033   3.666734   4.203226   5.645963   6.568137
    36  O    4.966137   5.168521   4.197700   2.763161   2.348139
    37  O    7.443999   7.340300   6.572276   5.153517   4.320235
                   11         12         13         14         15
    11  C    0.000000
    12  C    1.479071   0.000000
    13  C    2.534932   1.406865   0.000000
    14  C    2.498231   1.416992   2.419348   0.000000
    15  C    3.802333   2.434816   1.381279   2.796686   0.000000
    16  C    3.786447   2.443073   2.782330   1.399697   2.417257
    17  C    4.284164   2.806109   2.400114   2.409096   1.399224
    18  H    9.921799  11.084176  11.132298  12.351165  12.364307
    19  H    8.929320  10.168498  10.390144  11.342696  11.664128
    20  H    9.751952  10.715147  10.509240  12.060367  11.621575
    21  H    8.904555  10.172169  10.374250  11.390853  11.678346
    22  H    8.502964   9.341231   9.044532  10.687357  10.094976
    23  H    8.660752   9.545292   9.243974  10.932467  10.334615
    24  H    6.985413   8.331678   8.737496   9.443488  10.080697
    25  H    6.513179   7.304724   6.976211   8.690642   8.067166
    26  H    4.881044   6.318468   6.978857   7.294692   8.349626
    27  H    4.209290   4.924663   4.636652   6.323050   5.810101
    28  H    2.586249   4.059387   4.896240   4.978321   6.253734
    29  H    2.206730   2.758588   2.651402   4.152660   3.957345
    30  H    2.764355   2.160420   1.084170   3.407456   2.125199
    31  H    2.285226   2.395949   3.787693   1.882508   4.550066
    32  H    4.676526   3.415576   2.143495   3.881372   1.084726
    33  H    4.637264   3.415411   3.867387   2.140614   3.410044
    34  H    5.369828   3.892010   3.384567   3.390358   2.157071
    35  N    7.977127   9.074947   9.066512  10.372945  10.286985
    36  O    1.243353   2.361454   3.646197   2.801827   4.795464
    37  O    2.859968   2.416681   3.667568   1.342143   4.137751
                   16         17         18         19         20
    16  C    0.000000
    17  C    1.381983   0.000000
    18  H   13.481052  13.481906   0.000000
    19  H   12.528685  12.668578   1.768567   0.000000
    20  H   13.047684  12.844288   2.043335   3.238194   0.000000
    21  H   12.601309  12.725687   1.769624   1.777290   3.295503
    22  H   11.594241  11.323680   3.325765   3.756770   1.765029
    23  H   11.876364  11.603795   3.191656   4.077389   1.771546
    24  H   10.709089  10.987376   3.601362   2.312567   4.656787
    25  H    9.594047   9.315893   4.645901   4.653145   3.577047
    26  H    8.627084   9.082631   5.931207   4.657095   6.613190
    27  H    7.233407   7.012255   6.604617   6.150281   5.901413
    28  H    6.330224   6.861890   7.922259   6.797775   8.176304
    29  H    5.091466   5.008398   8.495587   7.754868   7.987241
    30  H    3.866254   3.376786  10.292441   9.665991   9.570672
    31  H    3.155245   4.290301  11.826979  10.663970  11.849299
    32  H    3.399003   2.161018  12.543027  11.968784  11.634205
    33  H    1.085226   2.158380  14.429019  13.415253  14.055790
    34  H    2.135620   1.085943  14.448361  13.666271  13.732777
    35  N   11.463140  11.419637   2.082351   2.117336   2.082949
    36  O    4.200752   5.008790  10.213562   9.085883  10.281937
    37  O    2.343001   3.611101  12.630101  11.493140  12.548522
                   21         22         23         24         25
    21  H    0.000000
    22  H    4.113170   0.000000
    23  H    3.627644   1.778043   0.000000
    24  H    2.351494   4.599017   4.627044   0.000000
    25  H    4.573119   2.259069   2.355073   4.310320   0.000000
    26  H    4.620430   6.062075   6.113754   2.414330   4.916310
    27  H    6.042408   4.562290   4.643052   4.925549   2.399189
    28  H    6.702913   7.251746   7.302565   4.654171   5.526651
    29  H    7.736178   6.613355   6.800700   6.148655   4.546268
    30  H    9.602225   8.106679   8.255697   8.119623   6.009070
    31  H   10.698350  10.643993  10.847281   8.604811   8.737797
    32  H   11.968839  10.072554  10.303550  10.523347   8.081469
    33  H   13.514286  12.609618  12.914253  11.555545  10.632343
    34  H   13.740057  12.176647  12.479007  12.032384  10.195078
    35  N    2.116087   2.113033   2.122925   2.676614   2.676056
    36  O    9.061204   9.153151   9.292030   7.003586   7.260694
    37  O   11.558665  11.266368  11.510900   9.485575   9.333873
                   26         27         28         29         30
    26  H    0.000000
    27  H    4.274233   0.000000
    28  H    2.371760   3.817817   0.000000
    29  H    4.642326   2.171991   3.053565   0.000000
    30  H    6.569667   3.713202   4.700288   1.986936   0.000000
    31  H    6.277369   6.479371   4.009236   4.463955   4.513648
    32  H    8.965826   5.966597   6.993350   4.391818   2.446726
    33  H    9.400813   8.273393   7.094739   6.116452   4.951374
    34  H   10.157651   7.939860   7.946819   6.005820   4.271397
    35  N    4.531627   4.526939   6.189031   6.441134   8.215371
    36  O    4.696349   5.090998   2.377463   3.301259   3.992122
    37  O    7.195461   7.019030   4.909104   4.903609   4.564991
                   31         32         33         34         35
    31  H    0.000000
    32  H    5.618892   0.000000
    33  H    3.507155   4.308122   0.000000
    34  H    5.246631   2.489635   2.482940   0.000000
    35  N    9.981313  10.461328  12.432445  12.377763   0.000000
    36  O    1.648434   5.752734   4.835036   6.071356   8.383364
    37  O    0.991396   5.222294   2.544767   4.476965  10.738289
                   36         37
    36  O    0.000000
    37  O    2.542534   0.000000
 Symmetry turned off by external request.
 Stoichiometry    C17H17NO2
 Framework group  C1[X(C17H17NO2)]
 Deg. of freedom   105
 Full point group                 C1      NOp   1
 Rotational constants (GHZ):      1.0881323      0.1078954      0.0986770
 Leave Link  202 at Tue Nov  7 13:22:07 2017, MaxMem=  3758096384 cpu:         0.0
 (Enter /share/apps/gaussian/g09_D01/g09/l301.exe)
 Standard basis: 6-311++G(d,p) (5D, 7F)
 Ernie: Thresh=  0.10000D-02 Tol=  0.10000D-05 Strict=F.
   559 basis functions,   873 primitive gaussians,   579 cartesian basis functions
    71 alpha electrons       71 beta electrons
       nuclear repulsion energy      1362.9729529780 Hartrees.
 IExCor= 4639 DFT=T Ex+Corr=wB97XD ExCW=0 ScaHFX=  1.000000
 ScaDFX=  1.000000  1.000000  1.000000  1.000000 ScalE2=  1.000000  1.000000
 IRadAn=      0 IRanWt=     -1 IRanGd=            0 ICorTp=0 IEmpDi=121
  HFx wShort=  0.000000 wLong=  0.200000 cFull=  0.222036 cShort=  0.000000 cLong=  0.777964
  DFx wShort=  0.000000 wLong=  0.200000 cFull=  0.000000 cShort=  0.000000 cLong=  1.000000
 NAtoms=   37 NActive=   37 NUniq=   37 SFac= 1.00D+00 NAtFMM=   60 NAOKFM=F Big=F
 Integral buffers will be    131072 words long.
 Raffenetti 1 integral format.
 Two-electron integral symmetry is turned off.
 R6Disp:  Grimme-D2 Dispersion energy=       -0.0229193395 Hartrees.
 Nuclear repulsion after empirical dispersion term =     1362.9500336385 Hartrees.
 Leave Link  301 at Tue Nov  7 13:22:07 2017, MaxMem=  3758096384 cpu:         0.1
 (Enter /share/apps/gaussian/g09_D01/g09/l302.exe)
 NPDir=0 NMtPBC=     1 NCelOv=     1 NCel=       1 NClECP=     1 NCelD=      1
         NCelK=      1 NCelE2=     1 NClLst=     1 CellRange=     0.0.
 One-electron integrals computed using PRISM.
 NBasis=   559 RedAO= T EigKep=  1.14D-06  NBF=   559
 NBsUse=   554 1.00D-06 EigRej=  5.76D-07 NBFU=   554
 Precomputing XC quadrature grid using
 IXCGrd= 4 IRadAn=           0 IRanWt=          -1 IRanGd=           0 AccXCQ= 0.00D+00.
 Generated NRdTot=       0 NPtTot=           0 NUsed=           0 NTot=          32
 NSgBfM=   561   561   562   565   565 MxSgAt=    37 MxSgA2=    37.
 Leave Link  302 at Tue Nov  7 13:22:08 2017, MaxMem=  3758096384 cpu:         3.0
 (Enter /share/apps/gaussian/g09_D01/g09/l308.exe)
 Leave Link  308 at Tue Nov  7 13:22:08 2017, MaxMem=  3758096384 cpu:         0.3
 (Enter /share/apps/gaussian/g09_D01/g09/l303.exe)
 DipDrv:  MaxL=1.
 Leave Link  303 at Tue Nov  7 13:22:08 2017, MaxMem=  3758096384 cpu:         0.2
 (Enter /share/apps/gaussian/g09_D01/g09/l401.exe)
 ExpMin= 3.60D-02 ExpMax= 8.59D+03 ExpMxC= 1.30D+03 IAcc=3 IRadAn=         5 AccDes= 0.00D+00
 Harris functional with IExCor= 4639 and IRadAn=       5 diagonalized for initial guess.
 HarFok:  IExCor= 4639 AccDes= 0.00D+00 IRadAn=         5 IDoV= 1 UseB2=F ITyADJ=14
 ICtDFT=  3500011 ScaDFX=  1.000000  1.000000  1.000000  1.000000
 FoFCou: FMM=F IPFlag=           0 FMFlag=      100000 FMFlg1=           0
         NFxFlg=           0 DoJE=T BraDBF=F KetDBF=T FulRan=T
         wScrn=  0.000000 ICntrl=     500 IOpCl=  0 I1Cent=   200000004 NGrid=           0
         NMat0=    1 NMatS0=      1 NMatT0=    0 NMatD0=    1 NMtDS0=    0 NMtDT0=    0
 Symmetry not used in FoFCou.
 Harris En= -825.457415563016    
 JPrj=0 DoOrth=F DoCkMO=F.
 Leave Link  401 at Tue Nov  7 13:22:18 2017, MaxMem=  3758096384 cpu:        39.1
 (Enter /share/apps/gaussian/g09_D01/g09/l502.exe)
 Closed shell SCF:
 Using DIIS extrapolation, IDIIS=  1040.
 Two-electron integral symmetry not used.
 IVT=     1031295 IEndB=     1031295 NGot=  3758096384 MDV=  3757417550
 LenX=  3757417550 LenY=  3757081730
 Requested convergence on RMS density matrix=1.00D-08 within 128 cycles.
 Requested convergence on MAX density matrix=1.00D-06.
 Requested convergence on             energy=1.00D-06.
 No special actions if energy rises.
 Fock matrices will be formed incrementally for  20 cycles.

 Cycle   1  Pass 1  IDiag  1:
 FoFJK:  IHMeth= 1 ICntrl=       0 DoSepK=T KAlg= 0 I1Cent=   0 FoldK=F
 IRaf=         1 NMat=   1 IRICut=       1 DoRegI=T DoRafI=F ISym2E= 0.
 FoFCou: FMM=F IPFlag=           0 FMFlag=      100000 FMFlg1=           0
         NFxFlg=           0 DoJE=T BraDBF=F KetDBF=F FulRan=T
         wScrn=  0.000000 ICntrl=     500 IOpCl=  0 I1Cent=           0 NGrid=           0
         NMat0=    1 NMatS0=      1 NMatT0=    0 NMatD0=    1 NMtDS0=    0 NMtDT0=    0
 Symmetry not used in FoFCou.
 E= -862.886598903909    
 DIIS: error= 4.61D-02 at cycle   1 NSaved=   1.
 NSaved= 1 IEnMin= 1 EnMin= -862.886598903909     IErMin= 1 ErrMin= 4.61D-02
 ErrMax= 4.61D-02  0.00D+00 EMaxC= 1.00D-01 BMatC= 1.86D+00 BMatP= 1.86D+00
 IDIUse=3 WtCom= 5.39D-01 WtEn= 4.61D-01
 Coeff-Com:  0.100D+01
 Coeff-En:   0.100D+01
 Coeff:      0.100D+01
 Gap=     0.292 Goal=   None    Shift=    0.000
 GapD=    0.292 DampG=1.000 DampE=0.500 DampFc=0.5000 IDamp=-1.
 Damping current iteration by 5.00D-01
 RMSDP=3.88D-02 MaxDP=5.25D+00              OVMax= 1.85D-01

 Cycle   2  Pass 1  IDiag  1:
 RMSU=  8.50D-03    CP:  8.35D-01
 E= -863.013958058405     Delta-E=       -0.127359154496 Rises=F Damp=T
 DIIS: error= 2.09D-02 at cycle   2 NSaved=   2.
 NSaved= 2 IEnMin= 2 EnMin= -863.013958058405     IErMin= 2 ErrMin= 2.09D-02
 ErrMax= 2.09D-02  0.00D+00 EMaxC= 1.00D-01 BMatC= 3.93D-01 BMatP= 1.86D+00
 IDIUse=3 WtCom= 7.91D-01 WtEn= 2.09D-01
 Coeff-Com: -0.594D+00 0.159D+01
 Coeff-En:   0.000D+00 0.100D+01
 Coeff:     -0.470D+00 0.147D+01
 Gap=     0.289 Goal=   None    Shift=    0.000
 RMSDP=2.17D-02 MaxDP=2.10D+00 DE=-1.27D-01 OVMax= 2.12D-01

 Cycle   3  Pass 1  IDiag  1:
 RMSU=  9.30D-03    CP:  6.56D-01  3.72D-01
 E= -863.054859632330     Delta-E=       -0.040901573925 Rises=F Damp=F
 DIIS: error= 2.09D-02 at cycle   3 NSaved=   3.
 NSaved= 3 IEnMin= 3 EnMin= -863.054859632330     IErMin= 2 ErrMin= 2.09D-02
 ErrMax= 2.09D-02  0.00D+00 EMaxC= 1.00D-01 BMatC= 1.32D-01 BMatP= 3.93D-01
 IDIUse=3 WtCom= 7.91D-01 WtEn= 2.09D-01
 Coeff-Com: -0.387D+00 0.828D+00 0.559D+00
 Coeff-En:   0.000D+00 0.267D+00 0.733D+00
 Coeff:     -0.306D+00 0.711D+00 0.595D+00
 Gap=     0.281 Goal=   None    Shift=    0.000
 RMSDP=8.38D-03 MaxDP=9.64D-01 DE=-4.09D-02 OVMax= 1.08D-01

 Cycle   4  Pass 1  IDiag  1:
 RMSU=  2.26D-03    CP:  6.08D-01  9.43D-01  5.66D-01
 E= -863.160846818207     Delta-E=       -0.105987185877 Rises=F Damp=F
 DIIS: error= 4.32D-03 at cycle   4 NSaved=   4.
 NSaved= 4 IEnMin= 4 EnMin= -863.160846818207     IErMin= 4 ErrMin= 4.32D-03
 ErrMax= 4.32D-03  0.00D+00 EMaxC= 1.00D-01 BMatC= 9.14D-03 BMatP= 1.32D-01
 IDIUse=3 WtCom= 9.57D-01 WtEn= 4.32D-02
 Coeff-Com: -0.149D+00 0.320D+00 0.331D+00 0.498D+00
 Coeff-En:   0.000D+00 0.000D+00 0.000D+00 0.100D+01
 Coeff:     -0.143D+00 0.306D+00 0.317D+00 0.520D+00
 Gap=     0.248 Goal=   None    Shift=    0.000
 RMSDP=1.75D-03 MaxDP=1.94D-01 DE=-1.06D-01 OVMax= 2.14D-02

 Cycle   5  Pass 1  IDiag  1:
 RMSU=  6.95D-04    CP:  6.18D-01  9.03D-01  6.83D-01  8.23D-01
 E= -863.168231204099     Delta-E=       -0.007384385892 Rises=F Damp=F
 DIIS: error= 5.88D-04 at cycle   5 NSaved=   5.
 NSaved= 5 IEnMin= 5 EnMin= -863.168231204099     IErMin= 5 ErrMin= 5.88D-04
 ErrMax= 5.88D-04  0.00D+00 EMaxC= 1.00D-01 BMatC= 1.45D-04 BMatP= 9.14D-03
 IDIUse=3 WtCom= 9.94D-01 WtEn= 5.88D-03
 Coeff-Com:  0.219D-01-0.467D-01 0.307D-02 0.148D+00 0.874D+00
 Coeff-En:   0.000D+00 0.000D+00 0.000D+00 0.000D+00 0.100D+01
 Coeff:      0.217D-01-0.464D-01 0.305D-02 0.147D+00 0.874D+00
 Gap=     0.248 Goal=   None    Shift=    0.000
 RMSDP=6.75D-04 MaxDP=6.92D-02 DE=-7.38D-03 OVMax= 8.66D-03

 Cycle   6  Pass 1  IDiag  1:
 RMSU=  3.25D-04    CP:  6.14D-01  8.76D-01  6.94D-01  9.43D-01  8.81D-01
 E= -863.168437251750     Delta-E=       -0.000206047651 Rises=F Damp=F
 DIIS: error= 5.11D-04 at cycle   6 NSaved=   6.
 NSaved= 6 IEnMin= 6 EnMin= -863.168437251750     IErMin= 6 ErrMin= 5.11D-04
 ErrMax= 5.11D-04  0.00D+00 EMaxC= 1.00D-01 BMatC= 5.01D-05 BMatP= 1.45D-04
 IDIUse=3 WtCom= 9.95D-01 WtEn= 5.11D-03
 Coeff-Com:  0.286D-01-0.612D-01-0.402D-01-0.193D-02 0.443D+00 0.632D+00
 Coeff-En:   0.000D+00 0.000D+00 0.000D+00 0.000D+00 0.000D+00 0.100D+01
 Coeff:      0.284D-01-0.609D-01-0.400D-01-0.192D-02 0.441D+00 0.634D+00
 Gap=     0.249 Goal=   None    Shift=    0.000
 RMSDP=1.98D-04 MaxDP=1.51D-02 DE=-2.06D-04 OVMax= 4.34D-03

 Cycle   7  Pass 1  IDiag  1:
 RMSU=  1.03D-04    CP:  6.14D-01  8.82D-01  7.00D-01  9.78D-01  1.06D+00
                    CP:  1.08D+00
 E= -863.168499429873     Delta-E=       -0.000062178123 Rises=F Damp=F
 DIIS: error= 1.14D-04 at cycle   7 NSaved=   7.
 NSaved= 7 IEnMin= 7 EnMin= -863.168499429873     IErMin= 7 ErrMin= 1.14D-04
 ErrMax= 1.14D-04  0.00D+00 EMaxC= 1.00D-01 BMatC= 3.78D-06 BMatP= 5.01D-05
 IDIUse=3 WtCom= 9.99D-01 WtEn= 1.14D-03
 Coeff-Com:  0.254D-02-0.540D-02-0.762D-02-0.188D-01-0.307D-01 0.164D+00
 Coeff-Com:  0.896D+00
 Coeff-En:   0.000D+00 0.000D+00 0.000D+00 0.000D+00 0.000D+00 0.000D+00
 Coeff-En:   0.100D+01
 Coeff:      0.253D-02-0.539D-02-0.761D-02-0.188D-01-0.306D-01 0.164D+00
 Coeff:      0.896D+00
 Gap=     0.249 Goal=   None    Shift=    0.000
 RMSDP=9.41D-05 MaxDP=6.61D-03 DE=-6.22D-05 OVMax= 2.40D-03

 Cycle   8  Pass 1  IDiag  1:
 RMSU=  4.64D-05    CP:  6.13D-01  8.79D-01  7.02D-01  1.00D+00  1.09D+00
                    CP:  1.23D+00  1.00D+00
 E= -863.168509033091     Delta-E=       -0.000009603218 Rises=F Damp=F
 DIIS: error= 6.15D-05 at cycle   8 NSaved=   8.
 NSaved= 8 IEnMin= 8 EnMin= -863.168509033091     IErMin= 8 ErrMin= 6.15D-05
 ErrMax= 6.15D-05  0.00D+00 EMaxC= 1.00D-01 BMatC= 1.07D-06 BMatP= 3.78D-06
 IDIUse=1 WtCom= 1.00D+00 WtEn= 0.00D+00
 Coeff-Com: -0.312D-02 0.672D-02 0.239D-02-0.102D-01-0.930D-01-0.175D-01
 Coeff-Com:  0.427D+00 0.688D+00
 Coeff:     -0.312D-02 0.672D-02 0.239D-02-0.102D-01-0.930D-01-0.175D-01
 Coeff:      0.427D+00 0.688D+00
 Gap=     0.249 Goal=   None    Shift=    0.000
 RMSDP=3.12D-05 MaxDP=4.14D-03 DE=-9.60D-06 OVMax= 1.26D-03

 Cycle   9  Pass 1  IDiag  1:
 RMSU=  1.23D-05    CP:  6.13D-01  8.79D-01  7.03D-01  1.01D+00  1.10D+00
                    CP:  1.28D+00  1.11D+00  1.06D+00
 E= -863.168511414214     Delta-E=       -0.000002381124 Rises=F Damp=F
 DIIS: error= 2.77D-05 at cycle   9 NSaved=   9.
 NSaved= 9 IEnMin= 9 EnMin= -863.168511414214     IErMin= 9 ErrMin= 2.77D-05
 ErrMax= 2.77D-05  0.00D+00 EMaxC= 1.00D-01 BMatC= 1.16D-07 BMatP= 1.07D-06
 IDIUse=1 WtCom= 1.00D+00 WtEn= 0.00D+00
 Coeff-Com: -0.132D-02 0.282D-02 0.238D-02 0.963D-03-0.198D-01-0.313D-01
 Coeff-Com: -0.720D-01 0.153D+00 0.966D+00
 Coeff:     -0.132D-02 0.282D-02 0.238D-02 0.963D-03-0.198D-01-0.313D-01
 Coeff:     -0.720D-01 0.153D+00 0.966D+00
 Gap=     0.249 Goal=   None    Shift=    0.000
 RMSDP=1.40D-05 MaxDP=1.28D-03 DE=-2.38D-06 OVMax= 6.21D-04

 Cycle  10  Pass 1  IDiag  1:
 RMSU=  9.13D-06    CP:  6.13D-01  8.80D-01  7.03D-01  1.01D+00  1.10D+00
                    CP:  1.30D+00  1.15D+00  1.16D+00  1.16D+00
 E= -863.168511843571     Delta-E=       -0.000000429357 Rises=F Damp=F
 DIIS: error= 8.34D-06 at cycle  10 NSaved=  10.
 NSaved=10 IEnMin=10 EnMin= -863.168511843571     IErMin=10 ErrMin= 8.34D-06
 ErrMax= 8.34D-06  0.00D+00 EMaxC= 1.00D-01 BMatC= 1.81D-08 BMatP= 1.16D-07
 IDIUse=1 WtCom= 1.00D+00 WtEn= 0.00D+00
 Coeff-Com:  0.105D-03-0.233D-03 0.353D-03 0.190D-02 0.719D-02-0.661D-02
 Coeff-Com: -0.887D-01-0.461D-01 0.318D+00 0.814D+00
 Coeff:      0.105D-03-0.233D-03 0.353D-03 0.190D-02 0.719D-02-0.661D-02
 Coeff:     -0.887D-01-0.461D-01 0.318D+00 0.814D+00
 Gap=     0.249 Goal=   None    Shift=    0.000
 RMSDP=6.01D-06 MaxDP=7.03D-04 DE=-4.29D-07 OVMax= 2.10D-04

 Cycle  11  Pass 1  IDiag  1:
 RMSU=  2.50D-06    CP:  6.13D-01  8.80D-01  7.03D-01  1.01D+00  1.11D+00
                    CP:  1.31D+00  1.15D+00  1.20D+00  1.28D+00  1.17D+00
 E= -863.168511895936     Delta-E=       -0.000000052365 Rises=F Damp=F
 DIIS: error= 3.24D-06 at cycle  11 NSaved=  11.
 NSaved=11 IEnMin=11 EnMin= -863.168511895936     IErMin=11 ErrMin= 3.24D-06
 ErrMax= 3.24D-06  0.00D+00 EMaxC= 1.00D-01 BMatC= 3.61D-09 BMatP= 1.81D-08
 IDIUse=1 WtCom= 1.00D+00 WtEn= 0.00D+00
 Coeff-Com:  0.238D-03-0.508D-03-0.231D-03 0.670D-03 0.549D-02 0.241D-02
 Coeff-Com: -0.164D-01-0.356D-01-0.630D-01 0.282D+00 0.825D+00
 Coeff:      0.238D-03-0.508D-03-0.231D-03 0.670D-03 0.549D-02 0.241D-02
 Coeff:     -0.164D-01-0.356D-01-0.630D-01 0.282D+00 0.825D+00
 Gap=     0.249 Goal=   None    Shift=    0.000
 RMSDP=3.29D-06 MaxDP=3.00D-04 DE=-5.24D-08 OVMax= 6.09D-05

 Cycle  12  Pass 1  IDiag  1:
 RMSU=  1.24D-06    CP:  6.13D-01  8.80D-01  7.03D-01  1.01D+00  1.11D+00
                    CP:  1.31D+00  1.16D+00  1.22D+00  1.30D+00  1.27D+00
                    CP:  1.26D+00
 E= -863.168511904011     Delta-E=       -0.000000008074 Rises=F Damp=F
 DIIS: error= 2.00D-06 at cycle  12 NSaved=  12.
 NSaved=12 IEnMin=12 EnMin= -863.168511904011     IErMin=12 ErrMin= 2.00D-06
 ErrMax= 2.00D-06  0.00D+00 EMaxC= 1.00D-01 BMatC= 5.29D-10 BMatP= 3.61D-09
 IDIUse=1 WtCom= 1.00D+00 WtEn= 0.00D+00
 Coeff-Com:  0.695D-04-0.146D-03-0.127D-03 0.181D-04 0.100D-02 0.151D-02
 Coeff-Com:  0.854D-02-0.531D-02-0.739D-01-0.292D-01 0.278D+00 0.820D+00
 Coeff:      0.695D-04-0.146D-03-0.127D-03 0.181D-04 0.100D-02 0.151D-02
 Coeff:      0.854D-02-0.531D-02-0.739D-01-0.292D-01 0.278D+00 0.820D+00
 Gap=     0.249 Goal=   None    Shift=    0.000
 RMSDP=1.64D-06 MaxDP=1.36D-04 DE=-8.07D-09 OVMax= 2.19D-05

 Cycle  13  Pass 1  IDiag  1:
 RMSU=  5.57D-07    CP:  6.13D-01  8.80D-01  7.03D-01  1.01D+00  1.11D+00
                    CP:  1.31D+00  1.16D+00  1.22D+00  1.30D+00  1.36D+00
                    CP:  1.58D+00  1.26D+00
 E= -863.168511905220     Delta-E=       -0.000000001209 Rises=F Damp=F
 DIIS: error= 4.55D-07 at cycle  13 NSaved=  13.
 NSaved=13 IEnMin=13 EnMin= -863.168511905220     IErMin=13 ErrMin= 4.55D-07
 ErrMax= 4.55D-07  0.00D+00 EMaxC= 1.00D-01 BMatC= 1.08D-10 BMatP= 5.29D-10
 IDIUse=1 WtCom= 1.00D+00 WtEn= 0.00D+00
 Coeff-Com: -0.102D-04 0.226D-04-0.156D-04-0.109D-03-0.522D-03 0.994D-04
 Coeff-Com:  0.655D-02 0.358D-02-0.192D-01-0.583D-01-0.287D-01 0.355D+00
 Coeff-Com:  0.741D+00
 Coeff:     -0.102D-04 0.226D-04-0.156D-04-0.109D-03-0.522D-03 0.994D-04
 Coeff:      0.655D-02 0.358D-02-0.192D-01-0.583D-01-0.287D-01 0.355D+00
 Coeff:      0.741D+00
 Gap=     0.249 Goal=   None    Shift=    0.000
 RMSDP=6.44D-07 MaxDP=7.98D-05 DE=-1.21D-09 OVMax= 6.91D-06

 Cycle  14  Pass 1  IDiag  1:
 RMSU=  1.66D-07    CP:  6.13D-01  8.80D-01  7.03D-01  1.01D+00  1.11D+00
                    CP:  1.31D+00  1.16D+00  1.22D+00  1.29D+00  1.38D+00
                    CP:  1.64D+00  1.39D+00  1.18D+00
 E= -863.168511905401     Delta-E=       -0.000000000181 Rises=F Damp=F
 DIIS: error= 2.56D-07 at cycle  14 NSaved=  14.
 NSaved=14 IEnMin=14 EnMin= -863.168511905401     IErMin=14 ErrMin= 2.56D-07
 ErrMax= 2.56D-07  0.00D+00 EMaxC= 1.00D-01 BMatC= 6.55D-12 BMatP= 1.08D-10
 IDIUse=1 WtCom= 1.00D+00 WtEn= 0.00D+00
 Coeff-Com: -0.851D-05 0.179D-04 0.817D-05-0.349D-04-0.216D-03-0.140D-03
 Coeff-Com:  0.414D-03 0.919D-03 0.456D-02-0.778D-02-0.397D-01-0.754D-02
 Coeff-Com:  0.128D+00 0.922D+00
 Coeff:     -0.851D-05 0.179D-04 0.817D-05-0.349D-04-0.216D-03-0.140D-03
 Coeff:      0.414D-03 0.919D-03 0.456D-02-0.778D-02-0.397D-01-0.754D-02
 Coeff:      0.128D+00 0.922D+00
 Gap=     0.249 Goal=   None    Shift=    0.000
 RMSDP=2.76D-07 MaxDP=2.13D-05 DE=-1.81D-10 OVMax= 3.63D-06

 Cycle  15  Pass 1  IDiag  1:
 RMSU=  4.86D-08    CP:  6.13D-01  8.80D-01  7.03D-01  1.01D+00  1.11D+00
                    CP:  1.31D+00  1.16D+00  1.22D+00  1.29D+00  1.38D+00
                    CP:  1.66D+00  1.46D+00  1.36D+00  1.18D+00
 E= -863.168511905406     Delta-E=       -0.000000000005 Rises=F Damp=F
 DIIS: error= 9.66D-08 at cycle  15 NSaved=  15.
 NSaved=15 IEnMin=15 EnMin= -863.168511905406     IErMin=15 ErrMin= 9.66D-08
 ErrMax= 9.66D-08  0.00D+00 EMaxC= 1.00D-01 BMatC= 1.26D-12 BMatP= 6.55D-12
 IDIUse=1 WtCom= 1.00D+00 WtEn= 0.00D+00
 Coeff-Com: -0.200D-05 0.414D-05 0.501D-05 0.818D-06-0.399D-05-0.544D-04
 Coeff-Com: -0.623D-03-0.255D-03 0.372D-02 0.501D-02-0.101D-01-0.410D-01
 Coeff-Com: -0.643D-01 0.261D+00 0.846D+00
 Coeff:     -0.200D-05 0.414D-05 0.501D-05 0.818D-06-0.399D-05-0.544D-04
 Coeff:     -0.623D-03-0.255D-03 0.372D-02 0.501D-02-0.101D-01-0.410D-01
 Coeff:     -0.643D-01 0.261D+00 0.846D+00
 Gap=     0.249 Goal=   None    Shift=    0.000
 RMSDP=1.07D-07 MaxDP=8.27D-06 DE=-5.00D-12 OVMax= 1.61D-06

 Cycle  16  Pass 1  IDiag  1:
 RMSU=  2.08D-08    CP:  6.13D-01  8.80D-01  7.03D-01  1.01D+00  1.11D+00
                    CP:  1.31D+00  1.16D+00  1.22D+00  1.29D+00  1.38D+00
                    CP:  1.67D+00  1.49D+00  1.42D+00  1.31D+00  1.15D+00
 E= -863.168511905452     Delta-E=       -0.000000000046 Rises=F Damp=F
 DIIS: error= 4.02D-08 at cycle  16 NSaved=  16.
 NSaved=16 IEnMin=16 EnMin= -863.168511905452     IErMin=16 ErrMin= 4.02D-08
 ErrMax= 4.02D-08  0.00D+00 EMaxC= 1.00D-01 BMatC= 2.16D-13 BMatP= 1.26D-12
 IDIUse=1 WtCom= 1.00D+00 WtEn= 0.00D+00
 Coeff-Com:  0.788D-06-0.168D-05-0.449D-06 0.530D-05 0.350D-04 0.842D-05
 Coeff-Com: -0.149D-03-0.233D-03-0.162D-03 0.241D-02 0.417D-02-0.241D-02
 Coeff-Com: -0.390D-01-0.129D+00 0.163D+00 0.100D+01
 Coeff:      0.788D-06-0.168D-05-0.449D-06 0.530D-05 0.350D-04 0.842D-05
 Coeff:     -0.149D-03-0.233D-03-0.162D-03 0.241D-02 0.417D-02-0.241D-02
 Coeff:     -0.390D-01-0.129D+00 0.163D+00 0.100D+01
 Gap=     0.249 Goal=   None    Shift=    0.000
 RMSDP=4.26D-08 MaxDP=2.86D-06 DE=-4.64D-11 OVMax= 8.05D-07

 Cycle  17  Pass 1  IDiag  1:
 RMSU=  8.71D-09    CP:  6.13D-01  8.80D-01  7.03D-01  1.01D+00  1.11D+00
                    CP:  1.31D+00  1.16D+00  1.22D+00  1.29D+00  1.38D+00
                    CP:  1.67D+00  1.50D+00  1.45D+00  1.38D+00  1.34D+00
                    CP:  1.40D+00
 E= -863.168511905477     Delta-E=       -0.000000000025 Rises=F Damp=F
 DIIS: error= 1.29D-08 at cycle  17 NSaved=  17.
 NSaved=17 IEnMin=17 EnMin= -863.168511905477     IErMin=17 ErrMin= 1.29D-08
 ErrMax= 1.29D-08  0.00D+00 EMaxC= 1.00D-01 BMatC= 2.79D-14 BMatP= 2.16D-13
 IDIUse=1 WtCom= 1.00D+00 WtEn= 0.00D+00
 Coeff-Com:  0.244D-06-0.508D-06-0.423D-06 0.141D-05 0.863D-05 0.720D-05
 Coeff-Com:  0.438D-04-0.239D-04-0.479D-03 0.661D-04 0.193D-02 0.552D-02
 Coeff-Com: -0.189D-02-0.638D-01-0.535D-01 0.258D+00 0.854D+00
 Coeff:      0.244D-06-0.508D-06-0.423D-06 0.141D-05 0.863D-05 0.720D-05
 Coeff:      0.438D-04-0.239D-04-0.479D-03 0.661D-04 0.193D-02 0.552D-02
 Coeff:     -0.189D-02-0.638D-01-0.535D-01 0.258D+00 0.854D+00
 Gap=     0.249 Goal=   None    Shift=    0.000
 RMSDP=1.01D-08 MaxDP=9.50D-07 DE=-2.46D-11 OVMax= 2.41D-07

 Cycle  18  Pass 1  IDiag  1:
 RMSU=  2.59D-09    CP:  6.13D-01  8.80D-01  7.03D-01  1.01D+00  1.11D+00
                    CP:  1.31D+00  1.16D+00  1.22D+00  1.29D+00  1.38D+00
                    CP:  1.67D+00  1.50D+00  1.45D+00  1.38D+00  1.37D+00
                    CP:  1.53D+00  1.24D+00
 E= -863.168511905320     Delta-E=        0.000000000157 Rises=F Damp=F
 DIIS: error= 7.24D-09 at cycle  18 NSaved=  18.
 NSaved=18 IEnMin=17 EnMin= -863.168511905477     IErMin=18 ErrMin= 7.24D-09
 ErrMax= 7.24D-09  0.00D+00 EMaxC= 1.00D-01 BMatC= 7.30D-15 BMatP= 2.79D-14
 IDIUse=1 WtCom= 1.00D+00 WtEn= 0.00D+00
 Coeff-Com:  0.684D-07-0.142D-06-0.248D-06-0.436D-06-0.157D-05 0.254D-05
 Coeff-Com:  0.363D-04 0.237D-04-0.165D-03-0.358D-03-0.128D-03 0.241D-02
 Coeff-Com:  0.598D-02-0.320D-03-0.521D-01-0.106D+00 0.348D+00 0.803D+00
 Coeff:      0.684D-07-0.142D-06-0.248D-06-0.436D-06-0.157D-05 0.254D-05
 Coeff:      0.363D-04 0.237D-04-0.165D-03-0.358D-03-0.128D-03 0.241D-02
 Coeff:      0.598D-02-0.320D-03-0.521D-01-0.106D+00 0.348D+00 0.803D+00
 Gap=     0.249 Goal=   None    Shift=    0.000
 RMSDP=4.54D-09 MaxDP=3.37D-07 DE= 1.57D-10 OVMax= 1.02D-07

 SCF Done:  E(RwB97XD) =  -863.168511905     A.U. after   18 cycles
            NFock= 18  Conv=0.45D-08     -V/T= 2.0041
 KE= 8.596843040000D+02 PE=-4.735439625201D+03 EE= 1.649636775657D+03
 Leave Link  502 at Tue Nov  7 13:32:23 2017, MaxMem=  3758096384 cpu:      2421.7
 (Enter /share/apps/gaussian/g09_D01/g09/l801.exe)
 DoSCS=F DFT=T ScalE2(SS,OS)=  1.000000  1.000000
 ExpMin= 3.60D-02 ExpMax= 8.59D+03 ExpMxC= 1.30D+03 IAcc=3 IRadAn=         5 AccDes= 0.00D+00
 HarFok:  IExCor=  205 AccDes= 0.00D+00 IRadAn=         5 IDoV=-2 UseB2=F ITyADJ=14
 ICtDFT= 12500011 ScaDFX=  1.000000  1.000000  1.000000  1.000000
 Largest valence mixing into a core orbital is  5.62D-05
 Largest core mixing into a valence orbital is  1.52D-05
 Range of M.O.s used for correlation:    21   554
 NBasis=   559 NAE=    71 NBE=    71 NFC=    20 NFV=     0
 NROrb=    534 NOA=    51 NOB=    51 NVA=   483 NVB=   483

 **** Warning!!: The largest alpha MO coefficient is  0.12857569D+03

 Leave Link  801 at Tue Nov  7 13:32:23 2017, MaxMem=  3758096384 cpu:         1.3
 (Enter /share/apps/gaussian/g09_D01/g09/l914.exe)
 RHF ground state
 MDV=  3758096384 DFT=T DoStab=F Mixed=T DoRPA=T DoScal=F NonHer=T
 Would need an additional         69850200000 words for in-memory AO integral storage.
 Making orbital integer symmetry assigments:
    16 initial guesses have been made.
 Convergence on wavefunction:    0.001000000000000
 Davidson Disk Diagonalization:  ConvIn= 1.00D-03 SkipCon=T Conv= 1.00D-03.
 Max sub-space:   200 roots to seek:    16 dimension of matrix:        49266
 Iteration     1 Dimension    16 NMult     0 NNew     16
 CISAX will form    16 AO SS matrices at one time.
 NMat=    16 NSing=    16 JSym2X= 0.
 FoFJK:  IHMeth= 1 ICntrl=       0 DoSepK=T KAlg= 0 I1Cent=   0 FoldK=F
 IRaf=         1 NMat=  32 IRICut=       1 DoRegI=T DoRafI=F ISym2E= 0.
 FoFCou: FMM=F IPFlag=           0 FMFlag=      100000 FMFlg1=           0
         NFxFlg=           0 DoJE=F BraDBF=F KetDBF=F FulRan=T
         wScrn=  0.000000 ICntrl=     500 IOpCl=  0 I1Cent=           0 NGrid=           0
         NMat0=   16 NMatS0=     16 NMatT0=    0 NMatD0=   16 NMtDS0=    0 NMtDT0=    0
 Symmetry not used in FoFCou.
 New state      2 was old state     10
 New state      3 was old state      2
 New state      4 was old state      9
 Excitation Energies [eV] at current iteration:
 Root      1 :     4.101870984608192
 Root      2 :     4.371481812861786
 Root      3 :     4.829930645738415
 Root      4 :     5.180917082006228
 Root      5 :     5.399523819773808
 Root      6 :     5.894912061474903
 Root      7 :     5.920159415083370
 Root      8 :     5.993781417163345
 Root      9 :     6.087489747353977
 Root     10 :     6.266139597161503
 Root     11 :     6.434916960403157
 Root     12 :     6.527865101954726
 Root     13 :     6.570744188652748
 Root     14 :     6.737014842972548
 Root     15 :     7.366027983979861
 Root     16 :     7.648056350235812
 Iteration     2 Dimension    24 NMult    16 NNew      8
 CISAX will form     8 AO SS matrices at one time.
 NMat=     8 NSing=     8 JSym2X= 0.
 Root      1 not converged, maximum delta is    0.070004522151105
 Root      2 not converged, maximum delta is    0.084727684110367
 Root      3 not converged, maximum delta is    0.124412555670256
 Root      4 not converged, maximum delta is    0.121281467481947
 Excitation Energies [eV] at current iteration:
 Root      1 :     3.642693595900318   Change is   -0.459177388707874
 Root      2 :     3.944817544699741   Change is   -0.426664268162046
 Root      3 :     4.235026240934622   Change is   -0.594904404803793
 Root      4 :     4.645262504340574   Change is   -0.535654577665653
 Iteration     3 Dimension    32 NMult    24 NNew      8
 CISAX will form     8 AO SS matrices at one time.
 NMat=     8 NSing=     8 JSym2X= 0.
 Root      1 not converged, maximum delta is    0.020097937599267
 Root      2 not converged, maximum delta is    0.015144150203267
 Root      3 not converged, maximum delta is    0.049948785651466
 Root      4 not converged, maximum delta is    0.033305867340084
 Excitation Energies [eV] at current iteration:
 Root      1 :     3.606783949368577   Change is   -0.035909646531741
 Root      2 :     3.919192690744675   Change is   -0.025624853955066
 Root      3 :     4.162857480417718   Change is   -0.072168760516904
 Root      4 :     4.596674971358209   Change is   -0.048587532982365
 Iteration     4 Dimension    40 NMult    32 NNew      8
 CISAX will form     8 AO SS matrices at one time.
 NMat=     8 NSing=     8 JSym2X= 0.
 Root      1 not converged, maximum delta is    0.009388573487017
 Root      2 not converged, maximum delta is    0.005446689115027
 Root      3 not converged, maximum delta is    0.022552653424050
 Root      4 not converged, maximum delta is    0.012324569649720
 Excitation Energies [eV] at current iteration:
 Root      1 :     3.601311041593705   Change is   -0.005472907774872
 Root      2 :     3.917124685961412   Change is   -0.002068004783262
 Root      3 :     4.145050938309446   Change is   -0.017806542108273
 Root      4 :     4.589280808874113   Change is   -0.007394162484096
 Iteration     5 Dimension    48 NMult    40 NNew      8
 CISAX will form     8 AO SS matrices at one time.
 NMat=     8 NSing=     8 JSym2X= 0.
 Root      1 not converged, maximum delta is    0.003075160375167
 Root      2 not converged, maximum delta is    0.001765906285209
 Root      3 not converged, maximum delta is    0.007817043433731
 Root      4 not converged, maximum delta is    0.002943063659009
 Excitation Energies [eV] at current iteration:
 Root      1 :     3.600680938862845   Change is   -0.000630102730860
 Root      2 :     3.916982562968640   Change is   -0.000142122992772
 Root      3 :     4.142487567195057   Change is   -0.002563371114388
 Root      4 :     4.588629071688984   Change is   -0.000651737185130
 Iteration     6 Dimension    56 NMult    48 NNew      8
 CISAX will form     8 AO SS matrices at one time.
 NMat=     8 NSing=     8 JSym2X= 0.
 Root      1 has converged.
 Root      2 has converged.
 Root      3 not converged, maximum delta is    0.001607794648277
 Root      4 not converged, maximum delta is    0.001541356008131
 Excitation Energies [eV] at current iteration:
 Root      1 :     3.600600929854790   Change is   -0.000080009008055
 Root      2 :     3.916967621571711   Change is   -0.000014941396929
 Root      3 :     4.142192141041018   Change is   -0.000295426154040
 Root      4 :     4.588546059630731   Change is   -0.000083012058252
 Iteration     7 Dimension    60 NMult    56 NNew      4
 CISAX will form     4 AO SS matrices at one time.
 NMat=     4 NSing=     4 JSym2X= 0.
 Root      1 has converged.
 Root      2 has converged.
 Root      3 has converged.
 Root      4 has converged.
 Excitation Energies [eV] at current iteration:
 Root      1 :     3.600600003474439   Change is   -0.000000926380351
 Root      2 :     3.916967596271254   Change is   -0.000000025300457
 Root      3 :     4.142164074025641   Change is   -0.000028067015377
 Root      4 :     4.588535276188334   Change is   -0.000010783442398
 Convergence achieved on expansion vectors.
 ***********************************************************************
 Excited states from <AA,BB:AA,BB> singles matrix:
 ***********************************************************************
 
 1PDM for each excited state written to RWF  633
 Ground to excited state transition densities written to RWF  633
 Ground to excited state transition electric dipole moments (Au):
       state          X           Y           Z        Dip. S.      Osc.
         1        -3.5411     -0.6153      0.2875     13.0007      1.1468
         2        -0.0933      0.0063     -0.0115      0.0089      0.0009
         3        -0.0119     -0.1415     -0.1594      0.0456      0.0046
         4         0.3589      0.1788     -0.5024      0.4131      0.0464
 Ground to excited state transition velocity dipole moments (Au):
       state          X           Y           Z        Dip. S.      Osc.
         1         0.4635      0.0794     -0.0351      0.2223      1.1201
         2         0.0140     -0.0023      0.0014      0.0002      0.0009
         3        -0.0028      0.0216      0.0206      0.0009      0.0039
         4        -0.0569     -0.0311      0.0918      0.0126      0.0499
 Ground to excited state transition magnetic dipole moments (Au):
       state          X           Y           Z
         1         0.2828     -0.4302      1.8897
         2        -0.1841      0.1613     -0.4725
         3        -0.0581     -1.1805     -0.2236
         4        -0.3184     -0.4516     -0.3310
 Ground to excited state transition velocity quadrupole moments (Au):
       state          XX          YY          ZZ          XY          XZ          YZ
         1         5.6016     -0.3973     -0.1332     -0.7075      0.1447      0.1598
         2         0.1574      0.0106      0.0092     -0.0382     -0.0089      0.0213
         3         2.4951     -0.1206     -0.0891      0.3659      0.0505     -0.0428
         4        -0.7896      0.1008     -0.0483     -0.1734      1.0758     -0.1456
 <0|del|b> * <b|rxdel|0> + <0|del|b> * <b|delr+rdel|0>
 Rotatory Strengths (R) in cgs (10**-40 erg-esu-cm/Gauss)
       state          XX          YY          ZZ    R(velocity)    E-M Angle
         1      -232.9415    304.1434     91.8192     54.3404       88.11
         2        -2.7117     -7.1117     -7.9269     -5.9168      118.38
         3       -54.9324    -27.5906    -56.5814    -46.3681      146.08
         4         2.5524     24.9763    -20.1239      2.4683       88.60
 1/2[<0|r|b>*<b|rxdel|0> + (<0|rxdel|b>*<b|r|0>)*]
 Rotatory Strengths (R) in cgs (10**-40 erg-esu-cm/Gauss)
       state          XX          YY          ZZ     R(length)
         1       708.1660   -187.1985   -384.1518     45.6052
         2       -12.1394     -0.7203     -3.8424     -5.5674
         3        -0.4898   -118.1140    -25.2109    -47.9383
         4        80.8109     57.0955   -117.5858      6.7735
  1/2[<0|del|b>*<b|r|0> + (<0|r|b>*<b|del|0>)*] (Au)
       state          X           Y           Z        Dip. S.   Osc.(frdel)
         1        -1.6412     -0.0488     -0.0101      1.7001      1.1334
         2        -0.0013      0.0000      0.0000      0.0013      0.0009
         3         0.0000     -0.0031     -0.0033      0.0063      0.0042
         4        -0.0204     -0.0056     -0.0461      0.0721      0.0481

 Excitation energies and oscillator strengths:
 
 Excited state symmetry could not be determined.
 Excited State   1:      Singlet-?Sym    3.6006 eV  344.34 nm  f=1.1468  <S**2>=0.000
      66 -> 72        -0.12017
      70 -> 72        -0.14945
      71 -> 72         0.64848
      71 -> 74        -0.11682
 This state for optimization and/or second-order correction.
 Total Energy, E(TD-HF/TD-KS) =  -863.036192284    
 Copying the excited state density for this state as the 1-particle RhoCI density.
 
 Excited state symmetry could not be determined.
 Excited State   2:      Singlet-?Sym    3.9170 eV  316.53 nm  f=0.0009  <S**2>=0.000
      67 -> 72        -0.15668
      68 -> 72         0.63704
      68 -> 74         0.10411
      69 -> 72         0.10039
 
 Excited state symmetry could not be determined.
 Excited State   3:      Singlet-?Sym    4.1422 eV  299.32 nm  f=0.0046  <S**2>=0.000
      69 -> 82         0.10425
      70 -> 72         0.62615
      70 -> 74         0.21792
      71 -> 72         0.14130
      71 -> 74        -0.11772
 
 Excited state symmetry could not be determined.
 Excited State   4:      Singlet-?Sym    4.5885 eV  270.20 nm  f=0.0464  <S**2>=0.000
      67 -> 72         0.23513
      67 -> 74        -0.12899
      71 -> 74        -0.22796
      71 -> 78         0.57855
 SavETr:  write IOETrn=   770 NScale= 10 NData=  16 NLR=1 NState=    4 LETran=      82.
 Leave Link  914 at Tue Nov  7 13:54:59 2017, MaxMem=  3758096384 cpu:      5420.2
 (Enter /share/apps/gaussian/g09_D01/g09/l601.exe)
 Copying SCF densities to generalized density rwf, IOpCl= 0 IROHF=0.

 **********************************************************************

            Population analysis using the SCF density.

 **********************************************************************

 Alpha  occ. eigenvalues --  -19.25743 -19.23365 -14.47134 -10.38119 -10.35809
 Alpha  occ. eigenvalues --  -10.34621 -10.33049 -10.33033 -10.30889 -10.30177
 Alpha  occ. eigenvalues --  -10.29938 -10.29915 -10.29843 -10.29801 -10.29342
 Alpha  occ. eigenvalues --  -10.29222 -10.28935 -10.28634 -10.28590 -10.28423
 Alpha  occ. eigenvalues --   -1.16511  -1.13313  -1.07660  -0.97346  -0.96247
 Alpha  occ. eigenvalues --   -0.90907  -0.87441  -0.86811  -0.85028  -0.84292
 Alpha  occ. eigenvalues --   -0.83769  -0.78937  -0.74869  -0.72171  -0.71444
 Alpha  occ. eigenvalues --   -0.69815  -0.68038  -0.64745  -0.63228  -0.61568
 Alpha  occ. eigenvalues --   -0.60722  -0.58762  -0.57886  -0.57422  -0.55885
 Alpha  occ. eigenvalues --   -0.55086  -0.54312  -0.52988  -0.52212  -0.52195
 Alpha  occ. eigenvalues --   -0.51773  -0.51369  -0.51028  -0.50123  -0.48369
 Alpha  occ. eigenvalues --   -0.47963  -0.47454  -0.47171  -0.46883  -0.45953
 Alpha  occ. eigenvalues --   -0.45498  -0.42957  -0.42666  -0.42230  -0.41092
 Alpha  occ. eigenvalues --   -0.35068  -0.34619  -0.34438  -0.33878  -0.30107
 Alpha  occ. eigenvalues --   -0.26980
 Alpha virt. eigenvalues --   -0.02084   0.02811   0.03489   0.03945   0.04466
 Alpha virt. eigenvalues --    0.04938   0.05012   0.05694   0.06338   0.06493
 Alpha virt. eigenvalues --    0.06704   0.06710   0.07982   0.08031   0.08223
 Alpha virt. eigenvalues --    0.08758   0.09217   0.09467   0.09784   0.10439
 Alpha virt. eigenvalues --    0.11168   0.11343   0.12037   0.12637   0.12997
 Alpha virt. eigenvalues --    0.13330   0.13806   0.13924   0.14410   0.14886
 Alpha virt. eigenvalues --    0.15276   0.15509   0.15889   0.16007   0.16100
 Alpha virt. eigenvalues --    0.16263   0.16572   0.16969   0.17067   0.17233
 Alpha virt. eigenvalues --    0.17516   0.17942   0.18458   0.18656   0.19044
 Alpha virt. eigenvalues --    0.19528   0.19738   0.20078   0.20258   0.20557
 Alpha virt. eigenvalues --    0.20777   0.21036   0.21371   0.21755   0.21914
 Alpha virt. eigenvalues --    0.22007   0.22275   0.22617   0.22941   0.23326
 Alpha virt. eigenvalues --    0.23679   0.23857   0.24180   0.24208   0.24589
 Alpha virt. eigenvalues --    0.25105   0.25370   0.25543   0.25706   0.26309
 Alpha virt. eigenvalues --    0.26692   0.26826   0.26988   0.27627   0.28258
 Alpha virt. eigenvalues --    0.28373   0.28706   0.29292   0.29462   0.29961
 Alpha virt. eigenvalues --    0.30295   0.30541   0.30749   0.30968   0.31531
 Alpha virt. eigenvalues --    0.31689   0.31869   0.32446   0.32673   0.32874
 Alpha virt. eigenvalues --    0.33642   0.33937   0.34141   0.34412   0.34892
 Alpha virt. eigenvalues --    0.35410   0.35600   0.36171   0.36399   0.36594
 Alpha virt. eigenvalues --    0.37101   0.37808   0.37834   0.38268   0.38547
 Alpha virt. eigenvalues --    0.38867   0.39374   0.39517   0.39852   0.40667
 Alpha virt. eigenvalues --    0.40883   0.41170   0.41330   0.41825   0.42323
 Alpha virt. eigenvalues --    0.42782   0.43355   0.44064   0.44708   0.45191
 Alpha virt. eigenvalues --    0.45684   0.46731   0.47109   0.47587   0.48129
 Alpha virt. eigenvalues --    0.48931   0.49908   0.50957   0.51350   0.52016
 Alpha virt. eigenvalues --    0.52828   0.53022   0.54608   0.56500   0.57219
 Alpha virt. eigenvalues --    0.58201   0.60122   0.60502   0.61261   0.61911
 Alpha virt. eigenvalues --    0.62267   0.62544   0.62779   0.63125   0.63924
 Alpha virt. eigenvalues --    0.64079   0.64990   0.65312   0.65957   0.66400
 Alpha virt. eigenvalues --    0.66992   0.67456   0.67566   0.68222   0.68499
 Alpha virt. eigenvalues --    0.69180   0.69980   0.70826   0.71410   0.72120
 Alpha virt. eigenvalues --    0.72327   0.72460   0.73391   0.73913   0.74231
 Alpha virt. eigenvalues --    0.74882   0.75342   0.75588   0.76006   0.76805
 Alpha virt. eigenvalues --    0.77039   0.77614   0.78064   0.78847   0.79339
 Alpha virt. eigenvalues --    0.79863   0.80294   0.80720   0.80950   0.82260
 Alpha virt. eigenvalues --    0.82966   0.83825   0.85029   0.85108   0.86226
 Alpha virt. eigenvalues --    0.86812   0.87918   0.88418   0.89245   0.90572
 Alpha virt. eigenvalues --    0.91165   0.91932   0.93467   0.93969   0.94346
 Alpha virt. eigenvalues --    0.94750   0.95904   0.96703   0.96985   0.97341
 Alpha virt. eigenvalues --    0.97770   0.98169   0.99147   0.99251   0.99872
 Alpha virt. eigenvalues --    1.00465   1.01924   1.02405   1.03096   1.03698
 Alpha virt. eigenvalues --    1.04821   1.05686   1.05832   1.07238   1.07712
 Alpha virt. eigenvalues --    1.08325   1.09068   1.09627   1.10414   1.11215
 Alpha virt. eigenvalues --    1.12483   1.13060   1.13934   1.14040   1.15258
 Alpha virt. eigenvalues --    1.16437   1.16665   1.17735   1.18050   1.19932
 Alpha virt. eigenvalues --    1.20493   1.21157   1.21956   1.23199   1.24112
 Alpha virt. eigenvalues --    1.25248   1.25457   1.29553   1.31253   1.31708
 Alpha virt. eigenvalues --    1.33495   1.34962   1.36466   1.37533   1.39892
 Alpha virt. eigenvalues --    1.40568   1.42857   1.45674   1.48361   1.48993
 Alpha virt. eigenvalues --    1.49843   1.52175   1.53146   1.54025   1.55454
 Alpha virt. eigenvalues --    1.56543   1.57149   1.58529   1.59270   1.59853
 Alpha virt. eigenvalues --    1.60362   1.62055   1.62794   1.63472   1.63532
 Alpha virt. eigenvalues --    1.63660   1.64083   1.64918   1.65389   1.65580
 Alpha virt. eigenvalues --    1.66043   1.66578   1.68196   1.68715   1.69895
 Alpha virt. eigenvalues --    1.70235   1.70434   1.73337   1.74698   1.74936
 Alpha virt. eigenvalues --    1.76012   1.77307   1.78679   1.79592   1.80089
 Alpha virt. eigenvalues --    1.80457   1.81065   1.81510   1.82818   1.83232
 Alpha virt. eigenvalues --    1.83861   1.84831   1.85825   1.86463   1.88226
 Alpha virt. eigenvalues --    1.89158   1.89832   1.90873   1.94156   1.94739
 Alpha virt. eigenvalues --    1.96563   1.97074   1.98050   1.98940   2.00651
 Alpha virt. eigenvalues --    2.01327   2.01679   2.02157   2.03384   2.03582
 Alpha virt. eigenvalues --    2.04192   2.04416   2.05492   2.05854   2.07485
 Alpha virt. eigenvalues --    2.07713   2.08995   2.09644   2.11390   2.12793
 Alpha virt. eigenvalues --    2.13019   2.14841   2.15511   2.16339   2.17829
 Alpha virt. eigenvalues --    2.18293   2.19071   2.20821   2.21177   2.23078
 Alpha virt. eigenvalues --    2.25498   2.26790   2.29126   2.29708   2.33773
 Alpha virt. eigenvalues --    2.33975   2.36472   2.37336   2.38624   2.40946
 Alpha virt. eigenvalues --    2.42109   2.43532   2.44697   2.45737   2.48198
 Alpha virt. eigenvalues --    2.49147   2.50680   2.53652   2.55485   2.55804
 Alpha virt. eigenvalues --    2.56173   2.56355   2.56886   2.57859   2.58470
 Alpha virt. eigenvalues --    2.61481   2.62820   2.64202   2.68189   2.69502
 Alpha virt. eigenvalues --    2.70648   2.70843   2.73870   2.74871   2.75697
 Alpha virt. eigenvalues --    2.78304   2.79292   2.79364   2.79919   2.80139
 Alpha virt. eigenvalues --    2.80738   2.81874   2.82757   2.83133   2.83655
 Alpha virt. eigenvalues --    2.83908   2.84936   2.85345   2.85925   2.86501
 Alpha virt. eigenvalues --    2.86831   2.89183   2.89786   2.90481   2.90789
 Alpha virt. eigenvalues --    2.92250   2.92662   2.93104   2.93711   2.95344
 Alpha virt. eigenvalues --    2.96135   2.97509   2.98895   3.02387   3.02855
 Alpha virt. eigenvalues --    3.04230   3.05581   3.07309   3.07532   3.08485
 Alpha virt. eigenvalues --    3.10799   3.14296   3.19031   3.19774   3.20389
 Alpha virt. eigenvalues --    3.21497   3.22868   3.23840   3.24510   3.28703
 Alpha virt. eigenvalues --    3.29958   3.30791   3.31352   3.36954   3.37434
 Alpha virt. eigenvalues --    3.41306   3.42822   3.46210   3.48342   3.49482
 Alpha virt. eigenvalues --    3.50659   3.59518   3.62077   3.62502   3.63203
 Alpha virt. eigenvalues --    3.65072   3.65682   3.69760   3.70872   3.74655
 Alpha virt. eigenvalues --    3.78159   3.79576   3.80271   3.80373   3.80952
 Alpha virt. eigenvalues --    3.87104   3.90115   3.90433   3.94109   4.02910
 Alpha virt. eigenvalues --    4.05537   4.09155   4.10746   4.13140   4.14209
 Alpha virt. eigenvalues --    4.16094   4.27000   4.28262   4.29500   4.30922
 Alpha virt. eigenvalues --    4.36600   4.52974   4.75442   4.94202   4.95865
 Alpha virt. eigenvalues --    5.01478   5.14187   5.18670   5.20063   5.42444
 Alpha virt. eigenvalues --    5.61176   5.89258   5.92695  23.71761  23.79325
 Alpha virt. eigenvalues --   23.95924  24.01443  24.03640  24.05832  24.07511
 Alpha virt. eigenvalues --   24.08534  24.10013  24.11959  24.16078  24.18997
 Alpha virt. eigenvalues --   24.24338  24.29566  24.32878  24.34714  24.35759
 Alpha virt. eigenvalues --   35.75078  50.13010  50.18569
          Condensed to atoms (all electrons):
               1          2          3          4          5          6
     1  C    5.241867  -0.123014  -0.205104   0.228918  -0.157253   0.013052
     2  C   -0.123014   5.259733  -0.105290  -0.223559   0.133528  -0.034389
     3  C   -0.205104  -0.105290  13.726903  -0.152389   1.070021  -1.667140
     4  C    0.228918  -0.223559  -0.152389  10.138661  -1.558515   1.730090
     5  C   -0.157253   0.133528   1.070021  -1.558515   8.748847  -1.038373
     6  C    0.013052  -0.034389  -1.667140   1.730090  -1.038373  11.329552
     7  C   -0.071347   0.019711  -1.228759  -1.758641   1.779027  -1.498476
     8  C   -0.087972  -0.029515  -1.940710  -1.465271  -2.010043   2.919473
     9  C    0.013634  -0.034893  -1.215275  -0.309317  -0.410315  -0.405559
    10  C   -0.000671  -0.013250  -1.388108  -0.576054  -0.273843  -4.830209
    11  C    0.002112   0.004012  -0.326574  -0.090677   0.147623  -1.256021
    12  C   -0.000306   0.001329  -0.031051   0.003920  -0.088658   0.425674
    13  C    0.000165  -0.000357   0.009332   0.047273   0.002065   0.131563
    14  C    0.000019  -0.000026  -0.006005  -0.030844   0.020948  -0.186017
    15  C    0.000014  -0.000184   0.004401   0.002154   0.017264  -0.013562
    16  C    0.000000   0.000002   0.000400  -0.003104   0.005232  -0.020234
    17  C    0.000002   0.000001  -0.000228   0.000854  -0.000589   0.002091
    18  H    0.407721  -0.017048  -0.037410   0.060318  -0.013455   0.008493
    19  H    0.399975   0.007038   0.027725   0.000368  -0.004868  -0.005373
    20  H   -0.015781   0.409263  -0.010091  -0.017484   0.034613   0.001454
    21  H    0.438153  -0.006364  -0.009408   0.021524  -0.001095  -0.019185
    22  H   -0.003405   0.418934  -0.037695  -0.008789   0.040125  -0.003420
    23  H    0.002756   0.417593   0.026194  -0.001056   0.009225  -0.002243
    24  H    0.016451  -0.007593  -0.174113   0.489201  -0.027749  -0.002233
    25  H   -0.004192   0.011830  -0.253826   0.013116   0.330896  -0.021698
    26  H    0.003083   0.001469   0.114923   0.005236   0.005613   0.385937
    27  H    0.000314   0.004694   0.250407  -0.022772   0.132566   0.081132
    28  H   -0.001129  -0.000299  -0.015951  -0.009090   0.018686  -0.046751
    29  H   -0.000068  -0.001443  -0.085369   0.007314  -0.120214  -0.136685
    30  H    0.000017   0.000156   0.001241   0.002334   0.003758   0.011619
    31  H    0.000002   0.000002   0.000002   0.000975  -0.000270   0.004792
    32  H   -0.000001  -0.000002  -0.000036  -0.000111  -0.000118  -0.000200
    33  H    0.000000   0.000000   0.000008  -0.000031   0.000021  -0.000105
    34  H    0.000000   0.000000  -0.000006   0.000017  -0.000028   0.000106
    35  N    0.299767   0.305735   0.294099  -0.302856  -0.255250   0.017501
    36  O   -0.000005  -0.000005  -0.001629   0.000254  -0.002520   0.013844
    37  O    0.000000   0.000000   0.000014   0.000079   0.000013   0.001639
               7          8          9         10         11         12
     1  C   -0.071347  -0.087972   0.013634  -0.000671   0.002112  -0.000306
     2  C    0.019711  -0.029515  -0.034893  -0.013250   0.004012   0.001329
     3  C   -1.228759  -1.940710  -1.215275  -1.388108  -0.326574  -0.031051
     4  C   -1.758641  -1.465271  -0.309317  -0.576054  -0.090677   0.003920
     5  C    1.779027  -2.010043  -0.410315  -0.273843   0.147623  -0.088658
     6  C   -1.498476   2.919473  -0.405559  -4.830209  -1.256021   0.425674
     7  C   10.922268  -1.552555   1.534059   1.154422  -1.768852  -1.043592
     8  C   -1.552555  16.935024   0.515631  -9.537152  -0.593017   2.058621
     9  C    1.534059   0.515631  18.829197   2.103141 -10.654550  -1.144408
    10  C    1.154422  -9.537152   2.103141  28.763789   3.349262  -8.203561
    11  C   -1.768852  -0.593017 -10.654550   3.349262  24.317799  -3.102694
    12  C   -1.043592   2.058621  -1.144408  -8.203561  -3.102694  22.427701
    13  C   -0.225010   0.602894  -0.237648  -2.135045  -2.571597  -1.519702
    14  C    0.005790  -0.332742  -2.493394  -2.319460  -0.600181  -0.189322
    15  C    0.140306  -0.402442   0.135964   0.918411   1.579138  -2.889766
    16  C    0.019647   0.027782  -0.321558  -0.756271  -2.023644  -2.353179
    17  C   -0.026448   0.046124  -0.230015  -0.567323  -0.939106   0.131213
    18  H   -0.001432  -0.001022   0.001876   0.000279   0.000044  -0.000021
    19  H   -0.001012  -0.000509  -0.005285  -0.002493  -0.000388   0.000003
    20  H    0.005333   0.000144  -0.001583  -0.000089   0.000269   0.000054
    21  H   -0.004381  -0.001036  -0.000970   0.000272  -0.000175   0.000038
    22  H    0.003447   0.000013   0.001907   0.000331  -0.000238  -0.000111
    23  H   -0.017471  -0.009623  -0.001861  -0.001868  -0.000846  -0.000079
    24  H   -0.019447  -0.017971   0.046882   0.037898   0.011635  -0.002040
    25  H    0.010905   0.138149   0.013295   0.052623   0.022216   0.006299
    26  H   -0.037103   0.006240  -0.036434  -0.147121  -0.012287   0.028155
    27  H    0.448141  -0.155816   0.060812  -0.248133  -0.137161  -0.047863
    28  H    0.069279  -0.248942   0.366108   0.285174   0.085262  -0.171070
    29  H   -0.116246  -0.291846  -0.419298   1.101422   0.399560   0.089091
    30  H   -0.025726   0.057245  -0.108926  -0.208123   0.027121  -0.108450
    31  H   -0.006882   0.005405  -0.032562  -0.019750   0.023701  -0.145507
    32  H    0.001926  -0.005392   0.006332   0.011762   0.013966   0.030524
    33  H    0.000497  -0.000888   0.003077   0.001443  -0.005137  -0.097203
    34  H   -0.000519   0.001022  -0.001720  -0.005226  -0.005131   0.096685
    35  N   -0.016657  -0.021378  -0.001697   0.003186   0.002139   0.000328
    36  O   -0.016400   0.064697   0.199584  -0.352425   0.612194   0.007346
    37  O   -0.000685   0.010109   0.050816  -0.036971  -0.100120   0.145473
              13         14         15         16         17         18
     1  C    0.000165   0.000019   0.000014   0.000000   0.000002   0.407721
     2  C   -0.000357  -0.000026  -0.000184   0.000002   0.000001  -0.017048
     3  C    0.009332  -0.006005   0.004401   0.000400  -0.000228  -0.037410
     4  C    0.047273  -0.030844   0.002154  -0.003104   0.000854   0.060318
     5  C    0.002065   0.020948   0.017264   0.005232  -0.000589  -0.013455
     6  C    0.131563  -0.186017  -0.013562  -0.020234   0.002091   0.008493
     7  C   -0.225010   0.005790   0.140306   0.019647  -0.026448  -0.001432
     8  C    0.602894  -0.332742  -0.402442   0.027782   0.046124  -0.001022
     9  C   -0.237648  -2.493394   0.135964  -0.321558  -0.230015   0.001876
    10  C   -2.135045  -2.319460   0.918411  -0.756271  -0.567323   0.000279
    11  C   -2.571597  -0.600181   1.579138  -2.023644  -0.939106   0.000044
    12  C   -1.519702  -0.189322  -2.889766  -2.353179   0.131213  -0.000021
    13  C   19.752398  -6.498267  -3.566864   2.426496   0.845516   0.000011
    14  C   -6.498267  18.659250   1.297871  -0.897017  -0.914659   0.000000
    15  C   -3.566864   1.297871  10.128509  -0.934366  -0.104547   0.000001
    16  C    2.426496  -0.897017  -0.934366  10.413293   0.729058   0.000000
    17  C    0.845516  -0.914659  -0.104547   0.729058   6.972995   0.000000
    18  H    0.000011   0.000000   0.000001   0.000000   0.000000   0.514075
    19  H   -0.000014  -0.000004  -0.000002   0.000000   0.000000  -0.028777
    20  H   -0.000016  -0.000001  -0.000008   0.000000   0.000000   0.016969
    21  H   -0.000002   0.000002   0.000001   0.000000   0.000000  -0.016534
    22  H   -0.000017   0.000010   0.000011   0.000001  -0.000001  -0.002214
    23  H    0.000016  -0.000007   0.000024   0.000000  -0.000001  -0.002404
    24  H    0.000568   0.000041   0.000050  -0.000007   0.000016   0.007252
    25  H    0.000226   0.000231  -0.001327  -0.000089   0.000138   0.002098
    26  H   -0.001986   0.002411  -0.001444   0.000493   0.000068  -0.000116
    27  H    0.012740  -0.011901   0.004191   0.002586  -0.001866  -0.000347
    28  H    0.017200  -0.047876   0.013734  -0.003928  -0.003323  -0.000043
    29  H   -0.261713   0.164746   0.007702  -0.029226   0.003238   0.000028
    30  H    0.866596  -0.082007  -0.205284   0.093803   0.039395   0.000000
    31  H    0.038440   0.038568   0.002540   0.080199   0.000559   0.000000
    32  H   -0.144854   0.055228   0.431415   0.009000  -0.084915   0.000000
    33  H    0.017272  -0.134106   0.005079   0.597675  -0.049746   0.000000
    34  H   -0.024490   0.004437  -0.072608  -0.118985   0.459027   0.000000
    35  N   -0.000073   0.000015  -0.000015   0.000000   0.000001  -0.047456
    36  O   -0.241319  -0.043276   0.000408  -0.087936  -0.017412   0.000000
    37  O   -0.023984   0.370282  -0.002954  -0.429061   0.011374   0.000000
              19         20         21         22         23         24
     1  C    0.399975  -0.015781   0.438153  -0.003405   0.002756   0.016451
     2  C    0.007038   0.409263  -0.006364   0.418934   0.417593  -0.007593
     3  C    0.027725  -0.010091  -0.009408  -0.037695   0.026194  -0.174113
     4  C    0.000368  -0.017484   0.021524  -0.008789  -0.001056   0.489201
     5  C   -0.004868   0.034613  -0.001095   0.040125   0.009225  -0.027749
     6  C   -0.005373   0.001454  -0.019185  -0.003420  -0.002243  -0.002233
     7  C   -0.001012   0.005333  -0.004381   0.003447  -0.017471  -0.019447
     8  C   -0.000509   0.000144  -0.001036   0.000013  -0.009623  -0.017971
     9  C   -0.005285  -0.001583  -0.000970   0.001907  -0.001861   0.046882
    10  C   -0.002493  -0.000089   0.000272   0.000331  -0.001868   0.037898
    11  C   -0.000388   0.000269  -0.000175  -0.000238  -0.000846   0.011635
    12  C    0.000003   0.000054   0.000038  -0.000111  -0.000079  -0.002040
    13  C   -0.000014  -0.000016  -0.000002  -0.000017   0.000016   0.000568
    14  C   -0.000004  -0.000001   0.000002   0.000010  -0.000007   0.000041
    15  C   -0.000002  -0.000008   0.000001   0.000011   0.000024   0.000050
    16  C    0.000000   0.000000   0.000000   0.000001   0.000000  -0.000007
    17  C    0.000000   0.000000   0.000000  -0.000001  -0.000001   0.000016
    18  H   -0.028777   0.016969  -0.016534  -0.002214  -0.002404   0.007252
    19  H    0.568906   0.000117  -0.061512  -0.003281   0.001773  -0.009123
    20  H    0.000117   0.512342  -0.003855  -0.019505  -0.024723   0.000935
    21  H   -0.061512  -0.003855   0.549657   0.002205  -0.000632  -0.010144
    22  H   -0.003281  -0.019505   0.002205   0.561519  -0.063084  -0.000296
    23  H    0.001773  -0.024723  -0.000632  -0.063084   0.562281  -0.000411
    24  H   -0.009123   0.000935  -0.010144  -0.000296  -0.000411   0.514078
    25  H   -0.000780   0.005914  -0.000773  -0.006895  -0.014187   0.001638
    26  H    0.000813  -0.000041   0.000897  -0.000210  -0.000028  -0.017596
    27  H    0.000225  -0.000029  -0.000093   0.000852   0.002662  -0.000312
    28  H   -0.000052  -0.000006  -0.000102   0.000029   0.000041   0.002708
    29  H   -0.000066  -0.000028   0.000009  -0.000176  -0.000292   0.000609
    30  H    0.000002   0.000006   0.000000  -0.000017   0.000000  -0.000033
    31  H    0.000000   0.000000   0.000000   0.000000   0.000000   0.000002
    32  H    0.000000   0.000000   0.000000   0.000000   0.000001  -0.000001
    33  H    0.000000   0.000000   0.000000   0.000000   0.000000  -0.000001
    34  H    0.000000   0.000000   0.000000   0.000000   0.000000   0.000000
    35  N   -0.058529  -0.047824  -0.054997  -0.051758  -0.060970  -0.033970
    36  O   -0.000001   0.000000  -0.000001   0.000000  -0.000001   0.000069
    37  O    0.000000   0.000000   0.000000   0.000000   0.000000  -0.000001
              25         26         27         28         29         30
     1  C   -0.004192   0.003083   0.000314  -0.001129  -0.000068   0.000017
     2  C    0.011830   0.001469   0.004694  -0.000299  -0.001443   0.000156
     3  C   -0.253826   0.114923   0.250407  -0.015951  -0.085369   0.001241
     4  C    0.013116   0.005236  -0.022772  -0.009090   0.007314   0.002334
     5  C    0.330896   0.005613   0.132566   0.018686  -0.120214   0.003758
     6  C   -0.021698   0.385937   0.081132  -0.046751  -0.136685   0.011619
     7  C    0.010905  -0.037103   0.448141   0.069279  -0.116246  -0.025726
     8  C    0.138149   0.006240  -0.155816  -0.248942  -0.291846   0.057245
     9  C    0.013295  -0.036434   0.060812   0.366108  -0.419298  -0.108926
    10  C    0.052623  -0.147121  -0.248133   0.285174   1.101422  -0.208123
    11  C    0.022216  -0.012287  -0.137161   0.085262   0.399560   0.027121
    12  C    0.006299   0.028155  -0.047863  -0.171070   0.089091  -0.108450
    13  C    0.000226  -0.001986   0.012740   0.017200  -0.261713   0.866596
    14  C    0.000231   0.002411  -0.011901  -0.047876   0.164746  -0.082007
    15  C   -0.001327  -0.001444   0.004191   0.013734   0.007702  -0.205284
    16  C   -0.000089   0.000493   0.002586  -0.003928  -0.029226   0.093803
    17  C    0.000138   0.000068  -0.001866  -0.003323   0.003238   0.039395
    18  H    0.002098  -0.000116  -0.000347  -0.000043   0.000028   0.000000
    19  H   -0.000780   0.000813   0.000225  -0.000052  -0.000066   0.000002
    20  H    0.005914  -0.000041  -0.000029  -0.000006  -0.000028   0.000006
    21  H   -0.000773   0.000897  -0.000093  -0.000102   0.000009   0.000000
    22  H   -0.006895  -0.000210   0.000852   0.000029  -0.000176  -0.000017
    23  H   -0.014187  -0.000028   0.002662   0.000041  -0.000292   0.000000
    24  H    0.001638  -0.017596  -0.000312   0.002708   0.000609  -0.000033
    25  H    0.540077   0.000303  -0.046616  -0.000101   0.012097   0.000267
    26  H    0.000303   0.500513  -0.001211  -0.008946  -0.001718   0.000439
    27  H   -0.046616  -0.001211   0.607895   0.002246  -0.060823  -0.002318
    28  H   -0.000101  -0.008946   0.002246   0.477722   0.003895   0.000707
    29  H    0.012097  -0.001718  -0.060823   0.003895   0.834916  -0.031999
    30  H    0.000267   0.000439  -0.002318   0.000707  -0.031999   0.590272
    31  H    0.000009   0.000132  -0.000136  -0.000093   0.001013   0.001555
    32  H   -0.000039  -0.000007   0.000130  -0.000037   0.002833  -0.020733
    33  H   -0.000002   0.000009   0.000030  -0.000067  -0.000332   0.000423
    34  H    0.000005   0.000001  -0.000062  -0.000029  -0.000084   0.001109
    35  N   -0.034417  -0.001671  -0.002696  -0.000540  -0.000544   0.000029
    36  O    0.000083   0.000966   0.000353  -0.007656   0.009218  -0.006672
    37  O   -0.000001   0.000098   0.000147  -0.001773  -0.000813  -0.002314
              31         32         33         34         35         36
     1  C    0.000002  -0.000001   0.000000   0.000000   0.299767  -0.000005
     2  C    0.000002  -0.000002   0.000000   0.000000   0.305735  -0.000005
     3  C    0.000002  -0.000036   0.000008  -0.000006   0.294099  -0.001629
     4  C    0.000975  -0.000111  -0.000031   0.000017  -0.302856   0.000254
     5  C   -0.000270  -0.000118   0.000021  -0.000028  -0.255250  -0.002520
     6  C    0.004792  -0.000200  -0.000105   0.000106   0.017501   0.013844
     7  C   -0.006882   0.001926   0.000497  -0.000519  -0.016657  -0.016400
     8  C    0.005405  -0.005392  -0.000888   0.001022  -0.021378   0.064697
     9  C   -0.032562   0.006332   0.003077  -0.001720  -0.001697   0.199584
    10  C   -0.019750   0.011762   0.001443  -0.005226   0.003186  -0.352425
    11  C    0.023701   0.013966  -0.005137  -0.005131   0.002139   0.612194
    12  C   -0.145507   0.030524  -0.097203   0.096685   0.000328   0.007346
    13  C    0.038440  -0.144854   0.017272  -0.024490  -0.000073  -0.241319
    14  C    0.038568   0.055228  -0.134106   0.004437   0.000015  -0.043276
    15  C    0.002540   0.431415   0.005079  -0.072608  -0.000015   0.000408
    16  C    0.080199   0.009000   0.597675  -0.118985   0.000000  -0.087936
    17  C    0.000559  -0.084915  -0.049746   0.459027   0.000001  -0.017412
    18  H    0.000000   0.000000   0.000000   0.000000  -0.047456   0.000000
    19  H    0.000000   0.000000   0.000000   0.000000  -0.058529  -0.000001
    20  H    0.000000   0.000000   0.000000   0.000000  -0.047824   0.000000
    21  H    0.000000   0.000000   0.000000   0.000000  -0.054997  -0.000001
    22  H    0.000000   0.000000   0.000000   0.000000  -0.051758   0.000000
    23  H    0.000000   0.000001   0.000000   0.000000  -0.060970  -0.000001
    24  H    0.000002  -0.000001  -0.000001   0.000000  -0.033970   0.000069
    25  H    0.000009  -0.000039  -0.000002   0.000005  -0.034417   0.000083
    26  H    0.000132  -0.000007   0.000009   0.000001  -0.001671   0.000966
    27  H   -0.000136   0.000130   0.000030  -0.000062  -0.002696   0.000353
    28  H   -0.000093  -0.000037  -0.000067  -0.000029  -0.000540  -0.007656
    29  H    0.001013   0.002833  -0.000332  -0.000084  -0.000544   0.009218
    30  H    0.001555  -0.020733   0.000423   0.001109   0.000029  -0.006672
    31  H    0.310441   0.000212   0.001687  -0.000349   0.000001   0.076564
    32  H    0.000212   0.479925   0.001500  -0.010798   0.000000   0.000733
    33  H    0.001687   0.001500   0.462164  -0.013046   0.000000   0.000750
    34  H   -0.000349  -0.010798  -0.013046   0.483496   0.000000  -0.000168
    35  N    0.000001   0.000000   0.000000   0.000000   7.010849   0.000000
    36  O    0.076564   0.000733   0.000750  -0.000168   0.000000   8.079593
    37  O    0.254204   0.000134  -0.026028   0.000800   0.000000   0.004766
              37
     1  C    0.000000
     2  C    0.000000
     3  C    0.000014
     4  C    0.000079
     5  C    0.000013
     6  C    0.001639
     7  C   -0.000685
     8  C    0.010109
     9  C    0.050816
    10  C   -0.036971
    11  C   -0.100120
    12  C    0.145473
    13  C   -0.023984
    14  C    0.370282
    15  C   -0.002954
    16  C   -0.429061
    17  C    0.011374
    18  H    0.000000
    19  H    0.000000
    20  H    0.000000
    21  H    0.000000
    22  H    0.000000
    23  H    0.000000
    24  H   -0.000001
    25  H   -0.000001
    26  H    0.000098
    27  H    0.000147
    28  H   -0.001773
    29  H   -0.000813
    30  H   -0.002314
    31  H    0.254204
    32  H    0.000134
    33  H   -0.026028
    34  H    0.000800
    35  N    0.000000
    36  O    0.004766
    37  O    8.070225
 Mulliken charges:
               1
     1  C   -0.397771
     2  C   -0.397800
     3  C   -0.633503
     4  C   -0.222043
     5  C   -0.536917
     6  C    0.109861
     7  C   -0.677116
     8  C    1.317271
     9  C    0.184954
    10  C   -0.160273
    11  C   -0.409656
    12  C    1.686129
    13  C   -1.317814
    14  C    0.167262
    15  C   -0.493812
    16  C   -0.427063
    17  C   -0.301491
    18  H    0.149115
    19  H    0.175126
    20  H    0.153652
    21  H    0.178502
    22  H    0.171728
    23  H    0.179220
    24  H    0.193009
    25  H    0.222530
    26  H    0.210122
    27  H    0.128031
    28  H    0.225010
    29  H   -0.078705
    30  H    0.104505
    31  H    0.364542
    32  H    0.221620
    33  H    0.235052
    34  H    0.206544
    35  N    0.059647
    36  O   -0.293999
    37  O   -0.295470
 Sum of Mulliken charges =   0.00000
 Mulliken charges with hydrogens summed into heavy atoms:
               1
     1  C    0.104972
     2  C    0.106800
     3  C   -0.633503
     4  C   -0.029034
     5  C   -0.314387
     6  C    0.319983
     7  C   -0.549085
     8  C    1.317271
     9  C    0.409964
    10  C   -0.238977
    11  C   -0.409656
    12  C    1.686129
    13  C   -1.213309
    14  C    0.167262
    15  C   -0.272192
    16  C   -0.192010
    17  C   -0.094947
    35  N    0.059647
    36  O   -0.293999
    37  O    0.069072
 Electronic spatial extent (au):  <R**2>=          15549.4504
 Charge=              0.0000 electrons
 Dipole moment (field-independent basis, Debye):
    X=              7.4253    Y=              0.7394    Z=              2.7577  Tot=              7.9553
 Quadrupole moment (field-independent basis, Debye-Ang):
   XX=            -50.4260   YY=           -124.8343   ZZ=           -109.8568
   XY=             -0.7056   XZ=             -2.6495   YZ=             -8.9131
 Traceless Quadrupole moment (field-independent basis, Debye-Ang):
   XX=             44.6130   YY=            -29.7952   ZZ=            -14.8178
   XY=             -0.7056   XZ=             -2.6495   YZ=             -8.9131
 Octapole moment (field-independent basis, Debye-Ang**2):
  XXX=           -356.0641  YYY=            555.2084  ZZZ=            -43.4204  XYY=           -353.3648
  XXY=            173.4343  XXZ=              4.9338  XZZ=           -303.3195  YZZ=            160.1106
  YYZ=             -3.1537  XYZ=             -6.6206
 Hexadecapole moment (field-independent basis, Debye-Ang**3):
 XXXX=         -11129.4008 YYYY=          -2274.1135 ZZZZ=          -1405.9856 XXXY=            499.2379
 XXXZ=            508.5136 YYYX=            465.7771 YYYZ=            303.9751 ZZZX=            463.4532
 ZZZY=            234.4996 XXYY=          -3465.5462 XXZZ=          -2922.7411 YYZZ=           -582.1827
 XXYZ=            -39.2178 YYXZ=            192.8008 ZZXY=            151.2200
 N-N= 1.362950033639D+03 E-N=-4.735439625037D+03  KE= 8.596843040000D+02
 Leave Link  601 at Tue Nov  7 13:54:59 2017, MaxMem=  3758096384 cpu:         0.3
 (Enter /share/apps/gaussian/g09_D01/g09/l9999.exe)
 1\1\GINC-NXN37\SP\RwB97XD TD-FC\6-311++G(d,p)\C17H17N1O2\BTX008\07-Nov
 -2017\0\\#p wb97xd 6-311++G** td=(nstates=4) nosymm\\Title\\0,1\C,0,9.
 227302,-0.03097,-1.153349\C,0,8.9748,-0.565989,1.253459\C,0,7.045788,-
 0.68456,-0.246042\C,0,6.437198,-0.528006,-1.501128\C,0,6.227547,-1.149
 542,0.807668\C,0,5.111548,-0.832102,-1.679839\C,0,4.912184,-1.454922,0
 .598785\C,0,4.30363,-1.306525,-0.652848\C,0,2.906369,-1.574385,-0.8972
 9\C,0,1.952724,-1.826599,0.021082\C,0,0.544329,-1.941861,-0.387772\C,0
 ,-0.508646,-2.183387,0.622455\C,0,-0.222517,-2.504085,1.962064\C,0,-1.
 869371,-2.069959,0.243736\C,0,-1.224939,-2.679071,2.89612\C,0,-2.88311
 5,-2.230548,1.195411\C,0,-2.560188,-2.52992,2.505362\H,0,10.246952,0.0
 92641,-0.790262\H,0,8.914603,0.91781,-1.609878\H,0,10.009972,-0.22804,
 1.213789\H,0,9.237913,-0.798596,-1.938786\H,0,8.45829,0.03453,2.012955
 \H,0,8.970783,-1.613651,1.586002\H,0,7.010025,-0.166889,-2.347425\H,0,
 6.646525,-1.297339,1.796101\H,0,4.676532,-0.696973,-2.668067\H,0,4.335
 226,-1.832237,1.438483\H,0,2.572668,-1.508187,-1.932586\H,0,2.193975,-
 1.867318,1.076048\H,0,0.807257,-2.63206,2.276089\H,0,-1.411562,-1.7443
 97,-1.552999\H,0,-0.978052,-2.925674,3.923186\H,0,-3.91404,-2.118211,0
 .875582\H,0,-3.355068,-2.652847,3.234969\N,0,8.364992,-0.406044,-0.051
 53\O,0,0.236392,-1.773113,-1.580511\O,0,-2.241827,-1.778338,-1.012282\
 \Version=ES64L-G09RevD.01\HF=-863.1685119\RMSD=4.536e-09\PG=C01 [X(C17
 H17N1O2)]\\@


 THE MORE POWERFUL THE METHOD, THE MORE CATASTROPHIC THE ERRORS.
     -- M.D. KAMEN
 Job cpu time:       0 days  2 hours 11 minutes 28.6 seconds.
 File lengths (MBytes):  RWF=    455 Int=      0 D2E=      0 Chk=     52 Scr=      1
 Normal termination of Gaussian 09 at Tue Nov  7 13:54:59 2017.
