
     Program PWSCF v.6.1 (svn rev. 13369) starts on  1Nov2017 at 10:12:30 

     This program is part of the open-source Quantum ESPRESSO suite
     for quantum simulation of materials; please cite
         "P. Giannozzi et al., J. Phys.:Condens. Matter 21 395502 (2009);
          URL http://www.quantum-espresso.org", 
     in publications or presentations arising from this work. More details at
     http://www.quantum-espresso.org/quote

     Parallel version (MPI), running on     1 processors
     Waiting for input...
     Reading input from standard input

     Current dimensions of program PWSCF are:
     Max number of different atomic species (ntypx) = 10
     Max number of k-points (npk) =  40000
     Max angular momentum in pseudopotentials (lmaxx) =  3
     Message from routine iosys:
     london is obsolete, use "vdw_corr='grimme-d2'" instead

     IMPORTANT: XC functional enforced from input :
     Exchange-correlation      = PBE ( 1  4  3  4 0 0)
     Any further DFT definition will be discarded
     Please, verify this is what you really want

               file C.pbe-rrkjus.UPF: wavefunction(s)  2S 2P renormalized
               file H.pbe-rrkjus.UPF: wavefunction(s)  1S renormalized
               file O.pbe-rrkjus.UPF: wavefunction(s)  2S renormalized
               file N.pbe-rrkjus.UPF: wavefunction(s)  2S renormalized

     -------------------------------------
     Parameters for Dispersion Correction:
     -------------------------------------
       atom      VdW radius       C_6     

        C          2.744         60.710
        H          1.892          4.857
        O          2.536         24.284
        N          2.640         42.670
        F          2.432         26.018

     Subspace diagonalization in iterative solution of the eigenvalue problem:
     a serial algorithm will be used

 
     G-vector sticks info
     --------------------
     sticks:   dense  smooth     PW     G-vecs:    dense   smooth      PW
     Sum        5811    5811   1623               309629   309629   45499
 


     bravais-lattice index     =            0
     lattice parameter (alat)  =      14.5573  a.u.
     unit-cell volume          =   13946.7717 (a.u.)^3
     number of atoms/cell      =          216
     number of atomic types    =            5
     number of electrons       =       640.00
     number of Kohn-Sham states=          320
     kinetic-energy cutoff     =      30.0000  Ry
     charge density cutoff     =     120.0000  Ry
     convergence threshold     =      1.0E-07
     mixing beta               =       0.7000
     number of iterations used =            8  plain     mixing
     Exchange-correlation      = PBE ( 1  4  3  4 0 0)
     nstep                     =           50


     celldm(1)=  14.557317  celldm(2)=   0.000000  celldm(3)=   0.000000
     celldm(4)=   0.000000  celldm(5)=   0.000000  celldm(6)=   0.000000

     crystal axes: (cart. coord. in units of alat)
               a(1) = (   1.000000   0.000000   0.000000 )  
               a(2) = (   0.000000   2.871329   0.000000 )  
               a(3) = (  -0.429852   0.000000   1.574515 )  

     reciprocal axes: (cart. coord. in units 2 pi/alat)
               b(1) = (  1.000000  0.000000  0.273006 )  
               b(2) = (  0.000000  0.348271  0.000000 )  
               b(3) = (  0.000000  0.000000  0.635116 )  


     PseudoPot. # 1 for C  read from file:
     /data/home/btx156/espresso/pseudo/C.pbe-rrkjus.UPF
     MD5 check sum: 00fb224312de0c5b6853bd333518df6f
     Pseudo is Ultrasoft, Zval =  4.0
     Generated by new atomic code, or converted to UPF format
     Using radial grid of  627 points,  4 beta functions with: 
                l(1) =   0
                l(2) =   0
                l(3) =   1
                l(4) =   1
     Q(r) pseudized with 0 coefficients 


     PseudoPot. # 2 for H  read from file:
     /data/home/btx156/espresso/pseudo/H.pbe-rrkjus.UPF
     MD5 check sum: 7cc9d459525c9a0585f487a71c3c9563
     Pseudo is Ultrasoft, Zval =  1.0
     Generated by new atomic code, or converted to UPF format
     Using radial grid of 1061 points,  2 beta functions with: 
                l(1) =   0
                l(2) =   0
     Q(r) pseudized with 0 coefficients 


     PseudoPot. # 3 for O  read from file:
     /data/home/btx156/espresso/pseudo/O.pbe-rrkjus.UPF
     MD5 check sum: 390ba29e75625707450f3bd3f0eb6be9
     Pseudo is Ultrasoft, Zval =  6.0
     Generated by new atomic code, or converted to UPF format
     Using radial grid of 1269 points,  4 beta functions with: 
                l(1) =   0
                l(2) =   0
                l(3) =   1
                l(4) =   1
     Q(r) pseudized with 0 coefficients 


     PseudoPot. # 4 for N  read from file:
     /data/home/btx156/espresso/pseudo/N.pbe-rrkjus.UPF
     MD5 check sum: 0c3fbe5807a93f9ba59d5a7019aa238b
     Pseudo is Ultrasoft, Zval =  5.0
     Generated by new atomic code, or converted to UPF format
     Using radial grid of 1257 points,  4 beta functions with: 
                l(1) =   0
                l(2) =   0
                l(3) =   1
                l(4) =   1
     Q(r) pseudized with 0 coefficients 


     PseudoPot. # 5 for  F read from file:
     /data/home/btx156/espresso/pseudo/F.pbe-n-rrkjus_psl.0.1.UPF
     MD5 check sum: 04c7599644978b7d0345d67c6032d20f
     Pseudo is Ultrasoft + core correction, Zval =  7.0
     Generated using "atomic" code by A. Dal Corso  v.5.0.2 svn rev. 9415
     Using radial grid of 1105 points,  4 beta functions with: 
                l(1) =   0
                l(2) =   0
                l(3) =   1
                l(4) =   1
     Q(r) pseudized with 0 coefficients 


     atomic species   valence    mass     pseudopotential
        C              4.00    12.00000     C ( 1.00)
        H              1.00     1.00790     H ( 1.00)
        O              6.00    15.99940     O ( 1.00)
        N              5.00    14.00670     N ( 1.00)
        F              7.00    18.99840      F( 1.00)

      4 Sym. Ops., with inversion, found ( 2 have fractional translation)



   Cartesian axes

     site n.     atom                  positions (alat units)
         1           C   tau(   1) = (   0.0339482   0.5257583   0.1052989  )
         2           H   tau(   2) = (   0.1670474   0.4825245   0.0731655  )
         3           H   tau(   3) = (   0.9462310   0.4831048   0.0010279  )
         4           H   tau(   4) = (  -0.0077648   0.4645049   0.2271547  )
         5           C   tau(   5) = (   0.5387061   0.8061176   1.5383441  )
         6           H   tau(   6) = (   0.5373740   0.9462889   1.5628476  )
         7           H   tau(   7) = (   0.4074462   0.7618799   1.5020573  )
         8           H   tau(   8) = (  -0.3737488   0.7777327   1.4283643  )
         9           C   tau(   9) = (   0.3956141   0.8161222   1.0029414  )
        10           H   tau(  10) = (   0.4588042   0.9025585   1.0958204  )
        11           C   tau(  11) = (   0.2842693   0.5285552   0.9273630  )
        12           H   tau(  12) = (   0.2556344   0.3958621   0.9673596  )
        13           C   tau(  13) = (   0.3418265   0.8795465   0.8405620  )
        14           F   tau(  14) = (   0.4153869   0.5830943   1.2012463  )
        15           C   tau(  15) = (   0.0801068   0.8002646   0.2595160  )
        16           H   tau(  16) = (   0.0757379   0.9418311   0.2487296  )
        17           C   tau(  17) = (   0.2335310   0.5925042   0.7666067  )
        18           H   tau(  18) = (   0.1647822   0.5044615   0.6799720  )
        19           N   tau(  19) = (   0.0261556   0.7146077   0.1189703  )
        20           C   tau(  20) = (   0.2054389   0.8388446   0.5477391  )
        21           C   tau(  21) = (   0.1419606   0.7292598   0.4127664  )
        22           H   tau(  22) = (   0.1467348   0.5890987   0.4290002  )
        23           O   tau(  23) = (   0.3653848   1.0481545   0.8046430  )
        24           H   tau(  24) = (   0.3043149   1.0607345   0.6815217  )
        25           O   tau(  25) = (   0.2178953   1.0046072   0.5280897  )
        26           C   tau(  26) = (   0.2614660   0.7660731   0.7170507  )
        27           C   tau(  27) = (   0.4119905   1.6843652   0.3484840  )
        28           H   tau(  28) = (   0.5213913   1.6989363   0.2573360  )
        29           H   tau(  29) = (   0.4494941   1.7359810   0.4759640  )
        30           H   tau(  30) = (   0.3003532   1.7590584   0.2992678  )
        31           C   tau(  31) = (   0.3980992   1.4219585   0.5353836  )
        32           H   tau(  32) = (   0.3544617   1.2867394   0.5315121  )
        33           H   tau(  33) = (   0.3277395   1.4931097   0.6379541  )
        34           H   tau(  34) = (   0.5380294   1.4263893   0.5658850  )
        35           C   tau(  35) = (   0.6624791   1.5274985   0.9961901  )
        36           C   tau(  36) = (  -0.2378651   1.5953161   1.2803768  )
        37           H   tau(  37) = (  -0.1912187   1.6919067   1.3726796  )
        38           C   tau(  38) = (  -0.2756961   1.6511364   1.1131274  )
        39           H   tau(  39) = (  -0.2602508   1.7866986   1.0750023  )
        40           C   tau(  40) = (   0.3017650   1.4112819   0.2343857  )
        41           H   tau(  41) = (   0.2680942   1.2766320   0.2645954  )
        42           C   tau(  42) = (   0.6382783   1.3547477   1.0376301  )
        43           H   tau(  43) = (   0.5870282   1.2623703   0.9429571  )
        44           C   tau(  44) = (  -0.3254633   1.3011877   1.2083119  )
        45           C   tau(  45) = (  -0.2607850   1.4220506   1.3338182  )
        46           N   tau(  46) = (   0.3655933   1.5022042   0.3672016  )
        47           C   tau(  47) = (  -0.2265404   1.3599910   1.5125634  )
        48           O   tau(  48) = (   0.6464019   1.1347413   1.2521598  )
        49           H   tau(  49) = (  -0.3203253   1.1337612   1.3871197  )
        50           F   tau(  50) = (   0.6221542   1.5793637   0.8299417  )
        51           O   tau(  51) = (  -0.2617502   1.1991065   1.5464038  )
        52           C   tau(  52) = (   0.3652600   0.6437416   1.0407588  )
        53           C   tau(  53) = (   0.2734987   1.4716032   0.0676501  )
        54           H   tau(  54) = (   0.3059525   1.6048468   0.0344434  )
        55           C   tau(  55) = (   0.7511246   1.9614231   0.6819587  )
        56           C   tau(  56) = (   0.5361987   2.3455712   1.4692162  )
        57           C   tau(  57) = (  -0.1809776   0.9099064   0.8925565  )
        58           H   tau(  58) = (   0.6180267   1.9181893   0.7140921  )
        59           H   tau(  59) = (   0.4031008   2.3888050   1.5013496  )
        60           H   tau(  60) = (  -0.0478798   0.9531402   0.8604230  )
        61           H   tau(  61) = (  -0.1611569   1.9187695   0.7862296  )
        62           H   tau(  62) = (  -0.3760827   2.3882247   1.5734872  )
        63           H   tau(  63) = (   0.7313038   0.9525599   0.7882842  )
        64           H   tau(  64) = (   0.7928389   1.9001696   0.5601029  )
        65           H   tau(  65) = (   0.5779130   2.4068246   1.3473604  )
        66           H   tau(  66) = (  -0.2226920   0.9711599   1.0144123  )
        67           C   tau(  67) = (  -0.1834850   2.2417823   0.8234286  )
        68           C   tau(  68) = (   0.0314422   2.0652119   0.0361710  )
        69           C   tau(  69) = (   0.7536319   0.6295472   0.7510866  )
        70           H   tau(  70) = (  -0.1821529   2.3819536   0.7989238  )
        71           H   tau(  71) = (   0.0327729   1.9250406   0.0116662  )
        72           H   tau(  72) = (   0.7522999   0.4893759   0.7755914  )
        73           H   tau(  73) = (  -0.0522251   2.1975446   0.8597140  )
        74           H   tau(  74) = (   0.1627008   2.1094496   0.0724565  )
        75           H   tau(  75) = (   0.6223733   0.6737849   0.7147998  )
        76           H   tau(  76) = (   0.7289698   2.2133975   0.9334071  )
        77           H   tau(  77) = (   0.9438957   2.0935968   0.1461495  )
        78           H   tau(  78) = (  -0.1588216   0.6579320   0.6411081  )
        79           C   tau(  79) = (  -0.0403931   2.2517869   1.3588312  )
        80           C   tau(  80) = (   0.1745328   2.0552073   0.5715737  )
        81           C   tau(  81) = (   0.6105400   0.6195425   0.2156839  )
        82           H   tau(  82) = (  -0.1035831   2.3382233   1.2659509  )
        83           H   tau(  83) = (   0.1113427   1.9687710   0.4786947  )
        84           H   tau(  84) = (   0.6737314   0.5331062   0.3085629  )
        85           C   tau(  85) = (   0.0709531   1.9642199   1.4344084  )
        86           C   tau(  86) = (   0.2858789   2.3427743   0.6471509  )
        87           C   tau(  87) = (   0.4991952   0.9071096   0.1401067  )
        88           H   tau(  88) = (   0.0995867   1.8315268   1.3944118  )
        89           H   tau(  89) = (   0.3145138   2.4754674   0.6071555  )
        90           H   tau(  90) = (   0.4705603   1.0398027   0.1801021  )
        91           C   tau(  91) = (   0.0133945   2.3152112   1.5212094  )
        92           C   tau(  92) = (   0.2283217   1.9917830   0.7339531  )
        93           C   tau(  93) = (   0.5567524   0.5561183   0.0533045  )
        94           F   tau(  94) = (  -0.0601659   2.0187591   1.1605264  )
        95           F   tau(  95) = (   0.1547600   2.2882352   0.3732689  )
        96           F   tau(  96) = (   0.6303141   0.8525704   0.4139887  )
        97           C   tau(  97) = (   0.7049661   2.2359293   0.5277416  )
        98           C   tau(  98) = (   0.4900402   2.0710649   1.3149978  )
        99           C   tau(  99) = (  -0.1348191   0.6354001   1.0467735  )
       100           H   tau( 100) = (   0.7093349   2.3774958   0.5385279  )
       101           H   tau( 101) = (   0.4944090   1.9294984   1.3257855  )
       102           H   tau( 102) = (  -0.1391880   0.4938337   1.0359872  )
       103           H   tau( 103) = (   0.4573333   0.0574450   0.1493022  )
       104           H   tau( 104) = (   0.2424074   1.3782198   0.9365597  )
       105           H   tau( 105) = (   0.1128137   2.8138845   1.4252117  )
       106           C   tau( 106) = (   0.5515431   2.0281689   0.0206509  )
       107           C   tau( 107) = (   0.3366172   2.2788253   0.8079084  )
       108           C   tau( 108) = (   0.0186038   0.8431606   1.5538629  )
       109           H   tau( 109) = (   0.6202919   1.9401262   0.1072855  )
       110           H   tau( 110) = (   0.4053660   2.3668680   0.8945431  )
       111           H   tau( 111) = (  -0.0501449   0.9312033   1.4672283  )
       112           N   tau( 112) = (   0.7589185   2.1502724   0.6682860  )
       113           N   tau( 113) = (   0.5439926   2.1567218   1.4555435  )
       114           N   tau( 114) = (  -0.1887716   0.7210571   0.9062279  )
       115           C   tau( 115) = (   0.5796352   2.2745094   0.2395185  )
       116           C   tau( 116) = (   0.3647093   2.0324848   1.0267748  )
       117           C   tau( 117) = (  -0.0094883   0.5968201   1.3349966  )
       118           C   tau( 118) = (   0.6431135   2.1649245   0.3744912  )
       119           C   tau( 119) = (   0.4281863   2.1420697   1.1617474  )
       120           C   tau( 120) = (  -0.0729653   0.7064049   1.2000240  )
       121           H   tau( 121) = (   0.6383393   2.0247634   0.3582573  )
       122           H   tau( 122) = (   0.4234135   2.2822308   1.1455136  )
       123           H   tau( 123) = (  -0.0681924   0.8465661   1.2162578  )
       124           O   tau( 124) = (  -0.0101637   2.4838192   1.5571284  )
       125           O   tau( 125) = (   0.2047621   1.8231750   0.7698708  )
       126           O   tau( 126) = (   0.5803107   0.3875103   0.0173867  )
       127           H   tau( 127) = (   0.4807592   2.4963992   0.1057358  )
       128           H   tau( 128) = (   0.2658334   1.8105950   0.8929921  )
       129           H   tau( 129) = (   0.0893890   0.3749303   1.4687793  )
       130           O   tau( 130) = (   0.5671788   2.4402720   0.2591679  )
       131           O   tau( 131) = (   0.3522529   1.8667223   1.0464254  )
       132           O   tau( 132) = (   0.0029681   0.4310575   1.3153473  )
       133           C   tau( 133) = (   0.5236068   2.2017378   0.0702069  )
       134           C   tau( 134) = (   0.3086810   2.1052564   0.8574645  )
       135           C   tau( 135) = (   0.0465401   0.6695917   1.5043082  )
       136           C   tau( 136) = (   0.3730823   0.2487004   0.4387736  )
       137           C   tau( 137) = (   0.1581565   1.1869643   1.2260312  )
       138           C   tau( 138) = (   0.1970646   2.6226291   1.1357415  )
       139           H   tau( 139) = (   0.2636815   0.2632715   0.5299216  )
       140           H   tau( 140) = (   0.0487557   1.1723932   1.3171792  )
       141           H   tau( 141) = (   0.3064654   2.6080580   1.0445935  )
       142           H   tau( 142) = (   0.3355800   0.3003162   0.3112935  )
       143           H   tau( 143) = (   0.1206542   1.1353485   1.0985511  )
       144           H   tau( 144) = (   0.2345682   2.5710133   1.2632216  )
       145           H   tau( 145) = (   0.4847209   0.3233936   0.4879885  )
       146           H   tau( 146) = (   0.2697951   1.1122711   1.2752460  )
       147           H   tau( 147) = (   0.0854273   2.5479358   1.0865253  )
       148           C   tau( 148) = (   0.3869736   2.8576232   0.2518739  )
       149           C   tau( 149) = (   0.1720477   1.4493710   1.0391315  )
       150           C   tau( 150) = (   0.1831733   0.0137062   1.3226399  )
       151           H   tau( 151) = (   0.4306124   2.7224042   0.2557442  )
       152           H   tau( 152) = (   0.2156866   1.5845901   1.0430018  )
       153           H   tau( 153) = (   0.1395345   0.1489253   1.3187696  )
       154           H   tau( 154) = (   0.2470447   2.8620540   0.2213725  )
       155           H   tau( 155) = (   0.0321188   1.4449402   1.0086288  )
       156           H   tau( 156) = (   0.3231022   0.0092755   1.3531426  )
       157           C   tau( 157) = (  -0.3072580   0.0918338   1.3655825  )
       158           C   tau( 158) = (  -0.0923321   1.3438310   0.5783250  )
       159           C   tau( 159) = (   0.8774049   2.7794957   0.2089326  )
       160           C   tau( 160) = (   0.5930861   0.1596513   1.0813959  )
       161           C   tau( 161) = (   0.8080120   1.2760134   0.2941384  )
       162           C   tau( 162) = (  -0.0229379   2.7116781   0.4931192  )
       163           H   tau( 163) = (   0.5464398   0.2562420   0.9890918  )
       164           H   tau( 164) = (   0.7613657   1.1794228   0.2018342  )
       165           H   tau( 165) = (   0.0237072   2.6150875   0.5854221  )
       166           C   tau( 166) = (   0.6309172   0.2154717   1.2486440  )
       167           C   tau( 167) = (   0.8458444   1.2201931   0.4613864  )
       168           C   tau( 168) = (  -0.0607703   2.6558578   0.3258698  )
       169           H   tau( 169) = (   0.6154731   0.3510338   1.2867691  )
       170           H   tau( 170) = (   0.8303990   1.0846309   0.4995116  )
       171           H   tau( 171) = (  -0.0453249   2.5202957   0.2877460  )
       172           C   tau( 172) = (   0.4833091   2.8469466   0.5528719  )
       173           C   tau( 173) = (   0.2683819   1.4600476   1.3401282  )
       174           C   tau( 174) = (   0.0868392   0.0243829   1.0216432  )
       175           H   tau( 175) = (   0.5169786   2.7122967   0.5226621  )
       176           H   tau( 176) = (   0.3020528   1.5946975   1.3099197  )
       177           H   tau( 177) = (   0.0531683   0.1590328   1.0518517  )
       178           C   tau( 178) = (  -0.2830572   2.7904124   1.3241412  )
       179           C   tau( 179) = (  -0.0681313   1.5165818   0.5368837  )
       180           C   tau( 180) = (   0.8532055   0.0809171   0.2503726  )
       181           H   tau( 181) = (  -0.2318071   2.6980350   1.4188143  )
       182           H   tau( 182) = (  -0.0168812   1.6089592   0.6315568  )
       183           H   tau( 183) = (   0.8019540   0.1732945   0.1557008  )
       184           C   tau( 184) = (   0.6806844   2.7368524   1.1534595  )
       185           C   tau( 185) = (   0.8956116   1.5701418   0.3662019  )
       186           C   tau( 186) = (  -0.1105375   0.1344771   0.4210543  )
       187           C   tau( 187) = (   0.6160061   2.8577154   1.0279545  )
       188           C   tau( 188) = (   0.8309332   1.4492789   0.2406969  )
       189           C   tau( 189) = (  -0.0458591   0.0136141   0.5465606  )
       190           N   tau( 190) = (   0.4194808   0.0665395   0.4200560  )
       191           N   tau( 191) = (   0.2045550   1.3691253   1.2073136  )
       192           N   tau( 192) = (   0.1506661   2.8047900   1.1544591  )
       193           C   tau( 193) = (   0.5817615   2.7956557   0.8492080  )
       194           C   tau( 194) = (   0.7966873   1.5113385   0.0619518  )
       195           C   tau( 195) = (  -0.0116132   0.0756738   0.7253058  )
       196           O   tau( 196) = (  -0.2911808   2.5704060   1.1096128  )
       197           O   tau( 197) = (  -0.0762550   1.7365882   0.3223553  )
       198           O   tau( 198) = (   0.8613278   0.3009235   0.4649023  )
       199           H   tau( 199) = (   0.6755463   2.5694260   0.9746517  )
       200           H   tau( 200) = (   0.8904722   1.7375683   0.1873941  )
       201           H   tau( 201) = (  -0.1053981   0.3019035   0.5998622  )
       202           F   tau( 202) = (  -0.2669331   0.1436989   1.5318310  )
       203           F   tau( 203) = (  -0.0520073   1.2919658   0.7445735  )
       204           F   tau( 204) = (   0.8370801   2.7276306   0.0426841  )
       205           O   tau( 205) = (   0.6169713   2.6347713   0.8153676  )
       206           O   tau( 206) = (   0.8318971   1.6722230   0.0281100  )
       207           O   tau( 207) = (  -0.0468230   0.2365582   0.7591475  )
       208           C   tau( 208) = (  -0.0100376   2.0794063   1.3210139  )
       209           C   tau( 209) = (   0.2048883   2.2275879   0.5337563  )
       210           C   tau( 210) = (   0.5801858   0.7919231   0.2535013  )
       211           C   tau( 211) = (   0.5115754   0.0359384   0.7196061  )
       212           C   tau( 212) = (   0.2966495   1.3997263   1.5068637  )
       213           C   tau( 213) = (   0.0585728   2.8353910   0.8549077  )
       214           H   tau( 214) = (   0.4791216   0.1691821   0.7528142  )
       215           H   tau( 215) = (   0.2641957   1.2664826   1.5400704  )
       216           H   tau( 216) = (   0.0910254   2.7021474   0.8217009  )

     number of k points=   168

     Number of k-points >= 100: set verbosity='high' to print them.

     Dense  grid:   309629 G-vectors     FFT dimensions: (  54, 150,  90)

     Estimated max dynamical RAM per process >   34374.77MB

     Check: negative/imaginary core charge=   -0.000670    0.000000

     Initial potential from superposition of free atoms

     starting charge  630.75967, renormalised to  640.00000
     Starting wfc are  576 randomized atomic wfcs
