
     Program PWSCF v.6.1 (svn rev. 13369) starts on 12Oct2017 at 14:19:38 

     This program is part of the open-source Quantum ESPRESSO suite
     for quantum simulation of materials; please cite
         "P. Giannozzi et al., J. Phys.:Condens. Matter 21 395502 (2009);
          URL http://www.quantum-espresso.org", 
     in publications or presentations arising from this work. More details at
     http://www.quantum-espresso.org/quote

     Parallel version (MPI), running on     1 processors
     Waiting for input...
     Reading input from standard input

     Current dimensions of program PWSCF are:
     Max number of different atomic species (ntypx) = 10
     Max number of k-points (npk) =  40000
     Max angular momentum in pseudopotentials (lmaxx) =  3
     Message from routine iosys:
     london is obsolete, use "vdw_corr='grimme-d2'" instead

     IMPORTANT: XC functional enforced from input :
     Exchange-correlation      = PBE ( 1  4  3  4 0 0)
     Any further DFT definition will be discarded
     Please, verify this is what you really want

               file C.pbe-rrkjus.UPF: wavefunction(s)  2S 2P renormalized
               file H.pbe-rrkjus.UPF: wavefunction(s)  1S renormalized
               file O.pbe-rrkjus.UPF: wavefunction(s)  2S renormalized
               file N.pbe-rrkjus.UPF: wavefunction(s)  2S renormalized

     -------------------------------------
     Parameters for Dispersion Correction:
     -------------------------------------
       atom      VdW radius       C_6     

        C          2.744         60.710
        H          1.892          4.857
        O          2.536         24.284
        N          2.640         42.670

     Subspace diagonalization in iterative solution of the eigenvalue problem:
     a serial algorithm will be used

 
     G-vector sticks info
     --------------------
     sticks:   dense  smooth     PW     G-vecs:    dense   smooth      PW
     Sum        4711    4711   1317               233651   233651   34375
 


     bravais-lattice index     =            0
     lattice parameter (alat)  =      19.2639  a.u.
     unit-cell volume          =   10526.7386 (a.u.)^3
     number of atoms/cell      =          164
     number of atomic types    =            4
     number of electrons       =       456.00
     number of Kohn-Sham states=          228
     kinetic-energy cutoff     =      30.0000  Ry
     charge density cutoff     =     120.0000  Ry
     convergence threshold     =      1.0E-07
     mixing beta               =       0.7000
     number of iterations used =            8  plain     mixing
     Exchange-correlation      = PBE ( 1  4  3  4 0 0)
     nstep                     =           50


     celldm(1)=  19.263869  celldm(2)=   0.000000  celldm(3)=   0.000000
     celldm(4)=   0.000000  celldm(5)=   0.000000  celldm(6)=   0.000000

     crystal axes: (cart. coord. in units of alat)
               a(1) = (   1.000000   0.000000   0.000000 )  
               a(2) = (   0.000000   1.329606   0.000000 )  
               a(3) = (  -0.551692   0.000000   1.107492 )  

     reciprocal axes: (cart. coord. in units 2 pi/alat)
               b(1) = (  1.000000  0.000000  0.498146 )  
               b(2) = (  0.000000  0.752103  0.000000 )  
               b(3) = (  0.000000  0.000000  0.902941 )  


     PseudoPot. # 1 for C  read from file:
     /data/home/btx156/espresso/pseudo/C.pbe-rrkjus.UPF
     MD5 check sum: 00fb224312de0c5b6853bd333518df6f
     Pseudo is Ultrasoft, Zval =  4.0
     Generated by new atomic code, or converted to UPF format
     Using radial grid of  627 points,  4 beta functions with: 
                l(1) =   0
                l(2) =   0
                l(3) =   1
                l(4) =   1
     Q(r) pseudized with 0 coefficients 


     PseudoPot. # 2 for H  read from file:
     /data/home/btx156/espresso/pseudo/H.pbe-rrkjus.UPF
     MD5 check sum: 7cc9d459525c9a0585f487a71c3c9563
     Pseudo is Ultrasoft, Zval =  1.0
     Generated by new atomic code, or converted to UPF format
     Using radial grid of 1061 points,  2 beta functions with: 
                l(1) =   0
                l(2) =   0
     Q(r) pseudized with 0 coefficients 


     PseudoPot. # 3 for O  read from file:
     /data/home/btx156/espresso/pseudo/O.pbe-rrkjus.UPF
     MD5 check sum: 390ba29e75625707450f3bd3f0eb6be9
     Pseudo is Ultrasoft, Zval =  6.0
     Generated by new atomic code, or converted to UPF format
     Using radial grid of 1269 points,  4 beta functions with: 
                l(1) =   0
                l(2) =   0
                l(3) =   1
                l(4) =   1
     Q(r) pseudized with 0 coefficients 


     PseudoPot. # 4 for N  read from file:
     /data/home/btx156/espresso/pseudo/N.pbe-rrkjus.UPF
     MD5 check sum: 0c3fbe5807a93f9ba59d5a7019aa238b
     Pseudo is Ultrasoft, Zval =  5.0
     Generated by new atomic code, or converted to UPF format
     Using radial grid of 1257 points,  4 beta functions with: 
                l(1) =   0
                l(2) =   0
                l(3) =   1
                l(4) =   1
     Q(r) pseudized with 0 coefficients 


     atomic species   valence    mass     pseudopotential
        C              4.00    12.00000     C ( 1.00)
        H              1.00     1.00790     H ( 1.00)
        O              6.00    15.99940     O ( 1.00)
        N              5.00    14.00670     N ( 1.00)

      4 Sym. Ops., with inversion, found ( 2 have fractional translation)



   Cartesian axes

     site n.     atom                  positions (alat units)
         1           C   tau(   1) = (   0.1910743   0.2741002   0.8527231  )
         2           C   tau(   2) = (   0.1099946   0.3445590   0.7667701  )
         3           H   tau(   3) = (   0.1258888   0.3342651   0.6618006  )
         4           C   tau(   4) = (   0.0114702   0.4243848   0.8177940  )
         5           C   tau(   5) = (  -0.0061924   0.4359164   0.9547052  )
         6           H   tau(   6) = (  -0.0832258   0.5000923   0.9915146  )
         7           C   tau(   7) = (   0.0742704   0.3668090   1.0383741  )
         8           H   tau(   8) = (   0.6126973   0.3806999   0.0358826  )
         9           C   tau(   9) = (   0.1737856   0.2823985   0.9915662  )
        10           C   tau(  10) = (   0.2579883   0.2033444   1.0769327  )
        11           C   tau(  11) = (   0.7932168   0.2065377   0.1098581  )
        12           H   tau(  12) = (   0.7163547   0.2688654   0.1497495  )
        13           C   tau(  13) = (   0.8708336   0.1355342   0.1931090  )
        14           H   tau(  14) = (  -0.0529003   0.0742864   0.1489126  )
        15           C   tau(  15) = (  -0.1379918   0.1326973   0.3332124  )
        16           C   tau(  16) = (   0.7689200   0.2061152   0.4055069  )
        17           H   tau(  17) = (   0.7011621   0.2707431   0.3540715  )
        18           C   tau(  18) = (  -0.2391475   0.1989969   0.5400485  )
        19           H   tau(  19) = (   0.6870132   0.2570802   0.5905742  )
        20           C   tau(  20) = (  -0.1524931   0.1171142   0.6126830  )
        21           C   tau(  21) = (  -0.0584961   0.0432481   0.5410062  )
        22           H   tau(  22) = (   0.0096088   1.3084381   0.5920776  )
        23           C   tau(  23) = (  -0.0518699   0.0521525   0.4061134  )
        24           H   tau(  24) = (   0.0224836  -0.0041809   0.3539004  )
        25           C   tau(  25) = (  -0.2530773   0.1902114   0.8172730  )
        26           H   tau(  26) = (  -0.2457093   0.2942905   0.7897505  )
        27           H   tau(  27) = (  -0.2324345   0.1821841   0.9221628  )
        28           H   tau(  28) = (  -0.3544194   0.1569948   0.7992028  )
        29           C   tau(  29) = (  -0.0718609   0.0228318   0.8165723  )
        30           H   tau(  30) = (  -0.0859394   1.2500822   0.7850266  )
        31           H   tau(  31) = (  -0.0934025   0.0291042   0.9215813  )
        32           H   tau(  32) = (   0.0319005   0.0490307   0.8010752  )
        33           C   tau(  33) = (  -0.0525175   0.4989433   0.6043729  )
        34           H   tau(  34) = (   0.0458511   0.5377849   0.5817736  )
        35           H   tau(  35) = (  -0.1280492   0.5647463   0.5658886  )
        36           H   tau(  36) = (  -0.0639810   0.4002940   0.5620417  )
        37           N   tau(  37) = (  -0.1586795   0.1108721   0.7456391  )
        38           O   tau(  38) = (   0.2869757   0.1988081   0.8026202  )
        39           H   tau(  39) = (   0.3296942   0.1556494   0.8876635  )
        40           O   tau(  40) = (   0.3464773   0.1302836   1.0242415  )
        41           O   tau(  41) = (  -0.0722096   0.4960085   0.7435686  )
        42           C   tau(  42) = (  -0.0186130   0.9389030   0.8085138  )
        43           C   tau(  43) = (   0.2572326   1.0555054   0.2547685  )
        44           C   tau(  44) = (   0.4669208   0.3907026   0.2989778  )
        45           C   tau(  45) = (   0.0624666   1.0093618   0.8944668  )
        46           C   tau(  46) = (   0.3383132   0.9850466   0.3407215  )
        47           C   tau(  47) = (   0.3858402   0.3202438   0.2130248  )
        48           H   tau(  48) = (   0.0465724   0.9990679   0.9994374  )
        49           H   tau(  49) = (   0.3224190   0.9953405   0.4456910  )
        50           H   tau(  50) = (   0.4017344   0.3305377   0.1080543  )
        51           C   tau(  51) = (   0.1609911   1.0891876   0.8434430  )
        52           C   tau(  52) = (   0.4368376   0.9052208   0.2896976  )
        53           C   tau(  53) = (   0.2873168   0.2404180   0.2640487  )
        54           C   tau(  54) = (   0.1786536   1.1007192   0.7065328  )
        55           C   tau(  55) = (   0.4545002   0.8936892   0.1527865  )
        56           C   tau(  56) = (   0.2696542   0.2288864   0.4009598  )
        57           H   tau(  57) = (   0.2556870   1.1648952   0.6697233  )
        58           H   tau(  58) = (   0.5315336   0.8295133   0.1159770  )
        59           H   tau(  59) = (   0.1926198   0.1647105   0.4377683  )
        60           C   tau(  60) = (   0.0981919   1.0316118   0.6228638  )
        61           C   tau(  61) = (   0.3740375   0.9627966   0.0691175  )
        62           C   tau(  62) = (   0.3501159   0.2979938   0.4846278  )
        63           H   tau(  63) = (   0.1114571   1.0455028   0.5178637  )
        64           H   tau(  64) = (  -0.1643895   0.9489057   1.0716091  )
        65           H   tau(  65) = (   0.3368507   0.2841029   0.5896279  )
        66           C   tau(  66) = (  -0.0013244   0.9472013   0.6696708  )
        67           C   tau(  67) = (   0.2745222   1.0472072   0.1159254  )
        68           C   tau(  68) = (   0.4496322   0.3824044   0.4378209  )
        69           C   tau(  69) = (  -0.0855271   0.8681472   0.5843053  )
        70           C   tau(  70) = (   0.1903185   1.1262612   0.0305590  )
        71           C   tau(  71) = (   0.5338349   0.4614584   0.5231863  )
        72           C   tau(  72) = (  -0.0690624   0.8713405   0.4438872  )
        73           C   tau(  73) = (  -0.3449090   1.1230679   0.9976335  )
        74           C   tau(  74) = (   0.5173702   0.4582651   0.6636044  )
        75           H   tau(  75) = (   0.0077987   0.9336682   0.4039968  )
        76           H   tau(  76) = (  -0.2680479   1.0607402   0.9577421  )
        77           H   tau(  77) = (   0.4405091   0.3959374   0.7034948  )
        78           C   tau(  78) = (  -0.1466802   0.8003370   0.3606363  )
        79           C   tau(  79) = (  -0.4225267   1.1940714   0.9143826  )
        80           C   tau(  80) = (   0.5949880   0.5292686   0.7468553  )
        81           H   tau(  81) = (   0.7770537   0.7390892   0.4048337  )
        82           H   tau(  82) = (   0.5012081   1.2553192   0.9585791  )
        83           H   tau(  83) = (  -0.3287469   0.5905164   0.7026579  )
        84           C   tau(  84) = (   0.8621462   0.7975001   0.2205329  )
        85           C   tau(  85) = (   0.5862996   1.1969084   0.7742792  )
        86           C   tau(  86) = (  -0.4138384   0.5321055   0.8869587  )
        87           C   tau(  87) = (  -0.0447656   0.8709180   0.1482384  )
        88           C   tau(  88) = (  -0.3206122   1.1234904   0.7019847  )
        89           C   tau(  89) = (   0.4930734   0.4586876   0.9592533  )
        90           C   tau(  90) = (   0.2249787   1.1637461   1.0568641  )
        91           C   tau(  91) = (   0.5008253   0.8306623   0.5031188  )
        92           C   tau(  92) = (   0.2233291   0.1658595   0.0506275  )
        93           H   tau(  93) = (   0.0229923   0.9355459   0.1996738  )
        94           H   tau(  94) = (  -0.2528543   1.0588625   0.7534201  )
        95           H   tau(  95) = (   0.4253155   0.3940597   0.9078178  )
        96           C   tau(  96) = (   0.9633009   0.8637997   0.0136978  )
        97           C   tau(  97) = (   0.6874553   1.1306087   0.5674432  )
        98           C   tau(  98) = (  -0.5149940   0.4658059   1.0937938  )
        99           H   tau(  99) = (  -0.5145520   0.9218831   1.0706628  )
       100           H   tau( 100) = (  -0.2387054   1.0725254   0.5169175  )
       101           H   tau( 101) = (   0.9628598   0.4077226   0.0368288  )
       102           C   tau( 102) = (   0.3249553   0.7819170   1.0485540  )
       103           C   tau( 103) = (   0.6008009   1.2124915   0.4948087  )
       104           C   tau( 104) = (   0.1233525   0.5476887   0.0589376  )
       105           C   tau( 105) = (   0.7826495   0.7080509   0.0127392  )
       106           C   tau( 106) = (   0.5068039   1.2863575   0.5664855  )
       107           C   tau( 107) = (  -0.3343426   0.6215547   1.0947525  )
       108           H   tau( 108) = (   0.1628534   0.6436353   1.0691604  )
       109           H   tau( 109) = (   0.4386990   0.0211675   0.5154141  )
       110           H   tau( 110) = (   0.2854544   0.6859704   0.0383313  )
       111           C   tau( 111) = (   0.7760233   0.7169553   0.1476329  )
       112           C   tau( 112) = (   0.5001768   1.2774531   0.7013783  )
       113           C   tau( 113) = (  -0.3277155   0.6126503   0.9598587  )
       114           H   tau( 114) = (   0.7016708   0.6606219   0.1998459  )
       115           H   tau( 115) = (   0.4258242   1.3337865   0.7535913  )
       116           H   tau( 116) = (  -0.2533630   0.6689837   0.9076457  )
       117           C   tau( 117) = (   0.4255386   0.8550143   0.8439639  )
       118           C   tau( 118) = (   0.7013852   1.1393942   0.2902186  )
       119           C   tau( 119) = (   0.0227683   0.4745914   0.2635277  )
       120           H   tau( 120) = (   0.4181706   0.9590933   0.8714865  )
       121           H   tau( 121) = (   0.6940171   1.0353151   0.3177411  )
       122           H   tau( 122) = (   0.0301363   0.3705123   0.2360052  )
       123           H   tau( 123) = (   0.4048957   0.8469869   0.7390751  )
       124           H   tau( 124) = (   0.6807423   1.1474215   0.1853298  )
       125           H   tau( 125) = (   0.0434111   0.4826187   0.3684165  )
       126           H   tau( 126) = (   0.5268807   0.8217976   0.8620342  )
       127           H   tau( 127) = (   0.8027272   1.1726108   0.3082888  )
       128           H   tau( 128) = (  -0.0785729   0.5078080   0.2454575  )
       129           C   tau( 129) = (   0.2443221   0.6876346   0.8446656  )
       130           C   tau( 130) = (   0.5201677   1.3067738   0.2909203  )
       131           C   tau( 131) = (   0.2039857   0.6419710   0.2628260  )
       132           H   tau( 132) = (   0.2584006   0.5852794   0.8762113  )
       133           H   tau( 133) = (   0.5342472   0.0795234   0.3224650  )
       134           H   tau( 134) = (   0.1899072   0.7443262   0.2312803  )
       135           H   tau( 135) = (   0.2658638   0.6939070   0.7396566  )
       136           H   tau( 136) = (   0.5417104   1.3005014   0.1859103  )
       137           H   tau( 137) = (   0.1824440   0.6356986   0.3678350  )
       138           H   tau( 138) = (   0.1405617   0.7138335   0.8601617  )
       139           H   tau( 139) = (   0.4164073   1.2805750   0.3064164  )
       140           H   tau( 140) = (   0.3077461   0.6157721   0.2473299  )
       141           H   tau( 141) = (   0.1266101   1.2025878   1.0794643  )
       142           H   tau( 142) = (   0.4024567   0.7918207   0.5257180  )
       143           H   tau( 143) = (   0.3216977   0.1270179   0.0280273  )
       144           H   tau( 144) = (   0.3005105   1.2295492   1.0953493  )
       145           H   tau( 145) = (   0.5763561   0.7648603   0.5416030  )
       146           H   tau( 146) = (   0.1477974   0.1000574   0.0121423  )
       147           H   tau( 147) = (   0.2364422   1.0650968   1.0991963  )
       148           H   tau( 148) = (   0.5122878   0.9293116   0.5454500  )
       149           H   tau( 149) = (   0.2118656   0.2645088   0.0082953  )
       150           N   tau( 150) = (   0.3311407   0.7756749   0.9155988  )
       151           N   tau( 151) = (   0.6069863   1.2187335   0.3618525  )
       152           N   tau( 152) = (   0.1171671   0.5539307   0.1918928  )
       153           O   tau( 153) = (  -0.1145145   0.8636109   0.8586177  )
       154           O   tau( 154) = (   0.1613311   1.1307975   0.3048714  )
       155           O   tau( 155) = (   0.5628223   0.4659947   0.2488739  )
       156           H   tau( 156) = (  -0.1572330   0.8204523   0.7735744  )
       157           H   tau( 157) = (   0.1186136   1.1739562   0.2198291  )
       158           H   tau( 158) = (   0.6055408   0.5091534   0.3339172  )
       159           O   tau( 159) = (  -0.1740161   0.7950864   0.6369954  )
       160           O   tau( 160) = (   0.1018295   1.1993220   0.0832501  )
       161           O   tau( 161) = (   0.6223239   0.5345192   0.4704962  )
       162           O   tau( 162) = (   0.2446708   1.1608113   0.9176693  )
       163           O   tau( 163) = (   0.5205174   0.8335971   0.3639230  )
       164           O   tau( 164) = (   0.2036360   0.1687943   0.1898223  )

     number of k points=    80
                       cart. coord. in units 2pi/alat
        k(    1) = (   0.0000000   0.0000000   0.0000000), wk =   0.0092593
        k(    2) = (   0.0000000   0.0000000   0.1504902), wk =   0.0185185
        k(    3) = (   0.0000000   0.0000000   0.3009804), wk =   0.0185185
        k(    4) = (   0.0000000   0.0000000  -0.4514707), wk =   0.0092593
        k(    5) = (   0.0000000   0.1253505   0.0000000), wk =   0.0185185
        k(    6) = (   0.0000000   0.1253505   0.1504902), wk =   0.0370370
        k(    7) = (   0.0000000   0.1253505   0.3009804), wk =   0.0370370
        k(    8) = (   0.0000000   0.1253505  -0.4514707), wk =   0.0185185
        k(    9) = (   0.0000000   0.2507009   0.0000000), wk =   0.0185185
        k(   10) = (   0.0000000   0.2507009   0.1504902), wk =   0.0370370
        k(   11) = (   0.0000000   0.2507009   0.3009804), wk =   0.0370370
        k(   12) = (   0.0000000   0.2507009  -0.4514707), wk =   0.0185185
        k(   13) = (   0.0000000  -0.3760514   0.0000000), wk =   0.0092593
        k(   14) = (   0.0000000  -0.3760514   0.1504902), wk =   0.0185185
        k(   15) = (   0.0000000  -0.3760514   0.3009804), wk =   0.0185185
        k(   16) = (   0.0000000  -0.3760514  -0.4514707), wk =   0.0092593
        k(   17) = (   0.1666667   0.0000000   0.0830243), wk =   0.0185185
        k(   18) = (   0.1666667   0.0000000   0.2335145), wk =   0.0185185
        k(   19) = (   0.1666667   0.0000000   0.3840048), wk =   0.0185185
        k(   20) = (   0.1666667   0.0000000  -0.3684463), wk =   0.0185185
        k(   21) = (   0.1666667   0.0000000  -0.2179561), wk =   0.0185185
        k(   22) = (   0.1666667   0.0000000  -0.0674659), wk =   0.0185185
        k(   23) = (   0.1666667   0.1253505   0.0830243), wk =   0.0370370
        k(   24) = (   0.1666667   0.1253505   0.2335145), wk =   0.0370370
        k(   25) = (   0.1666667   0.1253505   0.3840048), wk =   0.0370370
        k(   26) = (   0.1666667   0.1253505  -0.3684463), wk =   0.0370370
        k(   27) = (   0.1666667   0.1253505  -0.2179561), wk =   0.0370370
        k(   28) = (   0.1666667   0.1253505  -0.0674659), wk =   0.0370370
        k(   29) = (   0.1666667   0.2507009   0.0830243), wk =   0.0370370
        k(   30) = (   0.1666667   0.2507009   0.2335145), wk =   0.0370370
        k(   31) = (   0.1666667   0.2507009   0.3840048), wk =   0.0370370
        k(   32) = (   0.1666667   0.2507009  -0.3684463), wk =   0.0370370
        k(   33) = (   0.1666667   0.2507009  -0.2179561), wk =   0.0370370
        k(   34) = (   0.1666667   0.2507009  -0.0674659), wk =   0.0370370
        k(   35) = (   0.1666667  -0.3760514   0.0830243), wk =   0.0185185
        k(   36) = (   0.1666667  -0.3760514   0.2335145), wk =   0.0185185
        k(   37) = (   0.1666667  -0.3760514   0.3840048), wk =   0.0185185
        k(   38) = (   0.1666667  -0.3760514  -0.3684463), wk =   0.0185185
        k(   39) = (   0.1666667  -0.3760514  -0.2179561), wk =   0.0185185
        k(   40) = (   0.1666667  -0.3760514  -0.0674659), wk =   0.0185185
        k(   41) = (   0.3333333   0.0000000   0.1660486), wk =   0.0185185
        k(   42) = (   0.3333333   0.0000000   0.3165389), wk =   0.0185185
        k(   43) = (   0.3333333   0.0000000   0.4670291), wk =   0.0185185
        k(   44) = (   0.3333333   0.0000000  -0.2854220), wk =   0.0185185
        k(   45) = (   0.3333333   0.0000000  -0.1349318), wk =   0.0185185
        k(   46) = (   0.3333333   0.0000000   0.0155584), wk =   0.0185185
        k(   47) = (   0.3333333   0.1253505   0.1660486), wk =   0.0370370
        k(   48) = (   0.3333333   0.1253505   0.3165389), wk =   0.0370370
        k(   49) = (   0.3333333   0.1253505   0.4670291), wk =   0.0370370
        k(   50) = (   0.3333333   0.1253505  -0.2854220), wk =   0.0370370
        k(   51) = (   0.3333333   0.1253505  -0.1349318), wk =   0.0370370
        k(   52) = (   0.3333333   0.1253505   0.0155584), wk =   0.0370370
        k(   53) = (   0.3333333   0.2507009   0.1660486), wk =   0.0370370
        k(   54) = (   0.3333333   0.2507009   0.3165389), wk =   0.0370370
        k(   55) = (   0.3333333   0.2507009   0.4670291), wk =   0.0370370
        k(   56) = (   0.3333333   0.2507009  -0.2854220), wk =   0.0370370
        k(   57) = (   0.3333333   0.2507009  -0.1349318), wk =   0.0370370
        k(   58) = (   0.3333333   0.2507009   0.0155584), wk =   0.0370370
        k(   59) = (   0.3333333  -0.3760514   0.1660486), wk =   0.0185185
        k(   60) = (   0.3333333  -0.3760514   0.3165389), wk =   0.0185185
        k(   61) = (   0.3333333  -0.3760514   0.4670291), wk =   0.0185185
        k(   62) = (   0.3333333  -0.3760514  -0.2854220), wk =   0.0185185
        k(   63) = (   0.3333333  -0.3760514  -0.1349318), wk =   0.0185185
        k(   64) = (   0.3333333  -0.3760514   0.0155584), wk =   0.0185185
        k(   65) = (  -0.5000000   0.0000000  -0.2490730), wk =   0.0092593
        k(   66) = (  -0.5000000   0.0000000  -0.0985827), wk =   0.0185185
        k(   67) = (  -0.5000000   0.0000000   0.0519075), wk =   0.0185185
        k(   68) = (  -0.5000000   0.0000000  -0.7005436), wk =   0.0092593
        k(   69) = (  -0.5000000   0.1253505  -0.2490730), wk =   0.0185185
        k(   70) = (  -0.5000000   0.1253505  -0.0985827), wk =   0.0370370
        k(   71) = (  -0.5000000   0.1253505   0.0519075), wk =   0.0370370
        k(   72) = (  -0.5000000   0.1253505  -0.7005436), wk =   0.0185185
        k(   73) = (  -0.5000000   0.2507009  -0.2490730), wk =   0.0185185
        k(   74) = (  -0.5000000   0.2507009  -0.0985827), wk =   0.0370370
        k(   75) = (  -0.5000000   0.2507009   0.0519075), wk =   0.0370370
        k(   76) = (  -0.5000000   0.2507009  -0.7005436), wk =   0.0185185
        k(   77) = (  -0.5000000  -0.3760514  -0.2490730), wk =   0.0092593
        k(   78) = (  -0.5000000  -0.3760514  -0.0985827), wk =   0.0185185
        k(   79) = (  -0.5000000  -0.3760514   0.0519075), wk =   0.0185185
        k(   80) = (  -0.5000000  -0.3760514  -0.7005436), wk =   0.0092593

     Dense  grid:   233651 G-vectors     FFT dimensions: (  72,  90,  90)

     Estimated max dynamical RAM per process >    9598.55MB

     Initial potential from superposition of free atoms

     starting charge  448.68464, renormalised to  456.00000
     Starting wfc are  428 randomized atomic wfcs

     total cpu time spent up to now is     1487.0 secs

     per-process dynamical memory:   641.1 Mb

     Self-consistent Calculation

     iteration #  1     ecut=    30.00 Ry     beta=0.70
     Davidson diagonalization with overlap
     ethr =  1.00E-02,  avg # of iterations =  2.0

     total cpu time spent up to now is     4430.5 secs

     total energy              =   -1365.07986664 Ry
     Harris-Foulkes estimate   =   -1383.13875111 Ry
     estimated scf accuracy    <      28.20047362 Ry

     iteration #  2     ecut=    30.00 Ry     beta=0.70
     Davidson diagonalization with overlap
     ethr =  6.18E-03,  avg # of iterations =  3.0

     total cpu time spent up to now is     7368.8 secs

     total energy              =   -1368.75905032 Ry
     Harris-Foulkes estimate   =   -1375.71740106 Ry
     estimated scf accuracy    <      12.24426073 Ry

     iteration #  3     ecut=    30.00 Ry     beta=0.70
     Davidson diagonalization with overlap
     ethr =  2.69E-03,  avg # of iterations =  3.1

     total cpu time spent up to now is    10120.0 secs

     total energy              =   -1371.74906642 Ry
     Harris-Foulkes estimate   =   -1372.66529448 Ry
     estimated scf accuracy    <       1.71477528 Ry

     iteration #  4     ecut=    30.00 Ry     beta=0.70
     Davidson diagonalization with overlap
     ethr =  3.76E-04,  avg # of iterations =  4.0

     total cpu time spent up to now is    12756.5 secs

     total energy              =   -1372.12131001 Ry
     Harris-Foulkes estimate   =   -1372.32689798 Ry
     estimated scf accuracy    <       0.42358906 Ry

     iteration #  5     ecut=    30.00 Ry     beta=0.70
     Davidson diagonalization with overlap
     ethr =  9.29E-05,  avg # of iterations =  4.0

     total cpu time spent up to now is    15207.2 secs

     total energy              =   -1372.21231390 Ry
     Harris-Foulkes estimate   =   -1372.24245134 Ry
     estimated scf accuracy    <       0.07187337 Ry

     iteration #  6     ecut=    30.00 Ry     beta=0.70
     Davidson diagonalization with overlap
     ethr =  1.58E-05,  avg # of iterations =  4.0

     total cpu time spent up to now is    17624.2 secs

     total energy              =   -1372.22660526 Ry
     Harris-Foulkes estimate   =   -1372.22922220 Ry
     estimated scf accuracy    <       0.00574777 Ry

     iteration #  7     ecut=    30.00 Ry     beta=0.70
     Davidson diagonalization with overlap
     ethr =  1.26E-06,  avg # of iterations =  5.0

     total cpu time spent up to now is    20204.6 secs

     total energy              =   -1372.22776427 Ry
     Harris-Foulkes estimate   =   -1372.22879687 Ry
     estimated scf accuracy    <       0.00248547 Ry

     iteration #  8     ecut=    30.00 Ry     beta=0.70
     Davidson diagonalization with overlap
     ethr =  5.45E-07,  avg # of iterations =  5.0

     total cpu time spent up to now is    22717.4 secs

     total energy              =   -1372.22828721 Ry
     Harris-Foulkes estimate   =   -1372.22837092 Ry
     estimated scf accuracy    <       0.00020721 Ry

     iteration #  9     ecut=    30.00 Ry     beta=0.70
     Davidson diagonalization with overlap
     ethr =  4.54E-08,  avg # of iterations =  4.0

     total cpu time spent up to now is    25336.0 secs

     total energy              =   -1372.22833476 Ry
     Harris-Foulkes estimate   =   -1372.22834853 Ry
     estimated scf accuracy    <       0.00003066 Ry

     iteration # 10     ecut=    30.00 Ry     beta=0.70
     Davidson diagonalization with overlap
     ethr =  6.72E-09,  avg # of iterations =  4.0

     total cpu time spent up to now is    27936.1 secs

     total energy              =   -1372.22834129 Ry
     Harris-Foulkes estimate   =   -1372.22834270 Ry
     estimated scf accuracy    <       0.00000292 Ry

     iteration # 11     ecut=    30.00 Ry     beta=0.70
     Davidson diagonalization with overlap
     ethr =  6.40E-10,  avg # of iterations =  4.0

     total cpu time spent up to now is    30701.4 secs

     total energy              =   -1372.22834212 Ry
     Harris-Foulkes estimate   =   -1372.22834229 Ry
     estimated scf accuracy    <       0.00000046 Ry

     iteration # 12     ecut=    30.00 Ry     beta=0.70
     Davidson diagonalization with overlap
     ethr =  1.02E-10,  avg # of iterations =  4.0

     total cpu time spent up to now is    33301.4 secs

     End of self-consistent calculation

          k = 0.0000 0.0000 0.0000 ( 29151 PWs)   bands (ev):

   -20.8258 -20.8252 -20.8244 -20.8241 -20.3131 -20.3127 -20.3123 -20.3095
   -19.1516 -19.1506 -19.1469 -19.1446 -17.9204 -17.9197 -17.9024 -17.9019
   -15.1342 -15.1274 -15.1206 -15.1097 -15.0889 -15.0887 -15.0757 -15.0720
   -13.6319 -13.6288 -13.6049 -13.6024 -13.0071 -12.9750 -12.9638 -12.9535
   -12.5748 -12.5743 -12.4912 -12.4903 -12.4186 -12.4104 -12.3678 -12.3642
   -12.1788 -12.1728 -12.1644 -12.1400 -11.8000 -11.7867 -11.7344 -11.7165
   -11.3813 -11.3606 -11.3479 -11.3437 -10.6590 -10.6496 -10.5927 -10.5722
    -9.5155  -9.4555  -9.4135  -9.4051  -9.0937  -9.0916  -8.9838  -8.9554
    -8.8956  -8.8448  -8.8302  -8.8148  -8.7937  -8.7846  -8.7463  -8.6944
    -8.0335  -8.0301  -7.9963  -7.9960  -7.3863  -7.3704  -7.3655  -7.3057
    -7.0383  -7.0329  -6.9668  -6.9410  -6.8663  -6.8362  -6.8348  -6.8210
    -6.6060  -6.5852  -6.5772  -6.5598  -6.1369  -6.0835  -6.0661  -6.0557
    -5.9407  -5.9229  -5.8915  -5.8663  -5.7092  -5.6440  -5.6438  -5.6199
    -5.6093  -5.5722  -5.5328  -5.4738  -5.2316  -5.2303  -5.2150  -5.1777
    -4.9961  -4.9910  -4.9858  -4.9610  -4.9251  -4.9052  -4.8556  -4.7773
    -4.7719  -4.7621  -4.7507  -4.7449  -4.6540  -4.6345  -4.5405  -4.5253
    -4.4155  -4.4088  -4.4070  -4.3861  -4.1737  -4.1059  -4.1004  -4.0991
    -4.0984  -4.0823  -4.0418  -4.0340  -3.9726  -3.9036  -3.8810  -3.8545
    -3.7684  -3.7530  -3.7523  -3.7384  -3.7273  -3.7253  -3.7039  -3.6933
    -3.5707  -3.5695  -3.5176  -3.5092  -3.3601  -3.3476  -3.3008  -3.2704
    -3.2239  -3.2116  -3.1530  -3.1351  -3.1089  -3.1023  -3.0907  -3.0593
    -3.0493  -3.0410  -2.9947  -2.9840  -2.9149  -2.8882  -2.8821  -2.8736
    -2.6843  -2.6709  -2.6413  -2.6085  -2.5672  -2.5259  -2.5212  -2.4874
    -2.2874  -2.2054  -2.1674  -2.0730  -1.9624  -1.9424  -1.8697  -1.8017
    -1.7728  -1.7284  -1.7062  -1.7061  -1.6677  -1.5747  -1.5466  -1.4328
    -1.4117  -1.4052  -1.3984  -1.3364  -0.3874  -0.3737  -0.2729  -0.2682
    -0.2458  -0.2179  -0.0838  -0.0828   0.0557   0.1219   0.1384   0.1467
     0.1558   0.1779   0.2192   0.2372   0.5728   0.5983   0.6010   0.6038
     1.3137   1.3187   1.4810   1.5265

          k = 0.0000 0.0000 0.1505 ( 29210 PWs)   bands (ev):

   -20.8258 -20.8252 -20.8244 -20.8241 -20.3132 -20.3128 -20.3121 -20.3097
   -19.1515 -19.1507 -19.1468 -19.1447 -17.9204 -17.9198 -17.9024 -17.9019
   -15.1353 -15.1286 -15.1264 -15.1156 -15.0877 -15.0774 -15.0762 -15.0686
   -13.6372 -13.6323 -13.6033 -13.6024 -12.9934 -12.9748 -12.9697 -12.9500
   -12.5753 -12.5742 -12.4917 -12.4902 -12.4181 -12.4079 -12.3714 -12.3681
   -12.1780 -12.1693 -12.1566 -12.1564 -11.7966 -11.7880 -11.7293 -11.7166
   -11.4062 -11.3652 -11.3450 -11.3223 -10.6344 -10.6217 -10.6175 -10.5989
    -9.4804  -9.4441  -9.4416  -9.4285  -9.0677  -9.0586  -8.9981  -8.9659
    -8.8984  -8.8594  -8.8282  -8.8131  -8.8053  -8.7878  -8.7520  -8.7052
    -8.0465  -8.0321  -7.9875  -7.9741  -7.3941  -7.3849  -7.3443  -7.3021
    -7.0470  -7.0182  -6.9794  -6.9413  -6.8826  -6.8409  -6.8158  -6.8099
    -6.5993  -6.5923  -6.5829  -6.5662  -6.1339  -6.0886  -6.0600  -6.0498
    -5.9541  -5.9039  -5.8865  -5.8762  -5.6833  -5.6679  -5.6303  -5.6090
    -5.6023  -5.5786  -5.5254  -5.4938  -5.2362  -5.2334  -5.2058  -5.1789
    -5.0294  -5.0074  -4.9710  -4.9578  -4.9038  -4.8755  -4.8446  -4.7921
    -4.7799  -4.7720  -4.7586  -4.7421  -4.6299  -4.6258  -4.5644  -4.5295
    -4.4437  -4.4376  -4.3933  -4.3848  -4.1613  -4.1187  -4.1065  -4.1059
    -4.0752  -4.0553  -4.0413  -4.0260  -3.9624  -3.9166  -3.8868  -3.8571
    -3.7755  -3.7608  -3.7514  -3.7352  -3.7219  -3.7151  -3.7054  -3.6805
    -3.5877  -3.5629  -3.5231  -3.5180  -3.3595  -3.3540  -3.3188  -3.3055
    -3.2792  -3.1789  -3.1670  -3.1371  -3.1341  -3.0870  -3.0547  -3.0494
    -3.0297  -3.0237  -2.9946  -2.9727  -2.9459  -2.8979  -2.8577  -2.8469
    -2.7042  -2.6545  -2.6410  -2.6165  -2.5554  -2.5345  -2.5342  -2.4845
    -2.2652  -2.1907  -2.1668  -2.0706  -1.9540  -1.9333  -1.8733  -1.8063
    -1.7713  -1.7302  -1.7112  -1.7013  -1.6699  -1.5693  -1.5615  -1.4515
    -1.4034  -1.4015  -1.3943  -1.3432  -0.3882  -0.3753  -0.2782  -0.2644
    -0.2616  -0.2140  -0.0831  -0.0826   0.0593   0.1162   0.1395   0.1412
     0.1649   0.1740   0.2061   0.2320   0.5789   0.6027   0.6075   0.6127
     1.3147   1.3214   1.4807   1.5300

          k = 0.0000 0.0000 0.3010 ( 29236 PWs)   bands (ev):

   -20.8257 -20.8253 -20.8244 -20.8241 -20.3132 -20.3129 -20.3115 -20.3101
   -19.1513 -19.1508 -19.1463 -19.1452 -17.9202 -17.9199 -17.9023 -17.9020
   -15.1370 -15.1337 -15.1309 -15.1255 -15.0798 -15.0754 -15.0671 -15.0640
   -13.6452 -13.6397 -13.6040 -13.6003 -12.9823 -12.9719 -12.9604 -12.9486
   -12.5762 -12.5739 -12.4935 -12.4898 -12.4139 -12.4020 -12.3833 -12.3793
   -12.1898 -12.1726 -12.1597 -12.1414 -11.7915 -11.7897 -11.7213 -11.7162
   -11.4265 -11.3769 -11.3419 -11.3055 -10.6489 -10.6253 -10.6039 -10.5808
    -9.4852  -9.4747  -9.4418  -9.4074  -9.0228  -9.0196  -9.0119  -8.9841
    -8.9074  -8.8882  -8.8204  -8.8184  -8.8058  -8.7886  -8.7588  -8.7231
    -8.0640  -8.0370  -7.9805  -7.9541  -7.4041  -7.3896  -7.3264  -7.2975
    -7.0436  -7.0021  -6.9958  -6.9520  -6.8970  -6.8490  -6.7979  -6.7806
    -6.6118  -6.5938  -6.5832  -6.5785  -6.1256  -6.0996  -6.0514  -6.0417
    -5.9532  -5.9025  -5.8691  -5.8644  -5.7084  -5.6757  -5.6112  -5.5982
    -5.5869  -5.5648  -5.5266  -5.5120  -5.2428  -5.2419  -5.1959  -5.1825
    -5.0528  -5.0214  -4.9692  -4.9208  -4.8917  -4.8601  -4.8350  -4.8221
    -4.8078  -4.7852  -4.7600  -4.7102  -4.6446  -4.5853  -4.5754  -4.5218
    -4.4772  -4.4692  -4.3992  -4.3876  -4.1381  -4.1296  -4.1258  -4.1186
    -4.0504  -4.0407  -4.0295  -3.9998  -3.9470  -3.9323  -3.8979  -3.8885
    -3.7792  -3.7693  -3.7391  -3.7285  -3.7133  -3.7071  -3.7048  -3.6698
    -3.5833  -3.5461  -3.5395  -3.5332  -3.3864  -3.3751  -3.3561  -3.3383
    -3.3062  -3.2239  -3.1524  -3.1387  -3.1379  -3.0774  -3.0576  -3.0380
    -3.0062  -3.0021  -2.9681  -2.9680  -2.9114  -2.9058  -2.8451  -2.8233
    -2.7047  -2.6541  -2.6485  -2.6355  -2.5503  -2.5452  -2.5300  -2.4906
    -2.2135  -2.1664  -2.1546  -2.0749  -1.9340  -1.9059  -1.8857  -1.8293
    -1.7631  -1.7369  -1.7135  -1.6978  -1.6648  -1.5986  -1.5528  -1.4859
    -1.3946  -1.3906  -1.3879  -1.3600  -0.3885  -0.3801  -0.2867  -0.2818
    -0.2554  -0.2211  -0.0838  -0.0828   0.0696   0.1014   0.1428   0.1487
     0.1653   0.1751   0.1835   0.2130   0.5939   0.6078   0.6232   0.6262
     1.3127   1.3294   1.4896   1.5296

          k = 0.0000 0.0000-0.4515 ( 29196 PWs)   bands (ev):

   -20.8256 -20.8254 -20.8244 -20.8241 -20.3131 -20.3130 -20.3108 -20.3107
   -19.1511 -19.1511 -19.1457 -19.1457 -17.9201 -17.9200 -17.9022 -17.9021
   -15.1371 -15.1370 -15.1310 -15.1309 -15.0755 -15.0754 -15.0627 -15.0626
   -13.6460 -13.6459 -13.6022 -13.6021 -12.9757 -12.9756 -12.9496 -12.9495
   -12.5753 -12.5752 -12.4924 -12.4923 -12.4010 -12.4010 -12.3922 -12.3922
   -12.1752 -12.1752 -12.1573 -12.1573 -11.7896 -11.7895 -11.7167 -11.7167
   -11.3897 -11.3897 -11.3415 -11.3414 -10.6225 -10.6224 -10.5988 -10.5988
    -9.4676  -9.4676  -9.4472  -9.4472  -9.0112  -9.0111  -8.9903  -8.9902
    -8.9105  -8.9105  -8.8130  -8.8129  -8.7972  -8.7971  -8.7451  -8.7450
    -8.0575  -8.0575  -7.9662  -7.9662  -7.4012  -7.4011  -7.3051  -7.3051
    -7.0020  -7.0020  -6.9944  -6.9944  -6.8790  -6.8790  -6.7789  -6.7789
    -6.6047  -6.6047  -6.5833  -6.5833  -6.1123  -6.1122  -6.0436  -6.0435
    -5.9119  -5.9118  -5.8757  -5.8756  -5.7051  -5.7051  -5.6000  -5.5999
    -5.5635  -5.5634  -5.5198  -5.5197  -5.2479  -5.2478  -5.1885  -5.1885
    -5.0308  -5.0308  -4.9535  -4.9535  -4.8801  -4.8800  -4.8278  -4.8277
    -4.8108  -4.8108  -4.7279  -4.7279  -4.6020  -4.6020  -4.5274  -4.5274
    -4.4869  -4.4868  -4.4115  -4.4115  -4.1344  -4.1343  -4.1221  -4.1220
    -4.0273  -4.0272  -4.0183  -4.0183  -3.9525  -3.9525  -3.8968  -3.8968
    -3.7705  -3.7705  -3.7259  -3.7259  -3.7168  -3.7167  -3.6875  -3.6874
    -3.5507  -3.5506  -3.5382  -3.5382  -3.4009  -3.4008  -3.3650  -3.3650
    -3.2746  -3.2745  -3.1543  -3.1543  -3.1027  -3.1027  -3.0339  -3.0339
    -3.0089  -3.0088  -2.9592  -2.9592  -2.8847  -2.8847  -2.8393  -2.8393
    -2.6770  -2.6770  -2.6500  -2.6500  -2.5502  -2.5502  -2.5090  -2.5090
    -2.1762  -2.1762  -2.1063  -2.1063  -1.9086  -1.9086  -1.8675  -1.8675
    -1.7492  -1.7491  -1.7055  -1.7055  -1.6389  -1.6388  -1.5234  -1.5234
    -1.3857  -1.3857  -1.3790  -1.3790  -0.3858  -0.3857  -0.2899  -0.2899
    -0.2392  -0.2392  -0.0840  -0.0839   0.0843   0.0844   0.1559   0.1559
     0.1621   0.1623   0.1901   0.1902   0.6063   0.6064   0.6310   0.6311
     1.3216   1.3217   1.5128   1.5128

          k = 0.0000 0.1254 0.0000 ( 29199 PWs)   bands (ev):

   -20.8257 -20.8251 -20.8245 -20.8242 -20.3132 -20.3125 -20.3123 -20.3097
   -19.1515 -19.1507 -19.1467 -19.1447 -17.9204 -17.9198 -17.9024 -17.9019
   -15.1340 -15.1286 -15.1190 -15.1100 -15.0891 -15.0889 -15.0753 -15.0721
   -13.6317 -13.6290 -13.6048 -13.6026 -13.0055 -12.9790 -12.9613 -12.9537
   -12.5748 -12.5744 -12.4911 -12.4903 -12.4183 -12.4112 -12.3674 -12.3643
   -12.1788 -12.1744 -12.1616 -12.1413 -11.7993 -11.7878 -11.7329 -11.7175
   -11.3791 -11.3593 -11.3505 -11.3444 -10.6585 -10.6503 -10.5914 -10.5736
    -9.5119  -9.4604  -9.4125  -9.4049  -9.0936  -9.0918  -8.9819  -8.9573
    -8.8914  -8.8436  -8.8345  -8.8121  -8.8019  -8.7871  -8.7376  -8.6960
    -8.0331  -8.0302  -7.9965  -7.9963  -7.3868  -7.3722  -7.3602  -7.3094
    -7.0377  -7.0327  -6.9656  -6.9430  -6.8648  -6.8381  -6.8344  -6.8206
    -6.6050  -6.5869  -6.5759  -6.5609  -6.1328  -6.0800  -6.0746  -6.0529
    -5.9386  -5.9235  -5.8898  -5.8678  -5.7121  -5.6538  -5.6419  -5.6346
    -5.5818  -5.5762  -5.5229  -5.4847  -5.2338  -5.2306  -5.2092  -5.1799
    -5.0034  -4.9939  -4.9803  -4.9463  -4.9289  -4.9054  -4.8582  -4.7836
    -4.7702  -4.7662  -4.7525  -4.7481  -4.6402  -4.6268  -4.5411  -4.5201
    -4.4370  -4.4267  -4.4073  -4.3886  -4.1697  -4.1116  -4.1052  -4.0967
    -4.0814  -4.0658  -4.0309  -4.0297  -3.9695  -3.9130  -3.8857  -3.8613
    -3.7742  -3.7634  -3.7411  -3.7350  -3.7266  -3.7247  -3.7018  -3.6977
    -3.5648  -3.5633  -3.5190  -3.5108  -3.3649  -3.3629  -3.2827  -3.2710
    -3.2248  -3.2200  -3.1537  -3.1504  -3.1024  -3.1010  -3.0879  -3.0557
    -3.0410  -3.0372  -2.9932  -2.9831  -2.9171  -2.8959  -2.8842  -2.8762
    -2.6842  -2.6737  -2.6373  -2.6103  -2.5641  -2.5282  -2.5175  -2.4876
    -2.2806  -2.2095  -2.1635  -2.0822  -1.9588  -1.9405  -1.8668  -1.8117
    -1.7673  -1.7374  -1.7164  -1.7055  -1.6503  -1.5681  -1.5458  -1.4399
    -1.4091  -1.4028  -1.3988  -1.3421  -0.3868  -0.3750  -0.2731  -0.2696
    -0.2428  -0.2193  -0.0829  -0.0820   0.0583   0.1110   0.1465   0.1487
     0.1554   0.1769   0.2199   0.2357   0.5735   0.5945   0.6016   0.6050
     1.3145   1.3189   1.4836   1.5231

          k = 0.0000 0.1254 0.1505 ( 29195 PWs)   bands (ev):

   -20.8257 -20.8252 -20.8245 -20.8242 -20.3131 -20.3127 -20.3120 -20.3099
   -19.1515 -19.1507 -19.1466 -19.1448 -17.9203 -17.9198 -17.9023 -17.9019
   -15.1352 -15.1302 -15.1244 -15.1160 -15.0873 -15.0794 -15.0744 -15.0688
   -13.6369 -13.6326 -13.6032 -13.6025 -12.9923 -12.9769 -12.9675 -12.9511
   -12.5753 -12.5743 -12.4916 -12.4902 -12.4176 -12.4088 -12.3710 -12.3682
   -12.1773 -12.1696 -12.1572 -12.1562 -11.7961 -11.7887 -11.7283 -11.7173
   -11.4035 -11.3680 -11.3434 -11.3237 -10.6335 -10.6217 -10.6171 -10.6003
    -9.4780  -9.4454  -9.4420  -9.4292  -9.0671  -9.0593  -8.9961  -8.9683
    -8.8945  -8.8587  -8.8300  -8.8156  -8.8084  -8.7904  -8.7444  -8.7066
    -8.0457  -8.0333  -7.9864  -7.9749  -7.3937  -7.3839  -7.3429  -7.3055
    -7.0450  -7.0199  -6.9769  -6.9439  -6.8803  -6.8452  -6.8142  -6.8094
    -6.5985  -6.5910  -6.5835  -6.5677  -6.1299  -6.0853  -6.0683  -6.0486
    -5.9494  -5.9055  -5.8860  -5.8768  -5.6930  -5.6615  -5.6284  -5.6272
    -5.5872  -5.5703  -5.5277  -5.4973  -5.2376  -5.2298  -5.2049  -5.1809
    -5.0320  -5.0070  -4.9686  -4.9498  -4.9075  -4.8810  -4.8426  -4.7924
    -4.7836  -4.7676  -4.7650  -4.7423  -4.6365  -4.6040  -4.5659  -4.5225
    -4.4620  -4.4365  -4.4090  -4.3903  -4.1574  -4.1199  -4.1067  -4.0953
    -4.0723  -4.0460  -4.0336  -4.0209  -3.9584  -3.9230  -3.8919  -3.8623
    -3.7776  -3.7616  -3.7496  -3.7329  -3.7244  -3.7140  -3.7027  -3.6852
    -3.5863  -3.5542  -3.5290  -3.5159  -3.3712  -3.3592  -3.3193  -3.2997
    -3.2695  -3.1986  -3.1612  -3.1386  -3.1225  -3.0882  -3.0630  -3.0470
    -3.0328  -3.0162  -2.9888  -2.9775  -2.9416  -2.8971  -2.8612  -2.8517
    -2.7014  -2.6605  -2.6370  -2.6179  -2.5539  -2.5356  -2.5290  -2.4855
    -2.2595  -2.1949  -2.1626  -2.0796  -1.9504  -1.9316  -1.8704  -1.8159
    -1.7662  -1.7365  -1.7177  -1.6998  -1.6571  -1.5736  -1.5517  -1.4558
    -1.4060  -1.3965  -1.3951  -1.3479  -0.3877  -0.3766  -0.2781  -0.2702
    -0.2534  -0.2161  -0.0827  -0.0817   0.0617   0.1082   0.1411   0.1471
     0.1639   0.1736   0.2075   0.2300   0.5800   0.6028   0.6047   0.6132
     1.3155   1.3213   1.4839   1.5266

          k = 0.0000 0.1254 0.3010 ( 29209 PWs)   bands (ev):

   -20.8256 -20.8253 -20.8245 -20.8242 -20.3131 -20.3128 -20.3115 -20.3103
   -19.1513 -19.1509 -19.1463 -19.1452 -17.9202 -17.9199 -17.9023 -17.9020
   -15.1370 -15.1344 -15.1301 -15.1257 -15.0795 -15.0757 -15.0669 -15.0642
   -13.6449 -13.6402 -13.6037 -13.6005 -12.9809 -12.9704 -12.9618 -12.9501
   -12.5761 -12.5740 -12.4932 -12.4900 -12.4132 -12.4029 -12.3829 -12.3795
   -12.1890 -12.1746 -12.1575 -12.1423 -11.7914 -11.7898 -11.7209 -11.7165
   -11.4233 -11.3803 -11.3394 -11.3079 -10.6474 -10.6273 -10.6018 -10.5822
    -9.4848  -9.4762  -9.4387  -9.4092  -9.0221  -9.0180  -9.0120  -8.9867
    -8.9045  -8.8868  -8.8303  -8.8137  -8.8088  -8.7890  -8.7531  -8.7241
    -8.0625  -8.0393  -7.9783  -7.9557  -7.4028  -7.3901  -7.3248  -7.2996
    -7.0418  -7.0069  -6.9922  -6.9566  -6.8916  -6.8505  -6.7976  -6.7820
    -6.6097  -6.5928  -6.5850  -6.5795  -6.1216  -6.0961  -6.0582  -6.0444
    -5.9481  -5.9045  -5.8685  -5.8646  -5.7073  -5.6664  -5.6154  -5.6070
    -5.5931  -5.5590  -5.5317  -5.5045  -5.2421  -5.2364  -5.1975  -5.1845
    -5.0526  -5.0149  -4.9796  -4.9174  -4.8976  -4.8662  -4.8278  -4.8192
    -4.8060  -4.7808  -4.7608  -4.7181  -4.6395  -4.5951  -4.5623  -4.5171
    -4.4887  -4.4702  -4.4042  -4.3981  -4.1380  -4.1283  -4.1227  -4.1075
    -4.0470  -4.0411  -4.0207  -3.9977  -3.9481  -3.9357  -3.9000  -3.8886
    -3.7773  -3.7651  -3.7408  -3.7279  -3.7166  -3.7089  -3.7020  -3.6742
    -3.5841  -3.5508  -3.5381  -3.5289  -3.3910  -3.3732  -3.3606  -3.3541
    -3.2839  -3.2165  -3.1647  -3.1432  -3.1311  -3.0865  -3.0524  -3.0397
    -3.0094  -2.9979  -2.9750  -2.9656  -2.9146  -2.8917  -2.8459  -2.8248
    -2.7024  -2.6588  -2.6479  -2.6366  -2.5494  -2.5442  -2.5265  -2.4916
    -2.2099  -2.1622  -2.1587  -2.0832  -1.9307  -1.9062  -1.8828  -1.8360
    -1.7596  -1.7390  -1.7137  -1.6914  -1.6643  -1.6045  -1.5455  -1.4879
    -1.3989  -1.3897  -1.3857  -1.3621  -0.3886  -0.3814  -0.2858  -0.2815
    -0.2534  -0.2234  -0.0834  -0.0819   0.0711   0.0982   0.1438   0.1500
     0.1658   0.1737   0.1858   0.2109   0.5953   0.6092   0.6202   0.6258
     1.3140   1.3284   1.4923   1.5269

          k = 0.0000 0.1254-0.4515 ( 29234 PWs)   bands (ev):

   -20.8256 -20.8253 -20.8245 -20.8242 -20.3131 -20.3129 -20.3109 -20.3108
   -19.1511 -19.1511 -19.1458 -19.1458 -17.9201 -17.9200 -17.9022 -17.9021
   -15.1372 -15.1371 -15.1309 -15.1308 -15.0754 -15.0754 -15.0627 -15.0627
   -13.6461 -13.6460 -13.6022 -13.6021 -12.9741 -12.9740 -12.9513 -12.9511
   -12.5752 -12.5752 -12.4924 -12.4924 -12.4006 -12.4005 -12.3927 -12.3927
   -12.1748 -12.1748 -12.1577 -12.1577 -11.7896 -11.7895 -11.7167 -11.7167
   -11.3867 -11.3866 -11.3446 -11.3445 -10.6216 -10.6215 -10.5996 -10.5996
    -9.4679  -9.4678  -9.4470  -9.4469  -9.0101  -9.0100  -8.9916  -8.9914
    -8.9080  -8.9080  -8.8230  -8.8230  -8.7896  -8.7895  -8.7451  -8.7450
    -8.0571  -8.0571  -7.9668  -7.9668  -7.4005  -7.4005  -7.3052  -7.3052
    -7.0056  -7.0056  -6.9928  -6.9927  -6.8767  -6.8767  -6.7805  -6.7804
    -6.6035  -6.6034  -6.5844  -6.5843  -6.1085  -6.1084  -6.0487  -6.0486
    -5.9099  -5.9098  -5.8767  -5.8766  -5.6978  -5.6978  -5.6016  -5.6015
    -5.5773  -5.5773  -5.5116  -5.5115  -5.2438  -5.2437  -5.1907  -5.1906
    -5.0288  -5.0288  -4.9621  -4.9621  -4.8753  -4.8753  -4.8262  -4.8261
    -4.8110  -4.8109  -4.7280  -4.7280  -4.5980  -4.5980  -4.5360  -4.5360
    -4.4871  -4.4871  -4.4156  -4.4155  -4.1309  -4.1308  -4.1176  -4.1176
    -4.0363  -4.0362  -3.9997  -3.9996  -3.9596  -3.9596  -3.8972  -3.8972
    -3.7671  -3.7670  -3.7260  -3.7260  -3.7172  -3.7171  -3.6901  -3.6901
    -3.5564  -3.5563  -3.5355  -3.5354  -3.4006  -3.4005  -3.3719  -3.3718
    -3.2620  -3.2620  -3.1601  -3.1601  -3.1063  -3.1063  -3.0391  -3.0390
    -3.0011  -3.0011  -2.9632  -2.9632  -2.8832  -2.8832  -2.8353  -2.8353
    -2.6769  -2.6769  -2.6523  -2.6523  -2.5496  -2.5496  -2.5077  -2.5077
    -2.1728  -2.1727  -2.1123  -2.1122  -1.9060  -1.9060  -1.8702  -1.8701
    -1.7480  -1.7479  -1.7012  -1.7012  -1.6427  -1.6427  -1.5220  -1.5220
    -1.3901  -1.3901  -1.3762  -1.3762  -0.3866  -0.3866  -0.2885  -0.2885
    -0.2401  -0.2401  -0.0833  -0.0832   0.0841   0.0842   0.1532   0.1533
     0.1659   0.1660   0.1886   0.1887   0.6078   0.6079   0.6292   0.6293
     1.3220   1.3220   1.5126   1.5126

          k = 0.0000 0.2507 0.0000 ( 29208 PWs)   bands (ev):

   -20.8255 -20.8249 -20.8248 -20.8244 -20.3131 -20.3127 -20.3117 -20.3102
   -19.1514 -19.1510 -19.1462 -19.1451 -17.9203 -17.9199 -17.9023 -17.9020
   -15.1334 -15.1306 -15.1161 -15.1112 -15.0895 -15.0894 -15.0744 -15.0726
   -13.6310 -13.6295 -13.6044 -13.6032 -13.0009 -12.9864 -12.9579 -12.9542
   -12.5747 -12.5745 -12.4907 -12.4902 -12.4173 -12.4132 -12.3664 -12.3647
   -12.1787 -12.1766 -12.1561 -12.1449 -11.7972 -11.7906 -11.7292 -11.7204
   -11.3733 -11.3569 -11.3558 -11.3470 -10.6569 -10.6522 -10.5877 -10.5774
    -9.5020  -9.4726  -9.4100  -9.4052  -9.0932  -9.0921  -8.9767  -8.9625
    -8.8799  -8.8468  -8.8390  -8.8171  -8.8056  -8.7916  -8.7227  -8.7010
    -8.0322  -8.0305  -7.9969  -7.9968  -7.3859  -7.3768  -7.3480  -7.3194
    -7.0360  -7.0327  -6.9618  -6.9484  -6.8602  -6.8454  -6.8299  -6.8214
    -6.6019  -6.5914  -6.5725  -6.5639  -6.1216  -6.0897  -6.0713  -6.0541
    -5.9336  -5.9253  -5.8850  -5.8720  -5.7134  -5.6846  -5.6389  -5.6251
    -5.5816  -5.5455  -5.5133  -5.5112  -5.2363  -5.2307  -5.1997  -5.1851
    -5.0081  -5.0031  -4.9658  -4.9386  -4.9222  -4.9057  -4.8582  -4.8088
    -4.7672  -4.7670  -4.7561  -4.7541  -4.6067  -4.6057  -4.5462  -4.5145
    -4.4737  -4.4600  -4.4108  -4.3987  -4.1583  -4.1266  -4.1021  -4.0945
    -4.0503  -4.0441  -4.0176  -4.0134  -3.9528  -3.9306  -3.8995  -3.8810
    -3.7820  -3.7736  -3.7316  -3.7283  -3.7253  -3.7202  -3.7071  -3.7026
    -3.5493  -3.5490  -3.5241  -3.5169  -3.3801  -3.3761  -3.2751  -3.2505
    -3.2463  -3.2202  -3.1674  -3.1440  -3.1257  -3.1081  -3.0553  -3.0498
    -3.0397  -3.0106  -2.9935  -2.9848  -2.9222  -2.9131  -2.8877  -2.8823
    -2.6836  -2.6786  -2.6294  -2.6149  -2.5559  -2.5350  -2.5078  -2.4899
    -2.2629  -2.2218  -2.1510  -2.1044  -1.9499  -1.9382  -1.8587  -1.8296
    -1.7622  -1.7513  -1.7230  -1.7096  -1.6211  -1.5731  -1.5250  -1.4604
    -1.4052  -1.4000  -1.3925  -1.3568  -0.3851  -0.3782  -0.2734  -0.2718
    -0.2362  -0.2231  -0.0811  -0.0805   0.0661   0.0944   0.1497   0.1543
     0.1594   0.1738   0.2224   0.2319   0.5760   0.5876   0.6031   0.6055
     1.3163   1.3191   1.4912   1.5141

          k = 0.0000 0.2507 0.1505 ( 29191 PWs)   bands (ev):

   -20.8254 -20.8250 -20.8248 -20.8244 -20.3130 -20.3127 -20.3116 -20.3103
   -19.1514 -19.1509 -19.1462 -19.1452 -17.9202 -17.9199 -17.9023 -17.9020
   -15.1346 -15.1322 -15.1217 -15.1173 -15.0862 -15.0820 -15.0724 -15.0696
   -13.6360 -13.6335 -13.6030 -13.6026 -12.9894 -12.9809 -12.9633 -12.9543
   -12.5751 -12.5745 -12.4912 -12.4904 -12.4161 -12.4111 -12.3700 -12.3685
   -12.1755 -12.1708 -12.1576 -12.1566 -11.7947 -11.7904 -11.7258 -11.7195
   -11.3960 -11.3755 -11.3391 -11.3278 -10.6309 -10.6237 -10.6141 -10.6040
    -9.4713  -9.4525  -9.4393  -9.4316  -9.0655  -9.0610  -8.9905  -8.9746
    -8.8837  -8.8593  -8.8352  -8.8263  -8.8060  -8.7950  -8.7310  -8.7111
    -8.0434  -8.0363  -7.9837  -7.9771  -7.3915  -7.3840  -7.3373  -7.3148
    -7.0396  -7.0250  -6.9700  -6.9510  -6.8739  -6.8546  -6.8114  -6.8088
    -6.5963  -6.5902  -6.5828  -6.5720  -6.1187  -6.0862  -6.0739  -6.0528
    -5.9375  -5.9119  -5.8841  -5.8786  -5.6992  -5.6762  -5.6256  -5.6161
    -5.5922  -5.5476  -5.5371  -5.5025  -5.2364  -5.2281  -5.2007  -5.1862
    -5.0320  -5.0152  -4.9521  -4.9350  -4.9178  -4.8962  -4.8330  -4.7936
    -4.7896  -4.7843  -4.7571  -4.7451  -4.6262  -4.5824  -4.5641  -4.5102
    -4.4875  -4.4438  -4.4364  -4.4073  -4.1481  -4.1271  -4.1011  -4.0863
    -4.0563  -4.0314  -4.0229  -4.0068  -3.9423  -3.9353  -3.9045  -3.8775
    -3.7809  -3.7706  -3.7401  -3.7302  -3.7247  -3.7106  -3.7034  -3.6943
    -3.5766  -3.5443  -3.5346  -3.5160  -3.3853  -3.3746  -3.3143  -3.2965
    -3.2529  -3.2231  -3.1582  -3.1280  -3.1236  -3.0932  -3.0588  -3.0509
    -3.0361  -3.0017  -2.9935  -2.9802  -2.9272  -2.8971  -2.8699  -2.8623
    -2.6939  -2.6716  -2.6313  -2.6215  -2.5496  -2.5388  -2.5161  -2.4904
    -2.2444  -2.2071  -2.1495  -2.1019  -1.9421  -1.9301  -1.8624  -1.8336
    -1.7610  -1.7474  -1.7199  -1.7039  -1.6319  -1.5861  -1.5270  -1.4711
    -1.4050  -1.3975  -1.3877  -1.3601  -0.3863  -0.3799  -0.2778  -0.2747
    -0.2425  -0.2223  -0.0814  -0.0804   0.0687   0.0939   0.1454   0.1535
     0.1632   0.1718   0.2117   0.2249   0.5833   0.5964   0.6066   0.6123
     1.3173   1.3208   1.4925   1.5173

          k = 0.0000 0.2507 0.3010 ( 29194 PWs)   bands (ev):

   -20.8254 -20.8251 -20.8247 -20.8244 -20.3129 -20.3127 -20.3115 -20.3107
   -19.1512 -19.1510 -19.1460 -19.1454 -17.9202 -17.9199 -17.9022 -17.9020
   -15.1368 -15.1355 -15.1286 -15.1263 -15.0787 -15.0765 -15.0663 -15.0647
   -13.6440 -13.6413 -13.6029 -13.6011 -12.9771 -12.9676 -12.9644 -12.9543
   -12.5756 -12.5744 -12.4926 -12.4908 -12.4112 -12.4054 -12.3820 -12.3801
   -12.1865 -12.1787 -12.1533 -12.1449 -11.7911 -11.7902 -11.7199 -11.7174
   -11.4143 -11.3896 -11.3326 -11.3145 -10.6435 -10.6322 -10.5969 -10.5858
    -9.4838  -9.4792  -9.4312  -9.4146  -9.0204  -9.0165  -9.0094  -8.9934
    -8.8969  -8.8847  -8.8386  -8.8272  -8.8009  -8.7909  -8.7426  -8.7274
    -8.0582  -8.0450  -7.9729  -7.9600  -7.3994  -7.3919  -7.3201  -7.3053
    -7.0361  -7.0163  -6.9856  -6.9664  -6.8795  -6.8561  -6.7957  -6.7859
    -6.6040  -6.5901  -6.5898  -6.5824  -6.1107  -6.0884  -6.0710  -6.0538
    -5.9361  -5.9113  -5.8671  -5.8649  -5.6979  -5.6562  -5.6312  -5.6058
    -5.5984  -5.5766  -5.5188  -5.5004  -5.2362  -5.2286  -5.2005  -5.1901
    -5.0473  -5.0164  -4.9810  -4.9344  -4.8911  -4.8730  -4.8254  -4.8202
    -4.7901  -4.7719  -4.7625  -4.7350  -4.6294  -4.6064  -4.5459  -4.5132
    -4.5010  -4.4666  -4.4253  -4.4181  -4.1359  -4.1308  -4.1086  -4.0898
    -4.0459  -4.0306  -4.0107  -3.9941  -3.9523  -3.9357  -3.9044  -3.8914
    -3.7730  -3.7595  -3.7419  -3.7277  -3.7199  -3.7111  -3.6996  -3.6838
    -3.5824  -3.5629  -3.5311  -3.5252  -3.3980  -3.3830  -3.3677  -3.3590
    -3.2540  -3.2099  -3.1743  -3.1420  -3.1317  -3.1061  -3.0466  -3.0400
    -3.0179  -2.9923  -2.9842  -2.9648  -2.9039  -2.8810  -2.8453  -2.8296
    -2.6949  -2.6695  -2.6466  -2.6397  -2.5470  -2.5436  -2.5166  -2.4960
    -2.1996  -2.1700  -2.1493  -2.1038  -1.9229  -1.9084  -1.8748  -1.8498
    -1.7544  -1.7433  -1.7085  -1.6889  -1.6550  -1.6183  -1.5289  -1.4956
    -1.4017  -1.3942  -1.3795  -1.3672  -0.3885  -0.3843  -0.2840  -0.2815
    -0.2473  -0.2299  -0.0821  -0.0807   0.0755   0.0908   0.1464   0.1512
     0.1670   0.1712   0.1910   0.2055   0.5994   0.6127   0.6138   0.6229
     1.3174   1.3257   1.4996   1.5196

          k = 0.0000 0.2507-0.4515 ( 29208 PWs)   bands (ev):

   -20.8253 -20.8251 -20.8247 -20.8244 -20.3128 -20.3126 -20.3112 -20.3110
   -19.1511 -19.1511 -19.1458 -19.1458 -17.9201 -17.9200 -17.9022 -17.9021
   -15.1374 -15.1373 -15.1307 -15.1306 -15.0753 -15.0752 -15.0629 -15.0628
   -13.6461 -13.6461 -13.6021 -13.6020 -12.9698 -12.9697 -12.9556 -12.9555
   -12.5751 -12.5751 -12.4924 -12.4924 -12.3994 -12.3994 -12.3941 -12.3941
   -12.1739 -12.1739 -12.1584 -12.1584 -11.7896 -11.7895 -11.7168 -11.7167
   -11.3785 -11.3784 -11.3529 -11.3529 -10.6195 -10.6194 -10.6015 -10.6014
    -9.4683  -9.4683  -9.4464  -9.4464  -9.0073  -9.0072  -8.9947  -8.9946
    -8.9023  -8.9022  -8.8367  -8.8366  -8.7814  -8.7813  -8.7450  -8.7449
    -8.0563  -8.0563  -7.9678  -7.9678  -7.3991  -7.3991  -7.3053  -7.3053
    -7.0107  -7.0107  -6.9912  -6.9912  -6.8719  -6.8719  -6.7837  -6.7837
    -6.6004  -6.6003  -6.5870  -6.5869  -6.0982  -6.0981  -6.0612  -6.0611
    -5.9057  -5.9056  -5.8788  -5.8788  -5.6778  -5.6778  -5.6152  -5.6152
    -5.5937  -5.5936  -5.5010  -5.5010  -5.2339  -5.2338  -5.1965  -5.1965
    -5.0230  -5.0230  -4.9789  -4.9789  -4.8679  -4.8678  -4.8220  -4.8219
    -4.8126  -4.8126  -4.7278  -4.7277  -4.5874  -4.5874  -4.5534  -4.5534
    -4.4894  -4.4894  -4.4239  -4.4239  -4.1236  -4.1235  -4.1103  -4.1102
    -4.0346  -4.0345  -3.9882  -3.9882  -3.9621  -3.9620  -3.9025  -3.9025
    -3.7587  -3.7587  -3.7286  -3.7286  -3.7149  -3.7149  -3.6971  -3.6971
    -3.5638  -3.5637  -3.5340  -3.5339  -3.3988  -3.3987  -3.3839  -3.3838
    -3.2356  -3.2356  -3.1760  -3.1760  -3.1101  -3.1100  -3.0483  -3.0482
    -2.9936  -2.9936  -2.9656  -2.9656  -2.8822  -2.8821  -2.8268  -2.8268
    -2.6754  -2.6754  -2.6583  -2.6583  -2.5484  -2.5483  -2.5050  -2.5050
    -2.1624  -2.1624  -2.1274  -2.1274  -1.8999  -1.8998  -1.8761  -1.8760
    -1.7460  -1.7460  -1.6900  -1.6900  -1.6527  -1.6527  -1.5191  -1.5190
    -1.3960  -1.3960  -1.3734  -1.3734  -0.3883  -0.3882  -0.2856  -0.2856
    -0.2421  -0.2420  -0.0817  -0.0816   0.0838   0.0839   0.1505   0.1506
     0.1721   0.1722   0.1847   0.1848   0.6119   0.6120   0.6244   0.6245
     1.3226   1.3227   1.5122   1.5122

          k = 0.0000-0.3761 0.0000 ( 29204 PWs)   bands (ev):

   -20.8252 -20.8251 -20.8247 -20.8245 -20.3130 -20.3129 -20.3110 -20.3108
   -19.1512 -19.1512 -19.1457 -19.1456 -17.9202 -17.9200 -17.9022 -17.9020
   -15.1323 -15.1322 -15.1133 -15.1132 -15.0897 -15.0897 -15.0734 -15.0734
   -13.6302 -13.6301 -13.6039 -13.6038 -12.9942 -12.9942 -12.9555 -12.9555
   -12.5747 -12.5746 -12.4904 -12.4904 -12.4155 -12.4155 -12.3654 -12.3654
   -12.1781 -12.1780 -12.1502 -12.1501 -11.7941 -11.7940 -11.7247 -11.7246
   -11.3652 -11.3652 -11.3513 -11.3512 -10.6546 -10.6546 -10.5826 -10.5826
    -9.4878  -9.4878  -9.4071  -9.4071  -9.0927  -9.0926  -8.9696  -8.9696
    -8.8637  -8.8637  -8.8301  -8.8301  -8.7980  -8.7980  -8.7099  -8.7099
    -8.0313  -8.0312  -7.9970  -7.9970  -7.3821  -7.3821  -7.3333  -7.3333
    -7.0340  -7.0340  -6.9555  -6.9555  -6.8534  -6.8534  -6.8249  -6.8249
    -6.5970  -6.5970  -6.5681  -6.5681  -6.1062  -6.1062  -6.0612  -6.0612
    -5.9288  -5.9287  -5.8784  -5.8783  -5.7052  -5.7051  -5.6320  -5.6320
    -5.5540  -5.5539  -5.5170  -5.5170  -5.2340  -5.2340  -5.1914  -5.1914
    -5.0080  -5.0080  -4.9515  -4.9515  -4.9082  -4.9082  -4.8404  -4.8404
    -4.7657  -4.7657  -4.7580  -4.7579  -4.5850  -4.5850  -4.5415  -4.5415
    -4.4793  -4.4793  -4.4089  -4.4089  -4.1428  -4.1428  -4.0966  -4.0965
    -4.0364  -4.0364  -4.0078  -4.0078  -3.9339  -3.9338  -3.9063  -3.9063
    -3.7817  -3.7817  -3.7269  -3.7269  -3.7189  -3.7189  -3.7096  -3.7096
    -3.5362  -3.5361  -3.5286  -3.5285  -3.3841  -3.3841  -3.2667  -3.2667
    -3.2291  -3.2291  -3.1566  -3.1566  -3.1243  -3.1243  -3.0457  -3.0456
    -3.0149  -3.0149  -2.9900  -2.9900  -2.9243  -2.9243  -2.8874  -2.8873
    -2.6820  -2.6820  -2.6215  -2.6215  -2.5452  -2.5451  -2.4970  -2.4970
    -2.2410  -2.2410  -2.1300  -2.1300  -1.9413  -1.9412  -1.8462  -1.8462
    -1.7596  -1.7596  -1.7178  -1.7177  -1.5937  -1.5937  -1.4911  -1.4911
    -1.4023  -1.4022  -1.3755  -1.3755  -0.3820  -0.3820  -0.2732  -0.2732
    -0.2291  -0.2290  -0.0800  -0.0799   0.0786   0.0786   0.1523   0.1523
     0.1681   0.1681   0.2268   0.2268   0.5808   0.5808   0.6046   0.6046
     1.3182   1.3182   1.5024   1.5024

          k = 0.0000-0.3761 0.1505 ( 29210 PWs)   bands (ev):

   -20.8252 -20.8251 -20.8248 -20.8246 -20.3129 -20.3128 -20.3111 -20.3109
   -19.1512 -19.1512 -19.1457 -19.1457 -17.9202 -17.9200 -17.9022 -17.9020
   -15.1337 -15.1336 -15.1192 -15.1191 -15.0843 -15.0843 -15.0708 -15.0708
   -13.6348 -13.6347 -13.6029 -13.6028 -12.9853 -12.9853 -12.9587 -12.9586
   -12.5748 -12.5748 -12.4908 -12.4907 -12.4138 -12.4138 -12.3691 -12.3691
   -12.1730 -12.1730 -12.1573 -12.1573 -11.7927 -11.7926 -11.7226 -11.7225
   -11.3858 -11.3858 -11.3334 -11.3334 -10.6273 -10.6273 -10.6092 -10.6091
    -9.4620  -9.4620  -9.4353  -9.4353  -9.0632  -9.0632  -8.9827  -8.9827
    -8.8694  -8.8694  -8.8344  -8.8344  -8.8005  -8.8005  -8.7193  -8.7193
    -8.0400  -8.0400  -7.9803  -7.9803  -7.3874  -7.3874  -7.3267  -7.3267
    -7.0323  -7.0322  -6.9605  -6.9605  -6.8649  -6.8649  -6.8094  -6.8094
    -6.5931  -6.5930  -6.5777  -6.5777  -6.1029  -6.1028  -6.0627  -6.0627
    -5.9234  -5.9234  -5.8813  -5.8812  -5.6933  -5.6932  -5.6178  -5.6177
    -5.5732  -5.5732  -5.5150  -5.5150  -5.2320  -5.2320  -5.1932  -5.1932
    -5.0257  -5.0257  -4.9330  -4.9330  -4.9161  -4.9161  -4.8143  -4.8143
    -4.7892  -4.7891  -4.7504  -4.7504  -4.6026  -4.6026  -4.5310  -4.5309
    -4.4755  -4.4755  -4.4269  -4.4269  -4.1371  -4.1371  -4.0924  -4.0924
    -4.0361  -4.0360  -4.0075  -4.0074  -3.9347  -3.9346  -3.9005  -3.9005
    -3.7792  -3.7792  -3.7330  -3.7329  -3.7160  -3.7160  -3.7013  -3.7013
    -3.5599  -3.5598  -3.5223  -3.5223  -3.3867  -3.3867  -3.3041  -3.3041
    -3.2392  -3.2391  -3.1462  -3.1462  -3.1050  -3.1050  -3.0546  -3.0546
    -3.0208  -3.0208  -2.9837  -2.9836  -2.9084  -2.9084  -2.8710  -2.8710
    -2.6834  -2.6834  -2.6262  -2.6261  -2.5439  -2.5439  -2.5014  -2.5014
    -2.2250  -2.2249  -2.1280  -2.1279  -1.9337  -1.9337  -1.8500  -1.8500
    -1.7563  -1.7563  -1.7126  -1.7126  -1.6064  -1.6064  -1.4970  -1.4970
    -1.4012  -1.4012  -1.3750  -1.3749  -0.3836  -0.3835  -0.2769  -0.2769
    -0.2317  -0.2316  -0.0803  -0.0802   0.0798   0.0799   0.1508   0.1508
     0.1678   0.1678   0.2180   0.2180   0.5889   0.5890   0.6097   0.6097
     1.3193   1.3193   1.5047   1.5047

          k = 0.0000-0.3761 0.3010 ( 29236 PWs)   bands (ev):

   -20.8251 -20.8250 -20.8248 -20.8246 -20.3128 -20.3126 -20.3113 -20.3111
   -19.1511 -19.1511 -19.1457 -19.1457 -17.9201 -17.9200 -17.9022 -17.9021
   -15.1364 -15.1362 -15.1273 -15.1272 -15.0777 -15.0776 -15.0656 -15.0655
   -13.6427 -13.6427 -13.6020 -13.6019 -12.9719 -12.9718 -12.9599 -12.9598
   -12.5750 -12.5750 -12.4917 -12.4917 -12.4084 -12.4084 -12.3810 -12.3810
   -12.1829 -12.1829 -12.1488 -12.1487 -11.7907 -11.7906 -11.7187 -11.7186
   -11.4020 -11.4020 -11.3236 -11.3235 -10.6380 -10.6380 -10.5911 -10.5911
    -9.4820  -9.4820  -9.4225  -9.4224  -9.0182  -9.0181  -9.0020  -9.0019
    -8.8883  -8.8882  -8.8379  -8.8378  -8.7949  -8.7949  -8.7335  -8.7335
    -8.0519  -8.0519  -7.9662  -7.9662  -7.3953  -7.3953  -7.3130  -7.3129
    -7.0270  -7.0270  -6.9768  -6.9767  -6.8664  -6.8664  -6.7913  -6.7912
    -6.5967  -6.5967  -6.5863  -6.5863  -6.0958  -6.0958  -6.0671  -6.0671
    -5.9226  -5.9225  -5.8658  -5.8657  -5.6779  -5.6778  -5.6138  -5.6138
    -5.5958  -5.5958  -5.5056  -5.5056  -5.2287  -5.2287  -5.1977  -5.1976
    -5.0341  -5.0341  -4.9596  -4.9596  -4.8809  -4.8809  -4.8235  -4.8234
    -4.7752  -4.7751  -4.7528  -4.7527  -4.6181  -4.6181  -4.5323  -4.5322
    -4.4750  -4.4749  -4.4356  -4.4356  -4.1333  -4.1332  -4.0935  -4.0935
    -4.0305  -4.0305  -4.0048  -4.0048  -3.9421  -3.9421  -3.9000  -3.8999
    -3.7658  -3.7658  -3.7336  -3.7336  -3.7167  -3.7167  -3.6934  -3.6933
    -3.5749  -3.5748  -3.5259  -3.5258  -3.3966  -3.3966  -3.3632  -3.3632
    -3.2284  -3.2283  -3.1559  -3.1559  -3.1230  -3.1229  -3.0440  -3.0439
    -3.0102  -3.0102  -2.9715  -2.9715  -2.8880  -2.8880  -2.8378  -2.8378
    -2.6828  -2.6828  -2.6437  -2.6437  -2.5447  -2.5447  -2.5050  -2.5050
    -2.1851  -2.1851  -2.1285  -2.1284  -1.9144  -1.9143  -1.8636  -1.8636
    -1.7491  -1.7491  -1.6978  -1.6978  -1.6365  -1.6364  -1.5103  -1.5103
    -1.3995  -1.3995  -1.3734  -1.3734  -0.3871  -0.3871  -0.2824  -0.2824
    -0.2387  -0.2387  -0.0808  -0.0807   0.0824   0.0825   0.1495   0.1495
     0.1688   0.1689   0.1981   0.1981   0.6058   0.6058   0.6180   0.6181
     1.3217   1.3217   1.5096   1.5096

          k = 0.0000-0.3761-0.4515 ( 29216 PWs)   bands (ev):

   -20.8251 -20.8250 -20.8248 -20.8246 -20.3127 -20.3124 -20.3114 -20.3112
   -19.1511 -19.1511 -19.1458 -19.1458 -17.9201 -17.9200 -17.9022 -17.9021
   -15.1375 -15.1374 -15.1306 -15.1305 -15.0752 -15.0751 -15.0630 -15.0629
   -13.6462 -13.6461 -13.6021 -13.6020 -12.9660 -12.9659 -12.9595 -12.9594
   -12.5751 -12.5750 -12.4925 -12.4924 -12.3985 -12.3985 -12.3951 -12.3950
   -12.1734 -12.1734 -12.1589 -12.1589 -11.7896 -11.7895 -11.7168 -11.7167
   -11.3707 -11.3706 -11.3608 -11.3608 -10.6182 -10.6182 -10.6026 -10.6025
    -9.4686  -9.4685  -9.4462  -9.4462  -9.0052  -9.0052  -8.9969  -8.9969
    -8.8988  -8.8988  -8.8431  -8.8430  -8.7784  -8.7784  -8.7450  -8.7449
    -8.0559  -8.0559  -7.9683  -7.9683  -7.3984  -7.3984  -7.3054  -7.3054
    -7.0129  -7.0129  -6.9908  -6.9908  -6.8695  -6.8695  -6.7854  -6.7854
    -6.5982  -6.5982  -6.5889  -6.5889  -6.0887  -6.0887  -6.0717  -6.0717
    -5.9035  -5.9034  -5.8801  -5.8801  -5.6563  -5.6562  -5.6382  -5.6382
    -5.5960  -5.5960  -5.4971  -5.4971  -5.2271  -5.2271  -5.2012  -5.2012
    -5.0184  -5.0183  -4.9885  -4.9884  -4.8648  -4.8647  -4.8175  -4.8174
    -4.8160  -4.8160  -4.7275  -4.7274  -4.5771  -4.5771  -4.5660  -4.5660
    -4.4914  -4.4914  -4.4282  -4.4282  -4.1193  -4.1192  -4.1086  -4.1085
    -4.0249  -4.0249  -4.0003  -4.0003  -3.9488  -3.9487  -3.9096  -3.9096
    -3.7529  -3.7528  -3.7326  -3.7326  -3.7085  -3.7084  -3.7050  -3.7049
    -3.5666  -3.5665  -3.5341  -3.5340  -3.3947  -3.3947  -3.3922  -3.3921
    -3.2165  -3.2165  -3.1906  -3.1906  -3.1107  -3.1106  -3.0531  -3.0531
    -2.9937  -2.9937  -2.9634  -2.9634  -2.8824  -2.8823  -2.8226  -2.8226
    -2.6731  -2.6730  -2.6629  -2.6629  -2.5478  -2.5477  -2.5037  -2.5037
    -2.1475  -2.1475  -2.1447  -2.1447  -1.8957  -1.8956  -1.8801  -1.8800
    -1.7452  -1.7452  -1.6807  -1.6806  -1.6614  -1.6614  -1.5176  -1.5175
    -1.3986  -1.3986  -1.3725  -1.3725  -0.3891  -0.3890  -0.2842  -0.2841
    -0.2431  -0.2430  -0.0810  -0.0809   0.0837   0.0838   0.1494   0.1495
     0.1770   0.1770   0.1805   0.1805   0.6177   0.6177   0.6183   0.6184
     1.3229   1.3230   1.5120   1.5120

          k = 0.1667 0.0000 0.0830 ( 29209 PWs)   bands (ev):

   -20.8257 -20.8253 -20.8244 -20.8241 -20.3137 -20.3124 -20.3119 -20.3097
   -19.1518 -19.1504 -19.1468 -19.1447 -17.9204 -17.9197 -17.9024 -17.9019
   -15.1367 -15.1284 -15.1256 -15.1143 -15.0867 -15.0807 -15.0737 -15.0701
   -13.6365 -13.6277 -13.6074 -13.6037 -12.9951 -12.9744 -12.9675 -12.9498
   -12.5772 -12.5744 -12.4904 -12.4899 -12.4191 -12.4120 -12.3683 -12.3648
   -12.1753 -12.1701 -12.1673 -12.1471 -11.7987 -11.7875 -11.7302 -11.7159
   -11.3906 -11.3619 -11.3518 -11.3366 -10.6434 -10.6334 -10.6068 -10.5857
    -9.4979  -9.4453  -9.4339  -9.4185  -9.0871  -9.0791  -8.9831  -8.9581
    -8.8965  -8.8476  -8.8388  -8.8121  -8.8035  -8.7825  -8.7408  -8.7050
    -8.0326  -8.0293  -7.9975  -7.9864  -7.3777  -7.3721  -7.3647  -7.2988
    -7.0438  -7.0298  -6.9656  -6.9464  -6.8613  -6.8450  -6.8270  -6.8210
    -6.6042  -6.5899  -6.5816  -6.5671  -6.1256  -6.0971  -6.0547  -6.0539
    -5.9482  -5.9236  -5.8851  -5.8768  -5.6963  -5.6811  -5.6397  -5.6067
    -5.5788  -5.5534  -5.5329  -5.5005  -5.2385  -5.2313  -5.2016  -5.1817
    -5.0624  -5.0114  -4.9711  -4.9397  -4.9320  -4.8955  -4.8131  -4.7875
    -4.7842  -4.7817  -4.7629  -4.7265  -4.6411  -4.6186  -4.5382  -4.5157
    -4.4467  -4.4369  -4.3978  -4.3840  -4.1658  -4.1168  -4.0963  -4.0853
    -4.0738  -4.0428  -4.0413  -4.0136  -3.9388  -3.9245  -3.9002  -3.8645
    -3.8028  -3.7755  -3.7404  -3.7398  -3.7275  -3.7153  -3.7090  -3.6898
    -3.5771  -3.5576  -3.5204  -3.5184  -3.3754  -3.3729  -3.3297  -3.2951
    -3.2581  -3.1777  -3.1375  -3.1346  -3.1207  -3.0918  -3.0609  -3.0430
    -3.0315  -3.0083  -3.0007  -2.9811  -2.9338  -2.8825  -2.8654  -2.8621
    -2.6857  -2.6733  -2.6430  -2.6238  -2.5716  -2.5290  -2.5247  -2.4873
    -2.3039  -2.2303  -2.1444  -2.0573  -1.9591  -1.9289  -1.8617  -1.8004
    -1.7780  -1.7364  -1.7174  -1.6983  -1.6579  -1.5701  -1.5622  -1.4428
    -1.4092  -1.4008  -1.3871  -1.3445  -0.3831  -0.3785  -0.2797  -0.2623
    -0.2582  -0.2129  -0.0886  -0.0806   0.0580   0.1176   0.1341   0.1390
     0.1662   0.1788   0.2167   0.2331   0.5690   0.5960   0.6040   0.6183
     1.3167   1.3195   1.4785   1.5299

          k = 0.1667 0.0000 0.2335 ( 29176 PWs)   bands (ev):

   -20.8257 -20.8254 -20.8244 -20.8241 -20.3139 -20.3122 -20.3116 -20.3099
   -19.1519 -19.1503 -19.1466 -19.1449 -17.9203 -17.9198 -17.9024 -17.9019
   -15.1398 -15.1330 -15.1311 -15.1229 -15.0804 -15.0721 -15.0697 -15.0646
   -13.6454 -13.6308 -13.6121 -13.6009 -12.9870 -12.9698 -12.9580 -12.9483
   -12.5788 -12.5750 -12.4944 -12.4859 -12.4183 -12.4127 -12.3724 -12.3683
   -12.1879 -12.1690 -12.1623 -12.1484 -11.7940 -11.7886 -11.7226 -11.7157
   -11.4211 -11.3727 -11.3463 -11.3105 -10.6444 -10.6222 -10.6060 -10.5891
    -9.4804  -9.4621  -9.4477  -9.4136  -9.0512  -9.0422  -9.0002  -8.9643
    -8.9147  -8.8503  -8.8374  -8.8287  -8.8170  -8.7867  -8.7452  -8.7175
    -8.0428  -8.0283  -7.9777  -7.9739  -7.3909  -7.3713  -7.3511  -7.2888
    -7.0528  -7.0121  -6.9792  -6.9495  -6.8768  -6.8489  -6.8094  -6.8017
    -6.6128  -6.5971  -6.5794  -6.5793  -6.1138  -6.1128  -6.0512  -6.0437
    -5.9620  -5.9012  -5.8922  -5.8660  -5.7043  -5.6794  -5.6272  -5.5811
    -5.5669  -5.5596  -5.5314  -5.5286  -5.2474  -5.2352  -5.1895  -5.1868
    -5.0949  -5.0091  -4.9528  -4.9488  -4.9296  -4.8882  -4.8307  -4.8108
    -4.8032  -4.7877  -4.7457  -4.6996  -4.5974  -4.5816  -4.5719  -4.5164
    -4.4751  -4.4638  -4.4038  -4.3706  -4.1456  -4.1157  -4.1038  -4.0871
    -4.0507  -4.0355  -4.0125  -4.0094  -3.9449  -3.9269  -3.9163  -3.8782
    -3.8089  -3.7775  -3.7471  -3.7332  -3.7280  -3.7180  -3.7005  -3.6734
    -3.5865  -3.5436  -3.5363  -3.5266  -3.3959  -3.3823  -3.3615  -3.3328
    -3.3143  -3.1718  -3.1706  -3.1329  -3.1061  -3.0638  -3.0476  -3.0336
    -3.0233  -2.9955  -2.9652  -2.9644  -2.9226  -2.8925  -2.8478  -2.8249
    -2.6927  -2.6673  -2.6566  -2.6407  -2.5622  -2.5445  -2.5407  -2.4847
    -2.2871  -2.2294  -2.1226  -2.0425  -1.9490  -1.9303  -1.8610  -1.8011
    -1.7693  -1.7372  -1.7138  -1.7097  -1.6549  -1.5859  -1.5650  -1.4680
    -1.3999  -1.3924  -1.3759  -1.3590  -0.3929  -0.3724  -0.2834  -0.2728
    -0.2588  -0.2156  -0.0931  -0.0793   0.0630   0.1091   0.1303   0.1394
     0.1717   0.1766   0.2032   0.2201   0.5750   0.6025   0.6148   0.6346
     1.3169   1.3279   1.4778   1.5373

          k = 0.1667 0.0000 0.3840 ( 29207 PWs)   bands (ev):

   -20.8256 -20.8254 -20.8244 -20.8241 -20.3139 -20.3122 -20.3111 -20.3105
   -19.1518 -19.1504 -19.1461 -19.1454 -17.9202 -17.9199 -17.9023 -17.9020
   -15.1395 -15.1357 -15.1318 -15.1285 -15.0771 -15.0727 -15.0645 -15.0625
   -13.6502 -13.6380 -13.6096 -13.5984 -12.9856 -12.9656 -12.9497 -12.9492
   -12.5773 -12.5758 -12.4960 -12.4847 -12.4139 -12.4058 -12.3855 -12.3794
   -12.1815 -12.1693 -12.1621 -12.1540 -11.7918 -11.7886 -11.7174 -11.7159
   -11.4026 -11.3762 -11.3533 -11.3297 -10.6347 -10.6114 -10.6102 -10.5890
    -9.4805  -9.4549  -9.4534  -9.4368  -9.0331  -9.0178  -8.9956  -8.9682
    -8.9280  -8.8728  -8.8261  -8.8215  -8.8010  -8.7975  -8.7461  -8.7316
    -8.0535  -8.0479  -7.9768  -7.9610  -7.4114  -7.3756  -7.3291  -7.2864
    -7.0219  -7.0078  -6.9846  -6.9818  -6.8758  -6.8708  -6.7873  -6.7857
    -6.6131  -6.6019  -6.5869  -6.5807  -6.1232  -6.0961  -6.0516  -6.0355
    -5.9343  -5.9027  -5.8867  -5.8712  -5.6978  -5.6940  -5.6131  -5.5953
    -5.5770  -5.5587  -5.5317  -5.5038  -5.2553  -5.2402  -5.1958  -5.1822
    -5.0711  -4.9963  -4.9680  -4.9412  -4.9134  -4.8753  -4.8729  -4.8220
    -4.8189  -4.7763  -4.7581  -4.6537  -4.6073  -4.5913  -4.5351  -4.5219
    -4.4902  -4.4811  -4.4390  -4.3890  -4.1312  -4.1231  -4.1098  -4.0981
    -4.0314  -4.0241  -4.0177  -4.0157  -3.9514  -3.9423  -3.9236  -3.8850
    -3.7873  -3.7613  -3.7461  -3.7354  -3.7196  -3.7042  -3.7011  -3.6843
    -3.5606  -3.5514  -3.5365  -3.5268  -3.4083  -3.4029  -3.3814  -3.3472
    -3.3110  -3.2128  -3.1814  -3.1235  -3.1080  -3.0824  -3.0417  -3.0382
    -3.0276  -2.9952  -2.9555  -2.9406  -2.8884  -2.8824  -2.8400  -2.8355
    -2.6850  -2.6719  -2.6572  -2.6486  -2.5511  -2.5495  -2.5381  -2.4912
    -2.2478  -2.1984  -2.1148  -2.0439  -1.9203  -1.9181  -1.8701  -1.8319
    -1.7594  -1.7326  -1.7223  -1.6973  -1.6530  -1.6247  -1.5441  -1.4979
    -1.3976  -1.3859  -1.3773  -1.3659  -0.4009  -0.3699  -0.2909  -0.2825
    -0.2457  -0.2326  -0.0928  -0.0783   0.0736   0.0950   0.1421   0.1442
     0.1705   0.1830   0.1864   0.1995   0.5870   0.6098   0.6201   0.6439
     1.3209   1.3235   1.4941   1.5283

          k = 0.1667 0.0000-0.3684 ( 29233 PWs)   bands (ev):

   -20.8257 -20.8253 -20.8244 -20.8242 -20.3136 -20.3123 -20.3112 -20.3105
   -19.1515 -19.1507 -19.1460 -19.1456 -17.9202 -17.9200 -17.9022 -17.9021
   -15.1352 -15.1339 -15.1293 -15.1278 -15.0784 -15.0776 -15.0659 -15.0654
   -13.6467 -13.6420 -13.6030 -13.5978 -12.9774 -12.9768 -12.9586 -12.9491
   -12.5763 -12.5734 -12.4944 -12.4865 -12.4017 -12.3992 -12.3940 -12.3912
   -12.1872 -12.1728 -12.1608 -12.1392 -11.7924 -11.7894 -11.7190 -11.7166
   -11.4217 -11.3721 -11.3497 -11.3109 -10.6459 -10.6226 -10.6055 -10.5797
    -9.4876  -9.4764  -9.4443  -9.4093  -9.0400  -9.0142  -8.9965  -8.9784
    -8.9174  -8.8798  -8.8233  -8.8188  -8.7902  -8.7819  -8.7567  -8.7372
    -8.0771  -8.0405  -7.9893  -7.9442  -7.4249  -7.3776  -7.3109  -7.3026
    -7.0265  -7.0115  -6.9969  -6.9640  -6.9018  -6.8458  -6.7940  -6.7746
    -6.6127  -6.5980  -6.5874  -6.5789  -6.1286  -6.0827  -6.0555  -6.0315
    -5.9454  -5.8988  -5.8860  -5.8527  -5.7040  -5.6559  -5.6229  -5.6168
    -5.5879  -5.5795  -5.5182  -5.4924  -5.2489  -5.2392  -5.2033  -5.1800
    -5.0335  -4.9994  -4.9930  -4.9309  -4.8735  -4.8642  -4.8320  -4.8273
    -4.8044  -4.7964  -4.7367  -4.7109  -4.6807  -4.5790  -4.5649  -4.5093
    -4.4998  -4.4756  -4.4383  -4.3991  -4.1315  -4.1249  -4.1245  -4.1063
    -4.0634  -4.0373  -4.0106  -3.9928  -3.9564  -3.9202  -3.9063  -3.9003
    -3.7666  -3.7644  -3.7460  -3.7225  -3.7111  -3.7092  -3.7060  -3.6765
    -3.5716  -3.5516  -3.5412  -3.5288  -3.3977  -3.3973  -3.3574  -3.3351
    -3.2581  -3.2486  -3.1692  -3.1432  -3.1251  -3.1026  -3.0467  -3.0359
    -3.0236  -2.9911  -2.9851  -2.9634  -2.8907  -2.8843  -2.8493  -2.8348
    -2.7061  -2.6504  -2.6490  -2.6361  -2.5458  -2.5443  -2.5163  -2.5060
    -2.2242  -2.1397  -2.1376  -2.0825  -1.8963  -1.8940  -1.8844  -1.8653
    -1.7523  -1.7459  -1.7096  -1.6927  -1.6601  -1.6326  -1.5259  -1.5077
    -1.4056  -1.3873  -1.3869  -1.3571  -0.4039  -0.3677  -0.2900  -0.2859
    -0.2492  -0.2306  -0.0880  -0.0764   0.0797   0.0894   0.1523   0.1615
     0.1629   0.1655   0.1865   0.2029   0.5949   0.6112   0.6118   0.6392
     1.3108   1.3282   1.5048   1.5147

          k = 0.1667 0.0000-0.2180 ( 29209 PWs)   bands (ev):

   -20.8258 -20.8253 -20.8244 -20.8241 -20.3132 -20.3126 -20.3119 -20.3100
   -19.1511 -19.1511 -19.1465 -19.1450 -17.9203 -17.9199 -17.9023 -17.9020
   -15.1316 -15.1277 -15.1274 -15.1183 -15.0865 -15.0802 -15.0748 -15.0693
   -13.6393 -13.6390 -13.5997 -13.5974 -12.9874 -12.9761 -12.9700 -12.9531
   -12.5757 -12.5717 -12.4927 -12.4872 -12.4128 -12.3993 -12.3819 -12.3809
   -12.1838 -12.1651 -12.1636 -12.1454 -11.7938 -11.7910 -11.7258 -11.7172
   -11.4151 -11.3725 -11.3375 -11.3130 -10.6387 -10.6231 -10.6133 -10.5986
    -9.4678  -9.4606  -9.4566  -9.4130  -9.0367  -9.0236  -9.0213  -8.9871
    -8.8897  -8.8765  -8.8419  -8.8080  -8.7929  -8.7801  -8.7567  -8.7206
    -8.0666  -8.0408  -7.9885  -7.9515  -7.4174  -7.3895  -7.3207  -7.3062
    -7.0392  -7.0018  -6.9963  -6.9523  -6.8978  -6.8455  -6.8074  -6.7878
    -6.6000  -6.5963  -6.5867  -6.5720  -6.1302  -6.0779  -6.0599  -6.0382
    -5.9517  -5.8951  -5.8790  -5.8744  -5.6547  -5.6540  -5.6333  -5.6328
    -5.6015  -5.5990  -5.5146  -5.4947  -5.2382  -5.2348  -5.2099  -5.1806
    -5.0063  -4.9929  -4.9875  -4.9344  -4.8804  -4.8616  -4.8214  -4.8033
    -4.7984  -4.7908  -4.7467  -4.7459  -4.6490  -4.6265  -4.6092  -4.5191
    -4.4722  -4.4610  -4.4281  -4.3911  -4.1423  -4.1227  -4.1089  -4.0981
    -4.0699  -4.0588  -4.0285  -4.0110  -3.9643  -3.9209  -3.8932  -3.8728
    -3.7792  -3.7566  -3.7427  -3.7203  -3.7139  -3.7051  -3.7029  -3.6820
    -3.5908  -3.5661  -3.5278  -3.5166  -3.3604  -3.3549  -3.3216  -3.3147
    -3.2726  -3.1911  -3.1780  -3.1583  -3.1359  -3.0999  -3.0702  -3.0394
    -3.0199  -3.0132  -2.9934  -2.9826  -2.9267  -2.9081  -2.8510  -2.8461
    -2.7102  -2.6459  -2.6327  -2.6239  -2.5411  -2.5334  -2.5258  -2.4938
    -2.2059  -2.2006  -2.1439  -2.0933  -1.9239  -1.8899  -1.8739  -1.8514
    -1.7750  -1.7369  -1.6963  -1.6898  -1.6848  -1.5951  -1.5478  -1.4684
    -1.4109  -1.3967  -1.3929  -1.3478  -0.3994  -0.3683  -0.2848  -0.2729
    -0.2574  -0.2238  -0.0839  -0.0762   0.0666   0.1066   0.1500   0.1557
     0.1639   0.1739   0.1894   0.2231   0.5935   0.5978   0.6060   0.6215
     1.3091   1.3231   1.4882   1.5228

          k = 0.1667 0.0000-0.0675 ( 29177 PWs)   bands (ev):

   -20.8258 -20.8252 -20.8244 -20.8241 -20.3131 -20.3128 -20.3120 -20.3097
   -19.1515 -19.1507 -19.1468 -19.1447 -17.9204 -17.9198 -17.9024 -17.9019
   -15.1327 -15.1266 -15.1213 -15.1103 -15.0912 -15.0852 -15.0777 -15.0721
   -13.6343 -13.6320 -13.6019 -13.6002 -13.0037 -12.9736 -12.9643 -12.9569
   -12.5754 -12.5730 -12.4922 -12.4875 -12.4182 -12.4063 -12.3715 -12.3701
   -12.1790 -12.1693 -12.1654 -12.1418 -11.7991 -11.7880 -11.7324 -11.7164
   -11.3804 -11.3630 -11.3470 -11.3429 -10.6577 -10.6420 -10.5989 -10.5762
    -9.5094  -9.4527  -9.4226  -9.4075  -9.0835  -9.0804  -8.9917  -8.9552
    -8.8835  -8.8566  -8.8487  -8.8026  -8.7896  -8.7858  -8.7435  -8.7046
    -8.0466  -8.0381  -7.9887  -7.9849  -7.3924  -7.3902  -7.3433  -7.3054
    -7.0348  -7.0256  -6.9689  -6.9490  -6.8714  -6.8597  -6.8138  -6.8126
    -6.6056  -6.5860  -6.5806  -6.5652  -6.1297  -6.0822  -6.0629  -6.0494
    -5.9383  -5.9169  -5.8932  -5.8668  -5.6974  -5.6581  -5.6466  -5.6036
    -5.6029  -5.5764  -5.5339  -5.4794  -5.2324  -5.2317  -5.2142  -5.1806
    -4.9986  -4.9975  -4.9671  -4.9592  -4.9154  -4.8981  -4.8432  -4.7980
    -4.7787  -4.7642  -4.7532  -4.7311  -4.6534  -4.6302  -4.5659  -4.5192
    -4.4401  -4.4328  -4.4257  -4.3908  -4.1663  -4.1092  -4.1036  -4.0905
    -4.0701  -4.0551  -4.0453  -4.0380  -3.9594  -3.9137  -3.8903  -3.8693
    -3.7870  -3.7608  -3.7364  -3.7262  -3.7231  -3.7177  -3.7039  -3.6936
    -3.5730  -3.5716  -3.5183  -3.5079  -3.3549  -3.3536  -3.3012  -3.2872
    -3.2410  -3.1963  -3.1720  -3.1319  -3.1126  -3.1002  -3.0780  -3.0777
    -3.0385  -3.0244  -2.9993  -2.9722  -2.9251  -2.9012  -2.8855  -2.8575
    -2.6985  -2.6532  -2.6364  -2.6147  -2.5544  -2.5323  -2.5221  -2.4849
    -2.2728  -2.2007  -2.1726  -2.0722  -1.9481  -1.9136  -1.8654  -1.8198
    -1.7842  -1.7350  -1.7039  -1.6957  -1.6700  -1.5658  -1.5633  -1.4404
    -1.4101  -1.4077  -1.3941  -1.3413  -0.3891  -0.3741  -0.2819  -0.2602
    -0.2521  -0.2230  -0.0821  -0.0816   0.0592   0.1172   0.1414   0.1524
     0.1618   0.1745   0.2142   0.2329   0.5764   0.5987   0.6017   0.6061
     1.3128   1.3170   1.4834   1.5233

          k = 0.1667 0.1254 0.0830 ( 29201 PWs)   bands (ev):

   -20.8257 -20.8252 -20.8245 -20.8242 -20.3136 -20.3125 -20.3117 -20.3098
   -19.1518 -19.1505 -19.1466 -19.1448 -17.9204 -17.9198 -17.9024 -17.9019
   -15.1364 -15.1302 -15.1236 -15.1147 -15.0865 -15.0814 -15.0732 -15.0702
   -13.6360 -13.6284 -13.6071 -13.6039 -12.9940 -12.9767 -12.9654 -12.9508
   -12.5770 -12.5746 -12.4903 -12.4898 -12.4188 -12.4128 -12.3679 -12.3649
   -12.1754 -12.1719 -12.1645 -12.1481 -11.7981 -11.7884 -11.7291 -11.7168
   -11.3881 -11.3601 -11.3545 -11.3381 -10.6428 -10.6341 -10.6054 -10.5871
    -9.4950  -9.4508  -9.4312  -9.4188  -9.0866  -9.0797  -8.9815  -8.9598
    -8.8927  -8.8499  -8.8379  -8.8140  -8.8056  -8.7845  -8.7358  -8.7062
    -8.0321  -8.0292  -7.9970  -7.9874  -7.3786  -7.3777  -7.3552  -7.3021
    -7.0424  -7.0297  -6.9658  -6.9486  -6.8593  -6.8442  -6.8286  -6.8213
    -6.6029  -6.5893  -6.5822  -6.5685  -6.1218  -6.0938  -6.0633  -6.0521
    -5.9462  -5.9237  -5.8851  -5.8776  -5.7007  -5.6753  -5.6347  -5.6203
    -5.5688  -5.5588  -5.5340  -5.4978  -5.2390  -5.2290  -5.2006  -5.1835
    -5.0584  -5.0156  -4.9642  -4.9409  -4.9347  -4.9007  -4.8121  -4.7890
    -4.7831  -4.7744  -4.7626  -4.7304  -4.6442  -4.6040  -4.5448  -4.5099
    -4.4686  -4.4255  -4.4160  -4.3822  -4.1648  -4.1108  -4.1047  -4.0815
    -4.0747  -4.0397  -4.0330  -3.9971  -3.9405  -3.9338  -3.9058  -3.8662
    -3.7966  -3.7730  -3.7438  -3.7391  -3.7288  -3.7182  -3.7053  -3.6918
    -3.5784  -3.5484  -3.5256  -3.5172  -3.3915  -3.3680  -3.3174  -3.2928
    -3.2547  -3.1905  -3.1534  -3.1194  -3.1166  -3.0974  -3.0672  -3.0447
    -3.0179  -3.0174  -2.9924  -2.9769  -2.9321  -2.8840  -2.8717  -2.8651
    -2.6856  -2.6746  -2.6405  -2.6236  -2.5677  -2.5306  -2.5230  -2.4904
    -2.2972  -2.2339  -2.1399  -2.0647  -1.9557  -1.9284  -1.8591  -1.8115
    -1.7738  -1.7402  -1.7136  -1.7087  -1.6465  -1.5721  -1.5519  -1.4470
    -1.4092  -1.3976  -1.3883  -1.3496  -0.3830  -0.3790  -0.2794  -0.2667
    -0.2519  -0.2153  -0.0878  -0.0807   0.0607   0.1088   0.1370   0.1451
     0.1653   0.1783   0.2173   0.2317   0.5697   0.5926   0.6055   0.6182
     1.3170   1.3199   1.4817   1.5263

          k = 0.1667 0.1254 0.2335 ( 29207 PWs)   bands (ev):

[...]
     atom   45 type  1   force =    -0.00038710   -0.00014203   -0.00004389
     atom   46 type  1   force =    -0.00038710    0.00014203   -0.00004389
     atom   47 type  1   force =     0.00038710    0.00014203    0.00004389
     atom   48 type  2   force =     0.00036555   -0.00009846    0.00007341
     atom   49 type  2   force =     0.00036555    0.00009846    0.00007341
     atom   50 type  2   force =    -0.00036555    0.00009846   -0.00007341
     atom   51 type  1   force =     0.00010651    0.00021408   -0.00005674
     atom   52 type  1   force =     0.00010651   -0.00021408   -0.00005674
     atom   53 type  1   force =    -0.00010651   -0.00021408    0.00005674
     atom   54 type  1   force =     0.00000855    0.00005924   -0.00035936
     atom   55 type  1   force =     0.00000855   -0.00005924   -0.00035936
     atom   56 type  1   force =    -0.00000855   -0.00005924    0.00035936
     atom   57 type  2   force =     0.00012724    0.00055204   -0.00021826
     atom   58 type  2   force =     0.00012724   -0.00055204   -0.00021826
     atom   59 type  2   force =    -0.00012724   -0.00055204    0.00021826
     atom   60 type  1   force =     0.00018108   -0.00035760   -0.00007940
     atom   61 type  1   force =     0.00018108    0.00035760   -0.00007940
     atom   62 type  1   force =    -0.00018108    0.00035760    0.00007940
     atom   63 type  2   force =     0.00070549   -0.00021859   -0.00004163
     atom   64 type  2   force =     0.00070549    0.00021859   -0.00004163
     atom   65 type  2   force =    -0.00070549    0.00021859    0.00004163
     atom   66 type  1   force =    -0.00025665   -0.00068097   -0.00046206
     atom   67 type  1   force =    -0.00025665    0.00068097   -0.00046206
     atom   68 type  1   force =     0.00025665    0.00068097    0.00046206
     atom   69 type  1   force =    -0.00027602   -0.00066238   -0.00015989
     atom   70 type  1   force =    -0.00027602    0.00066238   -0.00015989
     atom   71 type  1   force =     0.00027602    0.00066238    0.00015989
     atom   72 type  1   force =     0.00053755    0.00043658   -0.00010138
     atom   73 type  1   force =     0.00053755   -0.00043658   -0.00010138
     atom   74 type  1   force =    -0.00053755   -0.00043658    0.00010138
     atom   75 type  2   force =    -0.00001750    0.00062965   -0.00013409
     atom   76 type  2   force =    -0.00001750   -0.00062965   -0.00013409
     atom   77 type  2   force =     0.00001750   -0.00062965    0.00013409
     atom   78 type  1   force =    -0.00038452   -0.00014379   -0.00038885
     atom   79 type  1   force =    -0.00038452    0.00014379   -0.00038885
     atom   80 type  1   force =     0.00038452    0.00014379    0.00038885
     atom   81 type  2   force =    -0.00056983   -0.00005912   -0.00054365
     atom   82 type  2   force =    -0.00056983    0.00005912   -0.00054365
     atom   83 type  2   force =     0.00056983    0.00005912    0.00054365
     atom   84 type  1   force =     0.00035567    0.00030420    0.00004179
     atom   85 type  1   force =     0.00035567   -0.00030420    0.00004179
     atom   86 type  1   force =    -0.00035567   -0.00030420   -0.00004179
     atom   87 type  1   force =     0.00039996    0.00027900    0.00006392
     atom   88 type  1   force =     0.00039996   -0.00027900    0.00006392
     atom   89 type  1   force =    -0.00039996   -0.00027900   -0.00006392
     atom   90 type  1   force =    -0.00000916   -0.00000284    0.00061888
     atom   91 type  1   force =    -0.00000916    0.00000284    0.00061888
     atom   92 type  1   force =     0.00000916    0.00000284   -0.00061888
     atom   93 type  2   force =     0.00090099    0.00063109   -0.00031468
     atom   94 type  2   force =     0.00090099   -0.00063109   -0.00031468
     atom   95 type  2   force =    -0.00090099   -0.00063109    0.00031468
     atom   96 type  1   force =     0.00030629    0.00032564   -0.00023901
     atom   97 type  1   force =     0.00030629   -0.00032564   -0.00023901
     atom   98 type  1   force =    -0.00030629   -0.00032564    0.00023901
     atom   99 type  2   force =    -0.00016578   -0.00041208   -0.00024391
     atom  100 type  2   force =    -0.00016578    0.00041208   -0.00024391
     atom  101 type  2   force =     0.00016578    0.00041208    0.00024391
     atom  102 type  1   force =    -0.00035053    0.00004659   -0.00009356
     atom  103 type  1   force =    -0.00035053   -0.00004659   -0.00009356
     atom  104 type  1   force =     0.00035053   -0.00004659    0.00009356
     atom  105 type  1   force =    -0.00027775    0.00003879   -0.00050378
     atom  106 type  1   force =    -0.00027775   -0.00003879   -0.00050378
     atom  107 type  1   force =     0.00027775   -0.00003879    0.00050378
     atom  108 type  2   force =     0.00050279   -0.00014688    0.00010581
     atom  109 type  2   force =     0.00050279    0.00014688    0.00010581
     atom  110 type  2   force =    -0.00050279    0.00014688   -0.00010581
     atom  111 type  1   force =    -0.00034322   -0.00022470    0.00040060
     atom  112 type  1   force =    -0.00034322    0.00022470    0.00040060
     atom  113 type  1   force =     0.00034322    0.00022470   -0.00040060
     atom  114 type  2   force =    -0.00000268   -0.00040593   -0.00024187
     atom  115 type  2   force =    -0.00000268    0.00040593   -0.00024187
     atom  116 type  2   force =     0.00000268    0.00040593    0.00024187
     atom  117 type  1   force =     0.00008455    0.00028567    0.00035314
     atom  118 type  1   force =     0.00008455   -0.00028567    0.00035314
     atom  119 type  1   force =    -0.00008455   -0.00028567   -0.00035314
     atom  120 type  2   force =    -0.00028017    0.00000628    0.00011938
     atom  121 type  2   force =    -0.00028017   -0.00000628    0.00011938
     atom  122 type  2   force =     0.00028017   -0.00000628   -0.00011938
     atom  123 type  2   force =    -0.00013653   -0.00003882    0.00023149
     atom  124 type  2   force =    -0.00013653    0.00003882    0.00023149
     atom  125 type  2   force =     0.00013653    0.00003882   -0.00023149
     atom  126 type  2   force =    -0.00014401    0.00011708    0.00032442
     atom  127 type  2   force =    -0.00014401   -0.00011708    0.00032442
     atom  128 type  2   force =     0.00014401   -0.00011708   -0.00032442
     atom  129 type  1   force =    -0.00036986   -0.00031878    0.00011177
     atom  130 type  1   force =    -0.00036986    0.00031878    0.00011177
     atom  131 type  1   force =     0.00036986    0.00031878   -0.00011177
     atom  132 type  2   force =    -0.00008102    0.00002817    0.00019091
     atom  133 type  2   force =    -0.00008102   -0.00002817    0.00019091
     atom  134 type  2   force =     0.00008102   -0.00002817   -0.00019091
     atom  135 type  2   force =     0.00050922    0.00016556   -0.00002198
     atom  136 type  2   force =     0.00050922   -0.00016556   -0.00002198
     atom  137 type  2   force =    -0.00050922   -0.00016556    0.00002198
     atom  138 type  2   force =     0.00006099    0.00026334   -0.00009751
     atom  139 type  2   force =     0.00006099   -0.00026334   -0.00009751
     atom  140 type  2   force =    -0.00006099   -0.00026334    0.00009751
     atom  141 type  2   force =    -0.00053924   -0.00029260   -0.00008389
     atom  142 type  2   force =    -0.00053924    0.00029260   -0.00008389
     atom  143 type  2   force =     0.00053924    0.00029260    0.00008389
     atom  144 type  2   force =     0.00051036    0.00004744    0.00063447
     atom  145 type  2   force =     0.00051036   -0.00004744    0.00063447
     atom  146 type  2   force =    -0.00051036   -0.00004744   -0.00063447
     atom  147 type  2   force =    -0.00028215   -0.00037803    0.00024826
     atom  148 type  2   force =    -0.00028215    0.00037803    0.00024826
     atom  149 type  2   force =     0.00028215    0.00037803   -0.00024826
     atom  150 type  4   force =    -0.00007887    0.00004709   -0.00012553
     atom  151 type  4   force =    -0.00007887   -0.00004709   -0.00012553
     atom  152 type  4   force =     0.00007887   -0.00004709    0.00012553
     atom  153 type  3   force =     0.00056663    0.00000359    0.00080213
     atom  154 type  3   force =     0.00056663   -0.00000359    0.00080213
     atom  155 type  3   force =    -0.00056663   -0.00000359   -0.00080213
     atom  156 type  2   force =     0.00094325    0.00067755   -0.00033306
     atom  157 type  2   force =     0.00094325   -0.00067755   -0.00033306
     atom  158 type  2   force =    -0.00094325   -0.00067755    0.00033306
     atom  159 type  3   force =    -0.00008453   -0.00020047    0.00071785
     atom  160 type  3   force =    -0.00008453    0.00020047    0.00071785
     atom  161 type  3   force =     0.00008453    0.00020047   -0.00071785
     atom  162 type  3   force =     0.00045580    0.00015544    0.00007646
     atom  163 type  3   force =     0.00045580   -0.00015544    0.00007646
     atom  164 type  3   force =    -0.00045580   -0.00015544   -0.00007646

     Total force =     0.007624     Total SCF correction =     0.000333

     BFGS Geometry Optimization

     bfgs converged in   1 scf cycles and   0 bfgs steps
     (criteria: energy <  1.0E-04 Ry, force <  1.0E-03 Ry/Bohr)

     End of BFGS Geometry Optimization

     Final energy   =   -1372.2283422146 Ry
Begin final coordinates

ATOMIC_POSITIONS (angstrom)
C        1.947810991   2.794177604   8.692659780
C        1.121285281   3.512434701   7.816455076
H        1.283310640   3.407498907   6.746395364
C        0.116927159   4.326179156   8.336592290
C       -0.063125126   4.443731744   9.732264799
H       -0.848403609   5.097941444  10.107500050
C        0.757111976   3.739250789  10.585186231
H        6.245836580   3.880855316   0.365786990
C        1.771570802   2.878769902  10.108026054
C        2.629932944   2.072892922  10.978251756
C        8.086052129   2.105445716   1.119893864
H        7.302520206   2.740814329   1.526546517
C        8.877277549   1.381635791   1.968553520
H       -0.539265679   0.757275851   1.518014862
C       -1.406688443   1.352715944   3.396767273
C        7.838370470   2.101138294   4.133737872
H        7.147646577   2.759955561   3.609405357
C       -2.437869446   2.028574663   5.505254383
H        7.003413014   2.620676051   6.020313163
C       -1.554514747   1.193861689   6.245690260
C       -0.596309045   0.440871138   5.515016912
H        0.097952146  13.338218038   6.035639023
C       -0.528762087   0.531642713   4.139919760
H        0.229197673  -0.042620336   3.607660485
C       -2.579870392   1.939015525   8.331281632
H       -2.504760726   2.999997624   8.050716731
H       -2.369436851   1.857184822   9.400527955
H       -3.612951782   1.600405210   8.147073485
C       -0.732550038   0.232747097   8.324138676
H       -0.876066042  12.743338347   8.002561528
H       -0.952145447   0.296688363   9.394600486
H        0.325193710   0.499818621   8.166161139
C       -0.535363250   5.086227819   6.160977231
H        0.467406624   5.482179846   5.930600514
H       -1.305333719   5.757024346   5.768668943
H       -0.652222341   4.080597298   5.729452754
N       -1.617578537   1.130230611   7.601045414
O        2.925430598   2.026650164   8.181910998
H        3.360902833   1.586690444   9.048842211
O        3.531989828   1.328110967  10.441118585
O       -0.736104523   5.056311160   7.579938696
C       -0.189740991   9.571177604   8.241990220
C        2.622229009  10.759822396   2.597110220
C        4.759790991   3.982822396   3.047779780
C        0.636784719  10.289434701   9.118194924
C        3.448764719  10.041565299   3.473314924
C        3.933255281   3.264565299   2.171575076
H        0.474759360  10.184498907  10.188264636
H        3.286739360  10.146501093   4.543374636
H        4.095280640   3.369501093   1.101505364
C        1.641142841  11.103179156   8.598057710
C        4.453122841   9.227820844   2.953177710
C        2.928907159   2.450820844   2.691712290
C        1.821195126  11.220731744   7.202395201
C        4.633175126   9.110268256   1.557505201
C        2.748854874   2.333268256   4.087384799
H        2.606473609  11.874941444   6.827159950
H        5.418453609   8.456058556   1.182269950
H        1.963566391   1.679058556   4.462610050
C        1.000968024  10.516250789   6.349473769
C        3.812938024   9.814749211   0.704583769
C        3.569081976   3.037749211   4.940296231
H        1.136193420  10.657855316   5.279103010
H       -1.675786580   9.673144684  10.923983010
H        3.433856580   2.896144684   6.010666990
C       -0.013500802   9.655769902   6.826623946
C        2.798479198  10.675230098   1.181743946
C        4.583550802   3.898230098   4.463146054
C       -0.871862944   8.849892922   5.956408244
C        1.940107056  11.481107078   0.311518244
C        5.441912944   4.704107078   5.333361756
C       -0.704022129   8.882445716   4.524986136
C       -3.516002129  11.448554284  10.169876136
C        5.274072129   4.671554284   6.764783864
H        0.079499794   9.517814329   4.118343483
H       -2.732480206  10.813185671   9.763223483
H        4.490550206   4.036185671   7.171426517
C       -1.495257549   8.158635791   3.676326480
C       -4.307237549  12.172364209   9.321216480
C        6.065307549   5.395364209   7.613443520
H        7.921285679   7.534275851   4.126875138
H        5.109315679  12.796724149   9.771755138
H       -3.351245679   6.019724149   7.162894862
C        8.788718443   8.129715944   2.248112727
C        5.976738443  12.201284056   7.893002727
C       -4.218668443   5.424284056   9.041657273
C       -0.456340470   8.878138294   1.511142128
C       -3.268320470  11.452861706   7.156032128
C        5.026390470   4.675861706   9.778627872
C        2.293433250  11.863227819  10.773672769
C        5.105413250   8.467772181   5.128792769
C        2.276616750   1.690772181   0.516097231
H        0.234383423   9.536955561   2.035474643
H       -2.577596577  10.794044439   7.680364643
H        4.335666577   4.017044439   9.254295357
C        9.819889446   8.805574663   0.139635617
C        7.007919446  11.525425337   5.784515617
C       -5.249849446   4.748425337  11.150134383
H       -5.245343014   9.397676051  10.914336837
H       -2.433363014  10.933323949   5.269456837
H        9.815393014   4.156323949   0.375433163
C        3.312594747   7.970861689  10.688959740
C        6.124564747  12.360138311   5.044079740
C        1.257455253   5.583138311   0.600810260
C        7.978329045   7.217871138   0.129863088
C        5.166359045  13.113128862   5.774753088
C       -3.408289045   6.336128862  11.159906912
H        1.660127854   6.561218038  10.899020977
H        4.472097854   0.215781962   5.254130977
H        2.909922146   6.992781962   0.390749023
C        7.910782087   7.308642713   1.504970240
C        5.098802087  13.022357287   7.149850240
C       -3.340732087   6.245357287   9.784799760
H        7.152832327   6.734379664   2.037229515
H        4.340852327  13.596620336   7.682109515
H       -2.582782327   6.819620336   9.252540485
C        4.337940392   8.716015525   8.603368368
C        7.149920392  11.614984475   2.958488368
C        0.232099608   4.837984475   2.686401632
H        4.262830726   9.776997624   8.883933269
H        7.074810726  10.554002376   3.239053269
H        0.307209274   3.777002376   2.405836731
H        4.127506851   8.634184822   7.534132045
H        6.939486851  11.696815178   1.889252045
H        0.442533149   4.919815178   3.755637955
H        5.371021782   8.377405210   8.787576515
H        8.183001782  11.953594790   3.142696515
H       -0.800971782   5.176594790   2.502193485
C        2.490620038   7.009747097   8.610521324
C        5.302590038  13.321252903   2.965641324
C        2.079429962   6.544252903   2.679248676
H        2.634136042   5.966338347   8.932098472
H        5.446116042   0.810661653   3.287208472
H        1.935913958   7.587661653   2.357671528
H        2.710215447   7.073688363   7.540059514
H        5.522195447  13.257311637   1.895169514
H        1.859834553   6.480311637   3.749710486
H        1.432886290   7.276818621   8.768488861
H        4.244856290  13.054181379   3.123608861
H        3.137163710   6.277181379   2.521281139
H        1.290663376  12.259179846  11.004059486
H        4.102643376   8.071820154   5.359169486
H        3.279386624   1.294820154   0.285710514
H        3.063403719  12.534024346  11.165991057
H        5.875373719   7.796985654   5.521101057
H        1.506646281   1.019985654   0.123778943
H        2.410292341  10.857597298  11.205207246
H        5.222262341   9.473402702   5.560317246
H        2.159757659   2.696402702   0.084562754
N        3.375648537   7.907230611   9.333614586
N        6.187618537  12.423769389   3.688724586
N        1.194401463   5.646769389   1.956155414
O       -1.167360598   8.803650164   8.752749002
O        1.644609402  11.527349836   3.107859002
O        5.737410598   4.750349836   2.537020998
H       -1.602832833   8.363690444   7.885817789
H        1.209147167  11.967309556   2.240937789
H        6.172882833   5.190309556   3.403952211
O       -1.773919828   8.105110967   6.493531415
O        1.038050172  12.225889033   0.848651415
O        6.343969828   5.448889033   4.796238585
O        2.494174523  11.833311160   9.354721304
O        5.306154523   8.497688840   3.709831304
O        2.075865477   1.720688840   1.935048696
End final coordinates



     Writing output data file 2hc_3_666.save
 
     init_run     :   1476.44s CPU   1486.67s WALL (       1 calls)
     electrons    :  31543.96s CPU  31814.51s WALL (       1 calls)
     forces       :    412.74s CPU    413.28s WALL (       1 calls)

     Called by init_run:
     wfcinit      :   1470.09s CPU   1480.00s WALL (       1 calls)
     potinit      :      2.37s CPU      2.41s WALL (       1 calls)

     Called by electrons:
     c_bands      :  28343.30s CPU  28606.71s WALL (      12 calls)
     sum_band     :   3179.93s CPU   3184.49s WALL (      12 calls)
     v_of_rho     :      3.86s CPU      3.89s WALL (      13 calls)
     newd         :      7.48s CPU     10.17s WALL (      13 calls)
     mix_rho      :      0.74s CPU      0.77s WALL (      12 calls)

     Called by c_bands:
     init_us_2    :    230.38s CPU    230.96s WALL (    2080 calls)
     cegterg      :  27591.00s CPU  27853.21s WALL (     960 calls)

     Called by sum_band:
     sum_band:bec :      1.25s CPU      1.25s WALL (     960 calls)
     addusdens    :      7.60s CPU     10.24s WALL (      12 calls)

     Called by *egterg:
     h_psi        :  18017.91s CPU  18031.21s WALL (    4727 calls)
     s_psi        :   3568.47s CPU   3568.59s WALL (    4727 calls)
     g_psi        :     87.99s CPU     88.00s WALL (    3687 calls)
     cdiaghg      :    762.39s CPU    762.70s WALL (    4647 calls)

     Called by h_psi:
     h_psi:pot    :  17909.44s CPU  17919.12s WALL (    4727 calls)
     h_psi:calbec :   3369.61s CPU   3370.41s WALL (    4727 calls)
     vloc_psi     :  10972.30s CPU  10980.77s WALL (    4727 calls)
     add_vuspsi   :   3567.50s CPU   3567.91s WALL (    4727 calls)

     General routines
     calbec       :   4816.23s CPU   4817.13s WALL (    6007 calls)
     fft          :      1.79s CPU      1.80s WALL (     170 calls)
     fftw         :  10828.81s CPU  10835.80s WALL ( 1547078 calls)
     davcio       :      0.12s CPU      6.44s WALL (      80 calls)
 
     Parallel routines
     fft_scatter  :   1255.08s CPU   1257.09s WALL ( 1547248 calls)
 
     PWSCF        :     9h17m CPU        9h22m WALL

 
   This run was terminated on:  23:41:42  12Oct2017            

=------------------------------------------------------------------------------=
   JOB DONE.
=------------------------------------------------------------------------------=
