 Entering Gaussian System, Link 0=g09
 Input=H_HP_dim.com
 Output=H_HP_dim.out
 Initial command:
 /share/apps/gaussian/g09_D01/g09/l1.exe "/tmp/4049129.1.chemistry.q/Gau-27337.inp" -scrdir="/tmp/4049129.1.chemistry.q/"
 Entering Link 1 = /share/apps/gaussian/g09_D01/g09/l1.exe PID=     27338.
  
 Copyright (c) 1988,1990,1992,1993,1995,1998,2003,2009,2013,
            Gaussian, Inc.  All Rights Reserved.
  
 This is part of the Gaussian(R) 09 program.  It is based on
 the Gaussian(R) 03 system (copyright 2003, Gaussian, Inc.),
 the Gaussian(R) 98 system (copyright 1998, Gaussian, Inc.),
 the Gaussian(R) 94 system (copyright 1995, Gaussian, Inc.),
 the Gaussian 92(TM) system (copyright 1992, Gaussian, Inc.),
 the Gaussian 90(TM) system (copyright 1990, Gaussian, Inc.),
 the Gaussian 88(TM) system (copyright 1988, Gaussian, Inc.),
 the Gaussian 86(TM) system (copyright 1986, Carnegie Mellon
 University), and the Gaussian 82(TM) system (copyright 1983,
 Carnegie Mellon University). Gaussian is a federally registered
 trademark of Gaussian, Inc.
  
 This software contains proprietary and confidential information,
 including trade secrets, belonging to Gaussian, Inc.
  
 This software is provided under written license and may be
 used, copied, transmitted, or stored only in accord with that
 written license.
  
 The following legend is applicable only to US Government
 contracts under FAR:
  
                    RESTRICTED RIGHTS LEGEND
  
 Use, reproduction and disclosure by the US Government is
 subject to restrictions as set forth in subparagraphs (a)
 and (c) of the Commercial Computer Software - Restricted
 Rights clause in FAR 52.227-19.
  
 Gaussian, Inc.
 340 Quinnipiac St., Bldg. 40, Wallingford CT 06492
  
  
 ---------------------------------------------------------------
 Warning -- This program may not be used in any manner that
 competes with the business of Gaussian, Inc. or will provide
 assistance to any competitor of Gaussian, Inc.  The licensee
 of this program is prohibited from giving any competitor of
 Gaussian, Inc. access to this program.  By using this program,
 the user acknowledges that Gaussian, Inc. is engaged in the
 business of creating and licensing software in the field of
 computational chemistry and represents and warrants to the
 licensee that it is not a competitor of Gaussian, Inc. and that
 it will not use this program in any manner prohibited above.
 ---------------------------------------------------------------
  

 Cite this work as:
 Gaussian 09, Revision D.01,
 M. J. Frisch, G. W. Trucks, H. B. Schlegel, G. E. Scuseria, 
 M. A. Robb, J. R. Cheeseman, G. Scalmani, V. Barone, B. Mennucci, 
 G. A. Petersson, H. Nakatsuji, M. Caricato, X. Li, H. P. Hratchian, 
 A. F. Izmaylov, J. Bloino, G. Zheng, J. L. Sonnenberg, M. Hada, 
 M. Ehara, K. Toyota, R. Fukuda, J. Hasegawa, M. Ishida, T. Nakajima, 
 Y. Honda, O. Kitao, H. Nakai, T. Vreven, J. A. Montgomery, Jr., 
 J. E. Peralta, F. Ogliaro, M. Bearpark, J. J. Heyd, E. Brothers, 
 K. N. Kudin, V. N. Staroverov, T. Keith, R. Kobayashi, J. Normand, 
 K. Raghavachari, A. Rendell, J. C. Burant, S. S. Iyengar, J. Tomasi, 
 M. Cossi, N. Rega, J. M. Millam, M. Klene, J. E. Knox, J. B. Cross, 
 V. Bakken, C. Adamo, J. Jaramillo, R. Gomperts, R. E. Stratmann, 
 O. Yazyev, A. J. Austin, R. Cammi, C. Pomelli, J. W. Ochterski, 
 R. L. Martin, K. Morokuma, V. G. Zakrzewski, G. A. Voth, 
 P. Salvador, J. J. Dannenberg, S. Dapprich, A. D. Daniels, 
 O. Farkas, J. B. Foresman, J. V. Ortiz, J. Cioslowski, 
 and D. J. Fox, Gaussian, Inc., Wallingford CT, 2013.
 
 ******************************************
 Gaussian 09:  ES64L-G09RevD.01 24-Apr-2013
                28-Sep-2017 
 ******************************************
 %chk=H_HP_dim
 %mem=14GB
 %nproc=2
 Will use up to    2 processors via shared memory.
 ----------------------------------
 #p wb97xd 6-31G* td=(add=2) nosymm
 ----------------------------------
 1/38=1/1;
 2/12=2,15=1,17=6,18=5,40=1/2;
 3/5=1,6=6,7=1,11=9,16=1,25=1,30=1,74=-58/1,2,8,3;
 4//1;
 5/5=2,38=5/2;
 8/6=1,10=2/1;
 9/39=2,42=1,70=2/14;
 6/7=2,8=2,9=2,10=2/1;
 99/5=1,9=1/99;
 Leave Link    1 at Thu Sep 28 18:21:37 2017, MaxMem=  1879048192 cpu:         0.1
 (Enter /share/apps/gaussian/g09_D01/g09/l101.exe)
 -----
 title
 -----
 Symbolic Z-matrix:
 Charge =  0 Multiplicity = 1
 C                     2.46241   2.37557  -1.80013 
 C                     1.15958   2.01336  -1.17347 
 C                     3.31349   3.29215  -1.13996 
 C                     2.88856   1.85274  -3.03034 
 C                     0.20104   1.23079  -1.90531 
 O                     0.92188   2.41853  -0.01493 
 C                     4.52527   3.67128  -1.72941 
 O                     3.00777   3.82744   0.04636 
 H                     2.13318   3.43854   0.30019 
 C                     4.09214   2.21691  -3.6018 
 H                     2.26408   1.13873  -3.55218 
 C                    -1.00096   0.94717  -1.31336 
 H                     0.40752   0.92274  -2.91837 
 C                     4.90821   3.13911  -2.94363 
 H                     5.1445    4.38873  -1.20387 
 H                     4.39438   1.79531  -4.55264 
 H                    -1.15139   1.28961  -0.29337 
 N                    -2.02894   0.30439  -1.86519 
 H                     5.84976   3.4434   -3.38793 
 C                    -1.92254  -0.23448  -3.20713 
 C                    -3.22645  -0.0081   -1.10544 
 H                    -1.64594   0.55289  -3.91596 
 H                    -2.8866   -0.64444  -3.50716 
 H                    -1.17215  -1.03141  -3.24528 
 H                    -3.16745   0.46171  -0.12409 
 H                    -3.32726  -1.08816  -0.9685 
 H                    -4.11116   0.37558  -1.62348 
 C                    -2.46543  -2.36438   1.78754 
 C                    -1.17214  -1.99476   1.14509 
 C                    -3.29807  -3.32122   1.16379 
 C                    -2.90371  -1.79233   2.99065 
 C                    -0.18186  -1.28117   1.90317 
 O                    -0.97716  -2.33063  -0.04286 
 C                    -4.49896  -3.70417   1.77159 
 O                    -2.98361  -3.89092  -0.00586 
 H                    -2.15111  -3.4528   -0.30506 
 C                    -4.10196  -2.15419   3.57639 
 H                    -2.29929  -1.03002   3.4667 
 C                     0.97109  -0.88403   1.28055 
 H                    -0.33594  -1.1056    2.95648 
 C                    -4.89498  -3.12459   2.96113 
 H                    -5.10651  -4.4523    1.27512 
 H                    -4.42172  -1.68732   4.50011 
 H                     1.05624  -1.06234   0.21247 
 N                     2.02213  -0.30057   1.85645 
 H                    -5.83521  -3.42183   3.41302 
 C                     2.01476  -0.0179    3.27858 
 C                     3.15691   0.16746   1.08048 
 H                     1.24816   0.72496   3.52758 
 H                     2.98794   0.37406   3.57111 
 H                     1.81964  -0.93223   3.84854 
 H                     3.01856  -0.09784   0.03193 
 H                     4.07935  -0.29597   1.44396 
 H                     3.24981   1.25505   1.14964 
 
 NAtoms=     54 NQM=       54 NQMF=       0 NMMI=      0 NMMIF=      0
                NMic=       0 NMicF=      0.
                    Isotopes and Nuclear Properties:
 (Nuclear quadrupole moments (NQMom) in fm**2, nuclear magnetic moments (NMagM)
  in nuclear magnetons)

  Atom         1           2           3           4           5           6           7           8           9          10
 IAtWgt=          12          12          12          12          12          16          12          16           1          12
 AtmWgt=  12.0000000  12.0000000  12.0000000  12.0000000  12.0000000  15.9949146  12.0000000  15.9949146   1.0078250  12.0000000
 NucSpn=           0           0           0           0           0           0           0           0           1           0
 AtZEff=   0.0000000   0.0000000   0.0000000   0.0000000   0.0000000   0.0000000   0.0000000   0.0000000   0.0000000   0.0000000
 NQMom=    0.0000000   0.0000000   0.0000000   0.0000000   0.0000000   0.0000000   0.0000000   0.0000000   0.0000000   0.0000000
 NMagM=    0.0000000   0.0000000   0.0000000   0.0000000   0.0000000   0.0000000   0.0000000   0.0000000   2.7928460   0.0000000
 AtZNuc=   6.0000000   6.0000000   6.0000000   6.0000000   6.0000000   8.0000000   6.0000000   8.0000000   1.0000000   6.0000000

  Atom        11          12          13          14          15          16          17          18          19          20
 IAtWgt=           1          12           1          12           1           1           1          14           1          12
 AtmWgt=   1.0078250  12.0000000   1.0078250  12.0000000   1.0078250   1.0078250   1.0078250  14.0030740   1.0078250  12.0000000
 NucSpn=           1           0           1           0           1           1           1           2           1           0
 AtZEff=   0.0000000   0.0000000   0.0000000   0.0000000   0.0000000   0.0000000   0.0000000   0.0000000   0.0000000   0.0000000
 NQMom=    0.0000000   0.0000000   0.0000000   0.0000000   0.0000000   0.0000000   0.0000000   2.0440000   0.0000000   0.0000000
 NMagM=    2.7928460   0.0000000   2.7928460   0.0000000   2.7928460   2.7928460   2.7928460   0.4037610   2.7928460   0.0000000
 AtZNuc=   1.0000000   6.0000000   1.0000000   6.0000000   1.0000000   1.0000000   1.0000000   7.0000000   1.0000000   6.0000000

  Atom        21          22          23          24          25          26          27          28          29          30
 IAtWgt=          12           1           1           1           1           1           1          12          12          12
 AtmWgt=  12.0000000   1.0078250   1.0078250   1.0078250   1.0078250   1.0078250   1.0078250  12.0000000  12.0000000  12.0000000
 NucSpn=           0           1           1           1           1           1           1           0           0           0
 AtZEff=   0.0000000   0.0000000   0.0000000   0.0000000   0.0000000   0.0000000   0.0000000   0.0000000   0.0000000   0.0000000
 NQMom=    0.0000000   0.0000000   0.0000000   0.0000000   0.0000000   0.0000000   0.0000000   0.0000000   0.0000000   0.0000000
 NMagM=    0.0000000   2.7928460   2.7928460   2.7928460   2.7928460   2.7928460   2.7928460   0.0000000   0.0000000   0.0000000
 AtZNuc=   6.0000000   1.0000000   1.0000000   1.0000000   1.0000000   1.0000000   1.0000000   6.0000000   6.0000000   6.0000000

  Atom        31          32          33          34          35          36          37          38          39          40
 IAtWgt=          12          12          16          12          16           1          12           1          12           1
 AtmWgt=  12.0000000  12.0000000  15.9949146  12.0000000  15.9949146   1.0078250  12.0000000   1.0078250  12.0000000   1.0078250
 NucSpn=           0           0           0           0           0           1           0           1           0           1
 AtZEff=   0.0000000   0.0000000   0.0000000   0.0000000   0.0000000   0.0000000   0.0000000   0.0000000   0.0000000   0.0000000
 NQMom=    0.0000000   0.0000000   0.0000000   0.0000000   0.0000000   0.0000000   0.0000000   0.0000000   0.0000000   0.0000000
 NMagM=    0.0000000   0.0000000   0.0000000   0.0000000   0.0000000   2.7928460   0.0000000   2.7928460   0.0000000   2.7928460
 AtZNuc=   6.0000000   6.0000000   8.0000000   6.0000000   8.0000000   1.0000000   6.0000000   1.0000000   6.0000000   1.0000000

  Atom        41          42          43          44          45          46          47          48          49          50
 IAtWgt=          12           1           1           1          14           1          12          12           1           1
 AtmWgt=  12.0000000   1.0078250   1.0078250   1.0078250  14.0030740   1.0078250  12.0000000  12.0000000   1.0078250   1.0078250
 NucSpn=           0           1           1           1           2           1           0           0           1           1
 AtZEff=   0.0000000   0.0000000   0.0000000   0.0000000   0.0000000   0.0000000   0.0000000   0.0000000   0.0000000   0.0000000
 NQMom=    0.0000000   0.0000000   0.0000000   0.0000000   2.0440000   0.0000000   0.0000000   0.0000000   0.0000000   0.0000000
 NMagM=    0.0000000   2.7928460   2.7928460   2.7928460   0.4037610   2.7928460   0.0000000   0.0000000   2.7928460   2.7928460
 AtZNuc=   6.0000000   1.0000000   1.0000000   1.0000000   7.0000000   1.0000000   6.0000000   6.0000000   1.0000000   1.0000000

  Atom        51          52          53          54
 IAtWgt=           1           1           1           1
 AtmWgt=   1.0078250   1.0078250   1.0078250   1.0078250
 NucSpn=           1           1           1           1
 AtZEff=   0.0000000   0.0000000   0.0000000   0.0000000
 NQMom=    0.0000000   0.0000000   0.0000000   0.0000000
 NMagM=    2.7928460   2.7928460   2.7928460   2.7928460
 AtZNuc=   1.0000000   1.0000000   1.0000000   1.0000000
 Leave Link  101 at Thu Sep 28 18:21:38 2017, MaxMem=  1879048192 cpu:         0.1
 (Enter /share/apps/gaussian/g09_D01/g09/l202.exe)
 Symmetry turned off by external request.
 Stoichiometry    C22H26N2O4
 Framework group  C1[X(C22H26N2O4)]
 Deg. of freedom   156
 Full point group                 C1      NOp   1
                          Input orientation:                          
 ---------------------------------------------------------------------
 Center     Atomic      Atomic             Coordinates (Angstroms)
 Number     Number       Type             X           Y           Z
 ---------------------------------------------------------------------
      1          6           0        2.462405    2.375572   -1.800125
      2          6           0        1.159578    2.013360   -1.173465
      3          6           0        3.313492    3.292147   -1.139962
      4          6           0        2.888558    1.852738   -3.030336
      5          6           0        0.201041    1.230789   -1.905309
      6          8           0        0.921875    2.418525   -0.014927
      7          6           0        4.525267    3.671279   -1.729410
      8          8           0        3.007768    3.827443    0.046358
      9          1           0        2.133175    3.438542    0.300185
     10          6           0        4.092137    2.216912   -3.601796
     11          1           0        2.264076    1.138734   -3.552176
     12          6           0       -1.000959    0.947165   -1.313357
     13          1           0        0.407522    0.922738   -2.918369
     14          6           0        4.908207    3.139107   -2.943634
     15          1           0        5.144495    4.388729   -1.203865
     16          1           0        4.394380    1.795305   -4.552644
     17          1           0       -1.151386    1.289612   -0.293372
     18          7           0       -2.028940    0.304394   -1.865188
     19          1           0        5.849760    3.443398   -3.387932
     20          6           0       -1.922537   -0.234483   -3.207129
     21          6           0       -3.226450   -0.008097   -1.105437
     22          1           0       -1.645935    0.552887   -3.915959
     23          1           0       -2.886600   -0.644443   -3.507159
     24          1           0       -1.172147   -1.031410   -3.245282
     25          1           0       -3.167451    0.461706   -0.124087
     26          1           0       -3.327256   -1.088156   -0.968495
     27          1           0       -4.111155    0.375575   -1.623476
     28          6           0       -2.465425   -2.364375    1.787541
     29          6           0       -1.172143   -1.994760    1.145085
     30          6           0       -3.298074   -3.321217    1.163794
     31          6           0       -2.903713   -1.792329    2.990652
     32          6           0       -0.181857   -1.281173    1.903170
     33          8           0       -0.977156   -2.330632   -0.042860
     34          6           0       -4.498958   -3.704170    1.771591
     35          8           0       -2.983612   -3.890922   -0.005857
     36          1           0       -2.151107   -3.452800   -0.305064
     37          6           0       -4.101957   -2.154185    3.576386
     38          1           0       -2.299292   -1.030018    3.466700
     39          6           0        0.971087   -0.884025    1.280550
     40          1           0       -0.335935   -1.105601    2.956483
     41          6           0       -4.894978   -3.124585    2.961132
     42          1           0       -5.106508   -4.452301    1.275116
     43          1           0       -4.421720   -1.687315    4.500109
     44          1           0        1.056240   -1.062342    0.212470
     45          7           0        2.022127   -0.300574    1.856453
     46          1           0       -5.835213   -3.421827    3.413024
     47          6           0        2.014763   -0.017902    3.278582
     48          6           0        3.156912    0.167462    1.080475
     49          1           0        1.248162    0.724955    3.527576
     50          1           0        2.987944    0.374064    3.571110
     51          1           0        1.819639   -0.932225    3.848537
     52          1           0        3.018558   -0.097841    0.031927
     53          1           0        4.079346   -0.295969    1.443957
     54          1           0        3.249809    1.255049    1.149636
 ---------------------------------------------------------------------
 Rotational constants (GHZ):      0.3318077      0.0877230      0.0772033
 Leave Link  202 at Thu Sep 28 18:21:38 2017, MaxMem=  1879048192 cpu:         0.0
 (Enter /share/apps/gaussian/g09_D01/g09/l301.exe)
 Standard basis: 6-31G(d) (6D, 7F)
 Ernie: Thresh=  0.10000D-02 Tol=  0.10000D-05 Strict=F.
   472 basis functions,   888 primitive gaussians,   472 cartesian basis functions
   102 alpha electrons      102 beta electrons
       nuclear repulsion energy      2583.7445519779 Hartrees.
 IExCor= 4639 DFT=T Ex+Corr=wB97XD ExCW=0 ScaHFX=  1.000000
 ScaDFX=  1.000000  1.000000  1.000000  1.000000 ScalE2=  1.000000  1.000000
 IRadAn=      0 IRanWt=     -1 IRanGd=            0 ICorTp=0 IEmpDi=121
  HFx wShort=  0.000000 wLong=  0.200000 cFull=  0.222036 cShort=  0.000000 cLong=  0.777964
  DFx wShort=  0.000000 wLong=  0.200000 cFull=  0.000000 cShort=  0.000000 cLong=  1.000000
 NAtoms=   54 NActive=   54 NUniq=   54 SFac= 1.00D+00 NAtFMM=   60 NAOKFM=F Big=F
 Integral buffers will be    131072 words long.
 Raffenetti 1 integral format.
 Two-electron integral symmetry is turned off.
 R6Disp:  Grimme-D2 Dispersion energy=       -0.0423741780 Hartrees.
 Nuclear repulsion after empirical dispersion term =     2583.7021777999 Hartrees.
 Leave Link  301 at Thu Sep 28 18:21:38 2017, MaxMem=  1879048192 cpu:         0.1
 (Enter /share/apps/gaussian/g09_D01/g09/l302.exe)
 NPDir=0 NMtPBC=     1 NCelOv=     1 NCel=       1 NClECP=     1 NCelD=      1
         NCelK=      1 NCelE2=     1 NClLst=     1 CellRange=     0.0.
 One-electron integrals computed using PRISM.
 NBasis=   472 RedAO= T EigKep=  3.80D-04  NBF=   472
 NBsUse=   472 1.00D-06 EigRej= -1.00D+00 NBFU=   472
 Precomputing XC quadrature grid using
 IXCGrd= 4 IRadAn=           0 IRanWt=          -1 IRanGd=           0 AccXCQ= 0.00D+00.
 Generated NRdTot=       0 NPtTot=           0 NUsed=           0 NTot=          32
 NSgBfM=   460   460   460   460   460 MxSgAt=    54 MxSgA2=    54.
 Leave Link  302 at Thu Sep 28 18:21:39 2017, MaxMem=  1879048192 cpu:         2.5
 (Enter /share/apps/gaussian/g09_D01/g09/l308.exe)
 Leave Link  308 at Thu Sep 28 18:21:39 2017, MaxMem=  1879048192 cpu:         0.1
 (Enter /share/apps/gaussian/g09_D01/g09/l303.exe)
 DipDrv:  MaxL=1.
 Leave Link  303 at Thu Sep 28 18:21:39 2017, MaxMem=  1879048192 cpu:         0.1
 (Enter /share/apps/gaussian/g09_D01/g09/l401.exe)
 ExpMin= 1.61D-01 ExpMax= 5.48D+03 ExpMxC= 8.25D+02 IAcc=1 IRadAn=         1 AccDes= 0.00D+00
 Harris functional with IExCor= 4639 and IRadAn=       1 diagonalized for initial guess.
 HarFok:  IExCor= 4639 AccDes= 0.00D+00 IRadAn=         1 IDoV= 1 UseB2=F ITyADJ=14
 ICtDFT=  3500011 ScaDFX=  1.000000  1.000000  1.000000  1.000000
 FoFCou: FMM=F IPFlag=           0 FMFlag=      100000 FMFlg1=           0
         NFxFlg=           0 DoJE=T BraDBF=F KetDBF=T FulRan=T
         wScrn=  0.000000 ICntrl=     500 IOpCl=  0 I1Cent=   200000004 NGrid=           0
         NMat0=    1 NMatS0=      1 NMatT0=    0 NMatD0=    1 NMtDS0=    0 NMtDT0=    0
 Symmetry not used in FoFCou.
 Harris En= -1209.57070039344    
 JPrj=0 DoOrth=F DoCkMO=F.
 Leave Link  401 at Thu Sep 28 18:21:42 2017, MaxMem=  1879048192 cpu:         6.7
 (Enter /share/apps/gaussian/g09_D01/g09/l502.exe)
 Closed shell SCF:
 Using DIIS extrapolation, IDIIS=  1040.
 Two-electron integral symmetry not used.
 IVT=      692674 IEndB=      692674 NGot=  1879048192 MDV=  1878595415
 LenX=  1878595415 LenY=  1878372159
 Requested convergence on RMS density matrix=1.00D-08 within 128 cycles.
 Requested convergence on MAX density matrix=1.00D-06.
 Requested convergence on             energy=1.00D-06.
 No special actions if energy rises.
 Fock matrices will be formed incrementally for  20 cycles.
 Integral accuracy reduced to 1.0D-05 until final iterations.

 Cycle   1  Pass 0  IDiag  1:
 FoFJK:  IHMeth= 1 ICntrl=       0 DoSepK=T KAlg= 0 I1Cent=   0 FoldK=F
 IRaf=         1 NMat=   1 IRICut=       1 DoRegI=T DoRafI=F ISym2E= 0.
 FoFCou: FMM=F IPFlag=           0 FMFlag=      100000 FMFlg1=           0
         NFxFlg=           0 DoJE=T BraDBF=F KetDBF=F FulRan=T
         wScrn=  0.000000 ICntrl=     500 IOpCl=  0 I1Cent=           0 NGrid=           0
         NMat0=    1 NMatS0=      1 NMatT0=    0 NMatD0=    1 NMtDS0=    0 NMtDT0=    0
 Symmetry not used in FoFCou.
 E= -1263.61122664608    
 DIIS: error= 5.51D-02 at cycle   1 NSaved=   1.
 NSaved= 1 IEnMin= 1 EnMin= -1263.61122664608     IErMin= 1 ErrMin= 5.51D-02
 ErrMax= 5.51D-02  0.00D+00 EMaxC= 1.00D-01 BMatC= 1.23D+00 BMatP= 1.23D+00
 IDIUse=3 WtCom= 4.49D-01 WtEn= 5.51D-01
 Coeff-Com:  0.100D+01
 Coeff-En:   0.100D+01
 Coeff:      0.100D+01
 Gap=     0.341 Goal=   None    Shift=    0.000
 GapD=    0.341 DampG=1.000 DampE=0.500 DampFc=0.5000 IDamp=-1.
 Damping current iteration by 5.00D-01
 RMSDP=2.56D-03 MaxDP=1.37D-01              OVMax= 1.44D-01

 Cycle   2  Pass 0  IDiag  1:
 RMSU=  1.28D-03    CP:  1.00D+00
 E= -1263.78574110971     Delta-E=       -0.174514463632 Rises=F Damp=T
 DIIS: error= 2.83D-02 at cycle   2 NSaved=   2.
 NSaved= 2 IEnMin= 2 EnMin= -1263.78574110971     IErMin= 2 ErrMin= 2.83D-02
 ErrMax= 2.83D-02  0.00D+00 EMaxC= 1.00D-01 BMatC= 2.48D-01 BMatP= 1.23D+00
 IDIUse=3 WtCom= 7.17D-01 WtEn= 2.83D-01
 Coeff-Com: -0.379D+00 0.138D+01
 Coeff-En:   0.000D+00 0.100D+01
 Coeff:     -0.272D+00 0.127D+01
 Gap=     0.322 Goal=   None    Shift=    0.000
 RMSDP=1.01D-03 MaxDP=4.21D-02 DE=-1.75D-01 OVMax= 1.46D-01

 Cycle   3  Pass 0  IDiag  1:
 RMSU=  1.01D-03    CP:  1.00D+00  1.09D+00
 E= -1263.92851548338     Delta-E=       -0.142774373668 Rises=F Damp=F
 DIIS: error= 8.71D-03 at cycle   3 NSaved=   3.
 NSaved= 3 IEnMin= 3 EnMin= -1263.92851548338     IErMin= 3 ErrMin= 8.71D-03
 ErrMax= 8.71D-03  0.00D+00 EMaxC= 1.00D-01 BMatC= 7.53D-02 BMatP= 2.48D-01
 IDIUse=3 WtCom= 9.13D-01 WtEn= 8.71D-02
 Coeff-Com: -0.295D+00 0.615D+00 0.681D+00
 Coeff-En:   0.000D+00 0.000D+00 0.100D+01
 Coeff:     -0.270D+00 0.561D+00 0.708D+00
 Gap=     0.299 Goal=   None    Shift=    0.000
 RMSDP=6.15D-04 MaxDP=4.04D-02 DE=-1.43D-01 OVMax= 5.76D-02

 Cycle   4  Pass 0  IDiag  1:
 RMSU=  2.41D-04    CP:  1.00D+00  1.45D+00  6.73D-01
 E= -1263.98848868571     Delta-E=       -0.059973202333 Rises=F Damp=F
 DIIS: error= 2.76D-03 at cycle   4 NSaved=   4.
 NSaved= 4 IEnMin= 4 EnMin= -1263.98848868571     IErMin= 4 ErrMin= 2.76D-03
 ErrMax= 2.76D-03  0.00D+00 EMaxC= 1.00D-01 BMatC= 4.78D-03 BMatP= 7.53D-02
 IDIUse=3 WtCom= 9.72D-01 WtEn= 2.76D-02
 Coeff-Com: -0.131D+00 0.267D+00 0.383D+00 0.481D+00
 Coeff-En:   0.000D+00 0.000D+00 0.000D+00 0.100D+01
 Coeff:     -0.128D+00 0.260D+00 0.372D+00 0.496D+00
 Gap=     0.291 Goal=   None    Shift=    0.000
 RMSDP=1.35D-04 MaxDP=6.67D-03 DE=-6.00D-02 OVMax= 8.95D-03

 Cycle   5  Pass 0  IDiag  1:
 RMSU=  8.40D-05    CP:  1.00D+00  1.41D+00  7.38D-01  7.15D-01
 E= -1263.99233239832     Delta-E=       -0.003843712611 Rises=F Damp=F
 DIIS: error= 3.30D-04 at cycle   5 NSaved=   5.
 NSaved= 5 IEnMin= 5 EnMin= -1263.99233239832     IErMin= 5 ErrMin= 3.30D-04
 ErrMax= 3.30D-04  0.00D+00 EMaxC= 1.00D-01 BMatC= 1.13D-04 BMatP= 4.78D-03
 IDIUse=3 WtCom= 9.97D-01 WtEn= 3.30D-03
 Coeff-Com: -0.615D-02 0.109D-01 0.475D-01 0.140D+00 0.808D+00
 Coeff-En:   0.000D+00 0.000D+00 0.000D+00 0.000D+00 0.100D+01
 Coeff:     -0.613D-02 0.109D-01 0.474D-01 0.139D+00 0.809D+00
 Gap=     0.291 Goal=   None    Shift=    0.000
 RMSDP=4.00D-05 MaxDP=1.61D-03 DE=-3.84D-03 OVMax= 2.65D-03

 Cycle   6  Pass 0  IDiag  1:
 RMSU=  3.06D-05    CP:  1.00D+00  1.41D+00  7.49D-01  8.05D-01  1.09D+00
 E= -1263.99247181954     Delta-E=       -0.000139421215 Rises=F Damp=F
 DIIS: error= 1.82D-04 at cycle   6 NSaved=   6.
 NSaved= 6 IEnMin= 6 EnMin= -1263.99247181954     IErMin= 6 ErrMin= 1.82D-04
 ErrMax= 1.82D-04  0.00D+00 EMaxC= 1.00D-01 BMatC= 2.92D-05 BMatP= 1.13D-04
 IDIUse=3 WtCom= 9.98D-01 WtEn= 1.82D-03
 Coeff-Com:  0.267D-01-0.552D-01-0.597D-01-0.479D-01 0.368D+00 0.768D+00
 Coeff-En:   0.000D+00 0.000D+00 0.000D+00 0.000D+00 0.000D+00 0.100D+01
 Coeff:      0.267D-01-0.551D-01-0.596D-01-0.478D-01 0.367D+00 0.769D+00
 Gap=     0.292 Goal=   None    Shift=    0.000
 RMSDP=2.07D-05 MaxDP=9.27D-04 DE=-1.39D-04 OVMax= 2.79D-03

 Cycle   7  Pass 0  IDiag  1:
 RMSU=  1.30D-05    CP:  1.00D+00  1.41D+00  7.56D-01  8.36D-01  1.23D+00
                    CP:  1.01D+00
 E= -1263.99251997619     Delta-E=       -0.000048156650 Rises=F Damp=F
 DIIS: error= 5.04D-05 at cycle   7 NSaved=   7.
 NSaved= 7 IEnMin= 7 EnMin= -1263.99251997619     IErMin= 7 ErrMin= 5.04D-05
 ErrMax= 5.04D-05  0.00D+00 EMaxC= 1.00D-01 BMatC= 2.61D-06 BMatP= 2.92D-05
 IDIUse=1 WtCom= 1.00D+00 WtEn= 0.00D+00
 Coeff-Com:  0.665D-02-0.135D-01-0.168D-01-0.229D-01-0.209D-02 0.219D+00
 Coeff-Com:  0.830D+00
 Coeff:      0.665D-02-0.135D-01-0.168D-01-0.229D-01-0.209D-02 0.219D+00
 Coeff:      0.830D+00
 Gap=     0.292 Goal=   None    Shift=    0.000
 RMSDP=8.17D-06 MaxDP=2.65D-04 DE=-4.82D-05 OVMax= 9.29D-04

 Initial convergence to 1.0D-05 achieved.  Increase integral accuracy.
 Cycle   8  Pass 1  IDiag  1:
 E= -1263.99184586773     Delta-E=        0.000674108455 Rises=F Damp=F
 DIIS: error= 6.74D-05 at cycle   1 NSaved=   1.
 NSaved= 1 IEnMin= 1 EnMin= -1263.99184586773     IErMin= 1 ErrMin= 6.74D-05
 ErrMax= 6.74D-05  0.00D+00 EMaxC= 1.00D-01 BMatC= 9.91D-06 BMatP= 9.91D-06
 IDIUse=1 WtCom= 1.00D+00 WtEn= 0.00D+00
 Coeff-Com:  0.100D+01
 Coeff:      0.100D+01
 Gap=     0.292 Goal=   None    Shift=    0.000
 RMSDP=8.17D-06 MaxDP=2.65D-04 DE= 6.74D-04 OVMax= 5.40D-04

 Cycle   9  Pass 1  IDiag  1:
 RMSU=  2.95D-05    CP:  1.00D+00
 E= -1263.99185368440     Delta-E=       -0.000007816669 Rises=F Damp=F
 DIIS: error= 2.50D-05 at cycle   2 NSaved=   2.
 NSaved= 2 IEnMin= 2 EnMin= -1263.99185368440     IErMin= 2 ErrMin= 2.50D-05
 ErrMax= 2.50D-05  0.00D+00 EMaxC= 1.00D-01 BMatC= 7.98D-07 BMatP= 9.91D-06
 IDIUse=1 WtCom= 1.00D+00 WtEn= 0.00D+00
 Coeff-Com:  0.670D-01 0.933D+00
 Coeff:      0.670D-01 0.933D+00
 Gap=     0.292 Goal=   None    Shift=    0.000
 RMSDP=4.04D-06 MaxDP=1.58D-04 DE=-7.82D-06 OVMax= 3.27D-04

 Cycle  10  Pass 1  IDiag  1:
 RMSU=  3.90D-06    CP:  1.00D+00  1.04D+00
 E= -1263.99185393367     Delta-E=       -0.000000249264 Rises=F Damp=F
 DIIS: error= 2.15D-05 at cycle   3 NSaved=   3.
 NSaved= 3 IEnMin= 3 EnMin= -1263.99185393367     IErMin= 3 ErrMin= 2.15D-05
 ErrMax= 2.15D-05  0.00D+00 EMaxC= 1.00D-01 BMatC= 7.06D-07 BMatP= 7.98D-07
 IDIUse=1 WtCom= 1.00D+00 WtEn= 0.00D+00
 Coeff-Com: -0.411D-01 0.494D+00 0.547D+00
 Coeff:     -0.411D-01 0.494D+00 0.547D+00
 Gap=     0.292 Goal=   None    Shift=    0.000
 RMSDP=1.93D-06 MaxDP=9.60D-05 DE=-2.49D-07 OVMax= 1.77D-04

 Cycle  11  Pass 1  IDiag  1:
 RMSU=  1.14D-06    CP:  1.00D+00  1.05D+00  6.20D-01
 E= -1263.99185463162     Delta-E=       -0.000000697953 Rises=F Damp=F
 DIIS: error= 3.14D-06 at cycle   4 NSaved=   4.
 NSaved= 4 IEnMin= 4 EnMin= -1263.99185463162     IErMin= 4 ErrMin= 3.14D-06
 ErrMax= 3.14D-06  0.00D+00 EMaxC= 1.00D-01 BMatC= 1.36D-08 BMatP= 7.06D-07
 IDIUse=1 WtCom= 1.00D+00 WtEn= 0.00D+00
 Coeff-Com: -0.113D-01 0.548D-01 0.125D+00 0.832D+00
 Coeff:     -0.113D-01 0.548D-01 0.125D+00 0.832D+00
 Gap=     0.292 Goal=   None    Shift=    0.000
 RMSDP=5.30D-07 MaxDP=1.88D-05 DE=-6.98D-07 OVMax= 5.80D-05

 Cycle  12  Pass 1  IDiag  1:
 RMSU=  3.63D-07    CP:  1.00D+00  1.05D+00  6.90D-01  1.24D+00
 E= -1263.99185465656     Delta-E=       -0.000000024942 Rises=F Damp=F
 DIIS: error= 2.17D-06 at cycle   5 NSaved=   5.
 NSaved= 5 IEnMin= 5 EnMin= -1263.99185465656     IErMin= 5 ErrMin= 2.17D-06
 ErrMax= 2.17D-06  0.00D+00 EMaxC= 1.00D-01 BMatC= 3.66D-09 BMatP= 1.36D-08
 IDIUse=1 WtCom= 1.00D+00 WtEn= 0.00D+00
 Coeff-Com:  0.382D-02-0.782D-01-0.520D-01 0.339D+00 0.787D+00
 Coeff:      0.382D-02-0.782D-01-0.520D-01 0.339D+00 0.787D+00
 Gap=     0.292 Goal=   None    Shift=    0.000
 RMSDP=3.04D-07 MaxDP=1.16D-05 DE=-2.49D-08 OVMax= 5.65D-05

 Cycle  13  Pass 1  IDiag  1:
 RMSU=  1.58D-07    CP:  1.00D+00  1.05D+00  7.24D-01  1.43D+00  1.04D+00
 E= -1263.99185466604     Delta-E=       -0.000000009481 Rises=F Damp=F
 DIIS: error= 9.91D-07 at cycle   6 NSaved=   6.
 NSaved= 6 IEnMin= 6 EnMin= -1263.99185466604     IErMin= 6 ErrMin= 9.91D-07
 ErrMax= 9.91D-07  0.00D+00 EMaxC= 1.00D-01 BMatC= 8.64D-10 BMatP= 3.66D-09
 IDIUse=1 WtCom= 1.00D+00 WtEn= 0.00D+00
 Coeff-Com:  0.321D-02-0.356D-01-0.359D-01-0.517D-01 0.313D+00 0.807D+00
 Coeff:      0.321D-02-0.356D-01-0.359D-01-0.517D-01 0.313D+00 0.807D+00
 Gap=     0.292 Goal=   None    Shift=    0.000
 RMSDP=1.57D-07 MaxDP=4.11D-06 DE=-9.48D-09 OVMax= 2.55D-05

 Cycle  14  Pass 1  IDiag  1:
 RMSU=  6.80D-08    CP:  1.00D+00  1.05D+00  7.36D-01  1.52D+00  1.28D+00
                    CP:  1.16D+00
 E= -1263.99185466796     Delta-E=       -0.000000001918 Rises=F Damp=F
 DIIS: error= 3.88D-07 at cycle   7 NSaved=   7.
 NSaved= 7 IEnMin= 7 EnMin= -1263.99185466796     IErMin= 7 ErrMin= 3.88D-07
 ErrMax= 3.88D-07  0.00D+00 EMaxC= 1.00D-01 BMatC= 1.45D-10 BMatP= 8.64D-10
 IDIUse=1 WtCom= 1.00D+00 WtEn= 0.00D+00
 Coeff-Com:  0.402D-03 0.355D-02-0.233D-02-0.119D+00-0.349D-01 0.330D+00
 Coeff-Com:  0.823D+00
 Coeff:      0.402D-03 0.355D-02-0.233D-02-0.119D+00-0.349D-01 0.330D+00
 Coeff:      0.823D+00
 Gap=     0.292 Goal=   None    Shift=    0.000
 RMSDP=7.88D-08 MaxDP=1.84D-06 DE=-1.92D-09 OVMax= 1.33D-05

 Cycle  15  Pass 1  IDiag  1:
 RMSU=  2.53D-08    CP:  1.00D+00  1.05D+00  7.44D-01  1.56D+00  1.37D+00
                    CP:  1.40D+00  1.05D+00
 E= -1263.99185466836     Delta-E=       -0.000000000401 Rises=F Damp=F
 DIIS: error= 1.45D-07 at cycle   8 NSaved=   8.
 NSaved= 8 IEnMin= 8 EnMin= -1263.99185466836     IErMin= 8 ErrMin= 1.45D-07
 ErrMax= 1.45D-07  0.00D+00 EMaxC= 1.00D-01 BMatC= 1.73D-11 BMatP= 1.45D-10
 IDIUse=1 WtCom= 1.00D+00 WtEn= 0.00D+00
 Coeff-Com: -0.255D-03 0.605D-02 0.426D-02-0.376D-01-0.436D-01 0.230D-01
 Coeff-Com:  0.300D+00 0.748D+00
 Coeff:     -0.255D-03 0.605D-02 0.426D-02-0.376D-01-0.436D-01 0.230D-01
 Coeff:      0.300D+00 0.748D+00
 Gap=     0.292 Goal=   None    Shift=    0.000
 RMSDP=1.89D-08 MaxDP=7.08D-07 DE=-4.01D-10 OVMax= 2.95D-06

 Cycle  16  Pass 1  IDiag  1:
 RMSU=  1.02D-08    CP:  1.00D+00  1.05D+00  7.45D-01  1.56D+00  1.39D+00
                    CP:  1.45D+00  1.20D+00  1.03D+00
 E= -1263.99185466845     Delta-E=       -0.000000000086 Rises=F Damp=F
 DIIS: error= 6.01D-08 at cycle   9 NSaved=   9.
 NSaved= 9 IEnMin= 9 EnMin= -1263.99185466845     IErMin= 9 ErrMin= 6.01D-08
 ErrMax= 6.01D-08  0.00D+00 EMaxC= 1.00D-01 BMatC= 3.69D-12 BMatP= 1.73D-11
 IDIUse=1 WtCom= 1.00D+00 WtEn= 0.00D+00
 Coeff-Com: -0.177D-03 0.201D-02 0.212D-02 0.343D-02-0.146D-01-0.503D-01
 Coeff-Com: -0.154D-01 0.328D+00 0.745D+00
 Coeff:     -0.177D-03 0.201D-02 0.212D-02 0.343D-02-0.146D-01-0.503D-01
 Coeff:     -0.154D-01 0.328D+00 0.745D+00
 Gap=     0.292 Goal=   None    Shift=    0.000
 RMSDP=8.31D-09 MaxDP=2.22D-07 DE=-8.59D-11 OVMax= 1.29D-06

 SCF Done:  E(RwB97XD) =  -1263.99185467     A.U. after   16 cycles
            NFock= 16  Conv=0.83D-08     -V/T= 2.0091
 KE= 1.252639726498D+03 PE=-8.108840059885D+03 EE= 3.008506300919D+03
 Leave Link  502 at Thu Sep 28 18:27:04 2017, MaxMem=  1879048192 cpu:       643.3
 (Enter /share/apps/gaussian/g09_D01/g09/l801.exe)
 DoSCS=F DFT=T ScalE2(SS,OS)=  1.000000  1.000000
 ExpMin= 1.61D-01 ExpMax= 5.48D+03 ExpMxC= 8.25D+02 IAcc=3 IRadAn=         5 AccDes= 0.00D+00
 HarFok:  IExCor=  205 AccDes= 0.00D+00 IRadAn=         5 IDoV=-2 UseB2=F ITyADJ=14
 ICtDFT= 12500011 ScaDFX=  1.000000  1.000000  1.000000  1.000000
 Largest valence mixing into a core orbital is  7.26D-05
 Largest core mixing into a valence orbital is  1.50D-05
 Range of M.O.s used for correlation:    29   472
 NBasis=   472 NAE=   102 NBE=   102 NFC=    28 NFV=     0
 NROrb=    444 NOA=    74 NOB=    74 NVA=   370 NVB=   370
 Leave Link  801 at Thu Sep 28 18:27:05 2017, MaxMem=  1879048192 cpu:         1.5
 (Enter /share/apps/gaussian/g09_D01/g09/l914.exe)
 RHF ground state
 MDV=  1879048192 DFT=T DoStab=F Mixed=T DoRPA=T DoScal=F NonHer=T
 Would need an additional         35556700000 words for in-memory AO integral storage.
 Making orbital integer symmetry assigments:
 Restoring state from the checkpoint file.
    2 states for AA,BB on restart file.
     2 initial guesses have been made.
 Convergence on wavefunction:    0.001000000000000
 Davidson Disk Diagonalization:  ConvIn= 1.00D-03 SkipCon=T Conv= 1.00D-03.
 Max sub-space:   200 roots to seek:     4 dimension of matrix:        54760
 Iteration     1 Dimension     6 NMult     0 NNew      6
 CISAX will form     6 AO SS matrices at one time.
 NMat=     6 NSing=     6 JSym2X= 0.
 FoFJK:  IHMeth= 1 ICntrl=       0 DoSepK=T KAlg= 0 I1Cent=   0 FoldK=F
 IRaf=         1 NMat=  12 IRICut=       1 DoRegI=T DoRafI=F ISym2E= 0.
 FoFCou: FMM=F IPFlag=           0 FMFlag=      100000 FMFlg1=           0
         NFxFlg=           0 DoJE=F BraDBF=F KetDBF=F FulRan=T
         wScrn=  0.000000 ICntrl=     500 IOpCl=  0 I1Cent=           0 NGrid=           0
         NMat0=    6 NMatS0=      6 NMatT0=    0 NMatD0=    6 NMtDS0=    0 NMtDT0=    0
 Symmetry not used in FoFCou.
 New state      3 was old state      4
 New state      4 was old state      3
 Excitation Energies [eV] at current iteration:
 Root      1 :     4.171230106112223
 Root      2 :     4.278177055404423
 Root      3 :     5.287322280129636
 Root      4 :     5.444809812579481
 Iteration     2 Dimension    14 NMult     6 NNew      8
 CISAX will form     8 AO SS matrices at one time.
 NMat=     8 NSing=     8 JSym2X= 0.
 Root      1 has converged.
 Root      2 has converged.
 Root      3 not converged, maximum delta is    0.166928033534602
 Root      4 not converged, maximum delta is    0.152644707764282
 Excitation Energies [eV] at current iteration:
 Root      1 :     4.171229258421531   Change is   -0.000000847690692
 Root      2 :     4.278174683630150   Change is   -0.000002371774273
 Root      3 :     4.734450986816070   Change is   -0.552871293313565
 Root      4 :     5.143037919543460   Change is   -0.301771893036021
 Iteration     3 Dimension    18 NMult    14 NNew      4
 CISAX will form     4 AO SS matrices at one time.
 NMat=     4 NSing=     4 JSym2X= 0.
 Root      1 has converged.
 Root      2 has converged.
 Root      3 not converged, maximum delta is    0.210179728911668
 Root      4 not converged, maximum delta is    0.048615839924555
 Excitation Energies [eV] at current iteration:
 Root      1 :     4.171229256028381   Change is   -0.000000002393149
 Root      2 :     4.278174647915405   Change is   -0.000000035714745
 Root      3 :     4.477288624862831   Change is   -0.257162361953239
 Root      4 :     5.095637607355529   Change is   -0.047400312187931
 Iteration     4 Dimension    22 NMult    18 NNew      4
 CISAX will form     4 AO SS matrices at one time.
 NMat=     4 NSing=     4 JSym2X= 0.
 Root      1 has converged.
 Root      2 has converged.
 Root      3 not converged, maximum delta is    0.106502211053267
 Root      4 not converged, maximum delta is    0.291150390900127
 Excitation Energies [eV] at current iteration:
 Root      1 :     4.171229250432823   Change is   -0.000000005595558
 Root      2 :     4.278174632325939   Change is   -0.000000015589466
 Root      3 :     4.361556400129326   Change is   -0.115732224733504
 Root      4 :     4.884153085408933   Change is   -0.211484521946596
 Iteration     5 Dimension    26 NMult    22 NNew      4
 CISAX will form     4 AO SS matrices at one time.
 NMat=     4 NSing=     4 JSym2X= 0.
 Root      1 has converged.
 Root      2 has converged.
 Root      3 not converged, maximum delta is    0.033839843440128
 Root      4 not converged, maximum delta is    0.159717630552907
 Excitation Energies [eV] at current iteration:
 Root      1 :     4.171229242622967   Change is   -0.000000007809855
 Root      2 :     4.278174603069082   Change is   -0.000000029256858
 Root      3 :     4.345874220589516   Change is   -0.015682179539811
 Root      4 :     4.401918175113086   Change is   -0.482234910295847
 Iteration     6 Dimension    30 NMult    26 NNew      4
 CISAX will form     4 AO SS matrices at one time.
 NMat=     4 NSing=     4 JSym2X= 0.
 Root      1 has converged.
 Root      2 has converged.
 Root      3 not converged, maximum delta is    0.068205654108621
 Root      4 not converged, maximum delta is    0.044227026056737
 Excitation Energies [eV] at current iteration:
 Root      1 :     4.171229238669971   Change is   -0.000000003952997
 Root      2 :     4.278174553513581   Change is   -0.000000049555501
 Root      3 :     4.338557265927436   Change is   -0.007316954662079
 Root      4 :     4.358364503895714   Change is   -0.043553671217372
 Iteration     7 Dimension    34 NMult    30 NNew      4
 CISAX will form     4 AO SS matrices at one time.
 NMat=     4 NSing=     4 JSym2X= 0.
 Root      1 has converged.
 Root      2 has converged.
 Root      3 not converged, maximum delta is    0.117257544416524
 Root      4 not converged, maximum delta is    0.082781539543865
 Excitation Energies [eV] at current iteration:
 Root      1 :     4.171229219975777   Change is   -0.000000018694194
 Root      2 :     4.278174527876607   Change is   -0.000000025636973
 Root      3 :     4.333423533977592   Change is   -0.005133731949845
 Root      4 :     4.346165111624327   Change is   -0.012199392271386
 Iteration     8 Dimension    38 NMult    34 NNew      4
 CISAX will form     4 AO SS matrices at one time.
 NMat=     4 NSing=     4 JSym2X= 0.
 Root      1 has converged.
 Root      2 has converged.
 Root      3 not converged, maximum delta is    0.246055778697396
 Root      4 not converged, maximum delta is    0.193324906807750
 Excitation Energies [eV] at current iteration:
 Root      1 :     4.171229182655757   Change is   -0.000000037320020
 Root      2 :     4.278174518004307   Change is   -0.000000009872300
 Root      3 :     4.329604764991046   Change is   -0.003818768986545
 Root      4 :     4.337342260802101   Change is   -0.008822850822226
 Iteration     9 Dimension    42 NMult    38 NNew      4
 CISAX will form     4 AO SS matrices at one time.
 NMat=     4 NSing=     4 JSym2X= 0.
 Root      1 has converged.
 Root      2 has converged.
 Root      3 not converged, maximum delta is    0.084764600776658
 Root      4 not converged, maximum delta is    0.073219241417645
 Excitation Energies [eV] at current iteration:
 Root      1 :     4.171229179607270   Change is   -0.000000003048487
 Root      2 :     4.278174485616503   Change is   -0.000000032387804
 Root      3 :     4.327147804256116   Change is   -0.002456960734930
 Root      4 :     4.335921113654284   Change is   -0.001421147147817
 Iteration    10 Dimension    46 NMult    42 NNew      4
 CISAX will form     4 AO SS matrices at one time.
 NMat=     4 NSing=     4 JSym2X= 0.
 Root      1 has converged.
 Root      2 has converged.
 Root      3 not converged, maximum delta is    0.022188901419590
 Root      4 not converged, maximum delta is    0.023867563681250
 Excitation Energies [eV] at current iteration:
 Root      1 :     4.171229165518256   Change is   -0.000000014089013
 Root      2 :     4.278174415244404   Change is   -0.000000070372099
 Root      3 :     4.326053045733526   Change is   -0.001094758522590
 Root      4 :     4.335583984961084   Change is   -0.000337128693200
 Iteration    11 Dimension    50 NMult    46 NNew      4
 CISAX will form     4 AO SS matrices at one time.
 NMat=     4 NSing=     4 JSym2X= 0.
 Root      1 has converged.
 Root      2 has converged.
 Root      3 not converged, maximum delta is    0.005703165608140
 Root      4 not converged, maximum delta is    0.006728576355197
 Excitation Energies [eV] at current iteration:
 Root      1 :     4.171229152462269   Change is   -0.000000013055987
 Root      2 :     4.278174376353440   Change is   -0.000000038890964
 Root      3 :     4.325754777489052   Change is   -0.000298268244475
 Root      4 :     4.335496917559654   Change is   -0.000087067401430
 Iteration    12 Dimension    54 NMult    50 NNew      4
 CISAX will form     4 AO SS matrices at one time.
 NMat=     4 NSing=     4 JSym2X= 0.
 Root      1 has converged.
 Root      2 has converged.
 Root      3 not converged, maximum delta is    0.001243635244203
 Root      4 not converged, maximum delta is    0.001328282734505
 Excitation Energies [eV] at current iteration:
 Root      1 :     4.171229144837631   Change is   -0.000000007624638
 Root      2 :     4.278174355316035   Change is   -0.000000021037405
 Root      3 :     4.325703910237783   Change is   -0.000050867251268
 Root      4 :     4.335481390967510   Change is   -0.000015526592144
 Iteration    13 Dimension    58 NMult    54 NNew      4
 CISAX will form     4 AO SS matrices at one time.
 NMat=     4 NSing=     4 JSym2X= 0.
 Root      1 has converged.
 Root      2 has converged.
 Root      3 has converged.
 Root      4 has converged.
 Excitation Energies [eV] at current iteration:
 Root      1 :     4.171229143235214   Change is   -0.000000001602417
 Root      2 :     4.278174345253213   Change is   -0.000000010062823
 Root      3 :     4.325696557824275   Change is   -0.000007352413508
 Root      4 :     4.335478986878887   Change is   -0.000002404088623
 Convergence achieved on expansion vectors.
 ***********************************************************************
 Excited states from <AA,BB:AA,BB> singles matrix:
 ***********************************************************************
 
 1PDM for each excited state written to RWF  633
 Ground to excited state transition densities written to RWF  633
 Ground to excited state transition electric dipole moments (Au):
       state          X           Y           Z        Dip. S.      Osc.
         1         0.1176      0.0700     -0.0056      0.0188      0.0019
         2         2.1416      1.1926      0.0842      6.0159      0.6306
         3         0.4489      0.2508      0.0013      0.2644      0.0280
         4        -1.5215     -0.8479      0.0064      3.0339      0.3223
 Ground to excited state transition velocity dipole moments (Au):
       state          X           Y           Z        Dip. S.      Osc.
         1        -0.0175     -0.0108      0.0005      0.0004      0.0018
         2        -0.3339     -0.1858     -0.0185      0.1463      0.6205
         3        -0.0697     -0.0392     -0.0020      0.0064      0.0268
         4         0.2386      0.1346      0.0044      0.0751      0.3141
 Ground to excited state transition magnetic dipole moments (Au):
       state          X           Y           Z
         1        -1.3747      1.9584      1.1038
         2        -0.0150      0.0624     -0.0933
         3         0.0690     -0.1335      0.5294
         4        -0.1014      0.1235      0.0546
 Ground to excited state transition velocity quadrupole moments (Au):
       state          XX          YY          ZZ          XY          XZ          YZ
         1        -1.2238     -1.5752      0.2582     -1.7540      1.5315      0.5317
         2        -0.1253     -0.0924      0.0023     -0.1304      0.0740      0.0394
         3         0.4074      0.4060     -0.0212      0.4973     -0.3659     -0.1533
         4        -0.1261     -0.1363      0.0172     -0.1516      0.1186      0.0431
 <0|del|b> * <b|rxdel|0> + <0|del|b> * <b|delr+rdel|0>
 Rotatory Strengths (R) in cgs (10**-40 erg-esu-cm/Gauss)
       state          XX          YY          ZZ    R(velocity)    E-M Angle
         1       -11.3604     37.2613     -9.9180      5.3276       86.33
         2        14.1746    -19.8198    -16.1261     -7.2571       96.41
         3       -24.8971     12.9183      9.1419     -0.9456       90.83
         4         0.5060    -28.8433     -4.2123    -10.8499       99.12
 1/2[<0|r|b>*<b|rxdel|0> + (<0|rxdel|b>*<b|r|0>)*]
 Rotatory Strengths (R) in cgs (10**-40 erg-esu-cm/Gauss)
       state          XX          YY          ZZ     R(length)
         1       114.3257    -96.9459      4.4026      7.2608
         2        22.7808    -52.5932      5.5598     -8.0842
         3       -21.9072     23.6709     -0.4970      0.4222
         4      -109.1199     74.0449     -0.2475    -11.7742
  1/2[<0|del|b>*<b|r|0> + (<0|r|b>*<b|del|0>)*] (Au)
       state          X           Y           Z        Dip. S.   Osc.(frdel)
         1        -0.0021     -0.0008      0.0000      0.0028      0.0019
         2        -0.7150     -0.2216     -0.0016      0.9381      0.6254
         3        -0.0313     -0.0098      0.0000      0.0411      0.0274
         4        -0.3630     -0.1141      0.0000      0.4771      0.3181

 Excitation energies and oscillator strengths:
 
 Excited state symmetry could not be determined.
 Excited State   1:      Singlet-?Sym    4.1712 eV  297.24 nm  f=0.0019  <S**2>=0.000
     101 ->103         0.48794
     102 ->104        -0.45071
 This state for optimization and/or second-order correction.
 Total Energy, E(TD-HF/TD-KS) =  -1263.83856481    
 Copying the excited state density for this state as the 1-particle RhoCI density.
 
 Excited state symmetry could not be determined.
 Excited State   2:      Singlet-?Sym    4.2782 eV  289.81 nm  f=0.6306  <S**2>=0.000
      95 ->104        -0.12854
      96 ->103         0.15332
      96 ->104         0.14546
      97 ->103         0.12364
      98 ->103         0.15050
      98 ->104         0.23786
      99 ->104        -0.10259
     101 ->103         0.21893
     101 ->104        -0.29155
     102 ->103         0.32538
     102 ->104         0.17882
 
 Excited state symmetry could not be determined.
 Excited State   3:      Singlet-?Sym    4.3257 eV  286.62 nm  f=0.0280  <S**2>=0.000
      95 ->103         0.22445
      96 ->104        -0.23555
      97 ->103         0.39861
      97 ->104        -0.23138
      98 ->103        -0.19189
      98 ->104        -0.28538
     102 ->104         0.11856
 
 Excited state symmetry could not be determined.
 Excited State   4:      Singlet-?Sym    4.3355 eV  285.98 nm  f=0.3223  <S**2>=0.000
      95 ->104        -0.15007
      96 ->103         0.17752
      96 ->104         0.11081
      97 ->103         0.32194
      97 ->104        -0.19784
      98 ->103         0.17068
      98 ->104         0.27110
     100 ->103        -0.10464
     100 ->104        -0.10818
     101 ->104         0.19292
     102 ->103        -0.21168
     102 ->104        -0.15120
 SavETr:  write IOETrn=   770 NScale= 10 NData=  16 NLR=1 NState=    4 LETran=      82.
 Leave Link  914 at Thu Sep 28 18:47:28 2017, MaxMem=  1879048192 cpu:      2448.1
 (Enter /share/apps/gaussian/g09_D01/g09/l601.exe)
 Copying SCF densities to generalized density rwf, IOpCl= 0 IROHF=0.

 **********************************************************************

            Population analysis using the SCF density.

 **********************************************************************

 Alpha  occ. eigenvalues --  -19.27378 -19.27372 -19.24309 -19.24188 -14.50257
 Alpha  occ. eigenvalues --  -14.50198 -10.37961 -10.37808 -10.36084 -10.35988
 Alpha  occ. eigenvalues --  -10.35275 -10.35181 -10.33964 -10.33897 -10.33606
 Alpha  occ. eigenvalues --  -10.33470 -10.30619 -10.30503 -10.30470 -10.30390
 Alpha  occ. eigenvalues --  -10.30092 -10.29955 -10.29226 -10.29159 -10.29018
 Alpha  occ. eigenvalues --  -10.28969 -10.27867 -10.27726  -1.15501  -1.15373
 Alpha  occ. eigenvalues --   -1.11515  -1.11386  -1.07582  -1.07506  -0.95119
 Alpha  occ. eigenvalues --   -0.95026  -0.88307  -0.88171  -0.85574  -0.85431
 Alpha  occ. eigenvalues --   -0.83890  -0.83850  -0.83289  -0.83216  -0.79115
 Alpha  occ. eigenvalues --   -0.78973  -0.73007  -0.72880  -0.69433  -0.69333
 Alpha  occ. eigenvalues --   -0.68107  -0.67985  -0.64213  -0.64077  -0.62005
 Alpha  occ. eigenvalues --   -0.61772  -0.59870  -0.59839  -0.58313  -0.58232
 Alpha  occ. eigenvalues --   -0.57269  -0.57126  -0.56871  -0.56749  -0.54632
 Alpha  occ. eigenvalues --   -0.54513  -0.52396  -0.52253  -0.51327  -0.51261
 Alpha  occ. eigenvalues --   -0.51131  -0.50922  -0.50543  -0.50391  -0.49723
 Alpha  occ. eigenvalues --   -0.49609  -0.49284  -0.49118  -0.48119  -0.48065
 Alpha  occ. eigenvalues --   -0.46657  -0.46350  -0.46071  -0.45805  -0.45646
 Alpha  occ. eigenvalues --   -0.45399  -0.44812  -0.44683  -0.41736  -0.41689
 Alpha  occ. eigenvalues --   -0.41614  -0.41410  -0.40380  -0.40247  -0.32967
 Alpha  occ. eigenvalues --   -0.32905  -0.32690  -0.32470  -0.29233  -0.29120
 Alpha  occ. eigenvalues --   -0.27669  -0.27596
 Alpha virt. eigenvalues --    0.01576   0.01891   0.07930   0.08179   0.09816
 Alpha virt. eigenvalues --    0.09925   0.16040   0.16590   0.17153   0.17526
 Alpha virt. eigenvalues --    0.17955   0.18233   0.18918   0.19230   0.20234
 Alpha virt. eigenvalues --    0.21089   0.21305   0.21497   0.22436   0.22494
 Alpha virt. eigenvalues --    0.22848   0.23074   0.24110   0.24286   0.25016
 Alpha virt. eigenvalues --    0.25219   0.25985   0.26104   0.26920   0.27020
 Alpha virt. eigenvalues --    0.27414   0.27584   0.27937   0.28104   0.28495
 Alpha virt. eigenvalues --    0.28796   0.30539   0.30907   0.32865   0.33703
 Alpha virt. eigenvalues --    0.34452   0.34888   0.35007   0.35147   0.37100
 Alpha virt. eigenvalues --    0.37446   0.40185   0.40372   0.41728   0.41918
 Alpha virt. eigenvalues --    0.42497   0.42991   0.43985   0.45157   0.47077
 Alpha virt. eigenvalues --    0.47861   0.49160   0.49743   0.51277   0.52620
 Alpha virt. eigenvalues --    0.54329   0.55726   0.57269   0.58071   0.58388
 Alpha virt. eigenvalues --    0.58974   0.60025   0.60250   0.61392   0.61602
 Alpha virt. eigenvalues --    0.62965   0.63127   0.63612   0.63730   0.64138
 Alpha virt. eigenvalues --    0.64716   0.64967   0.65252   0.66033   0.66220
 Alpha virt. eigenvalues --    0.66557   0.68313   0.68834   0.69197   0.69599
 Alpha virt. eigenvalues --    0.69670   0.69878   0.70208   0.70332   0.71313
 Alpha virt. eigenvalues --    0.71372   0.71430   0.71655   0.72633   0.73217
 Alpha virt. eigenvalues --    0.73442   0.73699   0.73853   0.75500   0.76214
 Alpha virt. eigenvalues --    0.77610   0.78233   0.78375   0.79565   0.80651
 Alpha virt. eigenvalues --    0.80688   0.81264   0.81629   0.83104   0.83870
 Alpha virt. eigenvalues --    0.84189   0.85072   0.85592   0.87410   0.89596
 Alpha virt. eigenvalues --    0.89805   0.90169   0.90556   0.91691   0.92143
 Alpha virt. eigenvalues --    0.92903   0.93253   0.93441   0.93903   0.94242
 Alpha virt. eigenvalues --    0.94833   0.95091   0.95347   0.95893   0.96722
 Alpha virt. eigenvalues --    0.97454   0.97856   0.98370   0.99241   0.99903
 Alpha virt. eigenvalues --    1.00239   1.00738   1.01107   1.01595   1.01615
 Alpha virt. eigenvalues --    1.02504   1.02743   1.03224   1.03727   1.03902
 Alpha virt. eigenvalues --    1.04250   1.05776   1.06658   1.07777   1.08081
 Alpha virt. eigenvalues --    1.08253   1.10312   1.10548   1.10739   1.11620
 Alpha virt. eigenvalues --    1.11909   1.13601   1.14241   1.15078   1.16053
 Alpha virt. eigenvalues --    1.16482   1.16932   1.18351   1.18492   1.18759
 Alpha virt. eigenvalues --    1.20021   1.20866   1.22583   1.23827   1.24852
 Alpha virt. eigenvalues --    1.26483   1.27068   1.27554   1.28391   1.29755
 Alpha virt. eigenvalues --    1.31755   1.32968   1.33445   1.35417   1.35836
 Alpha virt. eigenvalues --    1.37324   1.37523   1.40515   1.40606   1.40901
 Alpha virt. eigenvalues --    1.41366   1.41471   1.42000   1.43928   1.44769
 Alpha virt. eigenvalues --    1.45462   1.46309   1.47305   1.48495   1.49735
 Alpha virt. eigenvalues --    1.49942   1.50764   1.51651   1.52664   1.52962
 Alpha virt. eigenvalues --    1.53743   1.54529   1.55667   1.56072   1.56592
 Alpha virt. eigenvalues --    1.57136   1.58452   1.58723   1.59221   1.60333
 Alpha virt. eigenvalues --    1.62029   1.62969   1.66134   1.66511   1.66905
 Alpha virt. eigenvalues --    1.67223   1.79743   1.80275   1.82607   1.82653
 Alpha virt. eigenvalues --    1.84727   1.85384   1.86535   1.86788   1.87018
 Alpha virt. eigenvalues --    1.87318   1.88920   1.88958   1.90347   1.91311
 Alpha virt. eigenvalues --    1.91775   1.92324   1.92395   1.93555   1.97963
 Alpha virt. eigenvalues --    1.98829   2.00322   2.00454   2.01367   2.01595
 Alpha virt. eigenvalues --    2.02326   2.02694   2.03628   2.04323   2.04484
 Alpha virt. eigenvalues --    2.04922   2.06087   2.06491   2.07486   2.08144
 Alpha virt. eigenvalues --    2.08432   2.08583   2.10172   2.10783   2.11639
 Alpha virt. eigenvalues --    2.12127   2.13363   2.13829   2.14892   2.16872
 Alpha virt. eigenvalues --    2.18971   2.19144   2.19948   2.20750   2.21089
 Alpha virt. eigenvalues --    2.21822   2.22751   2.23075   2.24477   2.24862
 Alpha virt. eigenvalues --    2.27475   2.28578   2.32285   2.32331   2.33274
 Alpha virt. eigenvalues --    2.33407   2.34303   2.34469   2.34661   2.35176
 Alpha virt. eigenvalues --    2.37299   2.37535   2.39076   2.39871   2.40222
 Alpha virt. eigenvalues --    2.40409   2.40584   2.41112   2.43650   2.44650
 Alpha virt. eigenvalues --    2.47318   2.47793   2.49983   2.50909   2.51379
 Alpha virt. eigenvalues --    2.52869   2.57927   2.58049   2.59938   2.60859
 Alpha virt. eigenvalues --    2.62507   2.62680   2.63914   2.64047   2.65580
 Alpha virt. eigenvalues --    2.65753   2.69680   2.70030   2.70768   2.71125
 Alpha virt. eigenvalues --    2.71965   2.72078   2.76180   2.76873   2.77578
 Alpha virt. eigenvalues --    2.78163   2.79510   2.79983   2.83257   2.83512
 Alpha virt. eigenvalues --    2.86938   2.87059   2.93039   2.93495   2.93770
 Alpha virt. eigenvalues --    2.93912   2.98075   2.98921   3.02983   3.04006
 Alpha virt. eigenvalues --    3.06075   3.06816   3.14068   3.14606   3.17209
 Alpha virt. eigenvalues --    3.18422   3.27283   3.28498   3.36642   3.37410
 Alpha virt. eigenvalues --    3.55192   3.55273   4.08518   4.09814   4.14102
 Alpha virt. eigenvalues --    4.15364   4.15606   4.16860   4.20468   4.20551
 Alpha virt. eigenvalues --    4.23836   4.24344   4.28589   4.30222   4.34609
 Alpha virt. eigenvalues --    4.35476   4.36241   4.36414   4.41094   4.41743
 Alpha virt. eigenvalues --    4.46897   4.48844   4.52412   4.53697   4.57549
 Alpha virt. eigenvalues --    4.62357   4.79098   4.81417   4.89590   4.89967
          Condensed to atoms (all electrons):
 Mulliken charges:
               1
     1  C   -0.021670
     2  C    0.434268
     3  C    0.315662
     4  C   -0.209436
     5  C   -0.330773
     6  O   -0.625573
     7  C   -0.209306
     8  O   -0.678233
     9  H    0.464586
    10  C   -0.186954
    11  H    0.166555
    12  C    0.133464
    13  H    0.151818
    14  C   -0.160313
    15  H    0.177482
    16  H    0.163217
    17  H    0.211712
    18  N   -0.381930
    19  H    0.169767
    20  C   -0.372566
    21  C   -0.371068
    22  H    0.190137
    23  H    0.192474
    24  H    0.203610
    25  H    0.194991
    26  H    0.204627
    27  H    0.180747
    28  C   -0.019815
    29  C    0.429584
    30  C    0.315383
    31  C   -0.208960
    32  C   -0.330286
    33  O   -0.621168
    34  C   -0.209645
    35  O   -0.679456
    36  H    0.461928
    37  C   -0.186773
    38  H    0.165420
    39  C    0.134027
    40  H    0.152433
    41  C   -0.160912
    42  H    0.177110
    43  H    0.162627
    44  H    0.209458
    45  N   -0.384609
    46  H    0.169120
    47  C   -0.372153
    48  C   -0.371548
    49  H    0.197066
    50  H    0.192980
    51  H    0.192789
    52  H    0.195303
    53  H    0.180434
    54  H    0.202366
 Sum of Mulliken charges =   0.00000
 Mulliken charges with hydrogens summed into heavy atoms:
               1
     1  C   -0.021670
     2  C    0.434268
     3  C    0.315662
     4  C   -0.042880
     5  C   -0.178955
     6  O   -0.625573
     7  C   -0.031824
     8  O   -0.213648
    10  C   -0.023737
    12  C    0.345176
    14  C    0.009454
    18  N   -0.381930
    20  C    0.213655
    21  C    0.209297
    28  C   -0.019815
    29  C    0.429584
    30  C    0.315383
    31  C   -0.043540
    32  C   -0.177853
    33  O   -0.621168
    34  C   -0.032536
    35  O   -0.217528
    37  C   -0.024146
    39  C    0.343485
    41  C    0.008208
    45  N   -0.384609
    47  C    0.210682
    48  C    0.206555
 Electronic spatial extent (au):  <R**2>=          13736.2526
 Charge=              0.0000 electrons
 Dipole moment (field-independent basis, Debye):
    X=              0.0075    Y=              0.0467    Z=             -0.0514  Tot=              0.0698
 Quadrupole moment (field-independent basis, Debye-Ang):
   XX=           -146.6212   YY=           -190.6190   ZZ=           -140.5829
   XY=             -8.6942   XZ=              2.2082   YZ=              0.8688
 Traceless Quadrupole moment (field-independent basis, Debye-Ang):
   XX=             12.6532   YY=            -31.3447   ZZ=             18.6915
   XY=             -8.6942   XZ=              2.2082   YZ=              0.8688
 Octapole moment (field-independent basis, Debye-Ang**2):
  XXX=             -0.4789  YYY=              0.7507  ZZZ=             -0.4013  XYY=              0.8462
  XXY=              2.2336  XXZ=              0.2279  XZZ=              2.5081  YZZ=             -1.5673
  YYZ=             -0.2264  XYZ=             -2.5333
 Hexadecapole moment (field-independent basis, Debye-Ang**3):
 XXXX=          -7962.3668 YYYY=          -5723.6593 ZZZZ=          -4325.0419 XXXY=          -2401.0596
 XXXZ=           1101.2805 YYYX=          -2864.5396 YYYZ=           1494.7469 ZZZX=           1286.4117
 ZZZY=           1489.8432 XXYY=          -2251.5462 XXZZ=          -1891.7075 YYZZ=          -1731.5427
 XXYZ=            295.0306 YYXZ=            383.3704 ZZXY=           -836.6390
 N-N= 2.583702177800D+03 E-N=-8.108840049417D+03  KE= 1.252639726498D+03
 Leave Link  601 at Thu Sep 28 18:47:29 2017, MaxMem=  1879048192 cpu:         0.1
 (Enter /share/apps/gaussian/g09_D01/g09/l9999.exe)
 1\1\GINC-NXN37\SP\RwB97XD TD-FC\6-31G(d)\C22H26N2O4\BTX008\28-Sep-2017
 \0\\#p wb97xd 6-31G* td=(add=2) nosymm\\title\\0,1\C,0,2.462405,2.3755
 72,-1.800125\C,0,1.159578,2.01336,-1.173465\C,0,3.313492,3.292147,-1.1
 39962\C,0,2.888558,1.852738,-3.030336\C,0,0.201041,1.230789,-1.905309\
 O,0,0.921875,2.418525,-0.014927\C,0,4.525267,3.671279,-1.72941\O,0,3.0
 07768,3.827443,0.046358\H,0,2.133175,3.438542,0.300185\C,0,4.092137,2.
 216912,-3.601796\H,0,2.264076,1.138734,-3.552176\C,0,-1.000959,0.94716
 5,-1.313357\H,0,0.407522,0.922738,-2.918369\C,0,4.908207,3.139107,-2.9
 43634\H,0,5.144495,4.388729,-1.203865\H,0,4.39438,1.795305,-4.552644\H
 ,0,-1.151386,1.289612,-0.293372\N,0,-2.02894,0.304394,-1.865188\H,0,5.
 84976,3.443398,-3.387932\C,0,-1.922537,-0.234483,-3.207129\C,0,-3.2264
 5,-0.008097,-1.105437\H,0,-1.645935,0.552887,-3.915959\H,0,-2.8866,-0.
 644443,-3.507159\H,0,-1.172147,-1.03141,-3.245282\H,0,-3.167451,0.4617
 06,-0.124087\H,0,-3.327256,-1.088156,-0.968495\H,0,-4.111155,0.375575,
 -1.623476\C,0,-2.465425,-2.364375,1.787541\C,0,-1.172143,-1.99476,1.14
 5085\C,0,-3.298074,-3.321217,1.163794\C,0,-2.903713,-1.792329,2.990652
 \C,0,-0.181857,-1.281173,1.90317\O,0,-0.977156,-2.330632,-0.04286\C,0,
 -4.498958,-3.70417,1.771591\O,0,-2.983612,-3.890922,-0.005857\H,0,-2.1
 51107,-3.4528,-0.305064\C,0,-4.101957,-2.154185,3.576386\H,0,-2.299292
 ,-1.030018,3.4667\C,0,0.971087,-0.884025,1.28055\H,0,-0.335935,-1.1056
 01,2.956483\C,0,-4.894978,-3.124585,2.961132\H,0,-5.106508,-4.452301,1
 .275116\H,0,-4.42172,-1.687315,4.500109\H,0,1.05624,-1.062342,0.21247\
 N,0,2.022127,-0.300574,1.856453\H,0,-5.835213,-3.421827,3.413024\C,0,2
 .014763,-0.017902,3.278582\C,0,3.156912,0.167462,1.080475\H,0,1.248162
 ,0.724955,3.527576\H,0,2.987944,0.374064,3.57111\H,0,1.819639,-0.93222
 5,3.848537\H,0,3.018558,-0.097841,0.031927\H,0,4.079346,-0.295969,1.44
 3957\H,0,3.249809,1.255049,1.149636\\Version=ES64L-G09RevD.01\HF=-1263
 .9918547\RMSD=8.307e-09\PG=C01 [X(C22H26N2O4)]\\@


 THE GREAT THING ABOUT BEING IMPERFECT IS THE JOY IT BRINGS OTHERS.
   -- SIGN OUTSIDE LAKE AGASSIZ JR. HIGH SCHOOL, FARGO, N.D.
 Job cpu time:       0 days  0 hours 51 minutes 43.6 seconds.
 File lengths (MBytes):  RWF=    267 Int=      0 D2E=      0 Chk=     44 Scr=      1
 Normal termination of Gaussian 09 at Thu Sep 28 18:47:29 2017.
