 Entering Gaussian System, Link 0=g09
 Input=H_HP_mon-1.com
 Output=H_HP_mon-1.out
 Initial command:
 /share/apps/gaussian/g09_D01/g09/l1.exe "/tmp/4049083.1.chemistry.q/Gau-8372.inp" -scrdir="/tmp/4049083.1.chemistry.q/"
 Entering Link 1 = /share/apps/gaussian/g09_D01/g09/l1.exe PID=      8373.
  
 Copyright (c) 1988,1990,1992,1993,1995,1998,2003,2009,2013,
            Gaussian, Inc.  All Rights Reserved.
  
 This is part of the Gaussian(R) 09 program.  It is based on
 the Gaussian(R) 03 system (copyright 2003, Gaussian, Inc.),
 the Gaussian(R) 98 system (copyright 1998, Gaussian, Inc.),
 the Gaussian(R) 94 system (copyright 1995, Gaussian, Inc.),
 the Gaussian 92(TM) system (copyright 1992, Gaussian, Inc.),
 the Gaussian 90(TM) system (copyright 1990, Gaussian, Inc.),
 the Gaussian 88(TM) system (copyright 1988, Gaussian, Inc.),
 the Gaussian 86(TM) system (copyright 1986, Carnegie Mellon
 University), and the Gaussian 82(TM) system (copyright 1983,
 Carnegie Mellon University). Gaussian is a federally registered
 trademark of Gaussian, Inc.
  
 This software contains proprietary and confidential information,
 including trade secrets, belonging to Gaussian, Inc.
  
 This software is provided under written license and may be
 used, copied, transmitted, or stored only in accord with that
 written license.
  
 The following legend is applicable only to US Government
 contracts under FAR:
  
                    RESTRICTED RIGHTS LEGEND
  
 Use, reproduction and disclosure by the US Government is
 subject to restrictions as set forth in subparagraphs (a)
 and (c) of the Commercial Computer Software - Restricted
 Rights clause in FAR 52.227-19.
  
 Gaussian, Inc.
 340 Quinnipiac St., Bldg. 40, Wallingford CT 06492
  
  
 ---------------------------------------------------------------
 Warning -- This program may not be used in any manner that
 competes with the business of Gaussian, Inc. or will provide
 assistance to any competitor of Gaussian, Inc.  The licensee
 of this program is prohibited from giving any competitor of
 Gaussian, Inc. access to this program.  By using this program,
 the user acknowledges that Gaussian, Inc. is engaged in the
 business of creating and licensing software in the field of
 computational chemistry and represents and warrants to the
 licensee that it is not a competitor of Gaussian, Inc. and that
 it will not use this program in any manner prohibited above.
 ---------------------------------------------------------------
  

 Cite this work as:
 Gaussian 09, Revision D.01,
 M. J. Frisch, G. W. Trucks, H. B. Schlegel, G. E. Scuseria, 
 M. A. Robb, J. R. Cheeseman, G. Scalmani, V. Barone, B. Mennucci, 
 G. A. Petersson, H. Nakatsuji, M. Caricato, X. Li, H. P. Hratchian, 
 A. F. Izmaylov, J. Bloino, G. Zheng, J. L. Sonnenberg, M. Hada, 
 M. Ehara, K. Toyota, R. Fukuda, J. Hasegawa, M. Ishida, T. Nakajima, 
 Y. Honda, O. Kitao, H. Nakai, T. Vreven, J. A. Montgomery, Jr., 
 J. E. Peralta, F. Ogliaro, M. Bearpark, J. J. Heyd, E. Brothers, 
 K. N. Kudin, V. N. Staroverov, T. Keith, R. Kobayashi, J. Normand, 
 K. Raghavachari, A. Rendell, J. C. Burant, S. S. Iyengar, J. Tomasi, 
 M. Cossi, N. Rega, J. M. Millam, M. Klene, J. E. Knox, J. B. Cross, 
 V. Bakken, C. Adamo, J. Jaramillo, R. Gomperts, R. E. Stratmann, 
 O. Yazyev, A. J. Austin, R. Cammi, C. Pomelli, J. W. Ochterski, 
 R. L. Martin, K. Morokuma, V. G. Zakrzewski, G. A. Voth, 
 P. Salvador, J. J. Dannenberg, S. Dapprich, A. D. Daniels, 
 O. Farkas, J. B. Foresman, J. V. Ortiz, J. Cioslowski, 
 and D. J. Fox, Gaussian, Inc., Wallingford CT, 2013.
 
 ******************************************
 Gaussian 09:  ES64L-G09RevD.01 24-Apr-2013
                28-Sep-2017 
 ******************************************
 %chk=H_HP_mon-1
 %mem=14GB
 %nproc=2
 Will use up to    2 processors via shared memory.
 ----------------------------------------------------------------------
 #p wb97xd 6-31G* td=(nstates=4) nosymm density=(transition=1) pop=Save
 NTO
 ----------------------------------------------------------------------
 1/38=1/1;
 2/12=2,15=1,17=6,18=5,40=1/2;
 3/5=1,6=6,7=1,11=9,16=1,25=1,30=1,74=-58/1,2,8,3;
 4//1;
 5/5=2,38=5/2;
 8/6=1,10=2,108=4/1;
 9/41=4,42=1,70=2/14;
 6/7=2,8=2,9=2,10=2,29=1,89=10/1;
 99/5=1,9=1/99;
 Leave Link    1 at Thu Sep 28 11:55:22 2017, MaxMem=  1879048192 cpu:         0.1
 (Enter /share/apps/gaussian/g09_D01/g09/l101.exe)
 -----
 title
 -----
 Symbolic Z-matrix:
 Charge =  0 Multiplicity = 1
 C                     2.46241   2.37557  -1.80013 
 C                     1.15958   2.01336  -1.17347 
 C                     3.31349   3.29215  -1.13996 
 C                     2.88856   1.85274  -3.03034 
 C                     0.20104   1.23079  -1.90531 
 O                     0.92188   2.41853  -0.01493 
 C                     4.52527   3.67128  -1.72941 
 O                     3.00777   3.82744   0.04636 
 H                     2.13318   3.43854   0.30019 
 C                     4.09214   2.21691  -3.6018 
 H                     2.26408   1.13873  -3.55218 
 C                    -1.00096   0.94717  -1.31336 
 H                     0.40752   0.92274  -2.91837 
 C                     4.90821   3.13911  -2.94363 
 H                     5.1445    4.38873  -1.20387 
 H                     4.39438   1.79531  -4.55264 
 H                    -1.15139   1.28961  -0.29337 
 N                    -2.02894   0.30439  -1.86519 
 H                     5.84976   3.4434   -3.38793 
 C                    -1.92254  -0.23448  -3.20713 
 C                    -3.22645  -0.0081   -1.10544 
 H                    -1.64594   0.55289  -3.91596 
 H                    -2.8866   -0.64444  -3.50716 
 H                    -1.17215  -1.03141  -3.24528 
 H                    -3.16745   0.46171  -0.12409 
 H                    -3.32726  -1.08816  -0.9685 
 H                    -4.11116   0.37558  -1.62348 
 
 NAtoms=     27 NQM=       27 NQMF=       0 NMMI=      0 NMMIF=      0
                NMic=       0 NMicF=      0.
                    Isotopes and Nuclear Properties:
 (Nuclear quadrupole moments (NQMom) in fm**2, nuclear magnetic moments (NMagM)
  in nuclear magnetons)

  Atom         1           2           3           4           5           6           7           8           9          10
 IAtWgt=          12          12          12          12          12          16          12          16           1          12
 AtmWgt=  12.0000000  12.0000000  12.0000000  12.0000000  12.0000000  15.9949146  12.0000000  15.9949146   1.0078250  12.0000000
 NucSpn=           0           0           0           0           0           0           0           0           1           0
 AtZEff=   0.0000000   0.0000000   0.0000000   0.0000000   0.0000000   0.0000000   0.0000000   0.0000000   0.0000000   0.0000000
 NQMom=    0.0000000   0.0000000   0.0000000   0.0000000   0.0000000   0.0000000   0.0000000   0.0000000   0.0000000   0.0000000
 NMagM=    0.0000000   0.0000000   0.0000000   0.0000000   0.0000000   0.0000000   0.0000000   0.0000000   2.7928460   0.0000000
 AtZNuc=   6.0000000   6.0000000   6.0000000   6.0000000   6.0000000   8.0000000   6.0000000   8.0000000   1.0000000   6.0000000

  Atom        11          12          13          14          15          16          17          18          19          20
 IAtWgt=           1          12           1          12           1           1           1          14           1          12
 AtmWgt=   1.0078250  12.0000000   1.0078250  12.0000000   1.0078250   1.0078250   1.0078250  14.0030740   1.0078250  12.0000000
 NucSpn=           1           0           1           0           1           1           1           2           1           0
 AtZEff=   0.0000000   0.0000000   0.0000000   0.0000000   0.0000000   0.0000000   0.0000000   0.0000000   0.0000000   0.0000000
 NQMom=    0.0000000   0.0000000   0.0000000   0.0000000   0.0000000   0.0000000   0.0000000   2.0440000   0.0000000   0.0000000
 NMagM=    2.7928460   0.0000000   2.7928460   0.0000000   2.7928460   2.7928460   2.7928460   0.4037610   2.7928460   0.0000000
 AtZNuc=   1.0000000   6.0000000   1.0000000   6.0000000   1.0000000   1.0000000   1.0000000   7.0000000   1.0000000   6.0000000

  Atom        21          22          23          24          25          26          27
 IAtWgt=          12           1           1           1           1           1           1
 AtmWgt=  12.0000000   1.0078250   1.0078250   1.0078250   1.0078250   1.0078250   1.0078250
 NucSpn=           0           1           1           1           1           1           1
 AtZEff=   0.0000000   0.0000000   0.0000000   0.0000000   0.0000000   0.0000000   0.0000000
 NQMom=    0.0000000   0.0000000   0.0000000   0.0000000   0.0000000   0.0000000   0.0000000
 NMagM=    0.0000000   2.7928460   2.7928460   2.7928460   2.7928460   2.7928460   2.7928460
 AtZNuc=   6.0000000   1.0000000   1.0000000   1.0000000   1.0000000   1.0000000   1.0000000
 Leave Link  101 at Thu Sep 28 11:55:23 2017, MaxMem=  1879048192 cpu:         0.1
 (Enter /share/apps/gaussian/g09_D01/g09/l202.exe)
                          Input orientation:                          
 ---------------------------------------------------------------------
 Center     Atomic      Atomic             Coordinates (Angstroms)
 Number     Number       Type             X           Y           Z
 ---------------------------------------------------------------------
      1          6           0        2.462405    2.375572   -1.800125
      2          6           0        1.159578    2.013360   -1.173465
      3          6           0        3.313492    3.292147   -1.139962
      4          6           0        2.888558    1.852738   -3.030336
      5          6           0        0.201041    1.230789   -1.905309
      6          8           0        0.921875    2.418525   -0.014927
      7          6           0        4.525267    3.671279   -1.729410
      8          8           0        3.007768    3.827443    0.046358
      9          1           0        2.133175    3.438542    0.300185
     10          6           0        4.092137    2.216912   -3.601796
     11          1           0        2.264076    1.138734   -3.552176
     12          6           0       -1.000959    0.947165   -1.313357
     13          1           0        0.407522    0.922738   -2.918369
     14          6           0        4.908207    3.139107   -2.943634
     15          1           0        5.144495    4.388729   -1.203865
     16          1           0        4.394380    1.795305   -4.552644
     17          1           0       -1.151386    1.289612   -0.293372
     18          7           0       -2.028940    0.304394   -1.865188
     19          1           0        5.849760    3.443398   -3.387932
     20          6           0       -1.922537   -0.234483   -3.207129
     21          6           0       -3.226450   -0.008097   -1.105437
     22          1           0       -1.645935    0.552887   -3.915959
     23          1           0       -2.886600   -0.644443   -3.507159
     24          1           0       -1.172147   -1.031410   -3.245282
     25          1           0       -3.167451    0.461706   -0.124087
     26          1           0       -3.327256   -1.088156   -0.968495
     27          1           0       -4.111155    0.375575   -1.623476
 ---------------------------------------------------------------------
                    Distance matrix (angstroms):
                    1          2          3          4          5
     1  C    0.000000
     2  C    1.490389   0.000000
     3  C    1.414310   2.505148   0.000000
     4  C    1.402990   2.542271   2.413707   0.000000
     5  C    2.536801   1.437639   3.810814   2.979136   0.000000
     6  O    2.358391   1.250149   2.783658   3.644262   2.346031
     7  C    2.437059   3.792840   1.399853   2.770977   4.968487
     8  O    2.411400   2.862634   1.336923   3.657830   4.292940
     9  H    2.376889   2.269511   1.867780   3.765335   3.670357
    10  C    2.434588   3.812890   2.796971   1.381228   4.357882
    11  H    2.153784   2.764625   3.399594   1.082634   2.641355
    12  C    3.777854   2.413351   4.913603   4.347001   1.369545
    13  H    2.753859   2.190830   4.149879   2.651976   1.078805
    14  C    2.805806   4.295698   2.412420   2.396089   5.184323
    15  H    3.406161   4.639274   2.135216   3.854413   5.907821
    16  H    3.412565   4.682984   3.880110   2.142013   4.991107
    17  H    4.063139   2.576612   4.966085   4.912151   2.104961
    18  N    4.946331   3.683163   6.163944   5.285520   2.415084
    19  H    3.890444   5.380212   3.392477   3.380354   6.245145
    20  C    5.293370   4.322964   6.642763   5.247321   2.889869
    21  C    6.207056   4.829923   7.325547   6.675423   3.731264
    22  H    4.967634   4.186306   6.309170   4.799538   2.813109
    23  H    6.375446   5.374160   7.716314   6.309970   3.951702
    24  H    5.187097   4.358898   6.576205   4.985362   2.966263
    25  H    6.177966   4.715083   7.144650   6.859774   3.887284
    26  H    6.797735   5.458305   7.957134   7.178885   4.324813
    27  H    6.873346   5.537642   7.991593   7.290902   4.405208
                    6          7          8          9         10
     6  O    0.000000
     7  C    4.182497   0.000000
     8  O    2.517887   2.341056   0.000000
     9  H    1.614614   3.145716   0.990245   0.000000
    10  C    4.791329   2.410107   4.132638   4.533803   0.000000
    11  H    3.993933   3.853472   4.553206   4.488534   2.122908
    12  C    2.747383   6.175198   5.120031   4.316628   5.726154
    13  H    3.306344   5.091554   4.897775   4.434663   3.964637
    14  C    4.998740   1.379924   3.609089   4.279349   1.396278
    15  H    4.808929   1.083686   2.538445   3.497581   3.402105
    16  H    5.747832   3.392206   5.215659   5.600288   1.083151
    17  H    2.377054   6.321308   4.884113   3.969704   6.268978
    18  N    4.074350   7.369666   6.436949   5.642245   6.643878
    19  H    6.059008   2.134691   4.474233   5.235956   2.153891
    20  C    5.031827   7.681979   7.168844   6.499320   6.507027
    21  C    4.928114   8.603271   7.409688   6.525387   8.046377
    22  H    5.029145   7.251834   6.933947   6.354884   5.982737
    23  H    6.006824   8.759088   8.207851   7.507648   7.543148
    24  H    5.169349   7.541464   7.205209   6.593630   6.196078
    25  H    4.534715   8.488600   7.034953   6.094112   8.238739
    26  H    5.591173   9.213758   8.082423   7.205335   8.538451
    27  H    5.665021   9.244494   8.085963   7.216224   8.637029
                   11         12         13         14         15
    11  H    0.000000
    12  C    3.963516   0.000000
    13  H    1.973616   2.135528   0.000000
    14  C    3.370941   6.510043   5.016881   0.000000
    15  H    4.936988   7.044356   6.114861   2.155037   0.000000
    16  H    2.443403   6.349961   4.396279   2.158410   4.301493
    17  H    4.723129   1.086401   3.074963   6.867546   7.076132
    18  N    4.687434   1.332072   2.725415   7.571172   8.281142
    19  H    4.265628   7.580725   6.015993   1.084673   2.482176
    20  C    4.419560   2.414947   2.617579   7.622965   8.679291
    21  C    6.119447   2.430754   4.166405   8.913838   9.455923
    22  H    3.970358   2.710164   2.312717   7.112716   8.257062
    23  H    5.450799   3.301761   3.695128   8.682847   9.753793
    24  H    4.075701   2.770631   2.533954   7.379357   8.570021
    25  H    6.458455   2.518674   4.560811   8.962956   9.256126
    26  H    6.549614   3.110164   4.668433   9.465399  10.090700
    27  H    6.704168   3.177453   4.732291   9.525168  10.096957
                   16         17         18         19         20
    16  H    0.000000
    17  H    7.010895   0.000000
    18  N    7.120693   2.052160   0.000000
    19  H    2.488151   7.951801   8.616612   0.000000
    20  C    6.770073   3.377502   1.450005   8.600471   0.000000
    21  C    8.556433   2.578641   1.452206   9.974978   2.483656
    22  H    6.199546   3.729675   2.100977   8.051044   1.094943
    23  H    7.749715   4.132791   2.081332   9.646173   1.089726
    24  H    6.378537   3.755176   2.103123   8.327751   1.095278
    25  H    8.864079   2.186002   2.086238  10.042573   3.397004
    26  H    8.987999   3.293020   2.104490  10.516952   2.777314
    27  H    9.107128   3.371183   2.097406  10.570935   2.769508
                   21         22         23         24         25
    21  C    0.000000
    22  H    3.272883   0.000000
    23  H    2.507729   1.771995   0.000000
    24  H    3.137876   1.784455   1.776984   0.000000
    25  H    1.089607   4.086761   3.570381   3.994057   0.000000
    26  H    1.093363   3.769271   2.614550   3.135518   1.772184
    27  H    1.094656   3.371087   2.467435   3.639729   1.773743
                   26         27
    26  H    0.000000
    27  H    1.784939   0.000000
 Symmetry turned off by external request.
 Stoichiometry    C11H13NO2
 Framework group  C1[X(C11H13NO2)]
 Deg. of freedom    75
 Full point group                 C1      NOp   1
 Rotational constants (GHZ):      1.6184581      0.3221287      0.2702123
 Leave Link  202 at Thu Sep 28 11:55:23 2017, MaxMem=  1879048192 cpu:         0.0
 (Enter /share/apps/gaussian/g09_D01/g09/l301.exe)
 Standard basis: 6-31G(d) (6D, 7F)
 Ernie: Thresh=  0.10000D-02 Tol=  0.10000D-05 Strict=F.
   236 basis functions,   444 primitive gaussians,   236 cartesian basis functions
    51 alpha electrons       51 beta electrons
       nuclear repulsion energy       838.4639472021 Hartrees.
 IExCor= 4639 DFT=T Ex+Corr=wB97XD ExCW=0 ScaHFX=  1.000000
 ScaDFX=  1.000000  1.000000  1.000000  1.000000 ScalE2=  1.000000  1.000000
 IRadAn=      0 IRanWt=     -1 IRanGd=            0 ICorTp=0 IEmpDi=121
  HFx wShort=  0.000000 wLong=  0.200000 cFull=  0.222036 cShort=  0.000000 cLong=  0.777964
  DFx wShort=  0.000000 wLong=  0.200000 cFull=  0.000000 cShort=  0.000000 cLong=  1.000000
 NAtoms=   27 NActive=   27 NUniq=   27 SFac= 1.00D+00 NAtFMM=   60 NAOKFM=F Big=F
 Integral buffers will be    131072 words long.
 Raffenetti 1 integral format.
 Two-electron integral symmetry is turned off.
 R6Disp:  Grimme-D2 Dispersion energy=       -0.0149417256 Hartrees.
 Nuclear repulsion after empirical dispersion term =      838.4490054765 Hartrees.
 Leave Link  301 at Thu Sep 28 11:55:23 2017, MaxMem=  1879048192 cpu:         0.1
 (Enter /share/apps/gaussian/g09_D01/g09/l302.exe)
 NPDir=0 NMtPBC=     1 NCelOv=     1 NCel=       1 NClECP=     1 NCelD=      1
         NCelK=      1 NCelE2=     1 NClLst=     1 CellRange=     0.0.
 One-electron integrals computed using PRISM.
 NBasis=   236 RedAO= T EigKep=  3.88D-04  NBF=   236
 NBsUse=   236 1.00D-06 EigRej= -1.00D+00 NBFU=   236
 Precomputing XC quadrature grid using
 IXCGrd= 4 IRadAn=           0 IRanWt=          -1 IRanGd=           0 AccXCQ= 0.00D+00.
 Generated NRdTot=       0 NPtTot=           0 NUsed=           0 NTot=          32
 NSgBfM=   234   234   234   234   234 MxSgAt=    27 MxSgA2=    27.
 Leave Link  302 at Thu Sep 28 11:55:23 2017, MaxMem=  1879048192 cpu:         0.7
 (Enter /share/apps/gaussian/g09_D01/g09/l308.exe)
 Leave Link  308 at Thu Sep 28 11:55:23 2017, MaxMem=  1879048192 cpu:         0.0
 (Enter /share/apps/gaussian/g09_D01/g09/l303.exe)
 DipDrv:  MaxL=1.
 Leave Link  303 at Thu Sep 28 11:55:23 2017, MaxMem=  1879048192 cpu:         0.1
 (Enter /share/apps/gaussian/g09_D01/g09/l401.exe)
 ExpMin= 1.61D-01 ExpMax= 5.48D+03 ExpMxC= 8.25D+02 IAcc=1 IRadAn=         1 AccDes= 0.00D+00
 Harris functional with IExCor= 4639 and IRadAn=       1 diagonalized for initial guess.
 HarFok:  IExCor= 4639 AccDes= 0.00D+00 IRadAn=         1 IDoV= 1 UseB2=F ITyADJ=14
 ICtDFT=  3500011 ScaDFX=  1.000000  1.000000  1.000000  1.000000
 FoFCou: FMM=F IPFlag=           0 FMFlag=      100000 FMFlg1=           0
         NFxFlg=           0 DoJE=T BraDBF=F KetDBF=T FulRan=T
         wScrn=  0.000000 ICntrl=     500 IOpCl=  0 I1Cent=   200000004 NGrid=           0
         NMat0=    1 NMatS0=      1 NMatT0=    0 NMatD0=    1 NMtDS0=    0 NMtDT0=    0
 Symmetry not used in FoFCou.
 Harris En= -604.775952722164    
 JPrj=0 DoOrth=F DoCkMO=F.
 Leave Link  401 at Thu Sep 28 11:55:24 2017, MaxMem=  1879048192 cpu:         2.0
 (Enter /share/apps/gaussian/g09_D01/g09/l502.exe)
 Closed shell SCF:
 Using DIIS extrapolation, IDIIS=  1040.
 Two-electron integral symmetry not used.
 Keep R1 ints in memory in canonical form, NReq=788969554.
 IVT=      188524 IEndB=      188524 NGot=  1879048192 MDV=  1096734547
 LenX=  1096734547 LenY=  1096678410
 Requested convergence on RMS density matrix=1.00D-08 within 128 cycles.
 Requested convergence on MAX density matrix=1.00D-06.
 Requested convergence on             energy=1.00D-06.
 No special actions if energy rises.
 FoFCou: FMM=F IPFlag=           0 FMFlag=           0 FMFlg1=           0
         NFxFlg=           0 DoJE=F BraDBF=F KetDBF=F FulRan=T
         wScrn=  0.000000 ICntrl=     600 IOpCl=  0 I1Cent=           0 NGrid=           0
         NMat0=    1 NMatS0=  27966 NMatT0=    0 NMatD0=    1 NMtDS0=    0 NMtDT0=    0
 Symmetry not used in FoFCou.
 Integral accuracy reduced to 1.0D-05 until final iterations.

 Cycle   1  Pass 0  IDiag  1:
 E= -631.792015814884    
 DIIS: error= 6.46D-02 at cycle   1 NSaved=   1.
 NSaved= 1 IEnMin= 1 EnMin= -631.792015814884     IErMin= 1 ErrMin= 6.46D-02
 ErrMax= 6.46D-02  0.00D+00 EMaxC= 1.00D-01 BMatC= 6.14D-01 BMatP= 6.14D-01
 IDIUse=3 WtCom= 3.54D-01 WtEn= 6.46D-01
 Coeff-Com:  0.100D+01
 Coeff-En:   0.100D+01
 Coeff:      0.100D+01
 Gap=     0.359 Goal=   None    Shift=    0.000
 GapD=    0.359 DampG=1.000 DampE=0.500 DampFc=0.5000 IDamp=-1.
 Damping current iteration by 5.00D-01
 RMSDP=3.57D-03 MaxDP=1.36D-01              OVMax= 1.42D-01

 Cycle   2  Pass 0  IDiag  1:
 E= -631.879818823034     Delta-E=       -0.087803008150 Rises=F Damp=T
 DIIS: error= 3.31D-02 at cycle   2 NSaved=   2.
 NSaved= 2 IEnMin= 2 EnMin= -631.879818823034     IErMin= 2 ErrMin= 3.31D-02
 ErrMax= 3.31D-02  0.00D+00 EMaxC= 1.00D-01 BMatC= 1.24D-01 BMatP= 6.14D-01
 IDIUse=3 WtCom= 6.69D-01 WtEn= 3.31D-01
 Coeff-Com: -0.383D+00 0.138D+01
 Coeff-En:   0.000D+00 0.100D+01
 Coeff:     -0.256D+00 0.126D+01
 Gap=     0.319 Goal=   None    Shift=    0.000
 RMSDP=1.41D-03 MaxDP=4.11D-02 DE=-8.78D-02 OVMax= 1.34D-01

 Cycle   3  Pass 0  IDiag  1:
 E= -631.954454896192     Delta-E=       -0.074636073158 Rises=F Damp=F
 DIIS: error= 1.03D-02 at cycle   3 NSaved=   3.
 NSaved= 3 IEnMin= 3 EnMin= -631.954454896192     IErMin= 3 ErrMin= 1.03D-02
 ErrMax= 1.03D-02  0.00D+00 EMaxC= 1.00D-01 BMatC= 3.45D-02 BMatP= 1.24D-01
 IDIUse=3 WtCom= 8.97D-01 WtEn= 1.03D-01
 Coeff-Com: -0.287D+00 0.598D+00 0.689D+00
 Coeff-En:   0.000D+00 0.000D+00 0.100D+01
 Coeff:     -0.257D+00 0.536D+00 0.721D+00
 Gap=     0.300 Goal=   None    Shift=    0.000
 RMSDP=8.49D-04 MaxDP=3.91D-02 DE=-7.46D-02 OVMax= 5.53D-02

 Cycle   4  Pass 0  IDiag  1:
 E= -631.981823886005     Delta-E=       -0.027368989813 Rises=F Damp=F
 DIIS: error= 2.99D-03 at cycle   4 NSaved=   4.
 NSaved= 4 IEnMin= 4 EnMin= -631.981823886005     IErMin= 4 ErrMin= 2.99D-03
 ErrMax= 2.99D-03  0.00D+00 EMaxC= 1.00D-01 BMatC= 2.68D-03 BMatP= 3.45D-02
 IDIUse=3 WtCom= 9.70D-01 WtEn= 2.99D-02
 Coeff-Com: -0.124D+00 0.253D+00 0.390D+00 0.481D+00
 Coeff-En:   0.000D+00 0.000D+00 0.000D+00 0.100D+01
 Coeff:     -0.121D+00 0.246D+00 0.379D+00 0.496D+00
 Gap=     0.294 Goal=   None    Shift=    0.000
 RMSDP=2.07D-04 MaxDP=6.29D-03 DE=-2.74D-02 OVMax= 9.92D-03

 Cycle   5  Pass 0  IDiag  1:
 E= -631.984025360574     Delta-E=       -0.002201474569 Rises=F Damp=F
 DIIS: error= 4.38D-04 at cycle   5 NSaved=   5.
 NSaved= 5 IEnMin= 5 EnMin= -631.984025360574     IErMin= 5 ErrMin= 4.38D-04
 ErrMax= 4.38D-04  0.00D+00 EMaxC= 1.00D-01 BMatC= 6.16D-05 BMatP= 2.68D-03
 IDIUse=3 WtCom= 9.96D-01 WtEn= 4.38D-03
 Coeff-Com: -0.320D-02 0.500D-02 0.445D-01 0.144D+00 0.810D+00
 Coeff-En:   0.000D+00 0.000D+00 0.000D+00 0.000D+00 0.100D+01
 Coeff:     -0.319D-02 0.498D-02 0.443D-01 0.143D+00 0.811D+00
 Gap=     0.294 Goal=   None    Shift=    0.000
 RMSDP=6.00D-05 MaxDP=1.67D-03 DE=-2.20D-03 OVMax= 2.56D-03

 Cycle   6  Pass 0  IDiag  1:
 E= -631.984101250088     Delta-E=       -0.000075889514 Rises=F Damp=F
 DIIS: error= 2.36D-04 at cycle   6 NSaved=   6.
 NSaved= 6 IEnMin= 6 EnMin= -631.984101250088     IErMin= 6 ErrMin= 2.36D-04
 ErrMax= 2.36D-04  0.00D+00 EMaxC= 1.00D-01 BMatC= 1.60D-05 BMatP= 6.16D-05
 IDIUse=3 WtCom= 9.98D-01 WtEn= 2.36D-03
 Coeff-Com:  0.279D-01-0.575D-01-0.659D-01-0.467D-01 0.382D+00 0.761D+00
 Coeff-En:   0.000D+00 0.000D+00 0.000D+00 0.000D+00 0.000D+00 0.100D+01
 Coeff:      0.278D-01-0.573D-01-0.658D-01-0.466D-01 0.381D+00 0.761D+00
 Gap=     0.295 Goal=   None    Shift=    0.000
 RMSDP=3.04D-05 MaxDP=9.49D-04 DE=-7.59D-05 OVMax= 3.20D-03

 Cycle   7  Pass 0  IDiag  1:
 E= -631.984126281519     Delta-E=       -0.000025031431 Rises=F Damp=F
 DIIS: error= 5.77D-05 at cycle   7 NSaved=   7.
 NSaved= 7 IEnMin= 7 EnMin= -631.984126281519     IErMin= 7 ErrMin= 5.77D-05
 ErrMax= 5.77D-05  0.00D+00 EMaxC= 1.00D-01 BMatC= 1.41D-06 BMatP= 1.60D-05
 IDIUse=1 WtCom= 1.00D+00 WtEn= 0.00D+00
 Coeff-Com:  0.757D-02-0.155D-01-0.197D-01-0.238D-01 0.248D-01 0.247D+00
 Coeff-Com:  0.779D+00
 Coeff:      0.757D-02-0.155D-01-0.197D-01-0.238D-01 0.248D-01 0.247D+00
 Coeff:      0.779D+00
 Gap=     0.295 Goal=   None    Shift=    0.000
 RMSDP=1.10D-05 MaxDP=2.71D-04 DE=-2.50D-05 OVMax= 7.00D-04

 Cycle   8  Pass 0  IDiag  1:
 E= -631.984128383028     Delta-E=       -0.000002101509 Rises=F Damp=F
 DIIS: error= 2.73D-05 at cycle   8 NSaved=   8.
 NSaved= 8 IEnMin= 8 EnMin= -631.984128383028     IErMin= 8 ErrMin= 2.73D-05
 ErrMax= 2.73D-05  0.00D+00 EMaxC= 1.00D-01 BMatC= 2.61D-07 BMatP= 1.41D-06
 IDIUse=1 WtCom= 1.00D+00 WtEn= 0.00D+00
 Coeff-Com: -0.222D-02 0.470D-02 0.472D-02-0.146D-02-0.721D-01-0.280D-01
 Coeff-Com:  0.323D+00 0.771D+00
 Coeff:     -0.222D-02 0.470D-02 0.472D-02-0.146D-02-0.721D-01-0.280D-01
 Coeff:      0.323D+00 0.771D+00
 Gap=     0.295 Goal=   None    Shift=    0.000
 RMSDP=4.75D-06 MaxDP=9.51D-05 DE=-2.10D-06 OVMax= 4.77D-04

 Initial convergence to 1.0D-05 achieved.  Increase integral accuracy.
 Cycle   9  Pass 1  IDiag  1:
 E= -631.983548770603     Delta-E=        0.000579612424 Rises=F Damp=F
 DIIS: error= 7.77D-05 at cycle   1 NSaved=   1.
 NSaved= 1 IEnMin= 1 EnMin= -631.983548770603     IErMin= 1 ErrMin= 7.77D-05
 ErrMax= 7.77D-05  0.00D+00 EMaxC= 1.00D-01 BMatC= 3.82D-06 BMatP= 3.82D-06
 IDIUse=1 WtCom= 1.00D+00 WtEn= 0.00D+00
 Coeff-Com:  0.100D+01
 Coeff:      0.100D+01
 Gap=     0.295 Goal=   None    Shift=    0.000
 RMSDP=4.75D-06 MaxDP=9.51D-05 DE= 5.80D-04 OVMax= 1.95D-04

 Cycle  10  Pass 1  IDiag  1:
 E= -631.983551723238     Delta-E=       -0.000002952635 Rises=F Damp=F
 DIIS: error= 1.23D-05 at cycle   2 NSaved=   2.
 NSaved= 2 IEnMin= 2 EnMin= -631.983551723238     IErMin= 2 ErrMin= 1.23D-05
 ErrMax= 1.23D-05  0.00D+00 EMaxC= 1.00D-01 BMatC= 7.15D-08 BMatP= 3.82D-06
 IDIUse=1 WtCom= 1.00D+00 WtEn= 0.00D+00
 Coeff-Com: -0.477D-01 0.105D+01
 Coeff:     -0.477D-01 0.105D+01
 Gap=     0.295 Goal=   None    Shift=    0.000
 RMSDP=2.37D-06 MaxDP=5.52D-05 DE=-2.95D-06 OVMax= 1.34D-04

 Cycle  11  Pass 1  IDiag  1:
 E= -631.983551788485     Delta-E=       -0.000000065247 Rises=F Damp=F
 DIIS: error= 9.64D-06 at cycle   3 NSaved=   3.
 NSaved= 3 IEnMin= 3 EnMin= -631.983551788485     IErMin= 3 ErrMin= 9.64D-06
 ErrMax= 9.64D-06  0.00D+00 EMaxC= 1.00D-01 BMatC= 4.60D-08 BMatP= 7.15D-08
 IDIUse=1 WtCom= 1.00D+00 WtEn= 0.00D+00
 Coeff-Com: -0.375D-01 0.477D+00 0.561D+00
 Coeff:     -0.375D-01 0.477D+00 0.561D+00
 Gap=     0.295 Goal=   None    Shift=    0.000
 RMSDP=1.13D-06 MaxDP=3.60D-05 DE=-6.52D-08 OVMax= 7.15D-05

 Cycle  12  Pass 1  IDiag  1:
 E= -631.983551830782     Delta-E=       -0.000000042297 Rises=F Damp=F
 DIIS: error= 2.94D-06 at cycle   4 NSaved=   4.
 NSaved= 4 IEnMin= 4 EnMin= -631.983551830782     IErMin= 4 ErrMin= 2.94D-06
 ErrMax= 2.94D-06  0.00D+00 EMaxC= 1.00D-01 BMatC= 3.38D-09 BMatP= 4.60D-08
 IDIUse=1 WtCom= 1.00D+00 WtEn= 0.00D+00
 Coeff-Com: -0.573D-02 0.804D-02 0.192D+00 0.805D+00
 Coeff:     -0.573D-02 0.804D-02 0.192D+00 0.805D+00
 Gap=     0.295 Goal=   None    Shift=    0.000
 RMSDP=3.64D-07 MaxDP=1.43D-05 DE=-4.23D-08 OVMax= 2.71D-05

 Cycle  13  Pass 1  IDiag  1:
 E= -631.983551835309     Delta-E=       -0.000000004527 Rises=F Damp=F
 DIIS: error= 8.86D-07 at cycle   5 NSaved=   5.
 NSaved= 5 IEnMin= 5 EnMin= -631.983551835309     IErMin= 5 ErrMin= 8.86D-07
 ErrMax= 8.86D-07  0.00D+00 EMaxC= 1.00D-01 BMatC= 3.83D-10 BMatP= 3.38D-09
 IDIUse=1 WtCom= 1.00D+00 WtEn= 0.00D+00
 Coeff-Com:  0.199D-02-0.448D-01 0.365D-02 0.265D+00 0.774D+00
 Coeff:      0.199D-02-0.448D-01 0.365D-02 0.265D+00 0.774D+00
 Gap=     0.295 Goal=   None    Shift=    0.000
 RMSDP=1.45D-07 MaxDP=3.50D-06 DE=-4.53D-09 OVMax= 1.48D-05

 Cycle  14  Pass 1  IDiag  1:
 E= -631.983551836037     Delta-E=       -0.000000000728 Rises=F Damp=F
 DIIS: error= 3.79D-07 at cycle   6 NSaved=   6.
 NSaved= 6 IEnMin= 6 EnMin= -631.983551836037     IErMin= 6 ErrMin= 3.79D-07
 ErrMax= 3.79D-07  0.00D+00 EMaxC= 1.00D-01 BMatC= 4.42D-11 BMatP= 3.83D-10
 IDIUse=1 WtCom= 1.00D+00 WtEn= 0.00D+00
 Coeff-Com:  0.119D-02-0.103D-01-0.303D-01-0.595D-01 0.147D+00 0.952D+00
 Coeff:      0.119D-02-0.103D-01-0.303D-01-0.595D-01 0.147D+00 0.952D+00
 Gap=     0.295 Goal=   None    Shift=    0.000
 RMSDP=8.29D-08 MaxDP=1.18D-06 DE=-7.28D-10 OVMax= 9.57D-06

 Cycle  15  Pass 1  IDiag  1:
 E= -631.983551836241     Delta-E=       -0.000000000204 Rises=F Damp=F
 DIIS: error= 1.91D-07 at cycle   7 NSaved=   7.
 NSaved= 7 IEnMin= 7 EnMin= -631.983551836241     IErMin= 7 ErrMin= 1.91D-07
 ErrMax= 1.91D-07  0.00D+00 EMaxC= 1.00D-01 BMatC= 8.27D-12 BMatP= 4.42D-11
 IDIUse=1 WtCom= 1.00D+00 WtEn= 0.00D+00
 Coeff-Com:  0.840D-05 0.412D-02-0.924D-02-0.525D-01-0.742D-01 0.235D+00
 Coeff-Com:  0.897D+00
 Coeff:      0.840D-05 0.412D-02-0.924D-02-0.525D-01-0.742D-01 0.235D+00
 Coeff:      0.897D+00
 Gap=     0.295 Goal=   None    Shift=    0.000
 RMSDP=3.78D-08 MaxDP=6.40D-07 DE=-2.04D-10 OVMax= 4.62D-06

 Cycle  16  Pass 1  IDiag  1:
 E= -631.983551836271     Delta-E=       -0.000000000030 Rises=F Damp=F
 DIIS: error= 7.45D-08 at cycle   8 NSaved=   8.
 NSaved= 8 IEnMin= 8 EnMin= -631.983551836271     IErMin= 8 ErrMin= 7.45D-08
 ErrMax= 7.45D-08  0.00D+00 EMaxC= 1.00D-01 BMatC= 2.72D-12 BMatP= 8.27D-12
 IDIUse=1 WtCom= 1.00D+00 WtEn= 0.00D+00
 Coeff-Com: -0.262D-03 0.400D-02 0.297D-02-0.733D-02-0.632D-01-0.128D+00
 Coeff-Com:  0.400D+00 0.792D+00
 Coeff:     -0.262D-03 0.400D-02 0.297D-02-0.733D-02-0.632D-01-0.128D+00
 Coeff:      0.400D+00 0.792D+00
 Gap=     0.295 Goal=   None    Shift=    0.000
 RMSDP=1.74D-08 MaxDP=3.73D-07 DE=-2.98D-11 OVMax= 2.29D-06

 Cycle  17  Pass 1  IDiag  1:
 E= -631.983551836266     Delta-E=        0.000000000005 Rises=F Damp=F
 DIIS: error= 3.03D-08 at cycle   9 NSaved=   9.
 NSaved= 9 IEnMin= 8 EnMin= -631.983551836271     IErMin= 9 ErrMin= 3.03D-08
 ErrMax= 3.03D-08  0.00D+00 EMaxC= 1.00D-01 BMatC= 2.90D-13 BMatP= 2.72D-12
 IDIUse=1 WtCom= 1.00D+00 WtEn= 0.00D+00
 Coeff-Com: -0.898D-04 0.786D-03 0.247D-02 0.510D-02-0.104D-01-0.830D-01
 Coeff-Com:  0.624D-02 0.250D+00 0.829D+00
 Coeff:     -0.898D-04 0.786D-03 0.247D-02 0.510D-02-0.104D-01-0.830D-01
 Coeff:      0.624D-02 0.250D+00 0.829D+00
 Gap=     0.295 Goal=   None    Shift=    0.000
 RMSDP=6.37D-09 MaxDP=1.57D-07 DE= 5.23D-12 OVMax= 6.98D-07

 SCF Done:  E(RwB97XD) =  -631.983551836     A.U. after   17 cycles
            NFock= 17  Conv=0.64D-08     -V/T= 2.0090
 KE= 6.263237531938D+02 PE=-3.147686269293D+03 EE= 1.050929958786D+03
 Leave Link  502 at Thu Sep 28 11:56:13 2017, MaxMem=  1879048192 cpu:        88.6
 (Enter /share/apps/gaussian/g09_D01/g09/l801.exe)
 DoSCS=F DFT=T ScalE2(SS,OS)=  1.000000  1.000000
 ExpMin= 1.61D-01 ExpMax= 5.48D+03 ExpMxC= 8.25D+02 IAcc=3 IRadAn=         5 AccDes= 0.00D+00
 HarFok:  IExCor=  205 AccDes= 0.00D+00 IRadAn=         5 IDoV=-2 UseB2=F ITyADJ=14
 ICtDFT= 12500011 ScaDFX=  1.000000  1.000000  1.000000  1.000000
 Largest valence mixing into a core orbital is  7.26D-05
 Largest core mixing into a valence orbital is  1.49D-05
 Range of M.O.s used for correlation:    15   236
 NBasis=   236 NAE=    51 NBE=    51 NFC=    14 NFV=     0
 NROrb=    222 NOA=    37 NOB=    37 NVA=   185 NVB=   185
 Leave Link  801 at Thu Sep 28 11:56:13 2017, MaxMem=  1879048192 cpu:         0.8
 (Enter /share/apps/gaussian/g09_D01/g09/l914.exe)
 RHF ground state
 MDV=  1879048192 DFT=T DoStab=F Mixed=T DoRPA=T DoScal=F NonHer=T
 Would need an additional           480300000 words for in-memory AO integral storage.
 Making orbital integer symmetry assigments:
    16 initial guesses have been made.
 Convergence on wavefunction:    0.001000000000000
 Davidson Disk Diagonalization:  ConvIn= 1.00D-03 SkipCon=T Conv= 1.00D-03.
 Max sub-space:   200 roots to seek:    16 dimension of matrix:        13690
 Iteration     1 Dimension    16 NMult     0 NNew     16
 CISAX will form    16 AO SS matrices at one time.
 NMat=    16 NSing=    16 JSym2X= 0.
 FoFJK:  IHMeth= 1 ICntrl=       0 DoSepK=T KAlg= 0 I1Cent=   0 FoldK=F
 IRaf=         1 NMat=  32 IRICut=       1 DoRegI=T DoRafI=F ISym2E= 0.
 FoFCou: FMM=F IPFlag=           0 FMFlag=      100000 FMFlg1=           0
         NFxFlg=           0 DoJE=F BraDBF=F KetDBF=F FulRan=T
         wScrn=  0.000000 ICntrl=     500 IOpCl=  0 I1Cent=           0 NGrid=           0
         NMat0=   16 NMatS0=     16 NMatT0=    0 NMatD0=   16 NMtDS0=    0 NMtDT0=    0
 Symmetry not used in FoFCou.
 New state      1 was old state      4
 New state      2 was old state      1
 New state      3 was old state      2
 New state      4 was old state      5
 Excitation Energies [eV] at current iteration:
 Root      1 :     4.507435644351223
 Root      2 :     4.568657041576931
 Root      3 :     5.290471000803392
 Root      4 :     6.097990695393947
 Root      5 :     6.600701986392711
 Root      6 :     6.995498041348803
 Root      7 :     7.091877235211529
 Root      8 :     7.201851113286044
 Root      9 :     7.429224320716443
 Root     10 :     7.717577538397961
 Root     11 :     7.741366570764006
 Root     12 :     8.099888634508606
 Root     13 :     8.553384331229484
 Root     14 :     8.776907903808647
 Root     15 :     8.881201345284621
 Root     16 :     8.991449528544585
 Iteration     2 Dimension    24 NMult    16 NNew      8
 CISAX will form     8 AO SS matrices at one time.
 NMat=     8 NSing=     8 JSym2X= 0.
 Root      1 not converged, maximum delta is    0.277113860554466
 Root      2 not converged, maximum delta is    0.213690518022951
 Root      3 not converged, maximum delta is    0.110140743236562
 Root      4 not converged, maximum delta is    0.124180358007459
 Excitation Energies [eV] at current iteration:
 Root      1 :     4.251720203686488   Change is   -0.255715440664736
 Root      2 :     4.279757790812901   Change is   -0.288899250764030
 Root      3 :     4.769375066846329   Change is   -0.521095933957064
 Root      4 :     5.573244075501522   Change is   -0.524746619892425
 Iteration     3 Dimension    32 NMult    24 NNew      8
 CISAX will form     8 AO SS matrices at one time.
 NMat=     8 NSing=     8 JSym2X= 0.
 Root      1 not converged, maximum delta is    0.065035426781794
 Root      2 not converged, maximum delta is    0.078975169646403
 Root      3 not converged, maximum delta is    0.013867950732702
 Root      4 not converged, maximum delta is    0.037710486305147
 Excitation Energies [eV] at current iteration:
 Root      1 :     4.234977914167931   Change is   -0.016742289518556
 Root      2 :     4.264161053097142   Change is   -0.015596737715758
 Root      3 :     4.737087378539548   Change is   -0.032287688306780
 Root      4 :     5.517692855691855   Change is   -0.055551219809667
 Iteration     4 Dimension    40 NMult    32 NNew      8
 CISAX will form     8 AO SS matrices at one time.
 NMat=     8 NSing=     8 JSym2X= 0.
 Root      1 not converged, maximum delta is    0.010405562263730
 Root      2 not converged, maximum delta is    0.012228659242833
 Root      3 not converged, maximum delta is    0.004404431986705
 Root      4 not converged, maximum delta is    0.018019059495146
 Excitation Energies [eV] at current iteration:
 Root      1 :     4.233338338752942   Change is   -0.001639575414990
 Root      2 :     4.263297261288814   Change is   -0.000863791808328
 Root      3 :     4.733047564171949   Change is   -0.004039814367599
 Root      4 :     5.510334677543317   Change is   -0.007358178148539
 Iteration     5 Dimension    48 NMult    40 NNew      8
 CISAX will form     8 AO SS matrices at one time.
 NMat=     8 NSing=     8 JSym2X= 0.
 Root      1 has converged.
 Root      2 has converged.
 Root      3 has converged.
 Root      4 not converged, maximum delta is    0.002965523950042
 Excitation Energies [eV] at current iteration:
 Root      1 :     4.233230230662109   Change is   -0.000108108090833
 Root      2 :     4.263253625522677   Change is   -0.000043635766138
 Root      3 :     4.732841778592938   Change is   -0.000205785579011
 Root      4 :     5.509536118488162   Change is   -0.000798559055154
 Iteration     6 Dimension    50 NMult    48 NNew      2
 CISAX will form     2 AO SS matrices at one time.
 NMat=     2 NSing=     2 JSym2X= 0.
 Root      1 has converged.
 Root      2 has converged.
 Root      3 has converged.
 Root      4 has converged.
 Excitation Energies [eV] at current iteration:
 Root      1 :     4.233230185173418   Change is   -0.000000045488691
 Root      2 :     4.263253595531756   Change is   -0.000000029990921
 Root      3 :     4.732839618987425   Change is   -0.000002159605513
 Root      4 :     5.509497291988176   Change is   -0.000038826499986
 Convergence achieved on expansion vectors.
 ***********************************************************************
 Excited states from <AA,BB:AA,BB> singles matrix:
 ***********************************************************************
 
 1PDM for each excited state written to RWF  633
 Ground to excited state transition densities written to RWF  633
 Ground to excited state transition electric dipole moments (Au):
       state          X           Y           Z        Dip. S.      Osc.
         1         1.5383      0.8607      0.1322      3.1246      0.3241
         2        -1.0108     -0.5580     -0.0547      1.3360      0.1395
         3         1.4157      0.6115      0.0212      2.3787      0.2758
         4        -0.2449      0.0599      0.4152      0.2360      0.0319
 Ground to excited state transition velocity dipole moments (Au):
       state          X           Y           Z        Dip. S.      Osc.
         1        -0.2353     -0.1340     -0.0243      0.0739      0.3167
         2         0.1557      0.0878      0.0120      0.0321      0.1366
         3        -0.2397     -0.1008     -0.0003      0.0676      0.2592
         4         0.0328     -0.0182     -0.0795      0.0077      0.0254
 Ground to excited state transition magnetic dipole moments (Au):
       state          X           Y           Z
         1        -0.8216      1.2516      0.5387
         2         0.3512     -0.5685      0.2716
         3         0.0819      0.0083      1.0322
         4        -0.3859      0.2269     -0.2242
 Ground to excited state transition velocity quadrupole moments (Au):
       state          XX          YY          ZZ          XY          XZ          YZ
         1        -1.0363     -0.9757      0.0855     -1.1520      0.7463      0.3018
         2         0.7539      0.6647     -0.0308      0.8125     -0.4952     -0.2173
         3         0.1945     -0.2302     -0.2105     -0.2540      1.1514      0.3754
         4         0.8178      0.0069      0.4842      0.3464     -0.3780     -0.2531
 <0|del|b> * <b|rxdel|0> + <0|del|b> * <b|delr+rdel|0>
 Rotatory Strengths (R) in cgs (10**-40 erg-esu-cm/Gauss)
       state          XX          YY          ZZ    R(velocity)    E-M Angle
         1      -119.9993    184.5718     -7.6215     18.9837       88.34
         2        14.8500     32.4044    -10.9893     12.0884       86.44
         3       233.7642   -223.5844    -94.5833    -28.1345       94.42
         4       -36.1392     42.5626     -2.8326      1.1969       88.66
 1/2[<0|r|b>*<b|rxdel|0> + (<0|rxdel|b>*<b|r|0>)*]
 Rotatory Strengths (R) in cgs (10**-40 erg-esu-cm/Gauss)
       state          XX          YY          ZZ     R(length)
         1       893.7100   -761.8238    -50.3489     27.1791
         2       251.0056   -224.3192     10.5066     12.3976
         3       -81.9985     -3.6081    -15.4791    -33.6952
         4       -66.8451     -9.6195     65.8367     -3.5426
  1/2[<0|del|b>*<b|r|0> + (<0|r|b>*<b|del|0>)*] (Au)
       state          X           Y           Z        Dip. S.   Osc.(frdel)
         1        -0.3620     -0.1153     -0.0032      0.4805      0.3203
         2        -0.1574     -0.0490     -0.0007      0.2071      0.1380
         3        -0.3394     -0.0616      0.0000      0.4010      0.2674
         4        -0.0080     -0.0011     -0.0330      0.0421      0.0281

 Excitation energies and oscillator strengths:
 
 Excited state symmetry could not be determined.
 Excited State   1:      Singlet-?Sym    4.2332 eV  292.88 nm  f=0.3241  <S**2>=0.000
      48 -> 52         0.29976
      49 -> 52         0.22437
      51 -> 52         0.56997
 This state for optimization and/or second-order correction.
 Total Energy, E(TD-HF/TD-KS) =  -631.827983483    
 Copying the excited state density for this state as the 1-particle RhoCI density.
 
 Excited state symmetry could not be determined.
 Excited State   2:      Singlet-?Sym    4.2633 eV  290.82 nm  f=0.1395  <S**2>=0.000
      48 -> 52         0.43798
      49 -> 52         0.37302
      51 -> 52        -0.36619
 
 Excited state symmetry could not be determined.
 Excited State   3:      Singlet-?Sym    4.7328 eV  261.97 nm  f=0.2758  <S**2>=0.000
      50 -> 52         0.67109
      51 -> 53        -0.13087
 
 Excited state symmetry could not be determined.
 Excited State   4:      Singlet-?Sym    5.5095 eV  225.04 nm  f=0.0319  <S**2>=0.000
      48 -> 52        -0.36743
      49 -> 52         0.44033
      50 -> 52         0.12321
      50 -> 53        -0.18503
      51 -> 53         0.27302
      51 -> 54        -0.14062
 SavETr:  write IOETrn=   770 NScale= 10 NData=  16 NLR=1 NState=    4 LETran=      82.
 Leave Link  914 at Thu Sep 28 11:58:49 2017, MaxMem=  1879048192 cpu:       311.5
 (Enter /share/apps/gaussian/g09_D01/g09/l601.exe)
 Copying SCF densities to generalized density rwf, IOpCl= 0 IROHF=0.
 Saving Alpha spin NTOs for state    1 to file 10524.

 **********************************************************************

   Populations using transition density between ground and state  1.

 **********************************************************************

 Alpha  occ. eigenvalues --    0.00000   0.00000   0.00000   0.00000   0.00000
 Alpha  occ. eigenvalues --    0.00000   0.00000   0.00000   0.00000   0.00000
 Alpha  occ. eigenvalues --    0.00000   0.00000   0.00000   0.00000   0.00000
 Alpha  occ. eigenvalues --    0.00000   0.00000   0.00001   0.00001   0.00001
 Alpha  occ. eigenvalues --    0.00001   0.00001   0.00001   0.00001   0.00001
 Alpha  occ. eigenvalues --    0.00002   0.00002   0.00002   0.00003   0.00005
 Alpha  occ. eigenvalues --    0.00007   0.00008   0.00009   0.00010   0.00010
 Alpha  occ. eigenvalues --    0.00013   0.00014   0.00016   0.00019   0.00022
 Alpha  occ. eigenvalues --    0.00023   0.00027   0.00028   0.00032   0.00036
 Alpha  occ. eigenvalues --    0.00045   0.00093   0.00355   0.01679   0.03061
 Alpha  occ. eigenvalues --    0.95058
 Alpha virt. eigenvalues --    0.95058   0.03061   0.01679   0.00355   0.00093
 Alpha virt. eigenvalues --    0.00045   0.00036   0.00032   0.00028   0.00027
 Alpha virt. eigenvalues --    0.00023   0.00022   0.00019   0.00016   0.00014
 Alpha virt. eigenvalues --    0.00013   0.00010   0.00010   0.00009   0.00008
 Alpha virt. eigenvalues --    0.00007   0.00005   0.00003   0.00002   0.00002
 Alpha virt. eigenvalues --    0.00002   0.00001   0.00001   0.00001   0.00001
 Alpha virt. eigenvalues --    0.00001   0.00001   0.00001   0.00001   0.00000
 Alpha virt. eigenvalues --    0.00000   0.00000   0.00000   0.00000   0.00000
 Alpha virt. eigenvalues --    0.00000   0.00000   0.00000   0.00000   0.00000
 Alpha virt. eigenvalues --    0.00000   0.00000   0.00000   0.00000   0.00000
 Alpha virt. eigenvalues --    0.00000   0.00000   0.00000   0.00000   0.00000
 Alpha virt. eigenvalues --    0.00000   0.00000   0.00000   0.00000   0.00000
 Alpha virt. eigenvalues --    0.00000   0.00000   0.00000   0.00000   0.00000
 Alpha virt. eigenvalues --    0.00000   0.00000   0.00000   0.00000   0.00000
 Alpha virt. eigenvalues --    0.00000   0.00000   0.00000   0.00000   0.00000
 Alpha virt. eigenvalues --    0.00000   0.00000   0.00000   0.00000   0.00000
 Alpha virt. eigenvalues --    0.00000   0.00000   0.00000   0.00000   0.00000
 Alpha virt. eigenvalues --    0.00000   0.00000   0.00000   0.00000   0.00000
 Alpha virt. eigenvalues --    0.00000   0.00000   0.00000   0.00000   0.00000
 Alpha virt. eigenvalues --    0.00000   0.00000   0.00000   0.00000   0.00000
 Alpha virt. eigenvalues --    0.00000   0.00000   0.00000   0.00000   0.00000
 Alpha virt. eigenvalues --    0.00000   0.00000   0.00000   0.00000   0.00000
 Alpha virt. eigenvalues --    0.00000   0.00000   0.00000   0.00000   0.00000
 Alpha virt. eigenvalues --    0.00000   0.00000   0.00000   0.00000   0.00000
 Alpha virt. eigenvalues --    0.00000   0.00000   0.00000   0.00000   0.00000
 Alpha virt. eigenvalues --    0.00000   0.00000   0.00000   0.00000   0.00000
 Alpha virt. eigenvalues --    0.00000   0.00000   0.00000   0.00000   0.00000
 Alpha virt. eigenvalues --    0.00000   0.00000   0.00000   0.00000   0.00000
 Alpha virt. eigenvalues --    0.00000   0.00000   0.00000   0.00000   0.00000
 Alpha virt. eigenvalues --    0.00000   0.00000   0.00000   0.00000   0.00000
 Alpha virt. eigenvalues --    0.00000   0.00000   0.00000   0.00000   0.00000
 Alpha virt. eigenvalues --    0.00000   0.00000   0.00000   0.00000   0.00000
 Alpha virt. eigenvalues --    0.00000   0.00000   0.00000   0.00000   0.00000
 Alpha virt. eigenvalues --    0.00000   0.00000   0.00000   0.00000   0.00000
 Alpha virt. eigenvalues --    0.00000   0.00000   0.00000   0.00000   0.00000
 Alpha virt. eigenvalues --    0.00000   0.00000   0.00000   0.00000   0.00000
 Alpha virt. eigenvalues --    0.00000   0.00000   0.00000   0.00000   0.00000
          Condensed to atoms (all electrons):
               1          2          3          4          5          6
     1  C    0.036585   0.071383   0.025915  -0.072390  -0.000711  -0.005714
     2  C    0.071383  -0.020187   0.009259   0.003790  -0.039679  -0.011444
     3  C    0.025915   0.009259  -0.009440  -0.008855   0.000559  -0.003330
     4  C   -0.072390   0.003790  -0.008855  -0.019478   0.002183  -0.000041
     5  C   -0.000711  -0.039679   0.000559   0.002183  -0.079310   0.014009
     6  O   -0.005714  -0.011444  -0.003330  -0.000041   0.014009  -0.012148
     7  C    0.000555  -0.000055  -0.085240   0.000020   0.000014  -0.000034
     8  O    0.000663  -0.001155   0.022969   0.000265  -0.000028  -0.000364
     9  H   -0.001098  -0.003098   0.003606   0.000059   0.000400   0.020470
    10  C   -0.002794  -0.000341   0.003643   0.080032   0.000073   0.000004
    11  H    0.002960   0.000180   0.000492   0.003238   0.000545   0.000009
    12  C   -0.001259  -0.005043  -0.000037   0.000139   0.078360  -0.001235
    13  H   -0.000030  -0.008685   0.000010  -0.000936  -0.000816   0.000008
    14  C    0.004359  -0.000109   0.002787   0.000248  -0.000009   0.000003
    15  H   -0.000703   0.000022  -0.002307  -0.000154   0.000000   0.000001
    16  H   -0.000354   0.000005  -0.000016   0.008868  -0.000001   0.000000
    17  H   -0.000152  -0.002229   0.000000   0.000005  -0.001647  -0.004138
    18  N   -0.000007   0.000400   0.000000   0.000000   0.000789  -0.000096
    19  H   -0.000020   0.000000  -0.000310  -0.000423   0.000000   0.000000
    20  C    0.000004   0.000020   0.000000  -0.000002  -0.003758  -0.000001
    21  C    0.000000  -0.000016   0.000000   0.000000   0.000478  -0.000002
    22  H   -0.000031  -0.000124   0.000000   0.000027   0.000667  -0.000004
    23  H    0.000000  -0.000001   0.000000   0.000000  -0.000015   0.000000
    24  H    0.000009   0.000034   0.000000  -0.000005   0.001871   0.000003
    25  H    0.000000   0.000002   0.000000   0.000000  -0.000085  -0.000005
    26  H    0.000000   0.000002   0.000000   0.000000  -0.000009   0.000001
    27  H    0.000000  -0.000002   0.000000   0.000000   0.000016   0.000000
               7          8          9         10         11         12
     1  C    0.000555   0.000663  -0.001098  -0.002794   0.002960  -0.001259
     2  C   -0.000055  -0.001155  -0.003098  -0.000341   0.000180  -0.005043
     3  C   -0.085240   0.022969   0.003606   0.003643   0.000492  -0.000037
     4  C    0.000020   0.000265   0.000059   0.080032   0.003238   0.000139
     5  C    0.000014  -0.000028   0.000400   0.000073   0.000545   0.078360
     6  O   -0.000034  -0.000364   0.020470   0.000004   0.000009  -0.001235
     7  C   -0.017706   0.005806  -0.000359   0.001517  -0.000031   0.000000
     8  O    0.005806  -0.056180  -0.020799  -0.000065   0.000002  -0.000001
     9  H   -0.000359  -0.020799  -0.011285   0.000009   0.000002  -0.000022
    10  C    0.001517  -0.000065   0.000009   0.010094   0.002151   0.000002
    11  H   -0.000031   0.000002   0.000002   0.002151  -0.022403  -0.000062
    12  C    0.000000  -0.000001  -0.000022   0.000002  -0.000062  -0.004208
    13  H   -0.000001   0.000001  -0.000009   0.000047  -0.000292   0.007086
    14  C    0.065675  -0.000459   0.000028  -0.088357   0.000080   0.000000
    15  H    0.000938   0.000275   0.000048  -0.000594  -0.000001   0.000000
    16  H    0.000144   0.000000   0.000000   0.001642  -0.000033   0.000000
    17  H    0.000000  -0.000002  -0.000019   0.000000   0.000002   0.008529
    18  N    0.000000   0.000000   0.000000   0.000000  -0.000001  -0.040467
    19  H    0.001756   0.000004  -0.000001   0.002343   0.000016   0.000000
    20  C    0.000000   0.000000   0.000000   0.000000  -0.000001  -0.000461
    21  C    0.000000   0.000000   0.000000   0.000000   0.000000   0.001440
    22  H    0.000000   0.000000   0.000000   0.000000   0.000001   0.000826
    23  H    0.000000   0.000000   0.000000   0.000000   0.000000   0.000091
    24  H    0.000000   0.000000   0.000000   0.000000  -0.000006   0.002638
    25  H    0.000000   0.000000   0.000000   0.000000   0.000000  -0.000633
    26  H    0.000000   0.000000   0.000000   0.000000   0.000000   0.000557
    27  H    0.000000   0.000000   0.000000   0.000000   0.000000   0.000863
              13         14         15         16         17         18
     1  C   -0.000030   0.004359  -0.000703  -0.000354  -0.000152  -0.000007
     2  C   -0.008685  -0.000109   0.000022   0.000005  -0.002229   0.000400
     3  C    0.000010   0.002787  -0.002307  -0.000016   0.000000   0.000000
     4  C   -0.000936   0.000248  -0.000154   0.008868   0.000005   0.000000
     5  C   -0.000816  -0.000009   0.000000  -0.000001  -0.001647   0.000789
     6  O    0.000008   0.000003   0.000001   0.000000  -0.004138  -0.000096
     7  C   -0.000001   0.065675   0.000938   0.000144   0.000000   0.000000
     8  O    0.000001  -0.000459   0.000275   0.000000  -0.000002   0.000000
     9  H   -0.000009   0.000028   0.000048   0.000000  -0.000019   0.000000
    10  C    0.000047  -0.088357  -0.000594   0.001642   0.000000   0.000000
    11  H   -0.000292   0.000080  -0.000001  -0.000033   0.000002  -0.000001
    12  C    0.007086   0.000000   0.000000   0.000000   0.008529  -0.040467
    13  H    0.006062  -0.000001   0.000000   0.000004   0.000233  -0.000390
    14  C   -0.000001  -0.003753   0.006048  -0.005812   0.000000   0.000000
    15  H    0.000000   0.006048  -0.032087   0.000014   0.000000   0.000000
    16  H    0.000004  -0.005812   0.000014  -0.018606   0.000000   0.000000
    17  H    0.000233   0.000000   0.000000   0.000000   0.028455  -0.002299
    18  N   -0.000390   0.000000   0.000000   0.000000  -0.002299   0.047322
    19  H    0.000000   0.000427   0.000539   0.000483   0.000000   0.000000
    20  C    0.000496   0.000000   0.000000   0.000000   0.000505   0.031374
    21  C    0.000014   0.000000   0.000000   0.000000  -0.001340   0.020875
    22  H    0.000248   0.000000   0.000000   0.000000  -0.000073  -0.007077
    23  H   -0.000070   0.000000   0.000000   0.000000  -0.000027  -0.000187
    24  H    0.000323   0.000000   0.000000   0.000000   0.000049  -0.009529
    25  H   -0.000001   0.000000   0.000000   0.000000   0.000623  -0.000700
    26  H    0.000000   0.000000   0.000000   0.000000   0.000151  -0.005957
    27  H    0.000001   0.000000   0.000000   0.000000  -0.000043  -0.005951
              19         20         21         22         23         24
     1  C   -0.000020   0.000004   0.000000  -0.000031   0.000000   0.000009
     2  C    0.000000   0.000020  -0.000016  -0.000124  -0.000001   0.000034
     3  C   -0.000310   0.000000   0.000000   0.000000   0.000000   0.000000
     4  C   -0.000423  -0.000002   0.000000   0.000027   0.000000  -0.000005
     5  C    0.000000  -0.003758   0.000478   0.000667  -0.000015   0.001871
     6  O    0.000000  -0.000001  -0.000002  -0.000004   0.000000   0.000003
     7  C    0.001756   0.000000   0.000000   0.000000   0.000000   0.000000
     8  O    0.000004   0.000000   0.000000   0.000000   0.000000   0.000000
     9  H   -0.000001   0.000000   0.000000   0.000000   0.000000   0.000000
    10  C    0.002343   0.000000   0.000000   0.000000   0.000000   0.000000
    11  H    0.000016  -0.000001   0.000000   0.000001   0.000000  -0.000006
    12  C    0.000000  -0.000461   0.001440   0.000826   0.000091   0.002638
    13  H    0.000000   0.000496   0.000014   0.000248  -0.000070   0.000323
    14  C    0.000427   0.000000   0.000000   0.000000   0.000000   0.000000
    15  H    0.000539   0.000000   0.000000   0.000000   0.000000   0.000000
    16  H    0.000483   0.000000   0.000000   0.000000   0.000000   0.000000
    17  H    0.000000   0.000505  -0.001340  -0.000073  -0.000027   0.000049
    18  N    0.000000   0.031374   0.020875  -0.007077  -0.000187  -0.009529
    19  H   -0.030971   0.000000   0.000000   0.000000   0.000000   0.000000
    20  C    0.000000  -0.039312  -0.003287  -0.002204   0.000660  -0.004368
    21  C    0.000000  -0.003287  -0.035798   0.000286  -0.000614   0.000151
    22  H    0.000000  -0.002204   0.000286   0.047633  -0.001208  -0.011210
    23  H    0.000000   0.000660  -0.000614  -0.001208   0.018533  -0.002070
    24  H    0.000000  -0.004368   0.000151  -0.011210  -0.002070   0.051206
    25  H    0.000000   0.000337  -0.000107  -0.000003  -0.000006  -0.000031
    26  H    0.000000  -0.000790  -0.000753  -0.000219   0.000045   0.000927
    27  H    0.000000  -0.000227   0.001190   0.000431   0.000336  -0.000284
              25         26         27
     1  C    0.000000   0.000000   0.000000
     2  C    0.000002   0.000002  -0.000002
     3  C    0.000000   0.000000   0.000000
     4  C    0.000000   0.000000   0.000000
     5  C   -0.000085  -0.000009   0.000016
     6  O   -0.000005   0.000001   0.000000
     7  C    0.000000   0.000000   0.000000
     8  O    0.000000   0.000000   0.000000
     9  H    0.000000   0.000000   0.000000
    10  C    0.000000   0.000000   0.000000
    11  H    0.000000   0.000000   0.000000
    12  C   -0.000633   0.000557   0.000863
    13  H   -0.000001   0.000000   0.000001
    14  C    0.000000   0.000000   0.000000
    15  H    0.000000   0.000000   0.000000
    16  H    0.000000   0.000000   0.000000
    17  H    0.000623   0.000151  -0.000043
    18  N   -0.000700  -0.005957  -0.005951
    19  H    0.000000   0.000000   0.000000
    20  C    0.000337  -0.000790  -0.000227
    21  C   -0.000107  -0.000753   0.001190
    22  H   -0.000003  -0.000219   0.000431
    23  H   -0.000006   0.000045   0.000336
    24  H   -0.000031   0.000927  -0.000284
    25  H    0.022500  -0.002554  -0.001002
    26  H   -0.002554   0.038573  -0.007011
    27  H   -0.001002  -0.007011   0.032935
 Mulliken charges:
               1
     1  C    5.942830
     2  C    6.007072
     3  C    6.040295
     4  C    6.003412
     5  C    6.026106
     6  O    8.004050
     7  C    6.027001
     8  O    8.049068
     9  H    1.012067
    10  C    5.990594
    11  H    1.013153
    12  C    5.952898
    13  H    0.996700
    14  C    6.018846
    15  H    1.027962
    16  H    1.013660
    17  H    0.973416
    18  N    6.971902
    19  H    1.026156
    20  C    6.021015
    21  C    6.017484
    22  H    0.972034
    23  H    0.984534
    24  H    0.970292
    25  H    0.981665
    26  H    0.977039
    27  H    0.978750
 Sum of Mulliken charges = 102.00000
 Mulliken charges with hydrogens summed into heavy atoms:
               1
     1  C    5.942830
     2  C    6.007072
     3  C    6.040295
     4  C    7.016565
     5  C    7.022806
     6  O    8.004050
     7  C    7.054963
     8  O    9.061134
    10  C    7.004254
    12  C    6.926314
    14  C    7.045002
    18  N    6.971902
    20  C    8.947876
    21  C    8.954937
 Electronic spatial extent (au):  <R**2>=            -17.5221
 Charge=              0.0000 electrons
 Dipole moment (field-independent basis, Debye):
    X=              5.5294    Y=              3.0939    Z=              0.4751  Tot=              6.3539
 Quadrupole moment (field-independent basis, Debye-Ang):
   XX=             12.5662   YY=             11.7502   ZZ=             -0.7486
   XY=             13.9278   XZ=             -9.4287   YZ=             -3.8366
 Traceless Quadrupole moment (field-independent basis, Debye-Ang):
   XX=              4.7103   YY=              3.8942   ZZ=             -8.6045
   XY=             13.9278   XZ=             -9.4287   YZ=             -3.8366
 Octapole moment (field-independent basis, Debye-Ang**2):
  XXX=            100.9065  YYY=             51.6005  ZZZ=              1.9158  XYY=             53.8560
  XXY=             60.4536  XXZ=            -26.1916  XZZ=             29.2930  YZZ=             12.6887
  YYZ=            -13.2165  XYZ=            -22.0092
 Hexadecapole moment (field-independent basis, Debye-Ang**3):
 XXXX=            363.7155 YYYY=            214.5657 ZZZZ=             -5.0038 XXXY=            285.0019
 XXXZ=           -210.7706 YYYX=            205.4607 YYYZ=            -61.0858 ZZZX=           -100.4765
 ZZZY=            -42.7305 XXYY=            218.2513 XXZZ=             90.7055 YYZZ=             41.1602
 XXYZ=           -111.9192 YYXZ=            -82.1223 ZZXY=             68.8320
 N-N= 8.384490054765D+02 E-N= 1.545762439989D-01  KE=-2.802200105021D-02
 Leave Link  601 at Thu Sep 28 11:58:49 2017, MaxMem=  1879048192 cpu:         0.1
 (Enter /share/apps/gaussian/g09_D01/g09/l9999.exe)
 1\1\GINC-NXN37\SP\RwB97XD TD-FC\6-31G(d)\C11H13N1O2\BTX008\28-Sep-2017
 \0\\#p wb97xd 6-31G* td=(nstates=4) nosymm density=(transition=1) pop=
 SaveNTO\\title\\0,1\C,0,2.462405,2.375572,-1.800125\C,0,1.159578,2.013
 36,-1.173465\C,0,3.313492,3.292147,-1.139962\C,0,2.888558,1.852738,-3.
 030336\C,0,0.201041,1.230789,-1.905309\O,0,0.921875,2.418525,-0.014927
 \C,0,4.525267,3.671279,-1.72941\O,0,3.007768,3.827443,0.046358\H,0,2.1
 33175,3.438542,0.300185\C,0,4.092137,2.216912,-3.601796\H,0,2.264076,1
 .138734,-3.552176\C,0,-1.000959,0.947165,-1.313357\H,0,0.407522,0.9227
 38,-2.918369\C,0,4.908207,3.139107,-2.943634\H,0,5.144495,4.388729,-1.
 203865\H,0,4.39438,1.795305,-4.552644\H,0,-1.151386,1.289612,-0.293372
 \N,0,-2.02894,0.304394,-1.865188\H,0,5.84976,3.443398,-3.387932\C,0,-1
 .922537,-0.234483,-3.207129\C,0,-3.22645,-0.008097,-1.105437\H,0,-1.64
 5935,0.552887,-3.915959\H,0,-2.8866,-0.644443,-3.507159\H,0,-1.172147,
 -1.03141,-3.245282\H,0,-3.167451,0.461706,-0.124087\H,0,-3.327256,-1.0
 88156,-0.968495\H,0,-4.111155,0.375575,-1.623476\\Version=ES64L-G09Rev
 D.01\HF=-631.9835518\RMSD=6.366e-09\PG=C01 [X(C11H13N1O2)]\\@


 TIME IS IN FACT THE HERO OF THE PLOT. THE TIME
 WITH WHICH WE HAVE TO DEAL IS OF THE ORDER OF TWO
 BILLION YEARS...GIVEN SO MUCH TIME, THE "IMPOSSIBLE"
 BECOMES POSSIBLE, THE POSSIBLE PROBABLE, THE PROBABLE
 VIRTUALLY CERTAIN.  ONE HAS ONLY TO WAIT, TIME
 ITSELF PERFORMS THE MIRACLES.
 "ORIGIN OF LIFE" LECTURES, GEORGE WALD, 1954
 Job cpu time:       0 days  0 hours  6 minutes 44.4 seconds.
 File lengths (MBytes):  RWF=    119 Int=      0 D2E=      0 Chk=     12 Scr=      1
 Normal termination of Gaussian 09 at Thu Sep 28 11:58:49 2017.
