 Entering Gaussian System, Link 0=g09
 Input=H_HP_dim-s4.com
 Output=H_HP_dim-s4.out
 Initial command:
 /share/apps/gaussian/g09_D01/g09/l1.exe "/tmp/4049135.1.chemistry.q/Gau-29318.inp" -scrdir="/tmp/4049135.1.chemistry.q/"
 Entering Link 1 = /share/apps/gaussian/g09_D01/g09/l1.exe PID=     29319.
  
 Copyright (c) 1988,1990,1992,1993,1995,1998,2003,2009,2013,
            Gaussian, Inc.  All Rights Reserved.
  
 This is part of the Gaussian(R) 09 program.  It is based on
 the Gaussian(R) 03 system (copyright 2003, Gaussian, Inc.),
 the Gaussian(R) 98 system (copyright 1998, Gaussian, Inc.),
 the Gaussian(R) 94 system (copyright 1995, Gaussian, Inc.),
 the Gaussian 92(TM) system (copyright 1992, Gaussian, Inc.),
 the Gaussian 90(TM) system (copyright 1990, Gaussian, Inc.),
 the Gaussian 88(TM) system (copyright 1988, Gaussian, Inc.),
 the Gaussian 86(TM) system (copyright 1986, Carnegie Mellon
 University), and the Gaussian 82(TM) system (copyright 1983,
 Carnegie Mellon University). Gaussian is a federally registered
 trademark of Gaussian, Inc.
  
 This software contains proprietary and confidential information,
 including trade secrets, belonging to Gaussian, Inc.
  
 This software is provided under written license and may be
 used, copied, transmitted, or stored only in accord with that
 written license.
  
 The following legend is applicable only to US Government
 contracts under FAR:
  
                    RESTRICTED RIGHTS LEGEND
  
 Use, reproduction and disclosure by the US Government is
 subject to restrictions as set forth in subparagraphs (a)
 and (c) of the Commercial Computer Software - Restricted
 Rights clause in FAR 52.227-19.
  
 Gaussian, Inc.
 340 Quinnipiac St., Bldg. 40, Wallingford CT 06492
  
  
 ---------------------------------------------------------------
 Warning -- This program may not be used in any manner that
 competes with the business of Gaussian, Inc. or will provide
 assistance to any competitor of Gaussian, Inc.  The licensee
 of this program is prohibited from giving any competitor of
 Gaussian, Inc. access to this program.  By using this program,
 the user acknowledges that Gaussian, Inc. is engaged in the
 business of creating and licensing software in the field of
 computational chemistry and represents and warrants to the
 licensee that it is not a competitor of Gaussian, Inc. and that
 it will not use this program in any manner prohibited above.
 ---------------------------------------------------------------
  

 Cite this work as:
 Gaussian 09, Revision D.01,
 M. J. Frisch, G. W. Trucks, H. B. Schlegel, G. E. Scuseria, 
 M. A. Robb, J. R. Cheeseman, G. Scalmani, V. Barone, B. Mennucci, 
 G. A. Petersson, H. Nakatsuji, M. Caricato, X. Li, H. P. Hratchian, 
 A. F. Izmaylov, J. Bloino, G. Zheng, J. L. Sonnenberg, M. Hada, 
 M. Ehara, K. Toyota, R. Fukuda, J. Hasegawa, M. Ishida, T. Nakajima, 
 Y. Honda, O. Kitao, H. Nakai, T. Vreven, J. A. Montgomery, Jr., 
 J. E. Peralta, F. Ogliaro, M. Bearpark, J. J. Heyd, E. Brothers, 
 K. N. Kudin, V. N. Staroverov, T. Keith, R. Kobayashi, J. Normand, 
 K. Raghavachari, A. Rendell, J. C. Burant, S. S. Iyengar, J. Tomasi, 
 M. Cossi, N. Rega, J. M. Millam, M. Klene, J. E. Knox, J. B. Cross, 
 V. Bakken, C. Adamo, J. Jaramillo, R. Gomperts, R. E. Stratmann, 
 O. Yazyev, A. J. Austin, R. Cammi, C. Pomelli, J. W. Ochterski, 
 R. L. Martin, K. Morokuma, V. G. Zakrzewski, G. A. Voth, 
 P. Salvador, J. J. Dannenberg, S. Dapprich, A. D. Daniels, 
 O. Farkas, J. B. Foresman, J. V. Ortiz, J. Cioslowski, 
 and D. J. Fox, Gaussian, Inc., Wallingford CT, 2013.
 
 ******************************************
 Gaussian 09:  ES64L-G09RevD.01 24-Apr-2013
                28-Sep-2017 
 ******************************************
 %chk=H_HP_dim
 %mem=14GB
 %nproc=2
 Will use up to    2 processors via shared memory.
 ----------------------------------------------------------------------
 #p wb97xd 6-31G* td=(nstates=4) nosymm density=(checkpoint,transition=
 4) pop=SaveNTO
 ----------------------------------------------------------------------
 Warning!  Basis set taken from checkpoint file.
 1/38=1/1;
 2/12=2,15=1,17=6,18=5,40=1/2;
 3/5=7,6=2,7=1,11=9,16=1,25=1,30=1,67=1,74=-58,89=1/1,2,8,3;
 4//1;
 6/7=2,8=2,9=2,10=2,11=2,22=-10,29=4,89=10/1;
 8/6=1,10=1,108=4/1;
 9/41=4,42=1,47=1,70=2/14;
 99/5=2/99;
 Leave Link    1 at Thu Sep 28 18:53:37 2017, MaxMem=  1879048192 cpu:         0.1
 (Enter /share/apps/gaussian/g09_D01/g09/l101.exe)
 -----
 title
 -----
 Symbolic Z-matrix:
 Charge =  0 Multiplicity = 1
 C                     2.46241   2.37557  -1.80013 
 C                     1.15958   2.01336  -1.17347 
 C                     3.31349   3.29215  -1.13996 
 C                     2.88856   1.85274  -3.03034 
 C                     0.20104   1.23079  -1.90531 
 O                     0.92188   2.41853  -0.01493 
 C                     4.52527   3.67128  -1.72941 
 O                     3.00777   3.82744   0.04636 
 H                     2.13318   3.43854   0.30019 
 C                     4.09214   2.21691  -3.6018 
 H                     2.26408   1.13873  -3.55218 
 C                    -1.00096   0.94717  -1.31336 
 H                     0.40752   0.92274  -2.91837 
 C                     4.90821   3.13911  -2.94363 
 H                     5.1445    4.38873  -1.20387 
 H                     4.39438   1.79531  -4.55264 
 H                    -1.15139   1.28961  -0.29337 
 N                    -2.02894   0.30439  -1.86519 
 H                     5.84976   3.4434   -3.38793 
 C                    -1.92254  -0.23448  -3.20713 
 C                    -3.22645  -0.0081   -1.10544 
 H                    -1.64594   0.55289  -3.91596 
 H                    -2.8866   -0.64444  -3.50716 
 H                    -1.17215  -1.03141  -3.24528 
 H                    -3.16745   0.46171  -0.12409 
 H                    -3.32726  -1.08816  -0.9685 
 H                    -4.11116   0.37558  -1.62348 
 C                    -2.46543  -2.36438   1.78754 
 C                    -1.17214  -1.99476   1.14509 
 C                    -3.29807  -3.32122   1.16379 
 C                    -2.90371  -1.79233   2.99065 
 C                    -0.18186  -1.28117   1.90317 
 O                    -0.97716  -2.33063  -0.04286 
 C                    -4.49896  -3.70417   1.77159 
 O                    -2.98361  -3.89092  -0.00586 
 H                    -2.15111  -3.4528   -0.30506 
 C                    -4.10196  -2.15419   3.57639 
 H                    -2.29929  -1.03002   3.4667 
 C                     0.97109  -0.88403   1.28055 
 H                    -0.33594  -1.1056    2.95648 
 C                    -4.89498  -3.12459   2.96113 
 H                    -5.10651  -4.4523    1.27512 
 H                    -4.42172  -1.68732   4.50011 
 H                     1.05624  -1.06234   0.21247 
 N                     2.02213  -0.30057   1.85645 
 H                    -5.83521  -3.42183   3.41302 
 C                     2.01476  -0.0179    3.27858 
 C                     3.15691   0.16746   1.08048 
 H                     1.24816   0.72496   3.52758 
 H                     2.98794   0.37406   3.57111 
 H                     1.81964  -0.93223   3.84854 
 H                     3.01856  -0.09784   0.03193 
 H                     4.07935  -0.29597   1.44396 
 H                     3.24981   1.25505   1.14964 
 
 NAtoms=     54 NQM=       54 NQMF=       0 NMMI=      0 NMMIF=      0
                NMic=       0 NMicF=      0.
                    Isotopes and Nuclear Properties:
 (Nuclear quadrupole moments (NQMom) in fm**2, nuclear magnetic moments (NMagM)
  in nuclear magnetons)

  Atom         1           2           3           4           5           6           7           8           9          10
 IAtWgt=          12          12          12          12          12          16          12          16           1          12
 AtmWgt=  12.0000000  12.0000000  12.0000000  12.0000000  12.0000000  15.9949146  12.0000000  15.9949146   1.0078250  12.0000000
 NucSpn=           0           0           0           0           0           0           0           0           1           0
 AtZEff=   0.0000000   0.0000000   0.0000000   0.0000000   0.0000000   0.0000000   0.0000000   0.0000000   0.0000000   0.0000000
 NQMom=    0.0000000   0.0000000   0.0000000   0.0000000   0.0000000   0.0000000   0.0000000   0.0000000   0.0000000   0.0000000
 NMagM=    0.0000000   0.0000000   0.0000000   0.0000000   0.0000000   0.0000000   0.0000000   0.0000000   2.7928460   0.0000000
 AtZNuc=   6.0000000   6.0000000   6.0000000   6.0000000   6.0000000   8.0000000   6.0000000   8.0000000   1.0000000   6.0000000

  Atom        11          12          13          14          15          16          17          18          19          20
 IAtWgt=           1          12           1          12           1           1           1          14           1          12
 AtmWgt=   1.0078250  12.0000000   1.0078250  12.0000000   1.0078250   1.0078250   1.0078250  14.0030740   1.0078250  12.0000000
 NucSpn=           1           0           1           0           1           1           1           2           1           0
 AtZEff=   0.0000000   0.0000000   0.0000000   0.0000000   0.0000000   0.0000000   0.0000000   0.0000000   0.0000000   0.0000000
 NQMom=    0.0000000   0.0000000   0.0000000   0.0000000   0.0000000   0.0000000   0.0000000   2.0440000   0.0000000   0.0000000
 NMagM=    2.7928460   0.0000000   2.7928460   0.0000000   2.7928460   2.7928460   2.7928460   0.4037610   2.7928460   0.0000000
 AtZNuc=   1.0000000   6.0000000   1.0000000   6.0000000   1.0000000   1.0000000   1.0000000   7.0000000   1.0000000   6.0000000

  Atom        21          22          23          24          25          26          27          28          29          30
 IAtWgt=          12           1           1           1           1           1           1          12          12          12
 AtmWgt=  12.0000000   1.0078250   1.0078250   1.0078250   1.0078250   1.0078250   1.0078250  12.0000000  12.0000000  12.0000000
 NucSpn=           0           1           1           1           1           1           1           0           0           0
 AtZEff=   0.0000000   0.0000000   0.0000000   0.0000000   0.0000000   0.0000000   0.0000000   0.0000000   0.0000000   0.0000000
 NQMom=    0.0000000   0.0000000   0.0000000   0.0000000   0.0000000   0.0000000   0.0000000   0.0000000   0.0000000   0.0000000
 NMagM=    0.0000000   2.7928460   2.7928460   2.7928460   2.7928460   2.7928460   2.7928460   0.0000000   0.0000000   0.0000000
 AtZNuc=   6.0000000   1.0000000   1.0000000   1.0000000   1.0000000   1.0000000   1.0000000   6.0000000   6.0000000   6.0000000

  Atom        31          32          33          34          35          36          37          38          39          40
 IAtWgt=          12          12          16          12          16           1          12           1          12           1
 AtmWgt=  12.0000000  12.0000000  15.9949146  12.0000000  15.9949146   1.0078250  12.0000000   1.0078250  12.0000000   1.0078250
 NucSpn=           0           0           0           0           0           1           0           1           0           1
 AtZEff=   0.0000000   0.0000000   0.0000000   0.0000000   0.0000000   0.0000000   0.0000000   0.0000000   0.0000000   0.0000000
 NQMom=    0.0000000   0.0000000   0.0000000   0.0000000   0.0000000   0.0000000   0.0000000   0.0000000   0.0000000   0.0000000
 NMagM=    0.0000000   0.0000000   0.0000000   0.0000000   0.0000000   2.7928460   0.0000000   2.7928460   0.0000000   2.7928460
 AtZNuc=   6.0000000   6.0000000   8.0000000   6.0000000   8.0000000   1.0000000   6.0000000   1.0000000   6.0000000   1.0000000

  Atom        41          42          43          44          45          46          47          48          49          50
 IAtWgt=          12           1           1           1          14           1          12          12           1           1
 AtmWgt=  12.0000000   1.0078250   1.0078250   1.0078250  14.0030740   1.0078250  12.0000000  12.0000000   1.0078250   1.0078250
 NucSpn=           0           1           1           1           2           1           0           0           1           1
 AtZEff=   0.0000000   0.0000000   0.0000000   0.0000000   0.0000000   0.0000000   0.0000000   0.0000000   0.0000000   0.0000000
 NQMom=    0.0000000   0.0000000   0.0000000   0.0000000   2.0440000   0.0000000   0.0000000   0.0000000   0.0000000   0.0000000
 NMagM=    0.0000000   2.7928460   2.7928460   2.7928460   0.4037610   2.7928460   0.0000000   0.0000000   2.7928460   2.7928460
 AtZNuc=   6.0000000   1.0000000   1.0000000   1.0000000   7.0000000   1.0000000   6.0000000   6.0000000   1.0000000   1.0000000

  Atom        51          52          53          54
 IAtWgt=           1           1           1           1
 AtmWgt=   1.0078250   1.0078250   1.0078250   1.0078250
 NucSpn=           1           1           1           1
 AtZEff=   0.0000000   0.0000000   0.0000000   0.0000000
 NQMom=    0.0000000   0.0000000   0.0000000   0.0000000
 NMagM=    2.7928460   2.7928460   2.7928460   2.7928460
 AtZNuc=   1.0000000   1.0000000   1.0000000   1.0000000
 Leave Link  101 at Thu Sep 28 18:53:38 2017, MaxMem=  1879048192 cpu:         0.2
 (Enter /share/apps/gaussian/g09_D01/g09/l202.exe)
 Symmetry turned off by external request.
 Stoichiometry    C22H26N2O4
 Framework group  C1[X(C22H26N2O4)]
 Deg. of freedom   156
 Full point group                 C1      NOp   1
                          Input orientation:                          
 ---------------------------------------------------------------------
 Center     Atomic      Atomic             Coordinates (Angstroms)
 Number     Number       Type             X           Y           Z
 ---------------------------------------------------------------------
      1          6           0        2.462405    2.375572   -1.800125
      2          6           0        1.159578    2.013360   -1.173465
      3          6           0        3.313492    3.292147   -1.139962
      4          6           0        2.888558    1.852738   -3.030336
      5          6           0        0.201041    1.230789   -1.905309
      6          8           0        0.921875    2.418525   -0.014927
      7          6           0        4.525267    3.671279   -1.729410
      8          8           0        3.007768    3.827443    0.046358
      9          1           0        2.133175    3.438542    0.300185
     10          6           0        4.092137    2.216912   -3.601796
     11          1           0        2.264076    1.138734   -3.552176
     12          6           0       -1.000959    0.947165   -1.313357
     13          1           0        0.407522    0.922738   -2.918369
     14          6           0        4.908207    3.139107   -2.943634
     15          1           0        5.144495    4.388729   -1.203865
     16          1           0        4.394380    1.795305   -4.552644
     17          1           0       -1.151386    1.289612   -0.293372
     18          7           0       -2.028940    0.304394   -1.865188
     19          1           0        5.849760    3.443398   -3.387932
     20          6           0       -1.922537   -0.234483   -3.207129
     21          6           0       -3.226450   -0.008097   -1.105437
     22          1           0       -1.645935    0.552887   -3.915959
     23          1           0       -2.886600   -0.644443   -3.507159
     24          1           0       -1.172147   -1.031410   -3.245282
     25          1           0       -3.167451    0.461706   -0.124087
     26          1           0       -3.327256   -1.088156   -0.968495
     27          1           0       -4.111155    0.375575   -1.623476
     28          6           0       -2.465425   -2.364375    1.787541
     29          6           0       -1.172143   -1.994760    1.145085
     30          6           0       -3.298074   -3.321217    1.163794
     31          6           0       -2.903713   -1.792329    2.990652
     32          6           0       -0.181857   -1.281173    1.903170
     33          8           0       -0.977156   -2.330632   -0.042860
     34          6           0       -4.498958   -3.704170    1.771591
     35          8           0       -2.983612   -3.890922   -0.005857
     36          1           0       -2.151107   -3.452800   -0.305064
     37          6           0       -4.101957   -2.154185    3.576386
     38          1           0       -2.299292   -1.030018    3.466700
     39          6           0        0.971087   -0.884025    1.280550
     40          1           0       -0.335935   -1.105601    2.956483
     41          6           0       -4.894978   -3.124585    2.961132
     42          1           0       -5.106508   -4.452301    1.275116
     43          1           0       -4.421720   -1.687315    4.500109
     44          1           0        1.056240   -1.062342    0.212470
     45          7           0        2.022127   -0.300574    1.856453
     46          1           0       -5.835213   -3.421827    3.413024
     47          6           0        2.014763   -0.017902    3.278582
     48          6           0        3.156912    0.167462    1.080475
     49          1           0        1.248162    0.724955    3.527576
     50          1           0        2.987944    0.374064    3.571110
     51          1           0        1.819639   -0.932225    3.848537
     52          1           0        3.018558   -0.097841    0.031927
     53          1           0        4.079346   -0.295969    1.443957
     54          1           0        3.249809    1.255049    1.149636
 ---------------------------------------------------------------------
 Rotational constants (GHZ):      0.3318077      0.0877230      0.0772033
 Leave Link  202 at Thu Sep 28 18:53:38 2017, MaxMem=  1879048192 cpu:         0.0
 (Enter /share/apps/gaussian/g09_D01/g09/l301.exe)
 Basis read from chk: "H_HP_dim.chk" (6D, 7F)
 No pseudopotential information found on chk file.
   472 basis functions,   888 primitive gaussians,   472 cartesian basis functions
   102 alpha electrons      102 beta electrons
       nuclear repulsion energy      2583.7445519779 Hartrees.
 IExCor= 4639 DFT=T Ex+Corr=wB97XD ExCW=0 ScaHFX=  1.000000
 ScaDFX=  1.000000  1.000000  1.000000  1.000000 ScalE2=  1.000000  1.000000
 IRadAn=      0 IRanWt=     -1 IRanGd=            0 ICorTp=0 IEmpDi=121
  HFx wShort=  0.000000 wLong=  0.200000 cFull=  0.222036 cShort=  0.000000 cLong=  0.777964
  DFx wShort=  0.000000 wLong=  0.200000 cFull=  0.000000 cShort=  0.000000 cLong=  1.000000
 NAtoms=   54 NActive=   54 NUniq=   54 SFac= 1.00D+00 NAtFMM=   60 NAOKFM=F Big=F
 Integral buffers will be    131072 words long.
 Raffenetti 1 integral format.
 Two-electron integral symmetry is turned off.
 R6Disp:  Grimme-D2 Dispersion energy=       -0.0423741780 Hartrees.
 Nuclear repulsion after empirical dispersion term =     2583.7021777999 Hartrees.
 No density basis found on file 20724.
 Leave Link  301 at Thu Sep 28 18:53:38 2017, MaxMem=  1879048192 cpu:         0.1
 (Enter /share/apps/gaussian/g09_D01/g09/l302.exe)
 NPDir=0 NMtPBC=     1 NCelOv=     1 NCel=       1 NClECP=     1 NCelD=      1
         NCelK=      1 NCelE2=     1 NClLst=     1 CellRange=     0.0.
 One-electron integrals computed using PRISM.
 NBasis=   472 RedAO= T EigKep=  3.80D-04  NBF=   472
 NBsUse=   472 1.00D-06 EigRej= -1.00D+00 NBFU=   472
 Precomputing XC quadrature grid using
 IXCGrd= 4 IRadAn=           0 IRanWt=          -1 IRanGd=           0 AccXCQ= 0.00D+00.
 Generated NRdTot=       0 NPtTot=           0 NUsed=           0 NTot=          32
 NSgBfM=   460   460   460   460   460 MxSgAt=    54 MxSgA2=    54.
 Leave Link  302 at Thu Sep 28 18:53:39 2017, MaxMem=  1879048192 cpu:         2.6
 (Enter /share/apps/gaussian/g09_D01/g09/l308.exe)
 Leave Link  308 at Thu Sep 28 18:53:39 2017, MaxMem=  1879048192 cpu:         0.1
 (Enter /share/apps/gaussian/g09_D01/g09/l303.exe)
 DipDrv:  MaxL=1.
 Leave Link  303 at Thu Sep 28 18:53:39 2017, MaxMem=  1879048192 cpu:         0.1
 (Enter /share/apps/gaussian/g09_D01/g09/l401.exe)
 ExpMin= 1.61D-01 ExpMax= 5.48D+03 ExpMxC= 8.25D+02 IAcc=1 IRadAn=         1 AccDes= 0.00D+00
 Harris functional with IExCor= 4639 and IRadAn=       1 diagonalized for initial guess.
 HarFok:  IExCor= 4639 AccDes= 0.00D+00 IRadAn=         1 IDoV= 1 UseB2=F ITyADJ=14
 ICtDFT=  3500011 ScaDFX=  1.000000  1.000000  1.000000  1.000000
 FoFCou: FMM=F IPFlag=           0 FMFlag=      100000 FMFlg1=           0
         NFxFlg=           0 DoJE=T BraDBF=F KetDBF=T FulRan=T
         wScrn=  0.000000 ICntrl=     500 IOpCl=  0 I1Cent=   200000004 NGrid=           0
         NMat0=    1 NMatS0=      1 NMatT0=    0 NMatD0=    1 NMtDS0=    0 NMtDT0=    0
 Symmetry not used in FoFCou.
 Harris En= -1209.57070039344    
 JPrj=0 DoOrth=F DoCkMO=F.
 Leave Link  401 at Thu Sep 28 18:53:43 2017, MaxMem=  1879048192 cpu:         6.9
 (Enter /share/apps/gaussian/g09_D01/g09/l601.exe)
 Using densities on the checkpoint file.
 Saving Alpha spin NTOs for state    4 to file 20524.

 **********************************************************************

   Populations using transition density between ground and state  4.

 **********************************************************************

 Alpha  occ. eigenvalues --    0.00000   0.00000   0.00000   0.00000   0.00000
 Alpha  occ. eigenvalues --    0.00000   0.00000   0.00000   0.00000   0.00000
 Alpha  occ. eigenvalues --    0.00000   0.00000   0.00000   0.00000   0.00000
 Alpha  occ. eigenvalues --    0.00000   0.00000   0.00000   0.00000   0.00000
 Alpha  occ. eigenvalues --    0.00000   0.00000   0.00000   0.00000   0.00000
 Alpha  occ. eigenvalues --    0.00000   0.00000   0.00000   0.00000   0.00000
 Alpha  occ. eigenvalues --    0.00000   0.00000   0.00000   0.00000   0.00000
 Alpha  occ. eigenvalues --    0.00000   0.00000   0.00000   0.00000   0.00000
 Alpha  occ. eigenvalues --    0.00000   0.00000   0.00000   0.00000   0.00000
 Alpha  occ. eigenvalues --    0.00000   0.00000   0.00000   0.00000   0.00001
 Alpha  occ. eigenvalues --    0.00001   0.00001   0.00001   0.00001   0.00001
 Alpha  occ. eigenvalues --    0.00001   0.00001   0.00001   0.00001   0.00001
 Alpha  occ. eigenvalues --    0.00001   0.00002   0.00002   0.00002   0.00002
 Alpha  occ. eigenvalues --    0.00002   0.00002   0.00003   0.00003   0.00003
 Alpha  occ. eigenvalues --    0.00003   0.00003   0.00004   0.00004   0.00005
 Alpha  occ. eigenvalues --    0.00005   0.00005   0.00005   0.00005   0.00006
 Alpha  occ. eigenvalues --    0.00006   0.00007   0.00007   0.00007   0.00007
 Alpha  occ. eigenvalues --    0.00008   0.00009   0.00010   0.00011   0.00011
 Alpha  occ. eigenvalues --    0.00012   0.00015   0.00021   0.00031   0.00063
 Alpha  occ. eigenvalues --    0.00130   0.00372   0.00579   0.01146   0.01477
 Alpha  occ. eigenvalues --    0.45943   0.50399
 Alpha virt. eigenvalues --    0.50399   0.45943   0.01477   0.01146   0.00579
 Alpha virt. eigenvalues --    0.00372   0.00130   0.00063   0.00031   0.00021
 Alpha virt. eigenvalues --    0.00015   0.00012   0.00011   0.00011   0.00010
 Alpha virt. eigenvalues --    0.00009   0.00008   0.00007   0.00007   0.00007
 Alpha virt. eigenvalues --    0.00007   0.00006   0.00006   0.00005   0.00005
 Alpha virt. eigenvalues --    0.00005   0.00005   0.00005   0.00004   0.00004
 Alpha virt. eigenvalues --    0.00003   0.00003   0.00003   0.00003   0.00003
 Alpha virt. eigenvalues --    0.00002   0.00002   0.00002   0.00002   0.00002
 Alpha virt. eigenvalues --    0.00002   0.00001   0.00001   0.00001   0.00001
 Alpha virt. eigenvalues --    0.00001   0.00001   0.00001   0.00001   0.00001
 Alpha virt. eigenvalues --    0.00001   0.00001   0.00001   0.00000   0.00000
 Alpha virt. eigenvalues --    0.00000   0.00000   0.00000   0.00000   0.00000
 Alpha virt. eigenvalues --    0.00000   0.00000   0.00000   0.00000   0.00000
 Alpha virt. eigenvalues --    0.00000   0.00000   0.00000   0.00000   0.00000
 Alpha virt. eigenvalues --    0.00000   0.00000   0.00000   0.00000   0.00000
 Alpha virt. eigenvalues --    0.00000   0.00000   0.00000   0.00000   0.00000
 Alpha virt. eigenvalues --    0.00000   0.00000   0.00000   0.00000   0.00000
 Alpha virt. eigenvalues --    0.00000   0.00000   0.00000   0.00000   0.00000
 Alpha virt. eigenvalues --    0.00000   0.00000   0.00000   0.00000   0.00000
 Alpha virt. eigenvalues --    0.00000   0.00000   0.00000   0.00000   0.00000
 Alpha virt. eigenvalues --    0.00000   0.00000   0.00000   0.00000   0.00000
 Alpha virt. eigenvalues --    0.00000   0.00000   0.00000   0.00000   0.00000
 Alpha virt. eigenvalues --    0.00000   0.00000   0.00000   0.00000   0.00000
 Alpha virt. eigenvalues --    0.00000   0.00000   0.00000   0.00000   0.00000
 Alpha virt. eigenvalues --    0.00000   0.00000   0.00000   0.00000   0.00000
 Alpha virt. eigenvalues --    0.00000   0.00000   0.00000   0.00000   0.00000
 Alpha virt. eigenvalues --    0.00000   0.00000   0.00000   0.00000   0.00000
 Alpha virt. eigenvalues --    0.00000   0.00000   0.00000   0.00000   0.00000
 Alpha virt. eigenvalues --    0.00000   0.00000   0.00000   0.00000   0.00000
 Alpha virt. eigenvalues --    0.00000   0.00000   0.00000   0.00000   0.00000
 Alpha virt. eigenvalues --    0.00000   0.00000   0.00000   0.00000   0.00000
 Alpha virt. eigenvalues --    0.00000   0.00000   0.00000   0.00000   0.00000
 Alpha virt. eigenvalues --    0.00000   0.00000   0.00000   0.00000   0.00000
 Alpha virt. eigenvalues --    0.00000   0.00000   0.00000   0.00000   0.00000
 Alpha virt. eigenvalues --    0.00000   0.00000   0.00000   0.00000   0.00000
 Alpha virt. eigenvalues --    0.00000   0.00000   0.00000   0.00000   0.00000
 Alpha virt. eigenvalues --    0.00000   0.00000   0.00000   0.00000   0.00000
 Alpha virt. eigenvalues --    0.00000   0.00000   0.00000   0.00000   0.00000
 Alpha virt. eigenvalues --    0.00000   0.00000   0.00000   0.00000   0.00000
 Alpha virt. eigenvalues --    0.00000   0.00000   0.00000   0.00000   0.00000
 Alpha virt. eigenvalues --    0.00000   0.00000   0.00000   0.00000   0.00000
 Alpha virt. eigenvalues --    0.00000   0.00000   0.00000   0.00000   0.00000
 Alpha virt. eigenvalues --    0.00000   0.00000   0.00000   0.00000   0.00000
 Alpha virt. eigenvalues --    0.00000   0.00000   0.00000   0.00000   0.00000
 Alpha virt. eigenvalues --    0.00000   0.00000   0.00000   0.00000   0.00000
 Alpha virt. eigenvalues --    0.00000   0.00000   0.00000   0.00000   0.00000
 Alpha virt. eigenvalues --    0.00000   0.00000   0.00000   0.00000   0.00000
 Alpha virt. eigenvalues --    0.00000   0.00000   0.00000   0.00000   0.00000
 Alpha virt. eigenvalues --    0.00000   0.00000   0.00000   0.00000   0.00000
 Alpha virt. eigenvalues --    0.00000   0.00000   0.00000   0.00000   0.00000
 Alpha virt. eigenvalues --    0.00000   0.00000   0.00000   0.00000   0.00000
 Alpha virt. eigenvalues --    0.00000   0.00000   0.00000   0.00000   0.00000
 Alpha virt. eigenvalues --    0.00000   0.00000   0.00000   0.00000   0.00000
 Alpha virt. eigenvalues --    0.00000   0.00000   0.00000   0.00000   0.00000
 Alpha virt. eigenvalues --    0.00000   0.00000   0.00000   0.00000   0.00000
 Alpha virt. eigenvalues --    0.00000   0.00000   0.00000   0.00000   0.00000
 Alpha virt. eigenvalues --    0.00000   0.00000   0.00000   0.00000   0.00000
 Alpha virt. eigenvalues --    0.00000   0.00000   0.00000   0.00000   0.00000
 Alpha virt. eigenvalues --    0.00000   0.00000   0.00000   0.00000   0.00000
 Alpha virt. eigenvalues --    0.00000   0.00000   0.00000   0.00000   0.00000
 Alpha virt. eigenvalues --    0.00000   0.00000   0.00000   0.00000   0.00000
 Alpha virt. eigenvalues --    0.00000   0.00000   0.00000   0.00000   0.00000
 Alpha virt. eigenvalues --    0.00000   0.00000   0.00000   0.00000   0.00000
 Alpha virt. eigenvalues --    0.00000   0.00000   0.00000   0.00000   0.00000
 Alpha virt. eigenvalues --    0.00000   0.00000   0.00000   0.00000   0.00000
 Alpha virt. eigenvalues --    0.00000   0.00000   0.00000   0.00000   0.00000
 Alpha virt. eigenvalues --    0.00000   0.00000   0.00000   0.00000   0.00000
 Alpha virt. eigenvalues --    0.00000   0.00000   0.00000   0.00000   0.00000
 Alpha virt. eigenvalues --    0.00000   0.00000   0.00000   0.00000   0.00000
 Alpha virt. eigenvalues --    0.00000   0.00000   0.00000   0.00000   0.00000
 Alpha virt. eigenvalues --    0.00000   0.00000   0.00000   0.00000   0.00000
 Alpha virt. eigenvalues --    0.00000   0.00000   0.00000   0.00000   0.00000
 Alpha virt. eigenvalues --    0.00000   0.00000   0.00000   0.00000   0.00000
 Alpha virt. eigenvalues --    0.00000   0.00000   0.00000   0.00000   0.00000
          Condensed to atoms (all electrons):
 Mulliken charges:
               1
     1  C    6.027397
     2  C    5.997537
     3  C    5.984592
     4  C    5.995497
     5  C    5.995918
     6  O    8.006137
     7  C    5.990473
     8  O    7.978857
     9  H    0.995264
    10  C    6.005144
    11  H    0.991545
    12  C    6.015864
    13  H    1.003118
    14  C    5.988516
    15  H    0.986303
    16  H    0.991729
    17  H    1.012638
    18  N    7.011347
    19  H    0.985340
    20  C    5.991912
    21  C    5.997261
    22  H    1.011950
    23  H    1.003529
    24  H    1.011809
    25  H    1.008691
    26  H    1.003020
    27  H    1.005730
    28  C    5.965395
    29  C    6.004714
    30  C    6.020524
    31  C    6.007645
    32  C    6.011703
    33  O    7.993174
    34  C    6.011824
    35  O    8.026853
    36  H    1.007296
    37  C    5.992817
    38  H    1.010461
    39  C    5.978319
    40  H    0.994243
    41  C    6.015449
    42  H    1.016970
    43  H    1.009649
    44  H    0.983473
    45  N    6.983289
    46  H    1.018114
    47  C    6.011547
    48  C    6.006406
    49  H    0.983760
    50  H    0.993288
    51  H    0.984231
    52  H    0.987804
    53  H    0.990912
    54  H    0.993027
 Sum of Mulliken charges = 204.00000
 Mulliken charges with hydrogens summed into heavy atoms:
               1
     1  C    6.027397
     2  C    5.997537
     3  C    5.984592
     4  C    6.987043
     5  C    6.999035
     6  O    8.006137
     7  C    6.976776
     8  O    8.974121
    10  C    6.996873
    12  C    7.028501
    14  C    6.973856
    18  N    7.011347
    20  C    9.019199
    21  C    9.014702
    28  C    5.965395
    29  C    6.004714
    30  C    6.020524
    31  C    7.018106
    32  C    7.005945
    33  O    7.993174
    34  C    7.028794
    35  O    9.034148
    37  C    7.002466
    39  C    6.961792
    41  C    7.033563
    45  N    6.983289
    47  C    8.972825
    48  C    8.978148
 Electronic spatial extent (au):  <R**2>=             -2.1940
 Charge=              0.0000 electrons
 Dipole moment (field-independent basis, Debye):
    X=             -5.4690    Y=             -3.0479    Z=              0.0230  Tot=              6.2611
 Quadrupole moment (field-independent basis, Debye-Ang):
   XX=              1.4779   YY=              1.6053   ZZ=             -0.1322
   XY=              1.7873   XZ=             -1.5028   YZ=             -0.5409
 Traceless Quadrupole moment (field-independent basis, Debye-Ang):
   XX=              0.4942   YY=              0.6216   ZZ=             -1.1158
   XY=              1.7873   XZ=             -1.5028   YZ=             -0.5409
 Octapole moment (field-independent basis, Debye-Ang**2):
  XXX=           -104.8200  YYY=            -55.0224  ZZZ=              4.6962  XYY=            -58.7003
  XXY=            -65.4461  XXZ=             35.6774  XZZ=            -34.5311  YZZ=            -16.3189
  YYZ=             17.8338  XYZ=             27.6634
 Hexadecapole moment (field-independent basis, Debye-Ang**3):
 XXXX=             44.3291 YYYY=             29.8027 ZZZZ=             -3.4158 XXXY=             34.8172
 XXXZ=            -30.0912 YYYX=             26.9598 YYYZ=             -8.4957 ZZZX=            -16.0865
 ZZZY=             -5.0538 XXYY=             27.4004 XXZZ=             11.9436 YYZZ=              5.9105
 XXYZ=            -15.3760 YYXZ=            -11.6742 ZZXY=             10.2211
 N-N= 2.583702177800D+03 E-N=-5.100678234321D-02  KE=-3.924001377543D-03
 Leave Link  601 at Thu Sep 28 18:53:43 2017, MaxMem=  1879048192 cpu:         0.5
 (Enter /share/apps/gaussian/g09_D01/g09/l801.exe)
 DoSCS=F DFT=T ScalE2(SS,OS)=  1.000000  1.000000
 ExpMin= 1.61D-01 ExpMax= 5.48D+03 ExpMxC= 8.25D+02 IAcc=3 IRadAn=         5 AccDes= 0.00D+00
 HarFok:  IExCor=  205 AccDes= 0.00D+00 IRadAn=         5 IDoV=-2 UseB2=F ITyADJ=14
 ICtDFT= 12500011 ScaDFX=  1.000000  1.000000  1.000000  1.000000
 Largest valence mixing into a core orbital is  5.21D-05
 Largest core mixing into a valence orbital is  2.21D-05
 Range of M.O.s used for correlation:    29   472
 NBasis=   472 NAE=   102 NBE=   102 NFC=    28 NFV=     0
 NROrb=    444 NOA=    74 NOB=    74 NVA=   370 NVB=   370

 **** Warning!!: The smallest alpha delta epsilon is  0.98916535D-01

 Leave Link  801 at Thu Sep 28 18:53:44 2017, MaxMem=  1879048192 cpu:         1.5
 (Enter /share/apps/gaussian/g09_D01/g09/l914.exe)
 RHF ground state
 MDV=  1879048192 DFT=T DoStab=F Mixed=T DoRPA=T DoScal=F NonHer=T
 Would need an additional         35556700000 words for in-memory AO integral storage.
 Making orbital integer symmetry assigments:
    16 initial guesses have been made.
 ***WARNING States NOT converged!! Guess Only.
 ***********************************************************************
 Excited states from <AA,BB:AA,BB> singles matrix:
 ***********************************************************************
 
 1PDM for each excited state written to RWF  633
 Ground to excited state transition densities written to RWF  633
 Ground to excited state transition electric dipole moments (Au):
       state          X           Y           Z        Dip. S.      Osc.
         1         2.1643      1.2630      0.6952      6.7626      0.0000
         2        -0.8654     -0.4797     -0.3113      1.0759      0.0000
         3        -0.8955     -0.5560     -0.1714      1.1404      0.0000
         4        -2.2221     -1.3113     -0.4555      6.8648      0.0000
 Ground to excited state transition velocity dipole moments (Au):
       state          X           Y           Z        Dip. S.      Osc.
         1         0.0000      0.0000      0.0000      0.0000         Inf
         2         0.0000      0.0000      0.0000      0.0000         Inf
         3         0.0000      0.0000      0.0000      0.0000         Inf
         4         0.0000      0.0000      0.0000      0.0000         Inf
 Ground to excited state transition magnetic dipole moments (Au):
       state          X           Y           Z
         1         0.0000      0.0000      0.0000
         2         0.0000      0.0000      0.0000
         3         0.0000      0.0000      0.0000
         4         0.0000      0.0000      0.0000
 Ground to excited state transition velocity quadrupole moments (Au):
       state          XX          YY          ZZ          XY          XZ          YZ
         1         0.0000      0.0000      0.0000      0.0000      0.0000      0.0000
         2         0.0000      0.0000      0.0000      0.0000      0.0000      0.0000
         3         0.0000      0.0000      0.0000      0.0000      0.0000      0.0000
         4         0.0000      0.0000      0.0000      0.0000      0.0000      0.0000
 <0|del|b> * <b|rxdel|0> + <0|del|b> * <b|delr+rdel|0>
 Rotatory Strengths (R) in cgs (10**-40 erg-esu-cm/Gauss)
       state          XX          YY          ZZ    R(velocity)    E-M Angle
         1            NaN         Inf         NaN         NaN       90.00
         2            NaN         NaN        -Inf         NaN       90.00
         3           -Inf         NaN        -Inf         NaN       90.00
         4            Inf         NaN         NaN         NaN       90.00
 1/2[<0|r|b>*<b|rxdel|0> + (<0|rxdel|b>*<b|r|0>)*]
 Rotatory Strengths (R) in cgs (10**-40 erg-esu-cm/Gauss)
       state          XX          YY          ZZ     R(length)
         1         0.0000      0.0000      0.0000      0.0000
         2         0.0000      0.0000      0.0000      0.0000
         3         0.0000      0.0000      0.0000      0.0000
         4         0.0000      0.0000      0.0000      0.0000
  1/2[<0|del|b>*<b|r|0> + (<0|r|b>*<b|del|0>)*] (Au)
       state          X           Y           Z        Dip. S.   Osc.(frdel)
         1         0.0000      0.0000      0.0000      0.0000      0.0000
         2         0.0000      0.0000      0.0000      0.0000      0.0000
         3         0.0000      0.0000      0.0000      0.0000      0.0000
         4         0.0000      0.0000      0.0000      0.0000      0.0000

 Excitation energies and oscillator strengths:
 
 Excited state symmetry could not be determined.
 Excited State   1:      Singlet-?Sym    0.0000 eV    0.00 nm  f=0.0000  <S**2>=0.000
     102 ->103         0.35355
     102 <-103         0.35355
 This state for optimization and/or second-order correction.
 Total Energy, E(TD-HF/TD-KS) =  0.000000000000E+00
 Copying the excited state density for this state as the 1-particle RhoCI density.
 
 Excited state symmetry could not be determined.
 Excited State   2:      Singlet-?Sym    0.0000 eV    0.00 nm  f=0.0000  <S**2>=0.000
     102 ->104         0.35355
     102 <-104         0.35355
 
 Excited state symmetry could not be determined.
 Excited State   3:      Singlet-?Sym    0.0000 eV    0.00 nm  f=0.0000  <S**2>=0.000
     101 ->103         0.35355
     101 <-103         0.35355
 
 Excited state symmetry could not be determined.
 Excited State   4:      Singlet-?Sym    0.0000 eV    0.00 nm  f=0.0000  <S**2>=0.000
     101 ->104         0.35355
     101 <-104         0.35355
 SavETr:  write IOETrn=   770 NScale= 10 NData=  16 NLR=1 NState=   16 LETran=     298.
 Leave Link  914 at Thu Sep 28 18:53:46 2017, MaxMem=  1879048192 cpu:         4.4
 (Enter /share/apps/gaussian/g09_D01/g09/l9999.exe)

 This type of calculation cannot be archived.


  DISAPPOINTMENT IS THE NURSE OF WISDOM.               
                              SIR BOYLE ROCHE                 
 Job cpu time:       0 days  0 hours  0 minutes 16.7 seconds.
 File lengths (MBytes):  RWF=    122 Int=      0 D2E=      0 Chk=     58 Scr=      1
 Normal termination of Gaussian 09 at Thu Sep 28 18:53:46 2017.
