 Entering Gaussian System, Link 0=g09
 Input=J_HP_mon-2.com
 Output=J_HP_mon-2.out
 Initial command:
 /share/apps/gaussian/g09_D01/g09/l1.exe "/tmp/4049116.1.chemistry.q/Gau-20643.inp" -scrdir="/tmp/4049116.1.chemistry.q/"
 Entering Link 1 = /share/apps/gaussian/g09_D01/g09/l1.exe PID=     20645.
  
 Copyright (c) 1988,1990,1992,1993,1995,1998,2003,2009,2013,
            Gaussian, Inc.  All Rights Reserved.
  
 This is part of the Gaussian(R) 09 program.  It is based on
 the Gaussian(R) 03 system (copyright 2003, Gaussian, Inc.),
 the Gaussian(R) 98 system (copyright 1998, Gaussian, Inc.),
 the Gaussian(R) 94 system (copyright 1995, Gaussian, Inc.),
 the Gaussian 92(TM) system (copyright 1992, Gaussian, Inc.),
 the Gaussian 90(TM) system (copyright 1990, Gaussian, Inc.),
 the Gaussian 88(TM) system (copyright 1988, Gaussian, Inc.),
 the Gaussian 86(TM) system (copyright 1986, Carnegie Mellon
 University), and the Gaussian 82(TM) system (copyright 1983,
 Carnegie Mellon University). Gaussian is a federally registered
 trademark of Gaussian, Inc.
  
 This software contains proprietary and confidential information,
 including trade secrets, belonging to Gaussian, Inc.
  
 This software is provided under written license and may be
 used, copied, transmitted, or stored only in accord with that
 written license.
  
 The following legend is applicable only to US Government
 contracts under FAR:
  
                    RESTRICTED RIGHTS LEGEND
  
 Use, reproduction and disclosure by the US Government is
 subject to restrictions as set forth in subparagraphs (a)
 and (c) of the Commercial Computer Software - Restricted
 Rights clause in FAR 52.227-19.
  
 Gaussian, Inc.
 340 Quinnipiac St., Bldg. 40, Wallingford CT 06492
  
  
 ---------------------------------------------------------------
 Warning -- This program may not be used in any manner that
 competes with the business of Gaussian, Inc. or will provide
 assistance to any competitor of Gaussian, Inc.  The licensee
 of this program is prohibited from giving any competitor of
 Gaussian, Inc. access to this program.  By using this program,
 the user acknowledges that Gaussian, Inc. is engaged in the
 business of creating and licensing software in the field of
 computational chemistry and represents and warrants to the
 licensee that it is not a competitor of Gaussian, Inc. and that
 it will not use this program in any manner prohibited above.
 ---------------------------------------------------------------
  

 Cite this work as:
 Gaussian 09, Revision D.01,
 M. J. Frisch, G. W. Trucks, H. B. Schlegel, G. E. Scuseria, 
 M. A. Robb, J. R. Cheeseman, G. Scalmani, V. Barone, B. Mennucci, 
 G. A. Petersson, H. Nakatsuji, M. Caricato, X. Li, H. P. Hratchian, 
 A. F. Izmaylov, J. Bloino, G. Zheng, J. L. Sonnenberg, M. Hada, 
 M. Ehara, K. Toyota, R. Fukuda, J. Hasegawa, M. Ishida, T. Nakajima, 
 Y. Honda, O. Kitao, H. Nakai, T. Vreven, J. A. Montgomery, Jr., 
 J. E. Peralta, F. Ogliaro, M. Bearpark, J. J. Heyd, E. Brothers, 
 K. N. Kudin, V. N. Staroverov, T. Keith, R. Kobayashi, J. Normand, 
 K. Raghavachari, A. Rendell, J. C. Burant, S. S. Iyengar, J. Tomasi, 
 M. Cossi, N. Rega, J. M. Millam, M. Klene, J. E. Knox, J. B. Cross, 
 V. Bakken, C. Adamo, J. Jaramillo, R. Gomperts, R. E. Stratmann, 
 O. Yazyev, A. J. Austin, R. Cammi, C. Pomelli, J. W. Ochterski, 
 R. L. Martin, K. Morokuma, V. G. Zakrzewski, G. A. Voth, 
 P. Salvador, J. J. Dannenberg, S. Dapprich, A. D. Daniels, 
 O. Farkas, J. B. Foresman, J. V. Ortiz, J. Cioslowski, 
 and D. J. Fox, Gaussian, Inc., Wallingford CT, 2013.
 
 ******************************************
 Gaussian 09:  ES64L-G09RevD.01 24-Apr-2013
                28-Sep-2017 
 ******************************************
 %chk=J_HP_mon-2
 %mem=14GB
 %nproc=2
 Will use up to    2 processors via shared memory.
 ---------------------------------------------------------------------
 #p wb97xd 6-31G* td=(add=3) nosymm density=(transition=1) pop=SaveNTO
 ---------------------------------------------------------------------
 1/38=1/1;
 2/12=2,15=1,17=6,18=5,40=1/2;
 3/5=1,6=6,7=1,11=9,16=1,25=1,30=1,74=-58/1,2,8,3;
 4//1;
 5/5=2,38=5/2;
 8/6=1,10=2/1;
 9/39=3,42=1,70=2/14;
 6/7=2,8=2,9=2,10=2,29=1,89=10/1;
 99/5=1,9=1/99;
 Leave Link    1 at Thu Sep 28 15:34:37 2017, MaxMem=  1879048192 cpu:         0.2
 (Enter /share/apps/gaussian/g09_D01/g09/l101.exe)
 -----
 title
 -----
 Symbolic Z-matrix:
 Charge =  0 Multiplicity = 1
 C                     2.84511   0.14651   2.76938 
 C                     1.55604   0.45896   3.44204 
 C                     3.89026  -0.44447   3.51612 
 C                     3.07114   0.4197    1.41277 
 C                     0.58142   1.29356   2.76758 
 O                     1.34896   0.01963   4.58849 
 C                     5.12691  -0.69021   2.90878 
 O                     3.75497  -0.77987   4.80204 
 H                     2.81613  -0.58939   5.03817 
 C                     4.28565   0.1487    0.81184 
 H                     2.27159   0.83156   0.8111 
 C                    -0.60163   1.5457    3.38914 
 H                     0.80828   1.71351   1.79943 
 C                     5.31983  -0.39662   1.57403 
 H                     5.9126   -1.12402   3.51493 
 H                     4.42697   0.35186  -0.24245 
 H                    -0.7797    1.06313   4.3464 
 N                    -1.58757   2.35643   2.96243 
 H                     6.28188  -0.60106   1.11651 
 C                    -1.48449   3.04606   1.69254 
 C                    -2.88605   2.35303   3.60558 
 H                    -0.49317   3.48949   1.58269 
 H                    -2.2244    3.848     1.66164 
 H                    -1.6622    2.36989   0.84792 
 H                    -2.81883   1.85371   4.57231 
 H                    -3.63201   1.82971   2.99336 
 H                    -3.2313    3.3793    3.76832 
 
 NAtoms=     27 NQM=       27 NQMF=       0 NMMI=      0 NMMIF=      0
                NMic=       0 NMicF=      0.
                    Isotopes and Nuclear Properties:
 (Nuclear quadrupole moments (NQMom) in fm**2, nuclear magnetic moments (NMagM)
  in nuclear magnetons)

  Atom         1           2           3           4           5           6           7           8           9          10
 IAtWgt=          12          12          12          12          12          16          12          16           1          12
 AtmWgt=  12.0000000  12.0000000  12.0000000  12.0000000  12.0000000  15.9949146  12.0000000  15.9949146   1.0078250  12.0000000
 NucSpn=           0           0           0           0           0           0           0           0           1           0
 AtZEff=   0.0000000   0.0000000   0.0000000   0.0000000   0.0000000   0.0000000   0.0000000   0.0000000   0.0000000   0.0000000
 NQMom=    0.0000000   0.0000000   0.0000000   0.0000000   0.0000000   0.0000000   0.0000000   0.0000000   0.0000000   0.0000000
 NMagM=    0.0000000   0.0000000   0.0000000   0.0000000   0.0000000   0.0000000   0.0000000   0.0000000   2.7928460   0.0000000
 AtZNuc=   6.0000000   6.0000000   6.0000000   6.0000000   6.0000000   8.0000000   6.0000000   8.0000000   1.0000000   6.0000000

  Atom        11          12          13          14          15          16          17          18          19          20
 IAtWgt=           1          12           1          12           1           1           1          14           1          12
 AtmWgt=   1.0078250  12.0000000   1.0078250  12.0000000   1.0078250   1.0078250   1.0078250  14.0030740   1.0078250  12.0000000
 NucSpn=           1           0           1           0           1           1           1           2           1           0
 AtZEff=   0.0000000   0.0000000   0.0000000   0.0000000   0.0000000   0.0000000   0.0000000   0.0000000   0.0000000   0.0000000
 NQMom=    0.0000000   0.0000000   0.0000000   0.0000000   0.0000000   0.0000000   0.0000000   2.0440000   0.0000000   0.0000000
 NMagM=    2.7928460   0.0000000   2.7928460   0.0000000   2.7928460   2.7928460   2.7928460   0.4037610   2.7928460   0.0000000
 AtZNuc=   1.0000000   6.0000000   1.0000000   6.0000000   1.0000000   1.0000000   1.0000000   7.0000000   1.0000000   6.0000000

  Atom        21          22          23          24          25          26          27
 IAtWgt=          12           1           1           1           1           1           1
 AtmWgt=  12.0000000   1.0078250   1.0078250   1.0078250   1.0078250   1.0078250   1.0078250
 NucSpn=           0           1           1           1           1           1           1
 AtZEff=   0.0000000   0.0000000   0.0000000   0.0000000   0.0000000   0.0000000   0.0000000
 NQMom=    0.0000000   0.0000000   0.0000000   0.0000000   0.0000000   0.0000000   0.0000000
 NMagM=    0.0000000   2.7928460   2.7928460   2.7928460   2.7928460   2.7928460   2.7928460
 AtZNuc=   6.0000000   1.0000000   1.0000000   1.0000000   1.0000000   1.0000000   1.0000000
 Leave Link  101 at Thu Sep 28 15:34:38 2017, MaxMem=  1879048192 cpu:         0.1
 (Enter /share/apps/gaussian/g09_D01/g09/l202.exe)
                          Input orientation:                          
 ---------------------------------------------------------------------
 Center     Atomic      Atomic             Coordinates (Angstroms)
 Number     Number       Type             X           Y           Z
 ---------------------------------------------------------------------
      1          6           0        2.845109    0.146510    2.769383
      2          6           0        1.556037    0.458959    3.442038
      3          6           0        3.890255   -0.444474    3.516121
      4          6           0        3.071142    0.419696    1.412774
      5          6           0        0.581420    1.293560    2.767584
      6          8           0        1.348961    0.019626    4.588492
      7          6           0        5.126913   -0.690212    2.908777
      8          8           0        3.754973   -0.779870    4.802038
      9          1           0        2.816130   -0.589386    5.038175
     10          6           0        4.285648    0.148700    0.811836
     11          1           0        2.271593    0.831557    0.811104
     12          6           0       -0.601627    1.545703    3.389144
     13          1           0        0.808278    1.713509    1.799433
     14          6           0        5.319830   -0.396616    1.574026
     15          1           0        5.912601   -1.124016    3.514929
     16          1           0        4.426974    0.351858   -0.242450
     17          1           0       -0.779696    1.063129    4.346396
     18          7           0       -1.587574    2.356426    2.962433
     19          1           0        6.281884   -0.601060    1.116508
     20          6           0       -1.484488    3.046062    1.692542
     21          6           0       -2.886045    2.353027    3.605579
     22          1           0       -0.493171    3.489494    1.582694
     23          1           0       -2.224397    3.847997    1.661639
     24          1           0       -1.662197    2.369891    0.847920
     25          1           0       -2.818827    1.853707    4.572311
     26          1           0       -3.632013    1.829713    2.993364
     27          1           0       -3.231297    3.379298    3.768317
 ---------------------------------------------------------------------
                    Distance matrix (angstroms):
                    1          2          3          4          5
     1  C    0.000000
     2  C    1.487211   0.000000
     3  C    1.413934   2.504047   0.000000
     4  C    1.402180   2.532784   2.416983   0.000000
     5  C    2.537718   1.449595   3.811753   2.966119   0.000000
     6  O    2.358753   1.245091   2.797060   3.634714   2.351113
     7  C    2.434371   3.788947   1.399492   2.774187   4.961531
     8  O    2.411995   2.866987   1.335805   3.659740   4.302273
     9  H    2.385330   2.287906   1.868527   3.771844   3.700675
    10  C    2.430462   3.803288   2.796667   1.381879   4.342460
    11  H    2.152456   2.751847   3.400800   1.082088   2.626394
    12  C    3.771185   2.416469   4.914665   4.320088   1.359968
    13  H    2.746811   2.197997   4.135516   2.635149   1.079416
    14  C    2.801448   4.288078   2.411993   2.397700   5.170474
    15  H    3.402879   4.635814   2.133462   3.856941   5.901245
    16  H    3.408167   4.672173   3.879313   2.140712   4.973469
    17  H    4.057878   2.576535   4.977014   4.883554   2.097232
    18  N    4.956781   3.703065   6.177234   5.277878   2.423259
    19  H    3.886165   5.372649   3.391541   3.382097   6.229842
    20  C    5.320940   4.358742   6.663118   5.265912   2.914611
    21  C    6.197908   4.831804   7.331593   6.635830   3.721293
    22  H    4.871128   4.103725   6.199086   4.707107   2.716769
    23  H    6.374009   5.380249   7.697622   6.313313   3.952325
    24  H    5.380637   4.553915   6.772715   5.150419   3.142836
    25  H    6.184274   4.728877   7.170004   6.835993   3.890049
    26  H    6.696002   5.384806   7.875895   7.029844   4.253405
    27  H    6.954962   5.617242   8.087109   7.350413   4.459661
                    6          7          8          9         10
     6  O    0.000000
     7  C    4.195025   0.000000
     8  O    2.544345   2.339807   0.000000
     9  H    1.650968   3.143918   0.986646   0.000000
    10  C    4.785804   2.410117   4.131050   4.534997   0.000000
    11  H    3.972297   3.856017   4.552435   4.492630   2.126667
    12  C    2.751752   6.168163   5.136587   4.354190   5.699087
    13  H    3.307632   5.065484   4.890357   4.452443   3.939045
    14  C    5.002806   1.380209   3.607731   4.278551   1.395649
    15  H    4.825688   1.083011   2.535832   3.492025   3.401984
    16  H    5.737817   3.392058   5.213372   5.600514   1.082943
    17  H    2.383000   6.326846   4.916043   4.017378   6.243957
    18  N    4.089980   7.373549   6.462454   5.690266   6.632787
    19  H    6.064128   2.134042   4.472179   5.233647   2.154048
    20  C    5.057101   7.690877   7.194350   6.550195   6.516504
    21  C    4.934182   8.599670   7.439736   6.574567   8.006075
    22  H    4.946540   7.128379   6.829229   6.287216   5.881517
    23  H    5.999315   8.728829   8.187315   7.516533   7.535758
    24  H    5.346279   7.726796   7.409573   6.809623   6.349161
    25  H    4.553523   8.507271   7.085432   6.159421   8.217164
    26  H    5.534523   9.114602   8.040447   7.184138   8.382972
    27  H    5.739237   9.335920   8.196049   7.344002   8.699541
                   11         12         13         14         15
    11  H    0.000000
    12  C    3.925772   0.000000
    13  H    1.973810   2.131472   0.000000
    14  C    3.373753   6.490833   4.985733   0.000000
    15  H    4.938813   7.041192   6.086755   2.155828   0.000000
    16  H    2.446580   6.316690   4.372452   2.158006   4.301533
    17  H    4.675712   1.086700   3.071103   6.857194   7.089554
    18  N    4.674036   1.345900   2.739711   7.564334   8.286818
    19  H    4.269438   7.560171   5.981971   1.084743   2.482393
    20  C    4.448495   2.430839   2.654034   7.626586   8.684905
    21  C    6.060131   2.432526   4.161631   8.889552   9.461195
    22  H    3.912020   2.655814   2.212435   6.992346   8.127233
    23  H    5.480533   3.304272   3.711084   8.656776   9.714234
    24  H    4.224042   2.874355   2.727538   7.545163   8.757733
    25  H    6.411228   2.531941   4.567756   8.960547   9.285619
    26  H    6.372687   3.069290   4.599474   9.333089  10.004809
    27  H    6.746695   3.228158   4.792653   9.601782  10.195828
                   16         17         18         19         20
    16  H    0.000000
    17  H    6.976591   0.000000
    18  N    7.103827   2.059281   0.000000
    19  H    2.489078   7.941512   8.607121   0.000000
    20  C    6.778518   3.386989   1.448740   8.599410   0.000000
    21  C    8.502485   2.578634   1.449026   9.948519   2.470702
    22  H    6.114224   3.688820   2.094097   7.927883   1.091516
    23  H    7.751727   4.129234   2.079036   9.614993   1.091568
    24  H    6.506871   3.837417   2.115872   8.485700   1.096437
    25  H    8.828313   2.198660   2.088161  10.039492   3.390463
    26  H    8.809189   3.248701   2.111425  10.378661   2.789894
    27  H    9.159736   3.421865   2.097032  10.647814   2.733355
                   21         22         23         24         25
    21  C    0.000000
    22  H    3.333087   0.000000
    23  H    2.540003   1.769718   0.000000
    24  H    3.017080   1.777646   1.778484   0.000000
    25  H    1.090142   4.125807   3.578065   3.933869   0.000000
    26  H    1.097786   3.820627   2.797918   2.962245   1.776210
    27  H    1.094950   3.505200   2.381516   3.465501   1.773123
                   26         27
    26  H    0.000000
    27  H    1.778297   0.000000
 Symmetry turned off by external request.
 Stoichiometry    C11H13NO2
 Framework group  C1[X(C11H13NO2)]
 Deg. of freedom    75
 Full point group                 C1      NOp   1
 Rotational constants (GHZ):      1.6091391      0.3215967      0.2704242
 Leave Link  202 at Thu Sep 28 15:34:38 2017, MaxMem=  1879048192 cpu:         0.0
 (Enter /share/apps/gaussian/g09_D01/g09/l301.exe)
 Standard basis: 6-31G(d) (6D, 7F)
 Ernie: Thresh=  0.10000D-02 Tol=  0.10000D-05 Strict=F.
   236 basis functions,   444 primitive gaussians,   236 cartesian basis functions
    51 alpha electrons       51 beta electrons
       nuclear repulsion energy       837.9407351766 Hartrees.
 IExCor= 4639 DFT=T Ex+Corr=wB97XD ExCW=0 ScaHFX=  1.000000
 ScaDFX=  1.000000  1.000000  1.000000  1.000000 ScalE2=  1.000000  1.000000
 IRadAn=      0 IRanWt=     -1 IRanGd=            0 ICorTp=0 IEmpDi=121
  HFx wShort=  0.000000 wLong=  0.200000 cFull=  0.222036 cShort=  0.000000 cLong=  0.777964
  DFx wShort=  0.000000 wLong=  0.200000 cFull=  0.000000 cShort=  0.000000 cLong=  1.000000
 NAtoms=   27 NActive=   27 NUniq=   27 SFac= 1.00D+00 NAtFMM=   60 NAOKFM=F Big=F
 Integral buffers will be    131072 words long.
 Raffenetti 1 integral format.
 Two-electron integral symmetry is turned off.
 R6Disp:  Grimme-D2 Dispersion energy=       -0.0148895069 Hartrees.
 Nuclear repulsion after empirical dispersion term =      837.9258456697 Hartrees.
 Leave Link  301 at Thu Sep 28 15:34:38 2017, MaxMem=  1879048192 cpu:         0.1
 (Enter /share/apps/gaussian/g09_D01/g09/l302.exe)
 NPDir=0 NMtPBC=     1 NCelOv=     1 NCel=       1 NClECP=     1 NCelD=      1
         NCelK=      1 NCelE2=     1 NClLst=     1 CellRange=     0.0.
 One-electron integrals computed using PRISM.
 NBasis=   236 RedAO= T EigKep=  3.93D-04  NBF=   236
 NBsUse=   236 1.00D-06 EigRej= -1.00D+00 NBFU=   236
 Precomputing XC quadrature grid using
 IXCGrd= 4 IRadAn=           0 IRanWt=          -1 IRanGd=           0 AccXCQ= 0.00D+00.
 Generated NRdTot=       0 NPtTot=           0 NUsed=           0 NTot=          32
 NSgBfM=   235   235   235   235   235 MxSgAt=    27 MxSgA2=    27.
 Leave Link  302 at Thu Sep 28 15:34:38 2017, MaxMem=  1879048192 cpu:         0.7
 (Enter /share/apps/gaussian/g09_D01/g09/l308.exe)
 Leave Link  308 at Thu Sep 28 15:34:38 2017, MaxMem=  1879048192 cpu:         0.0
 (Enter /share/apps/gaussian/g09_D01/g09/l303.exe)
 DipDrv:  MaxL=1.
 Leave Link  303 at Thu Sep 28 15:34:38 2017, MaxMem=  1879048192 cpu:         0.1
 (Enter /share/apps/gaussian/g09_D01/g09/l401.exe)
 ExpMin= 1.61D-01 ExpMax= 5.48D+03 ExpMxC= 8.25D+02 IAcc=1 IRadAn=         1 AccDes= 0.00D+00
 Harris functional with IExCor= 4639 and IRadAn=       1 diagonalized for initial guess.
 HarFok:  IExCor= 4639 AccDes= 0.00D+00 IRadAn=         1 IDoV= 1 UseB2=F ITyADJ=14
 ICtDFT=  3500011 ScaDFX=  1.000000  1.000000  1.000000  1.000000
 FoFCou: FMM=F IPFlag=           0 FMFlag=      100000 FMFlg1=           0
         NFxFlg=           0 DoJE=T BraDBF=F KetDBF=T FulRan=T
         wScrn=  0.000000 ICntrl=     500 IOpCl=  0 I1Cent=   200000004 NGrid=           0
         NMat0=    1 NMatS0=      1 NMatT0=    0 NMatD0=    1 NMtDS0=    0 NMtDT0=    0
 Symmetry not used in FoFCou.
 Harris En= -604.776017808531    
 JPrj=0 DoOrth=F DoCkMO=F.
 Leave Link  401 at Thu Sep 28 15:34:39 2017, MaxMem=  1879048192 cpu:         2.1
 (Enter /share/apps/gaussian/g09_D01/g09/l502.exe)
 Closed shell SCF:
 Using DIIS extrapolation, IDIIS=  1040.
 Two-electron integral symmetry not used.
 Keep R1 ints in memory in canonical form, NReq=788969554.
 IVT=      188524 IEndB=      188524 NGot=  1879048192 MDV=  1096734547
 LenX=  1096734547 LenY=  1096678410
 Requested convergence on RMS density matrix=1.00D-08 within 128 cycles.
 Requested convergence on MAX density matrix=1.00D-06.
 Requested convergence on             energy=1.00D-06.
 No special actions if energy rises.
 FoFCou: FMM=F IPFlag=           0 FMFlag=           0 FMFlg1=           0
         NFxFlg=           0 DoJE=F BraDBF=F KetDBF=F FulRan=T
         wScrn=  0.000000 ICntrl=     600 IOpCl=  0 I1Cent=           0 NGrid=           0
         NMat0=    1 NMatS0=  27966 NMatT0=    0 NMatD0=    1 NMtDS0=    0 NMtDT0=    0
 Symmetry not used in FoFCou.
 Integral accuracy reduced to 1.0D-05 until final iterations.

 Cycle   1  Pass 0  IDiag  1:
 E= -631.793086980835    
 DIIS: error= 5.60D-02 at cycle   1 NSaved=   1.
 NSaved= 1 IEnMin= 1 EnMin= -631.793086980835     IErMin= 1 ErrMin= 5.60D-02
 ErrMax= 5.60D-02  0.00D+00 EMaxC= 1.00D-01 BMatC= 6.14D-01 BMatP= 6.14D-01
 IDIUse=3 WtCom= 4.40D-01 WtEn= 5.60D-01
 Coeff-Com:  0.100D+01
 Coeff-En:   0.100D+01
 Coeff:      0.100D+01
 Gap=     0.360 Goal=   None    Shift=    0.000
 GapD=    0.360 DampG=1.000 DampE=0.500 DampFc=0.5000 IDamp=-1.
 Damping current iteration by 5.00D-01
 RMSDP=3.56D-03 MaxDP=1.25D-01              OVMax= 1.39D-01

 Cycle   2  Pass 0  IDiag  1:
 E= -631.880526522630     Delta-E=       -0.087439541794 Rises=F Damp=T
 DIIS: error= 2.59D-02 at cycle   2 NSaved=   2.
 NSaved= 2 IEnMin= 2 EnMin= -631.880526522630     IErMin= 2 ErrMin= 2.59D-02
 ErrMax= 2.59D-02  0.00D+00 EMaxC= 1.00D-01 BMatC= 1.24D-01 BMatP= 6.14D-01
 IDIUse=3 WtCom= 7.41D-01 WtEn= 2.59D-01
 Coeff-Com: -0.386D+00 0.139D+01
 Coeff-En:   0.000D+00 0.100D+01
 Coeff:     -0.286D+00 0.129D+01
 Gap=     0.322 Goal=   None    Shift=    0.000
 RMSDP=1.43D-03 MaxDP=4.20D-02 DE=-8.74D-02 OVMax= 1.41D-01

 Cycle   3  Pass 0  IDiag  1:
 E= -631.950287803499     Delta-E=       -0.069761280869 Rises=F Damp=F
 DIIS: error= 8.95D-03 at cycle   3 NSaved=   3.
 NSaved= 3 IEnMin= 3 EnMin= -631.950287803499     IErMin= 3 ErrMin= 8.95D-03
 ErrMax= 8.95D-03  0.00D+00 EMaxC= 1.00D-01 BMatC= 3.94D-02 BMatP= 1.24D-01
 IDIUse=3 WtCom= 9.10D-01 WtEn= 8.95D-02
 Coeff-Com: -0.302D+00 0.630D+00 0.673D+00
 Coeff-En:   0.000D+00 0.000D+00 0.100D+01
 Coeff:     -0.275D+00 0.573D+00 0.702D+00
 Gap=     0.303 Goal=   None    Shift=    0.000
 RMSDP=8.91D-04 MaxDP=3.80D-02 DE=-6.98D-02 OVMax= 5.65D-02

 Cycle   4  Pass 0  IDiag  1:
 E= -631.981809459345     Delta-E=       -0.031521655846 Rises=F Damp=F
 DIIS: error= 3.27D-03 at cycle   4 NSaved=   4.
 NSaved= 4 IEnMin= 4 EnMin= -631.981809459345     IErMin= 4 ErrMin= 3.27D-03
 ErrMax= 3.27D-03  0.00D+00 EMaxC= 1.00D-01 BMatC= 2.62D-03 BMatP= 3.94D-02
 IDIUse=3 WtCom= 9.67D-01 WtEn= 3.27D-02
 Coeff-Com: -0.134D+00 0.273D+00 0.381D+00 0.480D+00
 Coeff-En:   0.000D+00 0.000D+00 0.000D+00 0.100D+01
 Coeff:     -0.130D+00 0.265D+00 0.369D+00 0.497D+00
 Gap=     0.295 Goal=   None    Shift=    0.000
 RMSDP=2.06D-04 MaxDP=6.55D-03 DE=-3.15D-02 OVMax= 9.74D-03

 Cycle   5  Pass 0  IDiag  1:
 E= -631.983955251969     Delta-E=       -0.002145792624 Rises=F Damp=F
 DIIS: error= 4.26D-04 at cycle   5 NSaved=   5.
 NSaved= 5 IEnMin= 5 EnMin= -631.983955251969     IErMin= 5 ErrMin= 4.26D-04
 ErrMax= 4.26D-04  0.00D+00 EMaxC= 1.00D-01 BMatC= 6.40D-05 BMatP= 2.62D-03
 IDIUse=3 WtCom= 9.96D-01 WtEn= 4.26D-03
 Coeff-Com: -0.565D-02 0.990D-02 0.461D-01 0.148D+00 0.802D+00
 Coeff-En:   0.000D+00 0.000D+00 0.000D+00 0.000D+00 0.100D+01
 Coeff:     -0.563D-02 0.986D-02 0.459D-01 0.147D+00 0.802D+00
 Gap=     0.295 Goal=   None    Shift=    0.000
 RMSDP=6.01D-05 MaxDP=1.78D-03 DE=-2.15D-03 OVMax= 2.51D-03

 Cycle   6  Pass 0  IDiag  1:
 E= -631.984033094071     Delta-E=       -0.000077842102 Rises=F Damp=F
 DIIS: error= 1.91D-04 at cycle   6 NSaved=   6.
 NSaved= 6 IEnMin= 6 EnMin= -631.984033094071     IErMin= 6 ErrMin= 1.91D-04
 ErrMax= 1.91D-04  0.00D+00 EMaxC= 1.00D-01 BMatC= 1.61D-05 BMatP= 6.40D-05
 IDIUse=3 WtCom= 9.98D-01 WtEn= 1.91D-03
 Coeff-Com:  0.292D-01-0.600D-01-0.637D-01-0.461D-01 0.374D+00 0.767D+00
 Coeff-En:   0.000D+00 0.000D+00 0.000D+00 0.000D+00 0.000D+00 0.100D+01
 Coeff:      0.291D-01-0.599D-01-0.635D-01-0.460D-01 0.373D+00 0.767D+00
 Gap=     0.296 Goal=   None    Shift=    0.000
 RMSDP=3.08D-05 MaxDP=1.02D-03 DE=-7.78D-05 OVMax= 3.21D-03

 Cycle   7  Pass 0  IDiag  1:
 E= -631.984058634238     Delta-E=       -0.000025540167 Rises=F Damp=F
 DIIS: error= 6.52D-05 at cycle   7 NSaved=   7.
 NSaved= 7 IEnMin= 7 EnMin= -631.984058634238     IErMin= 7 ErrMin= 6.52D-05
 ErrMax= 6.52D-05  0.00D+00 EMaxC= 1.00D-01 BMatC= 1.39D-06 BMatP= 1.61D-05
 IDIUse=1 WtCom= 1.00D+00 WtEn= 0.00D+00
 Coeff-Com:  0.793D-02-0.161D-01-0.190D-01-0.235D-01 0.221D-01 0.242D+00
 Coeff-Com:  0.786D+00
 Coeff:      0.793D-02-0.161D-01-0.190D-01-0.235D-01 0.221D-01 0.242D+00
 Coeff:      0.786D+00
 Gap=     0.296 Goal=   None    Shift=    0.000
 RMSDP=1.11D-05 MaxDP=2.72D-04 DE=-2.55D-05 OVMax= 7.08D-04

 Cycle   8  Pass 0  IDiag  1:
 E= -631.984060756781     Delta-E=       -0.000002122543 Rises=F Damp=F
 DIIS: error= 2.01D-05 at cycle   8 NSaved=   8.
 NSaved= 8 IEnMin= 8 EnMin= -631.984060756781     IErMin= 8 ErrMin= 2.01D-05
 ErrMax= 2.01D-05  0.00D+00 EMaxC= 1.00D-01 BMatC= 2.64D-07 BMatP= 1.39D-06
 IDIUse=1 WtCom= 1.00D+00 WtEn= 0.00D+00
 Coeff-Com: -0.234D-02 0.496D-02 0.466D-02-0.132D-02-0.714D-01-0.316D-01
 Coeff-Com:  0.326D+00 0.771D+00
 Coeff:     -0.234D-02 0.496D-02 0.466D-02-0.132D-02-0.714D-01-0.316D-01
 Coeff:      0.326D+00 0.771D+00
 Gap=     0.296 Goal=   None    Shift=    0.000
 RMSDP=4.75D-06 MaxDP=1.01D-04 DE=-2.12D-06 OVMax= 4.73D-04

 Initial convergence to 1.0D-05 achieved.  Increase integral accuracy.
 Cycle   9  Pass 1  IDiag  1:
 E= -631.983995633639     Delta-E=        0.000065123142 Rises=F Damp=F
 DIIS: error= 7.83D-05 at cycle   1 NSaved=   1.
 NSaved= 1 IEnMin= 1 EnMin= -631.983995633639     IErMin= 1 ErrMin= 7.83D-05
 ErrMax= 7.83D-05  0.00D+00 EMaxC= 1.00D-01 BMatC= 4.69D-06 BMatP= 4.69D-06
 IDIUse=1 WtCom= 1.00D+00 WtEn= 0.00D+00
 Coeff-Com:  0.100D+01
 Coeff:      0.100D+01
 Gap=     0.296 Goal=   None    Shift=    0.000
 RMSDP=4.75D-06 MaxDP=1.01D-04 DE= 6.51D-05 OVMax= 2.45D-04

 Cycle  10  Pass 1  IDiag  1:
 E= -631.983999593015     Delta-E=       -0.000003959376 Rises=F Damp=F
 DIIS: error= 1.36D-05 at cycle   2 NSaved=   2.
 NSaved= 2 IEnMin= 2 EnMin= -631.983999593015     IErMin= 2 ErrMin= 1.36D-05
 ErrMax= 1.36D-05  0.00D+00 EMaxC= 1.00D-01 BMatC= 1.25D-07 BMatP= 4.69D-06
 IDIUse=1 WtCom= 1.00D+00 WtEn= 0.00D+00
 Coeff-Com: -0.382D-01 0.104D+01
 Coeff:     -0.382D-01 0.104D+01
 Gap=     0.296 Goal=   None    Shift=    0.000
 RMSDP=2.94D-06 MaxDP=6.66D-05 DE=-3.96D-06 OVMax= 1.87D-04

 Cycle  11  Pass 1  IDiag  1:
 E= -631.983999674856     Delta-E=       -0.000000081841 Rises=F Damp=F
 DIIS: error= 1.44D-05 at cycle   3 NSaved=   3.
 NSaved= 3 IEnMin= 3 EnMin= -631.983999674856     IErMin= 2 ErrMin= 1.36D-05
 ErrMax= 1.44D-05  0.00D+00 EMaxC= 1.00D-01 BMatC= 9.89D-08 BMatP= 1.25D-07
 IDIUse=1 WtCom= 1.00D+00 WtEn= 0.00D+00
 Coeff-Com: -0.426D-01 0.502D+00 0.541D+00
 Coeff:     -0.426D-01 0.502D+00 0.541D+00
 Gap=     0.296 Goal=   None    Shift=    0.000
 RMSDP=1.59D-06 MaxDP=3.85D-05 DE=-8.18D-08 OVMax= 9.37D-05

 Cycle  12  Pass 1  IDiag  1:
 E= -631.983999767786     Delta-E=       -0.000000092930 Rises=F Damp=F
 DIIS: error= 2.43D-06 at cycle   4 NSaved=   4.
 NSaved= 4 IEnMin= 4 EnMin= -631.983999767786     IErMin= 4 ErrMin= 2.43D-06
 ErrMax= 2.43D-06  0.00D+00 EMaxC= 1.00D-01 BMatC= 4.28D-09 BMatP= 9.89D-08
 IDIUse=1 WtCom= 1.00D+00 WtEn= 0.00D+00
 Coeff-Com: -0.825D-02 0.254D-01 0.162D+00 0.821D+00
 Coeff:     -0.825D-02 0.254D-01 0.162D+00 0.821D+00
 Gap=     0.296 Goal=   None    Shift=    0.000
 RMSDP=4.15D-07 MaxDP=1.39D-05 DE=-9.29D-08 OVMax= 3.06D-05

 Cycle  13  Pass 1  IDiag  1:
 E= -631.983999773455     Delta-E=       -0.000000005669 Rises=F Damp=F
 DIIS: error= 1.05D-06 at cycle   5 NSaved=   5.
 NSaved= 5 IEnMin= 5 EnMin= -631.983999773455     IErMin= 5 ErrMin= 1.05D-06
 ErrMax= 1.05D-06  0.00D+00 EMaxC= 1.00D-01 BMatC= 6.37D-10 BMatP= 4.28D-09
 IDIUse=1 WtCom= 1.00D+00 WtEn= 0.00D+00
 Coeff-Com:  0.153D-02-0.412D-01-0.418D-03 0.298D+00 0.742D+00
 Coeff:      0.153D-02-0.412D-01-0.418D-03 0.298D+00 0.742D+00
 Gap=     0.296 Goal=   None    Shift=    0.000
 RMSDP=1.70D-07 MaxDP=4.77D-06 DE=-5.67D-09 OVMax= 1.24D-05

 Cycle  14  Pass 1  IDiag  1:
 E= -631.983999774357     Delta-E=       -0.000000000902 Rises=F Damp=F
 DIIS: error= 4.39D-07 at cycle   6 NSaved=   6.
 NSaved= 6 IEnMin= 6 EnMin= -631.983999774357     IErMin= 6 ErrMin= 4.39D-07
 ErrMax= 4.39D-07  0.00D+00 EMaxC= 1.00D-01 BMatC= 6.57D-11 BMatP= 6.37D-10
 IDIUse=1 WtCom= 1.00D+00 WtEn= 0.00D+00
 Coeff-Com:  0.150D-02-0.160D-01-0.243D-01-0.609D-02 0.205D+00 0.840D+00
 Coeff:      0.150D-02-0.160D-01-0.243D-01-0.609D-02 0.205D+00 0.840D+00
 Gap=     0.296 Goal=   None    Shift=    0.000
 RMSDP=8.49D-08 MaxDP=1.54D-06 DE=-9.02D-10 OVMax= 1.01D-05

 Cycle  15  Pass 1  IDiag  1:
 E= -631.983999774513     Delta-E=       -0.000000000156 Rises=F Damp=F
 DIIS: error= 1.75D-07 at cycle   7 NSaved=   7.
 NSaved= 7 IEnMin= 7 EnMin= -631.983999774513     IErMin= 7 ErrMin= 1.75D-07
 ErrMax= 1.75D-07  0.00D+00 EMaxC= 1.00D-01 BMatC= 1.76D-11 BMatP= 6.57D-11
 IDIUse=1 WtCom= 1.00D+00 WtEn= 0.00D+00
 Coeff-Com:  0.272D-03 0.760D-03-0.940D-02-0.441D-01-0.587D-01 0.297D+00
 Coeff-Com:  0.815D+00
 Coeff:      0.272D-03 0.760D-03-0.940D-02-0.441D-01-0.587D-01 0.297D+00
 Coeff:      0.815D+00
 Gap=     0.296 Goal=   None    Shift=    0.000
 RMSDP=4.43D-08 MaxDP=1.04D-06 DE=-1.56D-10 OVMax= 4.47D-06

 Cycle  16  Pass 1  IDiag  1:
 E= -631.983999774596     Delta-E=       -0.000000000083 Rises=F Damp=F
 DIIS: error= 1.10D-07 at cycle   8 NSaved=   8.
 NSaved= 8 IEnMin= 8 EnMin= -631.983999774596     IErMin= 8 ErrMin= 1.10D-07
 ErrMax= 1.10D-07  0.00D+00 EMaxC= 1.00D-01 BMatC= 3.77D-12 BMatP= 1.76D-11
 IDIUse=1 WtCom= 1.00D+00 WtEn= 0.00D+00
 Coeff-Com: -0.266D-03 0.440D-02 0.209D-02-0.155D-01-0.814D-01-0.808D-01
 Coeff-Com:  0.346D+00 0.825D+00
 Coeff:     -0.266D-03 0.440D-02 0.209D-02-0.155D-01-0.814D-01-0.808D-01
 Coeff:      0.346D+00 0.825D+00
 Gap=     0.296 Goal=   None    Shift=    0.000
 RMSDP=2.26D-08 MaxDP=6.04D-07 DE=-8.32D-11 OVMax= 2.97D-06

 Cycle  17  Pass 1  IDiag  1:
 E= -631.983999774591     Delta-E=        0.000000000006 Rises=F Damp=F
 DIIS: error= 4.61D-08 at cycle   9 NSaved=   9.
 NSaved= 9 IEnMin= 8 EnMin= -631.983999774596     IErMin= 9 ErrMin= 4.61D-08
 ErrMax= 4.61D-08  0.00D+00 EMaxC= 1.00D-01 BMatC= 6.40D-13 BMatP= 3.77D-12
 IDIUse=1 WtCom= 1.00D+00 WtEn= 0.00D+00
 Coeff-Com: -0.133D-03 0.165D-02 0.218D-02 0.167D-03-0.244D-01-0.728D-01
 Coeff-Com:  0.320D-01 0.339D+00 0.722D+00
 Coeff:     -0.133D-03 0.165D-02 0.218D-02 0.167D-03-0.244D-01-0.728D-01
 Coeff:      0.320D-01 0.339D+00 0.722D+00
 Gap=     0.296 Goal=   None    Shift=    0.000
 RMSDP=7.30D-09 MaxDP=2.12D-07 DE= 5.68D-12 OVMax= 8.12D-07

 SCF Done:  E(RwB97XD) =  -631.983999775     A.U. after   17 cycles
            NFock= 17  Conv=0.73D-08     -V/T= 2.0091
 KE= 6.263120756544D+02 PE=-3.146571328037D+03 EE= 1.050349406938D+03
 Leave Link  502 at Thu Sep 28 15:35:27 2017, MaxMem=  1879048192 cpu:        87.8
 (Enter /share/apps/gaussian/g09_D01/g09/l801.exe)
 DoSCS=F DFT=T ScalE2(SS,OS)=  1.000000  1.000000
 ExpMin= 1.61D-01 ExpMax= 5.48D+03 ExpMxC= 8.25D+02 IAcc=3 IRadAn=         5 AccDes= 0.00D+00
 HarFok:  IExCor=  205 AccDes= 0.00D+00 IRadAn=         5 IDoV=-2 UseB2=F ITyADJ=14
 ICtDFT= 12500011 ScaDFX=  1.000000  1.000000  1.000000  1.000000
 Largest valence mixing into a core orbital is  7.26D-05
 Largest core mixing into a valence orbital is  1.50D-05
 Range of M.O.s used for correlation:    15   236
 NBasis=   236 NAE=    51 NBE=    51 NFC=    14 NFV=     0
 NROrb=    222 NOA=    37 NOB=    37 NVA=   185 NVB=   185
 Leave Link  801 at Thu Sep 28 15:35:28 2017, MaxMem=  1879048192 cpu:         0.8
 (Enter /share/apps/gaussian/g09_D01/g09/l914.exe)
 RHF ground state
 MDV=  1879048192 DFT=T DoStab=F Mixed=T DoRPA=T DoScal=F NonHer=T
 Would need an additional           474000000 words for in-memory AO integral storage.
 Making orbital integer symmetry assigments:
 Restoring state from the checkpoint file.
    1 states for AA,BB on restart file.
     3 initial guesses have been made.
 Convergence on wavefunction:    0.001000000000000
 Davidson Disk Diagonalization:  ConvIn= 1.00D-03 SkipCon=T Conv= 1.00D-03.
 Max sub-space:   200 roots to seek:     4 dimension of matrix:        13690
 Iteration     1 Dimension     5 NMult     0 NNew      5
 CISAX will form     5 AO SS matrices at one time.
 NMat=     5 NSing=     5 JSym2X= 0.
 FoFJK:  IHMeth= 1 ICntrl=       0 DoSepK=T KAlg= 0 I1Cent=   0 FoldK=F
 IRaf=         1 NMat=  10 IRICut=       1 DoRegI=T DoRafI=F ISym2E= 0.
 FoFCou: FMM=F IPFlag=           0 FMFlag=      100000 FMFlg1=           0
         NFxFlg=           0 DoJE=F BraDBF=F KetDBF=F FulRan=T
         wScrn=  0.000000 ICntrl=     500 IOpCl=  0 I1Cent=           0 NGrid=           0
         NMat0=    5 NMatS0=      5 NMatT0=    0 NMatD0=    5 NMtDS0=    0 NMtDT0=    0
 Symmetry not used in FoFCou.
 New state      2 was old state      4
 New state      3 was old state      2
 New state      4 was old state      3
 Excitation Energies [eV] at current iteration:
 Root      1 :     4.232148615636549
 Root      2 :     4.981264679667633
 Root      3 :     5.506768397374374
 Root      4 :     6.553719179924042
 Iteration     2 Dimension    13 NMult     5 NNew      8
 CISAX will form     8 AO SS matrices at one time.
 NMat=     8 NSing=     8 JSym2X= 0.
 Root      1 has converged.
 Root      2 not converged, maximum delta is    0.128877643484190
 Root      3 not converged, maximum delta is    0.072427851947836
 Root      4 not converged, maximum delta is    0.078012208150883
 Excitation Energies [eV] at current iteration:
 Root      1 :     4.232146550330327   Change is   -0.000002065306221
 Root      2 :     4.317767425729025   Change is   -0.663497253938608
 Root      3 :     4.803275323206657   Change is   -0.703493074167716
 Root      4 :     5.726831272242600   Change is   -0.826887907681442
 Iteration     3 Dimension    19 NMult    13 NNew      6
 CISAX will form     6 AO SS matrices at one time.
 NMat=     6 NSing=     6 JSym2X= 0.
 Root      1 has converged.
 Root      2 not converged, maximum delta is    0.020163987720197
 Root      3 not converged, maximum delta is    0.047915586242730
 Root      4 not converged, maximum delta is    0.106456770064784
 Excitation Energies [eV] at current iteration:
 Root      1 :     4.232146492395310   Change is   -0.000000057935017
 Root      2 :     4.280753008540453   Change is   -0.037014417188571
 Root      3 :     4.749056724718951   Change is   -0.054218598487706
 Root      4 :     5.580261304915546   Change is   -0.146569967327054
 Iteration     4 Dimension    25 NMult    19 NNew      6
 CISAX will form     6 AO SS matrices at one time.
 NMat=     6 NSing=     6 JSym2X= 0.
 Root      1 has converged.
 Root      2 not converged, maximum delta is    0.008042992171270
 Root      3 not converged, maximum delta is    0.022827770600634
 Root      4 not converged, maximum delta is    0.066255730776562
 Excitation Energies [eV] at current iteration:
 Root      1 :     4.232146463560412   Change is   -0.000000028834898
 Root      2 :     4.276934067023634   Change is   -0.003818941516819
 Root      3 :     4.736717438325192   Change is   -0.012339286393759
 Root      4 :     5.525285682430826   Change is   -0.054975622484720
 Iteration     5 Dimension    31 NMult    25 NNew      6
 CISAX will form     6 AO SS matrices at one time.
 NMat=     6 NSing=     6 JSym2X= 0.
 Root      1 has converged.
 Root      2 not converged, maximum delta is    0.002223678863494
 Root      3 not converged, maximum delta is    0.003300780193847
 Root      4 not converged, maximum delta is    0.019469378896068
 Excitation Energies [eV] at current iteration:
 Root      1 :     4.232146406304008   Change is   -0.000000057256403
 Root      2 :     4.276587276352710   Change is   -0.000346790670925
 Root      3 :     4.735721789392568   Change is   -0.000995648932624
 Root      4 :     5.513106202786983   Change is   -0.012179479643843
 Iteration     6 Dimension    37 NMult    31 NNew      6
 CISAX will form     6 AO SS matrices at one time.
 NMat=     6 NSing=     6 JSym2X= 0.
 Root      1 has converged.
 Root      2 has converged.
 Root      3 not converged, maximum delta is    0.001469451631684
 Root      4 not converged, maximum delta is    0.002989193801737
 Excitation Energies [eV] at current iteration:
 Root      1 :     4.232146365612000   Change is   -0.000000040692009
 Root      2 :     4.276554542208470   Change is   -0.000032734144239
 Root      3 :     4.735618503565216   Change is   -0.000103285827352
 Root      4 :     5.511974663522370   Change is   -0.001131539264613
 Iteration     7 Dimension    41 NMult    37 NNew      4
 CISAX will form     4 AO SS matrices at one time.
 NMat=     4 NSing=     4 JSym2X= 0.
 Root      1 has converged.
 Root      2 has converged.
 Root      3 has converged.
 Root      4 not converged, maximum delta is    0.001252904805643
 Excitation Energies [eV] at current iteration:
 Root      1 :     4.232146338830741   Change is   -0.000000026781258
 Root      2 :     4.276554102453211   Change is   -0.000000439755259
 Root      3 :     4.735611200669255   Change is   -0.000007302895961
 Root      4 :     5.511850904975710   Change is   -0.000123758546660
 Iteration     8 Dimension    43 NMult    41 NNew      2
 CISAX will form     2 AO SS matrices at one time.
 NMat=     2 NSing=     2 JSym2X= 0.
 Root      1 has converged.
 Root      2 has converged.
 Root      3 has converged.
 Root      4 has converged.
 Excitation Energies [eV] at current iteration:
 Root      1 :     4.232146336461103   Change is   -0.000000002369639
 Root      2 :     4.276554044923119   Change is   -0.000000057530092
 Root      3 :     4.735611128092136   Change is   -0.000000072577120
 Root      4 :     5.511842161970321   Change is   -0.000008743005389
 Convergence achieved on expansion vectors.
 ***********************************************************************
 Excited states from <AA,BB:AA,BB> singles matrix:
 ***********************************************************************
 
 1PDM for each excited state written to RWF  633
 Ground to excited state transition densities written to RWF  633
 Ground to excited state transition electric dipole moments (Au):
       state          X           Y           Z        Dip. S.      Osc.
         1        -1.2027      0.5664     -0.0944      1.7763      0.1842
         2         1.4773     -0.6587      0.0712      2.6214      0.2747
         3         1.3648     -0.6963     -0.0827      2.3544      0.2732
         4        -0.2310     -0.0778      0.4225      0.2379      0.0321
 Ground to excited state transition velocity dipole moments (Au):
       state          X           Y           Z        Dip. S.      Osc.
         1         0.1851     -0.0881      0.0171      0.0423      0.1813
         2        -0.2285      0.1037     -0.0160      0.0632      0.2683
         3        -0.2304      0.1168      0.0180      0.0671      0.2569
         4         0.0309      0.0213     -0.0802      0.0078      0.0258
 Ground to excited state transition magnetic dipole moments (Au):
       state          X           Y           Z
         1         0.5229      0.8007     -1.0259
         2        -0.4102     -0.6658      0.3576
         3        -0.9962     -2.1690      0.3812
         4        -0.1363      0.5461      0.0693
 Ground to excited state transition velocity quadrupole moments (Au):
       state          XX          YY          ZZ          XY          XZ          YZ
         1         1.0352     -0.2980      0.2744      0.0405      1.0586     -0.4786
         2        -1.5511      0.3048     -0.2531      0.0470     -1.3307      0.5888
         3         0.0377      0.7155     -0.0637     -0.6923     -0.8769      0.6100
         4         0.8763      0.1515     -0.8733     -0.1715     -0.1707      0.0856
 <0|del|b> * <b|rxdel|0> + <0|del|b> * <b|delr+rdel|0>
 Rotatory Strengths (R) in cgs (10**-40 erg-esu-cm/Gauss)
       state          XX          YY          ZZ    R(velocity)    E-M Angle
         1        13.2928    -22.8794     48.8173     13.0769       88.29
         2       140.5845   -103.0345     47.9029     28.4843       84.96
         3      -318.0338    220.0402     29.1130    -22.9602       91.55
         4        40.9960    -36.4527      2.0146      2.1860       87.86
 1/2[<0|r|b>*<b|rxdel|0> + (<0|rxdel|b>*<b|r|0>)*]
 Rotatory Strengths (R) in cgs (10**-40 erg-esu-cm/Gauss)
       state          XX          YY          ZZ     R(length)
         1       444.7836   -320.6842    -68.4623     18.5457
         2       428.5088   -310.1343    -17.9960     33.4595
         3       961.5178  -1068.0480     22.2879    -28.0807
         4       -22.2570     30.0340    -20.6943     -4.3058
  1/2[<0|del|b>*<b|r|0> + (<0|r|b>*<b|del|0>)*] (Au)
       state          X           Y           Z        Dip. S.   Osc.(frdel)
         1        -0.2226     -0.0499     -0.0016      0.2741      0.1827
         2        -0.3376     -0.0683     -0.0011      0.4071      0.2714
         3        -0.3145     -0.0813     -0.0015      0.3973      0.2649
         4        -0.0071     -0.0017     -0.0339      0.0427      0.0285

 Excitation energies and oscillator strengths:
 
 Excited state symmetry could not be determined.
 Excited State   1:      Singlet-?Sym    4.2321 eV  292.96 nm  f=0.1842  <S**2>=0.000
      48 -> 52         0.43214
      49 -> 52        -0.31730
      51 -> 52         0.42552
 This state for optimization and/or second-order correction.
 Total Energy, E(TD-HF/TD-KS) =  -631.828471252    
 Copying the excited state density for this state as the 1-particle RhoCI density.
 
 Excited state symmetry could not be determined.
 Excited State   2:      Singlet-?Sym    4.2766 eV  289.92 nm  f=0.2747  <S**2>=0.000
      48 -> 52         0.32087
      49 -> 52        -0.26777
      50 -> 52        -0.13155
      51 -> 52        -0.52244
 
 Excited state symmetry could not be determined.
 Excited State   3:      Singlet-?Sym    4.7356 eV  261.81 nm  f=0.2732  <S**2>=0.000
      49 -> 52        -0.11895
      50 -> 52         0.65938
      51 -> 52        -0.11526
      51 -> 53        -0.12914
 
 Excited state symmetry could not be determined.
 Excited State   4:      Singlet-?Sym    5.5118 eV  224.94 nm  f=0.0321  <S**2>=0.000
      48 -> 52         0.36114
      49 -> 52         0.44567
      50 -> 52         0.12943
      50 -> 53         0.19709
      51 -> 53         0.26488
      51 -> 54        -0.13507
 SavETr:  write IOETrn=   770 NScale= 10 NData=  16 NLR=1 NState=    4 LETran=      82.
 Leave Link  914 at Thu Sep 28 15:38:22 2017, MaxMem=  1879048192 cpu:       349.2
 (Enter /share/apps/gaussian/g09_D01/g09/l601.exe)
 Copying SCF densities to generalized density rwf, IOpCl= 0 IROHF=0.
 Saving Alpha spin NTOs for state    1 to file 10524.

 **********************************************************************

   Populations using transition density between ground and state  1.

 **********************************************************************

 Alpha  occ. eigenvalues --    0.00000   0.00000   0.00000   0.00000   0.00000
 Alpha  occ. eigenvalues --    0.00000   0.00000   0.00000   0.00000   0.00000
 Alpha  occ. eigenvalues --    0.00000   0.00000   0.00000   0.00000   0.00000
 Alpha  occ. eigenvalues --    0.00000   0.00000   0.00000   0.00000   0.00001
 Alpha  occ. eigenvalues --    0.00001   0.00001   0.00001   0.00001   0.00001
 Alpha  occ. eigenvalues --    0.00001   0.00001   0.00002   0.00002   0.00003
 Alpha  occ. eigenvalues --    0.00004   0.00004   0.00005   0.00007   0.00007
 Alpha  occ. eigenvalues --    0.00007   0.00009   0.00010   0.00011   0.00012
 Alpha  occ. eigenvalues --    0.00014   0.00015   0.00018   0.00018   0.00023
 Alpha  occ. eigenvalues --    0.00025   0.00048   0.00311   0.00834   0.02570
 Alpha  occ. eigenvalues --    0.96401
 Alpha virt. eigenvalues --    0.96401   0.02570   0.00834   0.00311   0.00048
 Alpha virt. eigenvalues --    0.00025   0.00023   0.00018   0.00018   0.00015
 Alpha virt. eigenvalues --    0.00014   0.00012   0.00011   0.00010   0.00009
 Alpha virt. eigenvalues --    0.00007   0.00007   0.00007   0.00005   0.00004
 Alpha virt. eigenvalues --    0.00004   0.00003   0.00002   0.00002   0.00001
 Alpha virt. eigenvalues --    0.00001   0.00001   0.00001   0.00001   0.00001
 Alpha virt. eigenvalues --    0.00001   0.00001   0.00000   0.00000   0.00000
 Alpha virt. eigenvalues --    0.00000   0.00000   0.00000   0.00000   0.00000
 Alpha virt. eigenvalues --    0.00000   0.00000   0.00000   0.00000   0.00000
 Alpha virt. eigenvalues --    0.00000   0.00000   0.00000   0.00000   0.00000
 Alpha virt. eigenvalues --    0.00000   0.00000   0.00000   0.00000   0.00000
 Alpha virt. eigenvalues --    0.00000   0.00000   0.00000   0.00000   0.00000
 Alpha virt. eigenvalues --    0.00000   0.00000   0.00000   0.00000   0.00000
 Alpha virt. eigenvalues --    0.00000   0.00000   0.00000   0.00000   0.00000
 Alpha virt. eigenvalues --    0.00000   0.00000   0.00000   0.00000   0.00000
 Alpha virt. eigenvalues --    0.00000   0.00000   0.00000   0.00000   0.00000
 Alpha virt. eigenvalues --    0.00000   0.00000   0.00000   0.00000   0.00000
 Alpha virt. eigenvalues --    0.00000   0.00000   0.00000   0.00000   0.00000
 Alpha virt. eigenvalues --    0.00000   0.00000   0.00000   0.00000   0.00000
 Alpha virt. eigenvalues --    0.00000   0.00000   0.00000   0.00000   0.00000
 Alpha virt. eigenvalues --    0.00000   0.00000   0.00000   0.00000   0.00000
 Alpha virt. eigenvalues --    0.00000   0.00000   0.00000   0.00000   0.00000
 Alpha virt. eigenvalues --    0.00000   0.00000   0.00000   0.00000   0.00000
 Alpha virt. eigenvalues --    0.00000   0.00000   0.00000   0.00000   0.00000
 Alpha virt. eigenvalues --    0.00000   0.00000   0.00000   0.00000   0.00000
 Alpha virt. eigenvalues --    0.00000   0.00000   0.00000   0.00000   0.00000
 Alpha virt. eigenvalues --    0.00000   0.00000   0.00000   0.00000   0.00000
 Alpha virt. eigenvalues --    0.00000   0.00000   0.00000   0.00000   0.00000
 Alpha virt. eigenvalues --    0.00000   0.00000   0.00000   0.00000   0.00000
 Alpha virt. eigenvalues --    0.00000   0.00000   0.00000   0.00000   0.00000
 Alpha virt. eigenvalues --    0.00000   0.00000   0.00000   0.00000   0.00000
 Alpha virt. eigenvalues --    0.00000   0.00000   0.00000   0.00000   0.00000
 Alpha virt. eigenvalues --    0.00000   0.00000   0.00000   0.00000   0.00000
 Alpha virt. eigenvalues --    0.00000   0.00000   0.00000   0.00000   0.00000
 Alpha virt. eigenvalues --    0.00000   0.00000   0.00000   0.00000   0.00000
 Alpha virt. eigenvalues --    0.00000   0.00000   0.00000   0.00000   0.00000
 Alpha virt. eigenvalues --    0.00000   0.00000   0.00000   0.00000   0.00000
          Condensed to atoms (all electrons):
               1          2          3          4          5          6
     1  C   -0.034616  -0.049063  -0.015873   0.051835   0.001206   0.004948
     2  C   -0.049063   0.012020  -0.005415  -0.002937   0.033389   0.004458
     3  C   -0.015873  -0.005415   0.009760   0.005502  -0.001022   0.001503
     4  C    0.051835  -0.002937   0.005502   0.012698  -0.001737   0.000223
     5  C    0.001206   0.033389  -0.001022  -0.001737   0.059850  -0.010153
     6  O    0.004948   0.004458   0.001503   0.000223  -0.010153   0.022816
     7  C   -0.000284   0.000179   0.058017  -0.000316  -0.000011   0.000065
     8  O   -0.001318   0.000044  -0.016306  -0.000201   0.000049   0.002046
     9  H    0.001526   0.002604  -0.002800  -0.000023  -0.000355  -0.015876
    10  C    0.001064   0.000340  -0.002360  -0.057303  -0.000146  -0.000014
    11  H   -0.001730  -0.000473  -0.000370  -0.001472  -0.000237  -0.000004
    12  C    0.000466   0.004508   0.000047  -0.000018  -0.060339   0.001708
    13  H    0.000664   0.006887   0.000014   0.000725  -0.001279   0.000102
    14  C   -0.002928   0.000067  -0.001932  -0.000211   0.000012  -0.000004
    15  H    0.000528  -0.000012   0.001538   0.000138   0.000000  -0.000002
    16  H    0.000249  -0.000008  -0.000006  -0.005745   0.000002   0.000000
    17  H    0.000131   0.002118   0.000002  -0.000004   0.001979   0.003438
    18  N    0.000020  -0.000227   0.000000  -0.000003  -0.000972   0.000090
    19  H    0.000011   0.000000   0.000236   0.000221   0.000000   0.000000
    20  C   -0.000008  -0.000044   0.000000   0.000003   0.002627  -0.000001
    21  C    0.000000   0.000022   0.000000   0.000000  -0.000363   0.000002
    22  H    0.000041   0.000146   0.000000  -0.000032  -0.000065   0.000007
    23  H    0.000000   0.000002   0.000000   0.000000   0.000022   0.000000
    24  H   -0.000008  -0.000029   0.000000   0.000006  -0.001223  -0.000002
    25  H    0.000000   0.000003   0.000000   0.000000   0.000020   0.000012
    26  H    0.000000  -0.000003   0.000000   0.000000   0.000021  -0.000001
    27  H    0.000000   0.000001   0.000000   0.000000  -0.000017   0.000000
               7          8          9         10         11         12
     1  C   -0.000284  -0.001318   0.001526   0.001064  -0.001730   0.000466
     2  C    0.000179   0.000044   0.002604   0.000340  -0.000473   0.004508
     3  C    0.058017  -0.016306  -0.002800  -0.002360  -0.000370   0.000047
     4  C   -0.000316  -0.000201  -0.000023  -0.057303  -0.001472  -0.000018
     5  C   -0.000011   0.000049  -0.000355  -0.000146  -0.000237  -0.060339
     6  O    0.000065   0.002046  -0.015876  -0.000014  -0.000004   0.001708
     7  C    0.012139  -0.003893   0.000313  -0.000782   0.000024   0.000000
     8  O   -0.003893   0.037027   0.014859   0.000044  -0.000001   0.000001
     9  H    0.000313   0.014859   0.007390  -0.000011  -0.000003   0.000017
    10  C   -0.000782   0.000044  -0.000011  -0.003837  -0.002185  -0.000001
    11  H    0.000024  -0.000001  -0.000003  -0.002185   0.016089   0.000070
    12  C    0.000000   0.000001   0.000017  -0.000001   0.000070   0.003567
    13  H    0.000001   0.000000   0.000003  -0.000006   0.000252  -0.006330
    14  C   -0.045525   0.000316  -0.000019   0.061410  -0.000037   0.000000
    15  H   -0.000616  -0.000276  -0.000053   0.000377   0.000001   0.000000
    16  H   -0.000064   0.000000   0.000000  -0.001690  -0.000001   0.000000
    17  H    0.000000   0.000001   0.000015   0.000000  -0.000002  -0.007901
    18  N    0.000000   0.000000   0.000000   0.000000  -0.000001   0.033924
    19  H   -0.001424  -0.000003   0.000001  -0.001558  -0.000011   0.000000
    20  C    0.000000   0.000000   0.000000   0.000000   0.000003   0.000089
    21  C    0.000000   0.000000   0.000000   0.000000   0.000000  -0.002334
    22  H    0.000000   0.000000   0.000000   0.000000  -0.000009   0.000277
    23  H    0.000000   0.000000   0.000000   0.000000   0.000000  -0.000084
    24  H    0.000000   0.000000   0.000000   0.000000   0.000006  -0.002259
    25  H    0.000000   0.000000   0.000000   0.000000   0.000000   0.000067
    26  H    0.000000   0.000000   0.000000   0.000000   0.000000  -0.000441
    27  H    0.000000   0.000000   0.000000   0.000000   0.000000  -0.000480
              13         14         15         16         17         18
     1  C    0.000664  -0.002928   0.000528   0.000249   0.000131   0.000020
     2  C    0.006887   0.000067  -0.000012  -0.000008   0.002118  -0.000227
     3  C    0.000014  -0.001932   0.001538  -0.000006   0.000002   0.000000
     4  C    0.000725  -0.000211   0.000138  -0.005745  -0.000004  -0.000003
     5  C   -0.001279   0.000012   0.000000   0.000002   0.001979  -0.000972
     6  O    0.000102  -0.000004  -0.000002   0.000000   0.003438   0.000090
     7  C    0.000001  -0.045525  -0.000616  -0.000064   0.000000   0.000000
     8  O    0.000000   0.000316  -0.000276   0.000000   0.000001   0.000000
     9  H    0.000003  -0.000019  -0.000053   0.000000   0.000015   0.000000
    10  C   -0.000006   0.061410   0.000377  -0.001690   0.000000   0.000000
    11  H    0.000252  -0.000037   0.000001  -0.000001  -0.000002  -0.000001
    12  C   -0.006330   0.000000   0.000000   0.000000  -0.007901   0.033924
    13  H    0.000792  -0.000001   0.000000  -0.000005  -0.000101   0.000270
    14  C   -0.000001   0.003506  -0.004299   0.003842   0.000000   0.000000
    15  H    0.000000  -0.004299   0.022821  -0.000010   0.000000   0.000000
    16  H   -0.000005   0.003842  -0.000010   0.014325   0.000000   0.000000
    17  H   -0.000101   0.000000   0.000000   0.000000  -0.021669   0.001307
    18  N    0.000270   0.000000   0.000000   0.000000   0.001307  -0.042059
    19  H    0.000000  -0.000137  -0.000367  -0.000347   0.000000   0.000000
    20  C   -0.000499   0.000000   0.000000   0.000000  -0.000411  -0.024179
    21  C   -0.000005   0.000000   0.000000   0.000000   0.001131  -0.017080
    22  H    0.000021   0.000000   0.000000   0.000000   0.000090   0.004076
    23  H    0.000063   0.000000   0.000000   0.000000   0.000027   0.000759
    24  H   -0.000281   0.000000   0.000000   0.000000  -0.000053   0.008345
    25  H    0.000001   0.000000   0.000000   0.000000  -0.000292   0.001201
    26  H   -0.000001   0.000000   0.000000   0.000000  -0.000219   0.005356
    27  H    0.000000   0.000000   0.000000   0.000000   0.000048   0.004420
              19         20         21         22         23         24
     1  C    0.000011  -0.000008   0.000000   0.000041   0.000000  -0.000008
     2  C    0.000000  -0.000044   0.000022   0.000146   0.000002  -0.000029
     3  C    0.000236   0.000000   0.000000   0.000000   0.000000   0.000000
     4  C    0.000221   0.000003   0.000000  -0.000032   0.000000   0.000006
     5  C    0.000000   0.002627  -0.000363  -0.000065   0.000022  -0.001223
     6  O    0.000000  -0.000001   0.000002   0.000007   0.000000  -0.000002
     7  C   -0.001424   0.000000   0.000000   0.000000   0.000000   0.000000
     8  O   -0.000003   0.000000   0.000000   0.000000   0.000000   0.000000
     9  H    0.000001   0.000000   0.000000   0.000000   0.000000   0.000000
    10  C   -0.001558   0.000000   0.000000   0.000000   0.000000   0.000000
    11  H   -0.000011   0.000003   0.000000  -0.000009   0.000000   0.000006
    12  C    0.000000   0.000089  -0.002334   0.000277  -0.000084  -0.002259
    13  H    0.000000  -0.000499  -0.000005   0.000021   0.000063  -0.000281
    14  C   -0.000137   0.000000   0.000000   0.000000   0.000000   0.000000
    15  H   -0.000367   0.000000   0.000000   0.000000   0.000000   0.000000
    16  H   -0.000347   0.000000   0.000000   0.000000   0.000000   0.000000
    17  H    0.000000  -0.000411   0.001131   0.000090   0.000027  -0.000053
    18  N    0.000000  -0.024179  -0.017080   0.004076   0.000759   0.008345
    19  H    0.022235   0.000000   0.000000   0.000000   0.000000   0.000000
    20  C    0.000000   0.032637   0.002165   0.001106  -0.000768   0.003433
    21  C    0.000000   0.002165   0.030488  -0.000280   0.000306   0.000183
    22  H    0.000000   0.001106  -0.000280  -0.035426  -0.000092   0.008534
    23  H    0.000000  -0.000768   0.000306  -0.000092  -0.015261   0.003267
    24  H    0.000000   0.003433   0.000183   0.008534   0.003267  -0.043981
    25  H    0.000000  -0.000290   0.000180  -0.000005  -0.000013   0.000051
    26  H    0.000000   0.000807   0.001874   0.000155   0.000285  -0.001276
    27  H    0.000000   0.000055  -0.001798  -0.000204  -0.000660   0.000317
              25         26         27
     1  C    0.000000   0.000000   0.000000
     2  C    0.000003  -0.000003   0.000001
     3  C    0.000000   0.000000   0.000000
     4  C    0.000000   0.000000   0.000000
     5  C    0.000020   0.000021  -0.000017
     6  O    0.000012  -0.000001   0.000000
     7  C    0.000000   0.000000   0.000000
     8  O    0.000000   0.000000   0.000000
     9  H    0.000000   0.000000   0.000000
    10  C    0.000000   0.000000   0.000000
    11  H    0.000000   0.000000   0.000000
    12  C    0.000067  -0.000441  -0.000480
    13  H    0.000001  -0.000001   0.000000
    14  C    0.000000   0.000000   0.000000
    15  H    0.000000   0.000000   0.000000
    16  H    0.000000   0.000000   0.000000
    17  H   -0.000292  -0.000219   0.000048
    18  N    0.001201   0.005356   0.004420
    19  H    0.000000   0.000000   0.000000
    20  C   -0.000290   0.000807   0.000055
    21  C    0.000180   0.001874  -0.001798
    22  H   -0.000005   0.000155  -0.000204
    23  H   -0.000013   0.000285  -0.000660
    24  H    0.000051  -0.001276   0.000317
    25  H   -0.019588   0.003264   0.000033
    26  H    0.003264  -0.036047   0.005943
    27  H    0.000033   0.005943  -0.023415
 Mulliken charges:
               1
     1  C    6.043137
     2  C    5.991423
     3  C    5.969464
     4  C    5.998651
     5  C    5.978740
     6  O    7.984638
     7  C    5.982176
     8  O    7.967612
     9  H    0.992412
    10  C    6.006657
    11  H    0.990091
    12  C    6.035445
    13  H    0.998711
    14  C    5.985938
    15  H    0.980231
    16  H    0.989458
    17  H    1.020365
    18  N    7.024752
    19  H    0.981143
    20  C    5.983275
    21  C    5.985508
    22  H    1.021661
    23  H    1.012148
    24  H    1.024968
    25  H    1.015354
    26  H    1.020283
    27  H    1.015756
 Sum of Mulliken charges = 102.00000
 Mulliken charges with hydrogens summed into heavy atoms:
               1
     1  C    6.043137
     2  C    5.991423
     3  C    5.969464
     4  C    6.988743
     5  C    6.977451
     6  O    7.984638
     7  C    6.962407
     8  O    8.960024
    10  C    6.996115
    12  C    7.055810
    14  C    6.967081
    18  N    7.024752
    20  C    9.042051
    21  C    9.036902
 Electronic spatial extent (au):  <R**2>=              8.8467
 Charge=              0.0000 electrons
 Dipole moment (field-independent basis, Debye):
    X=             -4.3233    Y=              2.0359    Z=             -0.3392  Tot=              4.7907
 Quadrupole moment (field-independent basis, Debye-Ang):
   XX=            -12.4585   YY=              3.6023   ZZ=             -3.0428
   XY=             -0.5807   XZ=            -12.9592   YZ=              5.8369
 Traceless Quadrupole moment (field-independent basis, Debye-Ang):
   XX=             -8.4922   YY=              7.5686   ZZ=              0.9235
   XY=             -0.5807   XZ=            -12.9592   YZ=              5.8369
 Octapole moment (field-independent basis, Debye-Ang**2):
  XXX=            -91.5226  YYY=             15.6807  ZZZ=            -19.6478  XYY=            -11.5343
  XXY=             17.1598  XXZ=            -32.9643  XZZ=            -50.2523  YZZ=             20.5035
  YYZ=              8.8045  XYZ=             -1.0869
 Hexadecapole moment (field-independent basis, Debye-Ang**3):
 XXXX=           -409.9003 YYYY=             48.5185 ZZZZ=           -115.3661 XXXY=             23.7871
 XXXZ=           -238.5760 YYYX=            -19.8839 YYYZ=             40.9624 ZZZX=           -212.4243
 ZZZY=             78.3818 XXYY=              3.6281 XXZZ=           -126.6481 YYZZ=             26.8652
 XXYZ=             52.1608 YYXZ=            -34.2129 ZZXY=             -1.3775
 N-N= 8.379258456697D+02 E-N=-1.433730896416D-01  KE= 1.253484177701D-02
 Leave Link  601 at Thu Sep 28 15:38:22 2017, MaxMem=  1879048192 cpu:         0.1
 (Enter /share/apps/gaussian/g09_D01/g09/l9999.exe)
 1\1\GINC-NXN37\SP\RwB97XD TD-FC\6-31G(d)\C11H13N1O2\BTX008\28-Sep-2017
 \0\\#p wb97xd 6-31G* td=(add=3) nosymm density=(transition=1) pop=Save
 NTO\\title\\0,1\C,0,2.845109,0.14651,2.769383\C,0,1.556037,0.458959,3.
 442038\C,0,3.890255,-0.444474,3.516121\C,0,3.071142,0.419696,1.412774\
 C,0,0.58142,1.29356,2.767584\O,0,1.348961,0.019626,4.588492\C,0,5.1269
 13,-0.690212,2.908777\O,0,3.754973,-0.77987,4.802038\H,0,2.81613,-0.58
 9386,5.038175\C,0,4.285648,0.1487,0.811836\H,0,2.271593,0.831557,0.811
 104\C,0,-0.601627,1.545703,3.389144\H,0,0.808278,1.713509,1.799433\C,0
 ,5.31983,-0.396616,1.574026\H,0,5.912601,-1.124016,3.514929\H,0,4.4269
 74,0.351858,-0.24245\H,0,-0.779696,1.063129,4.346396\N,0,-1.587574,2.3
 56426,2.962433\H,0,6.281884,-0.60106,1.116508\C,0,-1.484488,3.046062,1
 .692542\C,0,-2.886045,2.353027,3.605579\H,0,-0.493171,3.489494,1.58269
 4\H,0,-2.224397,3.847997,1.661639\H,0,-1.662197,2.369891,0.84792\H,0,-
 2.818827,1.853707,4.572311\H,0,-3.632013,1.829713,2.993364\H,0,-3.2312
 97,3.379298,3.768317\\Version=ES64L-G09RevD.01\HF=-631.9839998\RMSD=7.
 301e-09\PG=C01 [X(C11H13N1O2)]\\@


 THERE'S NOTHING WRONG WITH FOLLOWING A TRAIN OF THOUGHT...
 AS LONG AS IT ULTIMATELY PULLS INTO THE STATION.
 Job cpu time:       0 days  0 hours  7 minutes 21.5 seconds.
 File lengths (MBytes):  RWF=     59 Int=      0 D2E=      0 Chk=     11 Scr=      1
 Normal termination of Gaussian 09 at Thu Sep 28 15:38:23 2017.
