 Entering Gaussian System, Link 0=g09
 Input=2hc_5_rel-mega_dimer_1_mon-1.com
 Output=2hc_5_rel-mega_dimer_1_mon-1.out
 Initial command:
 /share/apps/gaussian/g09_D01/g09/l1.exe "/tmp/160970.1.all.q/Gau-7361.inp" -scrdir="/tmp/160970.1.all.q/"
 Entering Link 1 = /share/apps/gaussian/g09_D01/g09/l1.exe PID=      7362.
  
 Copyright (c) 1988,1990,1992,1993,1995,1998,2003,2009,2013,
            Gaussian, Inc.  All Rights Reserved.
  
 This is part of the Gaussian(R) 09 program.  It is based on
 the Gaussian(R) 03 system (copyright 2003, Gaussian, Inc.),
 the Gaussian(R) 98 system (copyright 1998, Gaussian, Inc.),
 the Gaussian(R) 94 system (copyright 1995, Gaussian, Inc.),
 the Gaussian 92(TM) system (copyright 1992, Gaussian, Inc.),
 the Gaussian 90(TM) system (copyright 1990, Gaussian, Inc.),
 the Gaussian 88(TM) system (copyright 1988, Gaussian, Inc.),
 the Gaussian 86(TM) system (copyright 1986, Carnegie Mellon
 University), and the Gaussian 82(TM) system (copyright 1983,
 Carnegie Mellon University). Gaussian is a federally registered
 trademark of Gaussian, Inc.
  
 This software contains proprietary and confidential information,
 including trade secrets, belonging to Gaussian, Inc.
  
 This software is provided under written license and may be
 used, copied, transmitted, or stored only in accord with that
 written license.
  
 The following legend is applicable only to US Government
 contracts under FAR:
  
                    RESTRICTED RIGHTS LEGEND
  
 Use, reproduction and disclosure by the US Government is
 subject to restrictions as set forth in subparagraphs (a)
 and (c) of the Commercial Computer Software - Restricted
 Rights clause in FAR 52.227-19.
  
 Gaussian, Inc.
 340 Quinnipiac St., Bldg. 40, Wallingford CT 06492
  
  
 ---------------------------------------------------------------
 Warning -- This program may not be used in any manner that
 competes with the business of Gaussian, Inc. or will provide
 assistance to any competitor of Gaussian, Inc.  The licensee
 of this program is prohibited from giving any competitor of
 Gaussian, Inc. access to this program.  By using this program,
 the user acknowledges that Gaussian, Inc. is engaged in the
 business of creating and licensing software in the field of
 computational chemistry and represents and warrants to the
 licensee that it is not a competitor of Gaussian, Inc. and that
 it will not use this program in any manner prohibited above.
 ---------------------------------------------------------------
  

 Cite this work as:
 Gaussian 09, Revision D.01,
 M. J. Frisch, G. W. Trucks, H. B. Schlegel, G. E. Scuseria, 
 M. A. Robb, J. R. Cheeseman, G. Scalmani, V. Barone, B. Mennucci, 
 G. A. Petersson, H. Nakatsuji, M. Caricato, X. Li, H. P. Hratchian, 
 A. F. Izmaylov, J. Bloino, G. Zheng, J. L. Sonnenberg, M. Hada, 
 M. Ehara, K. Toyota, R. Fukuda, J. Hasegawa, M. Ishida, T. Nakajima, 
 Y. Honda, O. Kitao, H. Nakai, T. Vreven, J. A. Montgomery, Jr., 
 J. E. Peralta, F. Ogliaro, M. Bearpark, J. J. Heyd, E. Brothers, 
 K. N. Kudin, V. N. Staroverov, T. Keith, R. Kobayashi, J. Normand, 
 K. Raghavachari, A. Rendell, J. C. Burant, S. S. Iyengar, J. Tomasi, 
 M. Cossi, N. Rega, J. M. Millam, M. Klene, J. E. Knox, J. B. Cross, 
 V. Bakken, C. Adamo, J. Jaramillo, R. Gomperts, R. E. Stratmann, 
 O. Yazyev, A. J. Austin, R. Cammi, C. Pomelli, J. W. Ochterski, 
 R. L. Martin, K. Morokuma, V. G. Zakrzewski, G. A. Voth, 
 P. Salvador, J. J. Dannenberg, S. Dapprich, A. D. Daniels, 
 O. Farkas, J. B. Foresman, J. V. Ortiz, J. Cioslowski, 
 and D. J. Fox, Gaussian, Inc., Wallingford CT, 2013.
 
 ******************************************
 Gaussian 09:  ES64L-G09RevD.01 24-Apr-2013
                 4-Nov-2017 
 ******************************************
 %chk=2hc_5_rel-mega_dimer_1_mon-1.chk
 %nproc=4
 Will use up to    4 processors via shared memory.
 %mem=28GB
 ------------------------------------------
 #p wb97xd 6-311++G** td=(nstates=4) nosymm
 ------------------------------------------
 1/38=1/1;
 2/12=2,15=1,17=6,18=5,40=1/2;
 3/5=4,6=6,7=1111,11=9,16=1,25=1,30=1,74=-58/1,2,8,3;
 4//1;
 5/5=2,38=5/2;
 8/6=1,10=2,108=4/1;
 9/41=4,42=1,70=2/14;
 6/7=2,8=2,9=2,10=2/1;
 99/5=1,9=1/99;
 Leave Link    1 at Sat Nov  4 11:16:45 2017, MaxMem=  3758096384 cpu:         0.3
 (Enter /share/apps/gaussian/g09_D01/g09/l101.exe)
 -----
 Title
 -----
 Symbolic Z-matrix:
 Charge =  0 Multiplicity = 1
 C                    -1.43725   1.73739  -5.09002 
 C                    -2.09252   1.76041  -6.32745 
 H                    -1.98202   2.05346  -4.20018 
 C                    -0.10855   1.34989  -4.98787 
 C                    -1.38344   1.36771  -7.50229 
 O                    -3.38422   2.14868  -6.38228 
 C                     0.60926   0.98216  -6.13868 
 H                     0.36443   1.34596  -4.00796 
 C                    -2.07793   1.4056   -8.79993 
 C                    -0.03441   0.98768  -7.37056 
 H                    -3.60328   2.08833  -7.39315 
 O                     1.93816   0.62483  -6.13927 
 C                    -1.39287   1.03184  -10.01422 
 O                    -3.30392   1.77619  -8.82238 
 H                     0.5478    0.69689  -8.24235 
 C                     2.65136   0.80092  -4.90642 
 C                    -1.97069   1.17789  -11.24016 
 H                    -0.3972    0.60211  -9.93578 
 H                     2.5059    1.82014  -4.5141 
 H                     3.70948   0.656    -5.14923 
 H                     2.32678   0.06146  -4.15888 
 C                    -1.44246   0.80461  -12.51662 
 H                    -2.97172   1.61977  -11.2538 
 C                    -2.24766   0.99354  -13.66069 
 C                    -0.16586   0.23258  -12.7223 
 C                    -1.8542    0.59018  -14.9182 
 H                    -3.2182    1.4729   -13.54224 
 C                     0.25669  -0.15363  -13.97409 
 H                     0.50611   0.09145  -11.87453 
 H                    -2.51986   0.75814  -15.7611 
 C                    -0.59016  -0.02138  -15.11025 
 H                     1.25763  -0.55935  -14.09344 
 N                    -0.20358  -0.47023  -16.33876 
 C                     1.09391  -1.09863  -16.52538 
 C                    -1.10423  -0.34485  -17.47254 
 H                     1.23687  -1.92247  -15.80953 
 H                     1.91839  -0.37583  -16.40713 
 H                     1.14079  -1.52216  -17.53228 
 H                    -2.06207  -0.85143  -17.27337 
 H                    -0.64764  -0.80881  -18.35031 
 H                    -1.30945   0.71323  -17.70517 
 
 NAtoms=     41 NQM=       41 NQMF=       0 NMMI=      0 NMMIF=      0
                NMic=       0 NMicF=      0.
                    Isotopes and Nuclear Properties:
 (Nuclear quadrupole moments (NQMom) in fm**2, nuclear magnetic moments (NMagM)
  in nuclear magnetons)

  Atom         1           2           3           4           5           6           7           8           9          10
 IAtWgt=          12          12           1          12          12          16          12           1          12          12
 AtmWgt=  12.0000000  12.0000000   1.0078250  12.0000000  12.0000000  15.9949146  12.0000000   1.0078250  12.0000000  12.0000000
 NucSpn=           0           0           1           0           0           0           0           1           0           0
 AtZEff=   0.0000000   0.0000000   0.0000000   0.0000000   0.0000000   0.0000000   0.0000000   0.0000000   0.0000000   0.0000000
 NQMom=    0.0000000   0.0000000   0.0000000   0.0000000   0.0000000   0.0000000   0.0000000   0.0000000   0.0000000   0.0000000
 NMagM=    0.0000000   0.0000000   2.7928460   0.0000000   0.0000000   0.0000000   0.0000000   2.7928460   0.0000000   0.0000000
 AtZNuc=   6.0000000   6.0000000   1.0000000   6.0000000   6.0000000   8.0000000   6.0000000   1.0000000   6.0000000   6.0000000

  Atom        11          12          13          14          15          16          17          18          19          20
 IAtWgt=           1          16          12          16           1          12          12           1           1           1
 AtmWgt=   1.0078250  15.9949146  12.0000000  15.9949146   1.0078250  12.0000000  12.0000000   1.0078250   1.0078250   1.0078250
 NucSpn=           1           0           0           0           1           0           0           1           1           1
 AtZEff=   0.0000000   0.0000000   0.0000000   0.0000000   0.0000000   0.0000000   0.0000000   0.0000000   0.0000000   0.0000000
 NQMom=    0.0000000   0.0000000   0.0000000   0.0000000   0.0000000   0.0000000   0.0000000   0.0000000   0.0000000   0.0000000
 NMagM=    2.7928460   0.0000000   0.0000000   0.0000000   2.7928460   0.0000000   0.0000000   2.7928460   2.7928460   2.7928460
 AtZNuc=   1.0000000   8.0000000   6.0000000   8.0000000   1.0000000   6.0000000   6.0000000   1.0000000   1.0000000   1.0000000

  Atom        21          22          23          24          25          26          27          28          29          30
 IAtWgt=           1          12           1          12          12          12           1          12           1           1
 AtmWgt=   1.0078250  12.0000000   1.0078250  12.0000000  12.0000000  12.0000000   1.0078250  12.0000000   1.0078250   1.0078250
 NucSpn=           1           0           1           0           0           0           1           0           1           1
 AtZEff=   0.0000000   0.0000000   0.0000000   0.0000000   0.0000000   0.0000000   0.0000000   0.0000000   0.0000000   0.0000000
 NQMom=    0.0000000   0.0000000   0.0000000   0.0000000   0.0000000   0.0000000   0.0000000   0.0000000   0.0000000   0.0000000
 NMagM=    2.7928460   0.0000000   2.7928460   0.0000000   0.0000000   0.0000000   2.7928460   0.0000000   2.7928460   2.7928460
 AtZNuc=   1.0000000   6.0000000   1.0000000   6.0000000   6.0000000   6.0000000   1.0000000   6.0000000   1.0000000   1.0000000

  Atom        31          32          33          34          35          36          37          38          39          40
 IAtWgt=          12           1          14          12          12           1           1           1           1           1
 AtmWgt=  12.0000000   1.0078250  14.0030740  12.0000000  12.0000000   1.0078250   1.0078250   1.0078250   1.0078250   1.0078250
 NucSpn=           0           1           2           0           0           1           1           1           1           1
 AtZEff=   0.0000000   0.0000000   0.0000000   0.0000000   0.0000000   0.0000000   0.0000000   0.0000000   0.0000000   0.0000000
 NQMom=    0.0000000   0.0000000   2.0440000   0.0000000   0.0000000   0.0000000   0.0000000   0.0000000   0.0000000   0.0000000
 NMagM=    0.0000000   2.7928460   0.4037610   0.0000000   0.0000000   2.7928460   2.7928460   2.7928460   2.7928460   2.7928460
 AtZNuc=   6.0000000   1.0000000   7.0000000   6.0000000   6.0000000   1.0000000   1.0000000   1.0000000   1.0000000   1.0000000

  Atom        41
 IAtWgt=           1
 AtmWgt=   1.0078250
 NucSpn=           1
 AtZEff=   0.0000000
 NQMom=    0.0000000
 NMagM=    2.7928460
 AtZNuc=   1.0000000
 Leave Link  101 at Sat Nov  4 11:16:45 2017, MaxMem=  3758096384 cpu:         0.3
 (Enter /share/apps/gaussian/g09_D01/g09/l202.exe)
                          Input orientation:                          
 ---------------------------------------------------------------------
 Center     Atomic      Atomic             Coordinates (Angstroms)
 Number     Number       Type             X           Y           Z
 ---------------------------------------------------------------------
      1          6           0       -1.437250    1.737391   -5.090015
      2          6           0       -2.092518    1.760412   -6.327449
      3          1           0       -1.982015    2.053463   -4.200181
      4          6           0       -0.108550    1.349894   -4.987871
      5          6           0       -1.383439    1.367706   -7.502291
      6          8           0       -3.384223    2.148685   -6.382283
      7          6           0        0.609255    0.982157   -6.138682
      8          1           0        0.364433    1.345964   -4.007958
      9          6           0       -2.077928    1.405596   -8.799930
     10          6           0       -0.034409    0.987679   -7.370556
     11          1           0       -3.603283    2.088332   -7.393147
     12          8           0        1.938158    0.624828   -6.139270
     13          6           0       -1.392868    1.031835  -10.014222
     14          8           0       -3.303921    1.776190   -8.822378
     15          1           0        0.547798    0.696891   -8.242350
     16          6           0        2.651358    0.800924   -4.906419
     17          6           0       -1.970686    1.177892  -11.240158
     18          1           0       -0.397200    0.602107   -9.935780
     19          1           0        2.505904    1.820143   -4.514101
     20          1           0        3.709475    0.655998   -5.149228
     21          1           0        2.326778    0.061456   -4.158875
     22          6           0       -1.442455    0.804607  -12.516617
     23          1           0       -2.971715    1.619772  -11.253795
     24          6           0       -2.247663    0.993537  -13.660685
     25          6           0       -0.165861    0.232584  -12.722303
     26          6           0       -1.854201    0.590184  -14.918195
     27          1           0       -3.218203    1.472900  -13.542240
     28          6           0        0.256689   -0.153628  -13.974088
     29          1           0        0.506110    0.091446  -11.874529
     30          1           0       -2.519861    0.758137  -15.761098
     31          6           0       -0.590160   -0.021376  -15.110249
     32          1           0        1.257633   -0.559351  -14.093437
     33          7           0       -0.203575   -0.470229  -16.338756
     34          6           0        1.093907   -1.098627  -16.525381
     35          6           0       -1.104228   -0.344850  -17.472543
     36          1           0        1.236868   -1.922466  -15.809531
     37          1           0        1.918393   -0.375831  -16.407131
     38          1           0        1.140789   -1.522162  -17.532281
     39          1           0       -2.062067   -0.851431  -17.273374
     40          1           0       -0.647642   -0.808814  -18.350308
     41          1           0       -1.309451    0.713232  -17.705173
 ---------------------------------------------------------------------
                    Distance matrix (angstroms):
                    1          2          3          4          5
     1  C    0.000000
     2  C    1.400410   0.000000
     3  H    1.090172   2.150200   0.000000
     4  C    1.387815   2.428811   2.150659   0.000000
     5  C    2.441032   1.427328   3.425272   2.819214   0.000000
     6  O    2.372725   1.349913   2.595539   3.648628   2.422289
     7  C    2.420385   2.817959   3.408836   1.405290   2.445180
     8  H    2.137785   3.404176   2.458317   1.088098   3.907159
     9  C    3.779421   2.497853   4.646141   4.291078   1.472283
    10  C    2.780449   2.433311   3.870445   2.411200   1.407713
    11  H    3.181081   1.877673   3.581167   4.306252   2.336434
    12  O    3.705686   4.191815   4.600959   2.457734   3.666429
    13  C    4.974695   3.822647   5.932444   5.197580   2.534304
    14  O    4.173308   2.773521   4.815498   5.009548   2.365954
    15  H    3.867851   3.430626   4.957759   3.383613   2.174248
    16  C    4.198499   5.044235   4.851368   2.815154   4.831085
    17  C    6.198536   4.948624   7.094225   6.525966   3.788474
    18  H    5.084487   4.151605   6.124963   5.012415   2.735083
    19  H    3.985849   4.943408   4.504931   2.698326   4.925542
    20  H    5.259439   6.022546   5.936890   3.883921   5.655193
    21  H    4.224179   5.207623   4.747157   2.877174   5.162405
    22  C    7.484954   6.296185   8.426973   7.665420   5.046190
    23  H    6.352999   5.006161   7.135900   6.894371   4.081659
    24  C    8.640976   7.374857   9.523400   8.939826   6.229984
    25  C    7.882429   6.851308   8.901718   7.814928   5.479008
    26  C    9.903689   8.673358  10.818195  10.111172   7.471398
    27  H    8.641866   7.307738   9.441360   9.102873   6.313352
    28  C    9.239704   8.225169  10.267049   9.118447   6.847528
    29  H    7.246752   6.348891   8.302764   7.027628   4.931095
    30  H   10.770469   9.496363  11.645684  11.055633   8.358883
    31  C   10.208620   9.086772  11.192489  10.226185   7.774308
    32  H    9.674659   8.770141  10.733062   9.403351   7.357446
    33  N   11.529515  10.429292  12.525050  11.496281   9.102373
    34  C   12.050616  11.060073  13.088450  11.855602   9.676580
    35  C   12.560797  11.385164  13.515843  12.638456  10.120115
    36  H   11.638449  10.703190  12.686458  11.385377   9.311363
    37  H   11.991796  11.056714  13.043170  11.725448   9.655993
    38  H   13.117963  12.115190  14.152098  12.929492  10.738890
    39  H   12.471032  11.253263  13.392281  12.633117  10.042867
    40  H   13.525606  12.378923  14.498251  13.546415  11.088648
    41  H   12.657308  11.452615  13.587986  12.789733  10.224119
                    6          7          8          9         10
     6  O    0.000000
     7  C    4.167493   0.000000
     8  H    4.509346   2.175380   0.000000
     9  C    2.846683   3.805587   5.378818   0.000000
    10  C    3.680472   1.389909   3.405071   2.528584   0.000000
    11  H    1.036087   4.532415   5.268148   2.184462   3.734810
    12  O    5.541564   1.376106   2.745749   4.880334   2.353454
    13  C    4.289968   4.362428   6.265939   1.443437   2.972597
    14  O    2.469669   4.810994   6.067994   1.280977   3.663229
    15  H    4.585667   2.123811   4.287773   2.776256   1.087910
    16  C    6.357898   2.391966   2.516809   6.155583   3.649684
    17  C    5.151648   5.720093   7.601694   2.453174   4.331186
    18  H    4.893010   3.946561   6.022664   2.181879   2.619286
    19  H    6.188024   2.634153   2.250983   6.289014   3.912227
    20  H    7.353169   3.270591   3.601091   6.883571   4.365888
    21  H    6.474226   2.777987   2.350220   6.538160   4.092431
    22  C    6.573208   6.702171   8.715227   3.818216   5.338357
    23  H    4.917473   6.276486   7.981667   2.620340   4.909873
    24  C    7.456626   8.046281  10.006118   4.881141   6.668152
    25  C    7.363773   6.671336   8.801172   4.518514   5.406352
    26  C    8.810885   9.126999  11.159158   6.176416   7.774092
    27  H    7.193694   8.348828  10.185967   4.877936   6.961441
    28  C    8.728825   7.925143  10.078895   5.886725   6.707753
    29  H    7.037875   5.805510   7.967235   4.225802   4.623977
    30  H    9.520657  10.120891  12.116146   7.005167   8.753934
    31  C    9.417714   9.106848  11.226831   6.638511   7.824954
    32  H    9.399052   8.128639  10.302666   6.558064   7.018533
    33  N   10.775277  10.334971  12.476769   7.991609   9.087504
    34  C   11.553403  10.604153  12.774742   8.718616   9.457092
    35  C   11.593531  11.539210  13.649574   8.900920  10.245501
    36  H   11.260629  10.117117  12.276844   8.437913   9.016728
    37  H   11.618455  10.440260  12.614232   8.775738   9.345174
    38  H   12.580672  11.677681  13.846884   9.756324  10.532856
    39  H   11.373858  11.596524  13.663371   8.768904  10.274217
    40  H   12.628115  12.406094  14.538582   9.907525  11.142639
    41  H   11.600562  11.727637  13.813614   8.965114  10.416591
                   11         12         13         14         15
    11  H    0.000000
    12  O    5.866994   0.000000
    13  C    3.587778   5.126075   0.000000
    14  O    1.493235   6.000341   2.372062   0.000000
    15  H    4.459678   2.522150   2.649132   4.041913   0.000000
    16  C    6.852866   1.435126   6.519105   7.193833   3.945152
    17  C    4.277121   6.450116   1.363131   2.825090   3.944740
    18  H    4.353483   4.457342   1.087278   3.326734   1.941574
    19  H    6.758920   2.095779   6.787723   7.233066   4.358407
    20  H    7.782235   2.029463   7.059980   7.995910   4.423265
    21  H    7.052260   2.095323   7.004462   7.509550   4.499257
    22  C    5.706757   7.220209   2.513180   4.249286   4.716150
    23  H    3.939928   7.159269   2.091643   2.458987   4.723080
    24  C    6.505253   8.615610   3.745508   5.013725   6.104175
    25  C    6.607539   6.922216   3.078644   5.238278   4.560139
    26  C    7.869567   9.563091   4.945385   6.377090   7.095625
    27  H    6.191800   9.061526   3.996661   4.730373   6.547808
    28  C    7.952016   8.050944   4.450494   6.553034   5.801806
    29  H    6.399801   5.935356   2.819786   5.164332   3.682530
    30  H    8.542004  10.605248   5.862730   7.056700   8.120705
    31  C    8.548885   9.342828   5.265272   7.080471   6.998492
    32  H    8.690950   8.070574   5.118303   7.351639   6.026378
    33  N    9.905966  10.479298   6.608354   8.435312   8.214531
    34  C   10.752581  10.561930   7.288217   9.324254   8.492981
    35  C   10.665827  11.774526   7.589804   9.174029   9.434558
    36  H   10.504717  10.024693   7.016339   9.116969   8.037293
    37  H   10.854166  10.316525   7.335888   9.456862   8.348228
    38  H   11.761969  11.620932   8.334478  10.319738   9.569674
    39  H   10.422881  11.922643   7.529263   8.936774   9.527229
    40  H   11.712756  12.563882   8.569345  10.223479  10.289171
    41  H   10.653189  12.013530   7.697999   9.165797   9.643374
                   16         17         18         19         20
    16  C    0.000000
    17  C    7.849946   0.000000
    18  H    5.884531   2.123391   0.000000
    19  H    1.101761   8.105072   6.269468   0.000000
    20  H    1.095249   8.344821   6.307041   1.790867   0.000000
    21  H    1.100449   8.358181   6.409757   1.803123   1.801702
    22  C    8.641437   1.430985   2.791824   8.981153   8.991267
    23  H    8.519310   1.094305   3.066094   8.687228   9.101258
    24  C   10.033677   2.443288   4.177601  10.341164  10.394533
    25  C    8.327531   2.519475   2.820421   8.776859   8.517569
    26  C   10.980899   3.726517   5.191094  11.347620  11.242399
    27  H   10.463303   2.634940   4.660782  10.695479  10.913418
    28  C    9.426995   3.769419   4.160125   9.922001   9.510803
    29  H    7.325299   2.778005   2.198975   7.820708   7.470605
    30  H   12.023618   4.573476   6.201965  12.364510  12.305562
    31  C   10.737866   4.280386   5.215467  11.191745  10.870494
    32  H    9.391172   4.645563   4.623156   9.949063   9.353474
    33  N   11.851785   5.642223   6.495036  12.345426  11.907388
    34  C   11.875783   6.519805   6.966975  12.441214  11.804099
    35  C   13.165284   6.473957   7.628854  13.625031  13.267913
    36  H   11.326760   6.385906   6.598833  11.966800  11.242968
    37  H   11.583970   6.651060   6.942386  12.108329  11.446092
    38  H   12.926366   7.520797   8.036464  13.509536  12.832869
    39  H   13.337475   6.366019   7.663213  13.813136  13.512141
    40  H   13.936026   7.500112   8.535672  14.432494  13.978507
    41  H   13.397903   6.515333   7.823555  13.776305  13.522006
                   21         22         23         24         25
    21  H    0.000000
    22  C    9.198437   0.000000
    23  H    8.991122   2.144260   0.000000
    24  C   10.586722   1.411717   2.590278   0.000000
    25  C    8.920473   1.413934   3.457401   2.406971   0.000000
    26  C   11.555220   2.446035   3.966953   1.377983   2.792904
    27  H   10.990292   2.156803   2.306363   1.088929   3.395213
    28  C   10.033441   2.435062   4.579032   2.772361   1.376472
    29  H    7.927613   2.172045   3.849202   3.404025   1.090956
    30  H   12.593127   3.419009   4.611113   2.131018   3.879665
    31  C   11.333489   2.852294   4.820520   2.424583   2.438609
    32  H   10.011193   3.411337   5.540715   3.858217   2.129203
    33  N   12.451300   4.215303   6.155285   3.673278   3.684305
    34  C   12.481836   5.111323   7.190869   4.873369   4.221675
    35  C   13.754659   5.098711   6.783810   4.198688   4.876345
    36  H   11.868514   5.045689   7.142433   5.026188   4.017819
    37  H   12.262862   5.274925   7.379191   5.174375   4.276943
    38  H   13.518965   6.102777   8.136573   5.727094   5.284161
    39  H   13.859488   5.074753   6.570360   4.060773   5.048062
    40  H   14.525884   6.104654   7.852378   5.272675   5.743785
    41  H   14.040982   5.191065   6.723482   4.161333   5.134960
                   26         27         28         29         30
    26  C    0.000000
    27  H    2.129070   0.000000
    28  C    2.429084   3.860953   0.000000
    29  H    3.883775   4.308153   2.128478   0.000000
    30  H    1.087105   2.433495   3.425485   4.970553   0.000000
    31  C    1.417283   3.405602   1.423203   3.418248   2.180594
    32  H    3.418357   4.946410   1.086621   2.431435   4.334320
    33  N    2.422196   4.547992   2.429760   4.555047   2.684726
    34  C    3.758520   5.840049   2.846586   4.836549   4.134129
    35  C    2.821603   4.818754   3.758703   5.841344   2.479847
    36  H    4.081984   6.042911   2.731005   4.480412   4.615300
    37  H    4.169242   6.165227   2.954714   4.770469   4.626158
    38  H    4.501713   6.625076   3.913471   5.917492   4.662318
    39  H    2.769175   4.545385   4.092535   6.052444   2.255496
    40  H    3.897740   5.910289   4.516457   6.639076   3.558728
    41  H    2.842383   4.642245   4.138265   6.138346   2.290532
                   31         32         33         34         35
    31  C    0.000000
    32  H    2.176617   0.000000
    33  N    1.363872   2.680397   0.000000
    34  C    2.449316   2.496393   1.453676   0.000000
    35  C    2.439126   4.128287   1.453399   2.509401   0.000000
    36  H    2.727851   2.191687   2.112806   1.100722   3.276463
    37  H    2.846117   2.413185   2.125167   1.102812   3.205043
    38  H    3.333884   3.572997   2.082878   1.093356   2.535692
    39  H    2.744925   4.606269   2.114904   3.252810   1.101702
    40  H    3.334868   4.670466   2.087625   2.539162   1.092797
    41  H    2.791175   4.610209   2.119112   3.232781   1.102620
                   36         37         38         39         40
    36  H    0.000000
    37  H    1.792675   0.000000
    38  H    1.771254   1.784574   0.000000
    39  H    3.764694   4.101297   3.282560   0.000000
    40  H    3.353677   3.247760   2.092013   1.778258   0.000000
    41  H    4.126028   3.645538   3.321228   1.789148   1.780678
                   41
    41  H    0.000000
 Symmetry turned off by external request.
 Stoichiometry    C18H19NO3
 Framework group  C1[X(C18H19NO3)]
 Deg. of freedom   117
 Full point group                 C1      NOp   1
 Rotational constants (GHZ):      0.5853954      0.0929906      0.0804942
 Leave Link  202 at Sat Nov  4 11:16:45 2017, MaxMem=  3758096384 cpu:         0.1
 (Enter /share/apps/gaussian/g09_D01/g09/l301.exe)
 Standard basis: 6-311++G(d,p) (5D, 7F)
 Ernie: Thresh=  0.10000D-02 Tol=  0.10000D-05 Strict=F.
   617 basis functions,   963 primitive gaussians,   639 cartesian basis functions
    79 alpha electrons       79 beta electrons
       nuclear repulsion energy      1603.2468496700 Hartrees.
 IExCor= 4639 DFT=T Ex+Corr=wB97XD ExCW=0 ScaHFX=  1.000000
 ScaDFX=  1.000000  1.000000  1.000000  1.000000 ScalE2=  1.000000  1.000000
 IRadAn=      0 IRanWt=     -1 IRanGd=            0 ICorTp=0 IEmpDi=121
  HFx wShort=  0.000000 wLong=  0.200000 cFull=  0.222036 cShort=  0.000000 cLong=  0.777964
  DFx wShort=  0.000000 wLong=  0.200000 cFull=  0.000000 cShort=  0.000000 cLong=  1.000000
 NAtoms=   41 NActive=   41 NUniq=   41 SFac= 1.00D+00 NAtFMM=   60 NAOKFM=F Big=F
 Integral buffers will be    131072 words long.
 Raffenetti 1 integral format.
 Two-electron integral symmetry is turned off.
 R6Disp:  Grimme-D2 Dispersion energy=       -0.0257237470 Hartrees.
 Nuclear repulsion after empirical dispersion term =     1603.2211259230 Hartrees.
 Leave Link  301 at Sat Nov  4 11:16:45 2017, MaxMem=  3758096384 cpu:         0.1
 (Enter /share/apps/gaussian/g09_D01/g09/l302.exe)
 NPDir=0 NMtPBC=     1 NCelOv=     1 NCel=       1 NClECP=     1 NCelD=      1
         NCelK=      1 NCelE2=     1 NClLst=     1 CellRange=     0.0.
 One-electron integrals computed using PRISM.
 NBasis=   617 RedAO= T EigKep=  1.47D-06  NBF=   617
 NBsUse=   609 1.00D-06 EigRej=  9.14D-07 NBFU=   609
 Precomputing XC quadrature grid using
 IXCGrd= 4 IRadAn=           0 IRanWt=          -1 IRanGd=           0 AccXCQ= 0.00D+00.
 Generated NRdTot=       0 NPtTot=           0 NUsed=           0 NTot=          32
 NSgBfM=   620   620   620   620   620 MxSgAt=    41 MxSgA2=    41.
 Leave Link  302 at Sat Nov  4 11:16:49 2017, MaxMem=  3758096384 cpu:         7.9
 (Enter /share/apps/gaussian/g09_D01/g09/l308.exe)
 Leave Link  308 at Sat Nov  4 11:16:50 2017, MaxMem=  3758096384 cpu:         0.9
 (Enter /share/apps/gaussian/g09_D01/g09/l303.exe)
 DipDrv:  MaxL=1.
 Leave Link  303 at Sat Nov  4 11:16:50 2017, MaxMem=  3758096384 cpu:         0.6
 (Enter /share/apps/gaussian/g09_D01/g09/l401.exe)
 ExpMin= 3.60D-02 ExpMax= 8.59D+03 ExpMxC= 1.30D+03 IAcc=3 IRadAn=         5 AccDes= 0.00D+00
 Harris functional with IExCor= 4639 and IRadAn=       5 diagonalized for initial guess.
 HarFok:  IExCor= 4639 AccDes= 0.00D+00 IRadAn=         5 IDoV= 1 UseB2=F ITyADJ=14
 ICtDFT=  3500011 ScaDFX=  1.000000  1.000000  1.000000  1.000000
 FoFCou: FMM=F IPFlag=           0 FMFlag=      100000 FMFlg1=           0
         NFxFlg=           0 DoJE=T BraDBF=F KetDBF=T FulRan=T
         wScrn=  0.000000 ICntrl=     500 IOpCl=  0 I1Cent=   200000004 NGrid=           0
         NMat0=    1 NMatS0=      1 NMatT0=    0 NMatD0=    1 NMtDS0=    0 NMtDT0=    0
 Symmetry not used in FoFCou.
 Harris En= -935.528776994958    
 JPrj=0 DoOrth=F DoCkMO=F.
 Leave Link  401 at Sat Nov  4 11:17:15 2017, MaxMem=  3758096384 cpu:        49.8
 (Enter /share/apps/gaussian/g09_D01/g09/l502.exe)
 Closed shell SCF:
 Using DIIS extrapolation, IDIIS=  1040.
 Two-electron integral symmetry not used.
 IVT=     1251263 IEndB=     1251263 NGot=  3758096384 MDV=  3757270722
 LenX=  3757270722 LenY=  3756861762
 Requested convergence on RMS density matrix=1.00D-08 within 128 cycles.
 Requested convergence on MAX density matrix=1.00D-06.
 Requested convergence on             energy=1.00D-06.
 No special actions if energy rises.
 Fock matrices will be formed incrementally for  20 cycles.

 Cycle   1  Pass 1  IDiag  1:
 FoFJK:  IHMeth= 1 ICntrl=       0 DoSepK=T KAlg= 0 I1Cent=   0 FoldK=F
 IRaf=         1 NMat=   1 IRICut=       1 DoRegI=T DoRafI=F ISym2E= 0.
 FoFCou: FMM=F IPFlag=           0 FMFlag=      100000 FMFlg1=           0
         NFxFlg=           0 DoJE=T BraDBF=F KetDBF=F FulRan=T
         wScrn=  0.000000 ICntrl=     500 IOpCl=  0 I1Cent=           0 NGrid=           0
         NMat0=    1 NMatS0=      1 NMatT0=    0 NMatD0=    1 NMtDS0=    0 NMtDT0=    0
 Symmetry not used in FoFCou.
 E= -977.339379933201    
 DIIS: error= 6.12D-02 at cycle   1 NSaved=   1.
 NSaved= 1 IEnMin= 1 EnMin= -977.339379933201     IErMin= 1 ErrMin= 6.12D-02
 ErrMax= 6.12D-02  0.00D+00 EMaxC= 1.00D-01 BMatC= 2.15D+00 BMatP= 2.15D+00
 IDIUse=3 WtCom= 3.88D-01 WtEn= 6.12D-01
 Coeff-Com:  0.100D+01
 Coeff-En:   0.100D+01
 Coeff:      0.100D+01
 Gap=     0.276 Goal=   None    Shift=    0.000
 GapD=    0.276 DampG=1.000 DampE=0.500 DampFc=0.5000 IDamp=-1.
 Damping current iteration by 5.00D-01
 RMSDP=2.49D-02 MaxDP=2.08D+00              OVMax= 1.92D-01

 Cycle   2  Pass 1  IDiag  1:
 RMSU=  3.35D-03    CP:  8.11D-01
 E= -977.490885247774     Delta-E=       -0.151505314573 Rises=F Damp=T
 DIIS: error= 2.80D-02 at cycle   2 NSaved=   2.
 NSaved= 2 IEnMin= 2 EnMin= -977.490885247774     IErMin= 2 ErrMin= 2.80D-02
 ErrMax= 2.80D-02  0.00D+00 EMaxC= 1.00D-01 BMatC= 4.42D-01 BMatP= 2.15D+00
 IDIUse=3 WtCom= 7.20D-01 WtEn= 2.80D-01
 Coeff-Com: -0.535D+00 0.153D+01
 Coeff-En:   0.000D+00 0.100D+01
 Coeff:     -0.385D+00 0.138D+01
 Gap=     0.273 Goal=   None    Shift=    0.000
 RMSDP=1.10D-02 MaxDP=8.72D-01 DE=-1.52D-01 OVMax= 2.12D-01

 Cycle   3  Pass 1  IDiag  1:
 RMSU=  3.94D-03    CP:  6.49D-01  1.09D+00
 E= -977.560506231747     Delta-E=       -0.069620983973 Rises=F Damp=F
 DIIS: error= 1.86D-02 at cycle   3 NSaved=   3.
 NSaved= 3 IEnMin= 3 EnMin= -977.560506231747     IErMin= 3 ErrMin= 1.86D-02
 ErrMax= 1.86D-02  0.00D+00 EMaxC= 1.00D-01 BMatC= 1.46D-01 BMatP= 4.42D-01
 IDIUse=3 WtCom= 8.14D-01 WtEn= 1.86D-01
 Coeff-Com: -0.356D+00 0.768D+00 0.588D+00
 Coeff-En:   0.000D+00 0.139D+00 0.861D+00
 Coeff:     -0.290D+00 0.651D+00 0.639D+00
 Gap=     0.267 Goal=   None    Shift=    0.000
 RMSDP=4.52D-03 MaxDP=3.91D-01 DE=-6.96D-02 OVMax= 9.80D-02

 Cycle   4  Pass 1  IDiag  1:
 RMSU=  1.42D-03    CP:  5.92D-01  1.47D+00  5.18D-01
 E= -977.669179697916     Delta-E=       -0.108673466169 Rises=F Damp=F
 DIIS: error= 5.53D-03 at cycle   4 NSaved=   4.
 NSaved= 4 IEnMin= 4 EnMin= -977.669179697916     IErMin= 4 ErrMin= 5.53D-03
 ErrMax= 5.53D-03  0.00D+00 EMaxC= 1.00D-01 BMatC= 1.25D-02 BMatP= 1.46D-01
 IDIUse=3 WtCom= 9.45D-01 WtEn= 5.53D-02
 Coeff-Com: -0.142D+00 0.305D+00 0.357D+00 0.479D+00
 Coeff-En:   0.000D+00 0.000D+00 0.478D-02 0.995D+00
 Coeff:     -0.134D+00 0.289D+00 0.338D+00 0.508D+00
 Gap=     0.237 Goal=   None    Shift=    0.000
 RMSDP=8.85D-04 MaxDP=8.12D-02 DE=-1.09D-01 OVMax= 1.89D-02

 Cycle   5  Pass 1  IDiag  1:
 RMSU=  3.31D-04    CP:  6.02D-01  1.43D+00  6.24D-01  7.46D-01
 E= -977.678842697235     Delta-E=       -0.009662999319 Rises=F Damp=F
 DIIS: error= 8.44D-04 at cycle   5 NSaved=   5.
 NSaved= 5 IEnMin= 5 EnMin= -977.678842697235     IErMin= 5 ErrMin= 8.44D-04
 ErrMax= 8.44D-04  0.00D+00 EMaxC= 1.00D-01 BMatC= 2.29D-04 BMatP= 1.25D-02
 IDIUse=3 WtCom= 9.92D-01 WtEn= 8.44D-03
 Coeff-Com:  0.118D-01-0.257D-01 0.246D-01 0.181D+00 0.809D+00
 Coeff-En:   0.000D+00 0.000D+00 0.000D+00 0.000D+00 0.100D+01
 Coeff:      0.117D-01-0.254D-01 0.244D-01 0.179D+00 0.810D+00
 Gap=     0.238 Goal=   None    Shift=    0.000
 RMSDP=2.60D-04 MaxDP=1.76D-02 DE=-9.66D-03 OVMax= 6.27D-03

 Cycle   6  Pass 1  IDiag  1:
 RMSU=  1.89D-04    CP:  6.00D-01  1.42D+00  6.36D-01  8.45D-01  9.21D-01
 E= -977.679111011975     Delta-E=       -0.000268314740 Rises=F Damp=F
 DIIS: error= 5.16D-04 at cycle   6 NSaved=   6.
 NSaved= 6 IEnMin= 6 EnMin= -977.679111011975     IErMin= 6 ErrMin= 5.16D-04
 ErrMax= 5.16D-04  0.00D+00 EMaxC= 1.00D-01 BMatC= 5.94D-05 BMatP= 2.29D-04
 IDIUse=3 WtCom= 9.95D-01 WtEn= 5.16D-03
 Coeff-Com:  0.257D-01-0.554D-01-0.404D-01 0.458D-02 0.400D+00 0.665D+00
 Coeff-En:   0.000D+00 0.000D+00 0.000D+00 0.000D+00 0.000D+00 0.100D+01
 Coeff:      0.256D-01-0.551D-01-0.402D-01 0.456D-02 0.398D+00 0.667D+00
 Gap=     0.239 Goal=   None    Shift=    0.000
 RMSDP=1.03D-04 MaxDP=9.44D-03 DE=-2.68D-04 OVMax= 4.28D-03

 Cycle   7  Pass 1  IDiag  1:
 RMSU=  6.27D-05    CP:  5.99D-01  1.42D+00  6.37D-01  8.60D-01  1.05D+00
                    CP:  1.03D+00
 E= -977.679188121261     Delta-E=       -0.000077109286 Rises=F Damp=F
 DIIS: error= 1.41D-04 at cycle   7 NSaved=   7.
 NSaved= 7 IEnMin= 7 EnMin= -977.679188121261     IErMin= 7 ErrMin= 1.41D-04
 ErrMax= 1.41D-04  0.00D+00 EMaxC= 1.00D-01 BMatC= 4.82D-06 BMatP= 5.94D-05
 IDIUse=3 WtCom= 9.99D-01 WtEn= 1.41D-03
 Coeff-Com:  0.329D-02-0.699D-02-0.105D-01-0.221D-01-0.241D-01 0.185D+00
 Coeff-Com:  0.876D+00
 Coeff-En:   0.000D+00 0.000D+00 0.000D+00 0.000D+00 0.000D+00 0.000D+00
 Coeff-En:   0.100D+01
 Coeff:      0.328D-02-0.698D-02-0.105D-01-0.221D-01-0.241D-01 0.185D+00
 Coeff:      0.876D+00
 Gap=     0.239 Goal=   None    Shift=    0.000
 RMSDP=4.77D-05 MaxDP=3.46D-03 DE=-7.71D-05 OVMax= 1.99D-03

 Cycle   8  Pass 1  IDiag  1:
 RMSU=  3.19D-05    CP:  5.99D-01  1.42D+00  6.38D-01  8.73D-01  1.08D+00
                    CP:  1.17D+00  1.13D+00
 E= -977.679200327505     Delta-E=       -0.000012206244 Rises=F Damp=F
 DIIS: error= 7.31D-05 at cycle   8 NSaved=   8.
 NSaved= 8 IEnMin= 8 EnMin= -977.679200327505     IErMin= 8 ErrMin= 7.31D-05
 ErrMax= 7.31D-05  0.00D+00 EMaxC= 1.00D-01 BMatC= 1.15D-06 BMatP= 4.82D-06
 IDIUse=1 WtCom= 1.00D+00 WtEn= 0.00D+00
 Coeff-Com: -0.226D-02 0.492D-02 0.117D-02-0.119D-01-0.777D-01-0.144D-01
 Coeff-Com:  0.382D+00 0.718D+00
 Coeff:     -0.226D-02 0.492D-02 0.117D-02-0.119D-01-0.777D-01-0.144D-01
 Coeff:      0.382D+00 0.718D+00
 Gap=     0.239 Goal=   None    Shift=    0.000
 RMSDP=1.76D-05 MaxDP=1.22D-03 DE=-1.22D-05 OVMax= 1.00D-03

 Cycle   9  Pass 1  IDiag  1:
 RMSU=  9.97D-06    CP:  5.99D-01  1.42D+00  6.38D-01  8.74D-01  1.09D+00
                    CP:  1.22D+00  1.24D+00  9.62D-01
 E= -977.679203094833     Delta-E=       -0.000002767328 Rises=F Damp=F
 DIIS: error= 3.13D-05 at cycle   9 NSaved=   9.
 NSaved= 9 IEnMin= 9 EnMin= -977.679203094833     IErMin= 9 ErrMin= 3.13D-05
 ErrMax= 3.13D-05  0.00D+00 EMaxC= 1.00D-01 BMatC= 1.76D-07 BMatP= 1.15D-06
 IDIUse=1 WtCom= 1.00D+00 WtEn= 0.00D+00
 Coeff-Com: -0.162D-02 0.347D-02 0.305D-02 0.343D-03-0.254D-01-0.410D-01
 Coeff-Com: -0.517D-01 0.222D+00 0.891D+00
 Coeff:     -0.162D-02 0.347D-02 0.305D-02 0.343D-03-0.254D-01-0.410D-01
 Coeff:     -0.517D-01 0.222D+00 0.891D+00
 Gap=     0.239 Goal=   None    Shift=    0.000
 RMSDP=8.31D-06 MaxDP=6.40D-04 DE=-2.77D-06 OVMax= 5.94D-04

 Cycle  10  Pass 1  IDiag  1:
 RMSU=  4.39D-06    CP:  5.99D-01  1.42D+00  6.39D-01  8.75D-01  1.09D+00
                    CP:  1.24D+00  1.28D+00  1.03D+00  1.30D+00
 E= -977.679203693819     Delta-E=       -0.000000598986 Rises=F Damp=F
 DIIS: error= 1.40D-05 at cycle  10 NSaved=  10.
 NSaved=10 IEnMin=10 EnMin= -977.679203693819     IErMin=10 ErrMin= 1.40D-05
 ErrMax= 1.40D-05  0.00D+00 EMaxC= 1.00D-01 BMatC= 3.00D-08 BMatP= 1.76D-07
 IDIUse=1 WtCom= 1.00D+00 WtEn= 0.00D+00
 Coeff-Com: -0.424D-04 0.814D-04 0.687D-03 0.212D-02 0.477D-02-0.830D-02
 Coeff-Com: -0.819D-01-0.476D-01 0.312D+00 0.818D+00
 Coeff:     -0.424D-04 0.814D-04 0.687D-03 0.212D-02 0.477D-02-0.830D-02
 Coeff:     -0.819D-01-0.476D-01 0.312D+00 0.818D+00
 Gap=     0.239 Goal=   None    Shift=    0.000
 RMSDP=3.92D-06 MaxDP=3.14D-04 DE=-5.99D-07 OVMax= 2.46D-04

 Cycle  11  Pass 1  IDiag  1:
 RMSU=  1.27D-06    CP:  5.99D-01  1.42D+00  6.39D-01  8.75D-01  1.09D+00
                    CP:  1.25D+00  1.28D+00  1.03D+00  1.51D+00  1.16D+00
 E= -977.679203782244     Delta-E=       -0.000000088425 Rises=F Damp=F
 DIIS: error= 4.79D-06 at cycle  11 NSaved=  11.
 NSaved=11 IEnMin=11 EnMin= -977.679203782244     IErMin=11 ErrMin= 4.79D-06
 ErrMax= 4.79D-06  0.00D+00 EMaxC= 1.00D-01 BMatC= 4.79D-09 BMatP= 3.00D-08
 IDIUse=1 WtCom= 1.00D+00 WtEn= 0.00D+00
 Coeff-Com:  0.249D-03-0.535D-03-0.271D-03 0.717D-03 0.558D-02 0.405D-02
 Coeff-Com: -0.174D-01-0.512D-01-0.619D-01 0.248D+00 0.873D+00
 Coeff:      0.249D-03-0.535D-03-0.271D-03 0.717D-03 0.558D-02 0.405D-02
 Coeff:     -0.174D-01-0.512D-01-0.619D-01 0.248D+00 0.873D+00
 Gap=     0.239 Goal=   None    Shift=    0.000
 RMSDP=1.72D-06 MaxDP=1.42D-04 DE=-8.84D-08 OVMax= 1.01D-04

 Cycle  12  Pass 1  IDiag  1:
 RMSU=  8.53D-07    CP:  5.99D-01  1.42D+00  6.39D-01  8.75D-01  1.09D+00
                    CP:  1.25D+00  1.29D+00  1.03D+00  1.62D+00  1.24D+00
                    CP:  1.23D+00
 E= -977.679203796994     Delta-E=       -0.000000014750 Rises=F Damp=F
 DIIS: error= 1.72D-06 at cycle  12 NSaved=  12.
 NSaved=12 IEnMin=12 EnMin= -977.679203796994     IErMin=12 ErrMin= 1.72D-06
 ErrMax= 1.72D-06  0.00D+00 EMaxC= 1.00D-01 BMatC= 7.80D-10 BMatP= 4.79D-09
 IDIUse=1 WtCom= 1.00D+00 WtEn= 0.00D+00
 Coeff-Com:  0.625D-04-0.133D-03-0.138D-03-0.377D-05 0.103D-02 0.210D-02
 Coeff-Com:  0.776D-02-0.665D-02-0.655D-01-0.554D-01 0.272D+00 0.845D+00
 Coeff:      0.625D-04-0.133D-03-0.138D-03-0.377D-05 0.103D-02 0.210D-02
 Coeff:      0.776D-02-0.665D-02-0.655D-01-0.554D-01 0.272D+00 0.845D+00
 Gap=     0.239 Goal=   None    Shift=    0.000
 RMSDP=5.38D-07 MaxDP=3.35D-05 DE=-1.48D-08 OVMax= 3.28D-05

 Cycle  13  Pass 1  IDiag  1:
 RMSU=  2.69D-07    CP:  5.99D-01  1.42D+00  6.39D-01  8.75D-01  1.09D+00
                    CP:  1.25D+00  1.29D+00  1.02D+00  1.65D+00  1.26D+00
                    CP:  1.37D+00  1.16D+00
 E= -977.679203799027     Delta-E=       -0.000000002033 Rises=F Damp=F
 DIIS: error= 6.32D-07 at cycle  13 NSaved=  13.
 NSaved=13 IEnMin=13 EnMin= -977.679203799027     IErMin=13 ErrMin= 6.32D-07
 ErrMax= 6.32D-07  0.00D+00 EMaxC= 1.00D-01 BMatC= 1.92D-10 BMatP= 7.80D-10
 IDIUse=1 WtCom= 1.00D+00 WtEn= 0.00D+00
 Coeff-Com: -0.124D-04 0.272D-04-0.241D-04-0.147D-03-0.558D-03 0.187D-03
 Coeff-Com:  0.707D-02 0.603D-02-0.182D-01-0.739D-01-0.348D-01 0.390D+00
 Coeff-Com:  0.724D+00
 Coeff:     -0.124D-04 0.272D-04-0.241D-04-0.147D-03-0.558D-03 0.187D-03
 Coeff:      0.707D-02 0.603D-02-0.182D-01-0.739D-01-0.348D-01 0.390D+00
 Coeff:      0.724D+00
 Gap=     0.239 Goal=   None    Shift=    0.000
 RMSDP=4.11D-07 MaxDP=2.34D-05 DE=-2.03D-09 OVMax= 1.33D-05

 Cycle  14  Pass 1  IDiag  1:
 RMSU=  1.58D-07    CP:  5.99D-01  1.42D+00  6.39D-01  8.75D-01  1.09D+00
                    CP:  1.25D+00  1.29D+00  1.01D+00  1.67D+00  1.26D+00
                    CP:  1.43D+00  1.34D+00  9.98D-01
 E= -977.679203799501     Delta-E=       -0.000000000474 Rises=F Damp=F
 DIIS: error= 3.32D-07 at cycle  14 NSaved=  14.
 NSaved=14 IEnMin=14 EnMin= -977.679203799501     IErMin=14 ErrMin= 3.32D-07
 ErrMax= 3.32D-07  0.00D+00 EMaxC= 1.00D-01 BMatC= 1.21D-11 BMatP= 1.92D-10
 IDIUse=1 WtCom= 1.00D+00 WtEn= 0.00D+00
 Coeff-Com: -0.780D-05 0.168D-04 0.800D-05-0.400D-04-0.237D-03-0.200D-03
 Coeff-Com:  0.551D-03 0.150D-02 0.456D-02-0.975D-02-0.352D-01-0.747D-02
 Coeff-Com:  0.115D+00 0.931D+00
 Coeff:     -0.780D-05 0.168D-04 0.800D-05-0.400D-04-0.237D-03-0.200D-03
 Coeff:      0.551D-03 0.150D-02 0.456D-02-0.975D-02-0.352D-01-0.747D-02
 Coeff:      0.115D+00 0.931D+00
 Gap=     0.239 Goal=   None    Shift=    0.000
 RMSDP=1.11D-07 MaxDP=5.37D-06 DE=-4.74D-10 OVMax= 5.33D-06

 Cycle  15  Pass 1  IDiag  1:
 RMSU=  3.22D-08    CP:  5.99D-01  1.42D+00  6.39D-01  8.75D-01  1.09D+00
                    CP:  1.25D+00  1.29D+00  1.01D+00  1.67D+00  1.25D+00
                    CP:  1.43D+00  1.38D+00  1.13D+00  1.24D+00
 E= -977.679203799521     Delta-E=       -0.000000000020 Rises=F Damp=F
 DIIS: error= 1.24D-07 at cycle  15 NSaved=  15.
 NSaved=15 IEnMin=15 EnMin= -977.679203799521     IErMin=15 ErrMin= 1.24D-07
 ErrMax= 1.24D-07  0.00D+00 EMaxC= 1.00D-01 BMatC= 4.09D-12 BMatP= 1.21D-11
 IDIUse=1 WtCom= 1.00D+00 WtEn= 0.00D+00
 Coeff-Com: -0.244D-05 0.509D-05 0.827D-05 0.247D-05-0.249D-04-0.110D-03
 Coeff-Com: -0.731D-03-0.301D-03 0.468D-02 0.616D-02-0.998D-02-0.590D-01
 Coeff-Com: -0.752D-01 0.389D+00 0.745D+00
 Coeff:     -0.244D-05 0.509D-05 0.827D-05 0.247D-05-0.249D-04-0.110D-03
 Coeff:     -0.731D-03-0.301D-03 0.468D-02 0.616D-02-0.998D-02-0.590D-01
 Coeff:     -0.752D-01 0.389D+00 0.745D+00
 Gap=     0.239 Goal=   None    Shift=    0.000
 RMSDP=7.26D-08 MaxDP=4.10D-06 DE=-2.05D-11 OVMax= 1.98D-06

 Cycle  16  Pass 1  IDiag  1:
 RMSU=  1.86D-08    CP:  5.99D-01  1.42D+00  6.39D-01  8.75D-01  1.09D+00
                    CP:  1.25D+00  1.29D+00  1.01D+00  1.67D+00  1.25D+00
                    CP:  1.44D+00  1.41D+00  1.17D+00  1.45D+00  1.18D+00
 E= -977.679203799559     Delta-E=       -0.000000000038 Rises=F Damp=F
 DIIS: error= 6.13D-08 at cycle  16 NSaved=  16.
 NSaved=16 IEnMin=16 EnMin= -977.679203799559     IErMin=16 ErrMin= 6.13D-08
 ErrMax= 6.13D-08  0.00D+00 EMaxC= 1.00D-01 BMatC= 5.17D-13 BMatP= 4.09D-12
 IDIUse=1 WtCom= 1.00D+00 WtEn= 0.00D+00
 Coeff-Com:  0.228D-06-0.541D-06 0.123D-05 0.746D-05 0.341D-04-0.212D-05
 Coeff-Com: -0.275D-03-0.368D-03 0.400D-03 0.334D-02 0.407D-02-0.117D-01
 Coeff-Com: -0.492D-01-0.714D-01 0.181D+00 0.944D+00
 Coeff:      0.228D-06-0.541D-06 0.123D-05 0.746D-05 0.341D-04-0.212D-05
 Coeff:     -0.275D-03-0.368D-03 0.400D-03 0.334D-02 0.407D-02-0.117D-01
 Coeff:     -0.492D-01-0.714D-01 0.181D+00 0.944D+00
 Gap=     0.239 Goal=   None    Shift=    0.000
 RMSDP=2.63D-08 MaxDP=1.44D-06 DE=-3.82D-11 OVMax= 1.43D-06

 Cycle  17  Pass 1  IDiag  1:
 RMSU=  7.06D-09    CP:  5.99D-01  1.42D+00  6.39D-01  8.75D-01  1.09D+00
                    CP:  1.25D+00  1.29D+00  1.01D+00  1.67D+00  1.25D+00
                    CP:  1.44D+00  1.42D+00  1.19D+00  1.54D+00  1.39D+00
                    CP:  1.25D+00
 E= -977.679203799545     Delta-E=        0.000000000015 Rises=F Damp=F
 DIIS: error= 3.19D-08 at cycle  17 NSaved=  17.
 NSaved=17 IEnMin=16 EnMin= -977.679203799559     IErMin=17 ErrMin= 3.19D-08
 ErrMax= 3.19D-08  0.00D+00 EMaxC= 1.00D-01 BMatC= 1.77D-13 BMatP= 5.17D-13
 IDIUse=1 WtCom= 1.00D+00 WtEn= 0.00D+00
 Coeff-Com:  0.627D-06-0.133D-05-0.116D-05 0.315D-05 0.225D-04 0.236D-04
 Coeff-Com:  0.191D-04-0.127D-03-0.757D-03 0.450D-03 0.394D-02 0.667D-02
 Coeff-Com: -0.865D-02-0.101D+00-0.904D-01 0.416D+00 0.774D+00
 Coeff:      0.627D-06-0.133D-05-0.116D-05 0.315D-05 0.225D-04 0.236D-04
 Coeff:      0.191D-04-0.127D-03-0.757D-03 0.450D-03 0.394D-02 0.667D-02
 Coeff:     -0.865D-02-0.101D+00-0.904D-01 0.416D+00 0.774D+00
 Gap=     0.239 Goal=   None    Shift=    0.000
 RMSDP=1.30D-08 MaxDP=6.76D-07 DE= 1.46D-11 OVMax= 5.23D-07

 Cycle  18  Pass 1  IDiag  1:
 RMSU=  3.10D-09    CP:  5.99D-01  1.42D+00  6.39D-01  8.75D-01  1.09D+00
                    CP:  1.25D+00  1.29D+00  1.01D+00  1.67D+00  1.25D+00
                    CP:  1.44D+00  1.43D+00  1.19D+00  1.58D+00  1.47D+00
                    CP:  1.49D+00  1.16D+00
 E= -977.679203799537     Delta-E=        0.000000000008 Rises=F Damp=F
 DIIS: error= 1.14D-08 at cycle  18 NSaved=  18.
 NSaved=18 IEnMin=16 EnMin= -977.679203799559     IErMin=18 ErrMin= 1.14D-08
 ErrMax= 1.14D-08  0.00D+00 EMaxC= 1.00D-01 BMatC= 1.43D-14 BMatP= 1.77D-13
 IDIUse=1 WtCom= 1.00D+00 WtEn= 0.00D+00
 Coeff-Com:  0.968D-07-0.194D-06-0.480D-06-0.764D-06-0.163D-05 0.647D-05
 Coeff-Com:  0.548D-04 0.386D-04-0.242D-03-0.524D-03-0.102D-03 0.346D-02
 Coeff-Com:  0.719D-02-0.161D-02-0.588D-01-0.880D-01 0.136D+00 0.100D+01
 Coeff:      0.968D-07-0.194D-06-0.480D-06-0.764D-06-0.163D-05 0.647D-05
 Coeff:      0.548D-04 0.386D-04-0.242D-03-0.524D-03-0.102D-03 0.346D-02
 Coeff:      0.719D-02-0.161D-02-0.588D-01-0.880D-01 0.136D+00 0.100D+01
 Gap=     0.239 Goal=   None    Shift=    0.000
 RMSDP=4.96D-09 MaxDP=3.96D-07 DE= 8.19D-12 OVMax= 2.27D-07

 SCF Done:  E(RwB97XD) =  -977.679203800     A.U. after   18 cycles
            NFock= 18  Conv=0.50D-08     -V/T= 2.0045
 KE= 9.732762322738D+02 PE=-5.484607118334D+03 EE= 1.930430556337D+03
 Leave Link  502 at Sat Nov  4 11:43:59 2017, MaxMem=  3758096384 cpu:      3207.5
 (Enter /share/apps/gaussian/g09_D01/g09/l801.exe)
 DoSCS=F DFT=T ScalE2(SS,OS)=  1.000000  1.000000
 ExpMin= 3.60D-02 ExpMax= 8.59D+03 ExpMxC= 1.30D+03 IAcc=3 IRadAn=         5 AccDes= 0.00D+00
 HarFok:  IExCor=  205 AccDes= 0.00D+00 IRadAn=         5 IDoV=-2 UseB2=F ITyADJ=14
 ICtDFT= 12500011 ScaDFX=  1.000000  1.000000  1.000000  1.000000
 Largest valence mixing into a core orbital is  5.69D-05
 Largest core mixing into a valence orbital is  1.56D-05
 Range of M.O.s used for correlation:    23   609
 NBasis=   617 NAE=    79 NBE=    79 NFC=    22 NFV=     0
 NROrb=    587 NOA=    57 NOB=    57 NVA=   530 NVB=   530

 **** Warning!!: The largest alpha MO coefficient is  0.14014942D+03

 Leave Link  801 at Sat Nov  4 11:44:01 2017, MaxMem=  3758096384 cpu:         3.6
 (Enter /share/apps/gaussian/g09_D01/g09/l914.exe)
 RHF ground state
 MDV=  3758096384 DFT=T DoStab=F Mixed=T DoRPA=T DoScal=F NonHer=T
 Would need an additional        105423900000 words for in-memory AO integral storage.
 Making orbital integer symmetry assigments:
    16 initial guesses have been made.
 Convergence on wavefunction:    0.001000000000000
 Davidson Disk Diagonalization:  ConvIn= 1.00D-03 SkipCon=T Conv= 1.00D-03.
 Max sub-space:   200 roots to seek:    16 dimension of matrix:        60420
 Iteration     1 Dimension    16 NMult     0 NNew     16
 CISAX will form    16 AO SS matrices at one time.
 NMat=    16 NSing=    16 JSym2X= 0.
 FoFJK:  IHMeth= 1 ICntrl=       0 DoSepK=T KAlg= 0 I1Cent=   0 FoldK=F
 IRaf=         1 NMat=  32 IRICut=       1 DoRegI=T DoRafI=F ISym2E= 0.
 FoFCou: FMM=F IPFlag=           0 FMFlag=      100000 FMFlg1=           0
         NFxFlg=           0 DoJE=F BraDBF=F KetDBF=F FulRan=T
         wScrn=  0.000000 ICntrl=     500 IOpCl=  0 I1Cent=           0 NGrid=           0
         NMat0=   16 NMatS0=     16 NMatT0=    0 NMatD0=   16 NMtDS0=    0 NMtDT0=    0
 Symmetry not used in FoFCou.
 New state      3 was old state     11
 New state      4 was old state     15
 Excitation Energies [eV] at current iteration:
 Root      1 :     3.703052907485833
 Root      2 :     4.244674793347021
 Root      3 :     4.270408250134845
 Root      4 :     5.354661944877122
 Root      5 :     5.483756478279636
 Root      6 :     5.575339058264170
 Root      7 :     5.795044321897182
 Root      8 :     5.926336979941568
 Root      9 :     5.957393607596630
 Root     10 :     5.965975834303669
 Root     11 :     6.292542793759389
 Root     12 :     6.324810136307632
 Root     13 :     6.386303260102880
 Root     14 :     6.915010942064598
 Root     15 :     7.158592771999262
 Root     16 :     7.228430487204038
 Iteration     2 Dimension    24 NMult    16 NNew      8
 CISAX will form     8 AO SS matrices at one time.
 NMat=     8 NSing=     8 JSym2X= 0.
 Root      1 not converged, maximum delta is    0.078850892079750
 Root      2 not converged, maximum delta is    0.219691443377935
 Root      3 not converged, maximum delta is    0.197347807174663
 Root      4 not converged, maximum delta is    0.267514047489799
 Excitation Energies [eV] at current iteration:
 Root      1 :     3.281041145765376   Change is   -0.422011761720457
 Root      2 :     3.687687754468298   Change is   -0.556987038878723
 Root      3 :     3.827365842249391   Change is   -0.443042407885454
 Root      4 :     4.613552086899865   Change is   -0.741109857977256
 Iteration     3 Dimension    32 NMult    24 NNew      8
 CISAX will form     8 AO SS matrices at one time.
 NMat=     8 NSing=     8 JSym2X= 0.
 Root      1 not converged, maximum delta is    0.015589334534632
 Root      2 not converged, maximum delta is    0.023063263568312
 Root      3 not converged, maximum delta is    0.015190421201389
 Root      4 not converged, maximum delta is    0.057948568499505
 Excitation Energies [eV] at current iteration:
 Root      1 :     3.248257077695143   Change is   -0.032784068070233
 Root      2 :     3.642990772502335   Change is   -0.044696981965963
 Root      3 :     3.801227131992926   Change is   -0.026138710256465
 Root      4 :     4.518146074213899   Change is   -0.095406012685966
 Iteration     4 Dimension    40 NMult    32 NNew      8
 CISAX will form     8 AO SS matrices at one time.
 NMat=     8 NSing=     8 JSym2X= 0.
 Root      1 not converged, maximum delta is    0.007148052704561
 Root      2 not converged, maximum delta is    0.010269522181336
 Root      3 not converged, maximum delta is    0.005160096075909
 Root      4 not converged, maximum delta is    0.022989758956674
 Excitation Energies [eV] at current iteration:
 Root      1 :     3.242220999466285   Change is   -0.006036078228859
 Root      2 :     3.633867689217548   Change is   -0.009123083284786
 Root      3 :     3.799334502025068   Change is   -0.001892629967858
 Root      4 :     4.505625527666708   Change is   -0.012520546547191
 Iteration     5 Dimension    48 NMult    40 NNew      8
 CISAX will form     8 AO SS matrices at one time.
 NMat=     8 NSing=     8 JSym2X= 0.
 Root      1 not converged, maximum delta is    0.002046115480209
 Root      2 not converged, maximum delta is    0.002629383403200
 Root      3 not converged, maximum delta is    0.001433279734220
 Root      4 not converged, maximum delta is    0.013148683182910
 Excitation Energies [eV] at current iteration:
 Root      1 :     3.241592853774319   Change is   -0.000628145691965
 Root      2 :     3.632699157678192   Change is   -0.001168531539357
 Root      3 :     3.799196844788625   Change is   -0.000137657236443
 Root      4 :     4.502728492673228   Change is   -0.002897034993480
 Iteration     6 Dimension    56 NMult    48 NNew      8
 CISAX will form     8 AO SS matrices at one time.
 NMat=     8 NSing=     8 JSym2X= 0.
 Root      1 has converged.
 Root      2 has converged.
 Root      3 has converged.
 Root      4 not converged, maximum delta is    0.010546187791866
 Excitation Energies [eV] at current iteration:
 Root      1 :     3.241529595379413   Change is   -0.000063258394906
 Root      2 :     3.632560833253204   Change is   -0.000138324424988
 Root      3 :     3.799182894582872   Change is   -0.000013950205753
 Root      4 :     4.501541482039626   Change is   -0.001187010633601
 Iteration     7 Dimension    58 NMult    56 NNew      2
 CISAX will form     2 AO SS matrices at one time.
 NMat=     2 NSing=     2 JSym2X= 0.
 Root      1 has converged.
 Root      2 has converged.
 Root      3 has converged.
 Root      4 not converged, maximum delta is    0.004712774059981
 Excitation Energies [eV] at current iteration:
 Root      1 :     3.241529454835145   Change is   -0.000000140544268
 Root      2 :     3.632560125064110   Change is   -0.000000708189094
 Root      3 :     3.799182871703216   Change is   -0.000000022879657
 Root      4 :     4.501235883997870   Change is   -0.000305598041757
 Iteration     8 Dimension    60 NMult    58 NNew      2
 CISAX will form     2 AO SS matrices at one time.
 NMat=     2 NSing=     2 JSym2X= 0.
 Root      1 has converged.
 Root      2 has converged.
 Root      3 has converged.
 Root      4 not converged, maximum delta is    0.001186795980072
 Excitation Energies [eV] at current iteration:
 Root      1 :     3.241529155666301   Change is   -0.000000299168845
 Root      2 :     3.632560028050150   Change is   -0.000000097013960
 Root      3 :     3.799182838859315   Change is   -0.000000032843901
 Root      4 :     4.501170685174807   Change is   -0.000065198823063
 Iteration     9 Dimension    62 NMult    60 NNew      2
 CISAX will form     2 AO SS matrices at one time.
 NMat=     2 NSing=     2 JSym2X= 0.
 Root      1 has converged.
 Root      2 has converged.
 Root      3 has converged.
 Root      4 has converged.
 Excitation Energies [eV] at current iteration:
 Root      1 :     3.241528463626996   Change is   -0.000000692039305
 Root      2 :     3.632559982036024   Change is   -0.000000046014126
 Root      3 :     3.799182824919506   Change is   -0.000000013939809
 Root      4 :     4.501162012729248   Change is   -0.000008672445559
 Convergence achieved on expansion vectors.
 ***********************************************************************
 Excited states from <AA,BB:AA,BB> singles matrix:
 ***********************************************************************
 
 1PDM for each excited state written to RWF  633
 Ground to excited state transition densities written to RWF  633
 Ground to excited state transition electric dipole moments (Au):
       state          X           Y           Z        Dip. S.      Osc.
         1        -0.3330      0.5772      3.1343     10.2680      0.8154
         2         0.2903     -0.4337     -2.0781      4.5910      0.4086
         3         0.0280     -0.0714     -0.2416      0.0643      0.0060
         4        -0.3858      0.0851     -0.5084      0.4146      0.0457
 Ground to excited state transition velocity dipole moments (Au):
       state          X           Y           Z        Dip. S.      Osc.
         1         0.0440     -0.0697     -0.3712      0.1446      0.8093
         2        -0.0357      0.0554      0.2697      0.0771      0.3849
         3        -0.0032      0.0116      0.0320      0.0012      0.0056
         4         0.0707     -0.0171      0.0825      0.0121      0.0487
 Ground to excited state transition magnetic dipole moments (Au):
       state          X           Y           Z
         1        -2.1293     -1.8552      0.0888
         2         1.9825      2.4285     -0.2044
         3         0.8090      0.1283     -0.0849
         4        -0.1795     -1.2200     -0.1187
 Ground to excited state transition velocity quadrupole moments (Au):
       state          XX          YY          ZZ          XY          XZ          YZ
         1        -0.2653     -0.1885     14.5268      0.2036     -0.1891      0.8175
         2         0.2349      0.0335    -13.0320     -0.0781      0.7743     -1.2535
         3        -0.0052      0.0448     -1.4720     -0.0481      0.0632     -0.2320
         4        -0.1381      0.0007     -3.7388      0.0136     -2.0804      0.6258
 <0|del|b> * <b|rxdel|0> + <0|del|b> * <b|delr+rdel|0>
 Rotatory Strengths (R) in cgs (10**-40 erg-esu-cm/Gauss)
       state          XX          YY          ZZ    R(velocity)    E-M Angle
         1        22.5374    -45.0125     37.8463      5.1238       89.86
         2        40.9892   -159.1121    163.9953     15.2908       89.43
         3        -8.8793     -7.6320     -2.7734     -6.4282       97.77
         4       -50.0710     44.0703     -0.6890     -2.2299       90.66
 1/2[<0|r|b>*<b|rxdel|0> + (<0|rxdel|b>*<b|r|0>)*]
 Rotatory Strengths (R) in cgs (10**-40 erg-esu-cm/Gauss)
       state          XX          YY          ZZ     R(length)
         1      -501.3602    757.2780   -196.9266     19.6637
         2      -406.9484    744.7860   -300.3193     12.5061
         3       -16.0293      6.4769    -14.4978     -8.0167
         4       -48.9765     73.4493    -42.6754     -6.0675
  1/2[<0|del|b>*<b|r|0> + (<0|r|b>*<b|del|0>)*] (Au)
       state          X           Y           Z        Dip. S.   Osc.(frdel)
         1        -0.0147     -0.0402     -1.1635      1.2184      0.8123
         2        -0.0104     -0.0240     -0.5604      0.5948      0.3966
         3        -0.0001     -0.0008     -0.0077      0.0087      0.0058
         4        -0.0273     -0.0015     -0.0420      0.0707      0.0471

 Excitation energies and oscillator strengths:
 
 Excited state symmetry could not be determined.
 Excited State   1:      Singlet-?Sym    3.2415 eV  382.49 nm  f=0.8154  <S**2>=0.000
      78 -> 80         0.16087
      78 -> 82        -0.17746
      79 -> 80         0.64738
 This state for optimization and/or second-order correction.
 Total Energy, E(TD-HF/TD-KS) =  -977.560079815    
 Copying the excited state density for this state as the 1-particle RhoCI density.
 
 Excited state symmetry could not be determined.
 Excited State   2:      Singlet-?Sym    3.6326 eV  341.31 nm  f=0.4086  <S**2>=0.000
      78 -> 80         0.63780
      79 -> 80        -0.17061
      79 -> 82        -0.17250
 
 Excited state symmetry could not be determined.
 Excited State   3:      Singlet-?Sym    3.7992 eV  326.34 nm  f=0.0060  <S**2>=0.000
      76 -> 80         0.66004
      76 -> 82        -0.12967
 
 Excited state symmetry could not be determined.
 Excited State   4:      Singlet-?Sym    4.5012 eV  275.45 nm  f=0.0457  <S**2>=0.000
      75 -> 80        -0.26250
      75 -> 82        -0.13345
      78 -> 82        -0.13570
      78 -> 85        -0.33168
      79 -> 82         0.21848
      79 -> 85         0.45078
 SavETr:  write IOETrn=   770 NScale= 10 NData=  16 NLR=1 NState=    4 LETran=      82.
 Leave Link  914 at Sat Nov  4 12:47:24 2017, MaxMem=  3758096384 cpu:      7605.3
 (Enter /share/apps/gaussian/g09_D01/g09/l601.exe)
 Copying SCF densities to generalized density rwf, IOpCl= 0 IROHF=0.

 **********************************************************************

            Population analysis using the SCF density.

 **********************************************************************

 Alpha  occ. eigenvalues --  -19.27611 -19.24002 -19.23254 -14.47632 -10.38109
 Alpha  occ. eigenvalues --  -10.35290 -10.34855 -10.34492 -10.34036 -10.33534
 Alpha  occ. eigenvalues --  -10.33480 -10.31433 -10.30713 -10.30498 -10.29908
 Alpha  occ. eigenvalues --  -10.29877 -10.29872 -10.29828 -10.29533 -10.29503
 Alpha  occ. eigenvalues --  -10.28785 -10.28476  -1.16261  -1.14748  -1.11050
 Alpha  occ. eigenvalues --   -1.07852  -0.97112  -0.95566  -0.90958  -0.87452
 Alpha  occ. eigenvalues --   -0.86999  -0.85277  -0.84521  -0.84025  -0.79246
 Alpha  occ. eigenvalues --   -0.78852  -0.74834  -0.72285  -0.71488  -0.68931
 Alpha  occ. eigenvalues --   -0.67490  -0.64567  -0.63206  -0.62197  -0.60664
 Alpha  occ. eigenvalues --   -0.59168  -0.58450  -0.57777  -0.57687  -0.55767
 Alpha  occ. eigenvalues --   -0.55463  -0.54486  -0.53767  -0.52562  -0.52181
 Alpha  occ. eigenvalues --   -0.51430  -0.51409  -0.51231  -0.50870  -0.50046
 Alpha  occ. eigenvalues --   -0.49026  -0.48376  -0.48226  -0.47195  -0.46651
 Alpha  occ. eigenvalues --   -0.46332  -0.45631  -0.44457  -0.43531  -0.42535
 Alpha  occ. eigenvalues --   -0.41593  -0.41220  -0.38047  -0.35042  -0.34823
 Alpha  occ. eigenvalues --   -0.34129  -0.33719  -0.27735  -0.26719
 Alpha virt. eigenvalues --   -0.02788   0.02718   0.03213   0.04017   0.04261
 Alpha virt. eigenvalues --    0.04564   0.04710   0.05710   0.06189   0.06251
 Alpha virt. eigenvalues --    0.06629   0.07513   0.07727   0.07904   0.08015
 Alpha virt. eigenvalues --    0.08210   0.08458   0.08961   0.09802   0.09983
 Alpha virt. eigenvalues --    0.10338   0.10670   0.11398   0.11559   0.12149
 Alpha virt. eigenvalues --    0.12457   0.12772   0.13501   0.13676   0.14161
 Alpha virt. eigenvalues --    0.14425   0.14597   0.14786   0.15125   0.15668
 Alpha virt. eigenvalues --    0.15828   0.15958   0.16257   0.16417   0.16832
 Alpha virt. eigenvalues --    0.16896   0.17165   0.17618   0.17778   0.18002
 Alpha virt. eigenvalues --    0.18357   0.18632   0.19139   0.19214   0.19442
 Alpha virt. eigenvalues --    0.19809   0.20104   0.20355   0.20658   0.21137
 Alpha virt. eigenvalues --    0.21239   0.21339   0.21520   0.21704   0.21950
 Alpha virt. eigenvalues --    0.22197   0.22358   0.22992   0.23255   0.23386
 Alpha virt. eigenvalues --    0.23623   0.23964   0.24134   0.24364   0.24443
 Alpha virt. eigenvalues --    0.24731   0.25305   0.25648   0.25932   0.26395
 Alpha virt. eigenvalues --    0.26613   0.26778   0.27069   0.27778   0.27873
 Alpha virt. eigenvalues --    0.27993   0.28609   0.28847   0.29111   0.29420
 Alpha virt. eigenvalues --    0.29490   0.29996   0.30832   0.30976   0.31190
 Alpha virt. eigenvalues --    0.31354   0.31513   0.32091   0.32302   0.32417
 Alpha virt. eigenvalues --    0.32916   0.33445   0.34011   0.34324   0.34374
 Alpha virt. eigenvalues --    0.34514   0.34842   0.35122   0.35722   0.36274
 Alpha virt. eigenvalues --    0.36758   0.37144   0.37211   0.37429   0.37744
 Alpha virt. eigenvalues --    0.38246   0.38558   0.38832   0.39032   0.39292
 Alpha virt. eigenvalues --    0.39744   0.39922   0.40392   0.41105   0.41264
 Alpha virt. eigenvalues --    0.41389   0.41965   0.42662   0.42718   0.43148
 Alpha virt. eigenvalues --    0.43702   0.43958   0.45393   0.45600   0.45671
 Alpha virt. eigenvalues --    0.46190   0.46973   0.48505   0.48685   0.48975
 Alpha virt. eigenvalues --    0.49616   0.49937   0.50074   0.50608   0.51307
 Alpha virt. eigenvalues --    0.51993   0.52689   0.53391   0.54199   0.55266
 Alpha virt. eigenvalues --    0.55967   0.57824   0.58530   0.59390   0.60178
 Alpha virt. eigenvalues --    0.61064   0.61473   0.62088   0.62249   0.62899
 Alpha virt. eigenvalues --    0.63212   0.63962   0.64304   0.64429   0.65148
 Alpha virt. eigenvalues --    0.65918   0.66607   0.66821   0.67069   0.67762
 Alpha virt. eigenvalues --    0.68419   0.69114   0.69641   0.69956   0.70580
 Alpha virt. eigenvalues --    0.70946   0.71246   0.71687   0.72335   0.72598
 Alpha virt. eigenvalues --    0.73255   0.73328   0.73787   0.74077   0.74810
 Alpha virt. eigenvalues --    0.75099   0.76054   0.76387   0.76566   0.77002
 Alpha virt. eigenvalues --    0.77106   0.78521   0.78683   0.79157   0.79401
 Alpha virt. eigenvalues --    0.79820   0.80209   0.80610   0.81227   0.81814
 Alpha virt. eigenvalues --    0.82986   0.83363   0.84216   0.85334   0.85946
 Alpha virt. eigenvalues --    0.86828   0.87012   0.87620   0.89164   0.90015
 Alpha virt. eigenvalues --    0.90293   0.91641   0.92904   0.93812   0.94555
 Alpha virt. eigenvalues --    0.95059   0.96210   0.96788   0.97047   0.97295
 Alpha virt. eigenvalues --    0.98524   0.98811   0.99243   0.99979   1.00677
 Alpha virt. eigenvalues --    1.01160   1.01776   1.02033   1.03685   1.04151
 Alpha virt. eigenvalues --    1.04170   1.05238   1.05956   1.06298   1.06761
 Alpha virt. eigenvalues --    1.07711   1.08090   1.08884   1.09502   1.10046
 Alpha virt. eigenvalues --    1.11162   1.11675   1.13022   1.13668   1.13983
 Alpha virt. eigenvalues --    1.14401   1.15433   1.15543   1.16165   1.16979
 Alpha virt. eigenvalues --    1.18329   1.19357   1.19439   1.20044   1.20572
 Alpha virt. eigenvalues --    1.21023   1.21489   1.22205   1.23847   1.26181
 Alpha virt. eigenvalues --    1.28404   1.31084   1.32380   1.33366   1.34318
 Alpha virt. eigenvalues --    1.35480   1.36206   1.37386   1.38567   1.39256
 Alpha virt. eigenvalues --    1.40573   1.42200   1.42510   1.47091   1.47822
 Alpha virt. eigenvalues --    1.49152   1.50276   1.51510   1.51735   1.53245
 Alpha virt. eigenvalues --    1.53827   1.54489   1.55769   1.56195   1.57397
 Alpha virt. eigenvalues --    1.57965   1.58962   1.59258   1.60788   1.61200
 Alpha virt. eigenvalues --    1.62002   1.62615   1.63110   1.63341   1.63442
 Alpha virt. eigenvalues --    1.63600   1.64660   1.64990   1.66064   1.66799
 Alpha virt. eigenvalues --    1.67680   1.68276   1.68591   1.68890   1.69624
 Alpha virt. eigenvalues --    1.70320   1.70761   1.74109   1.74996   1.75431
 Alpha virt. eigenvalues --    1.76199   1.77363   1.78660   1.79160   1.79601
 Alpha virt. eigenvalues --    1.80478   1.80695   1.80962   1.81330   1.82193
 Alpha virt. eigenvalues --    1.83003   1.84413   1.84924   1.85070   1.86496
 Alpha virt. eigenvalues --    1.87597   1.88767   1.89025   1.91273   1.93384
 Alpha virt. eigenvalues --    1.93754   1.94290   1.95041   1.96134   1.96869
 Alpha virt. eigenvalues --    1.98529   1.99677   2.00494   2.01040   2.01689
 Alpha virt. eigenvalues --    2.02076   2.02651   2.03951   2.04855   2.05444
 Alpha virt. eigenvalues --    2.06669   2.07787   2.08507   2.08988   2.09386
 Alpha virt. eigenvalues --    2.10610   2.12732   2.14173   2.14670   2.15795
 Alpha virt. eigenvalues --    2.16080   2.16770   2.17571   2.18299   2.18967
 Alpha virt. eigenvalues --    2.20382   2.21299   2.21975   2.23871   2.24562
 Alpha virt. eigenvalues --    2.25314   2.26232   2.27496   2.27838   2.29227
 Alpha virt. eigenvalues --    2.31935   2.35243   2.36063   2.37265   2.39592
 Alpha virt. eigenvalues --    2.41272   2.42586   2.43233   2.45199   2.47707
 Alpha virt. eigenvalues --    2.48322   2.49262   2.50318   2.52756   2.54161
 Alpha virt. eigenvalues --    2.54849   2.54938   2.55394   2.55538   2.56896
 Alpha virt. eigenvalues --    2.57390   2.57581   2.61702   2.62100   2.63348
 Alpha virt. eigenvalues --    2.64733   2.67155   2.68396   2.68933   2.70122
 Alpha virt. eigenvalues --    2.72493   2.73326   2.74404   2.74956   2.76751
 Alpha virt. eigenvalues --    2.77095   2.78044   2.78746   2.78992   2.79461
 Alpha virt. eigenvalues --    2.79856   2.81525   2.82213   2.82753   2.84056
 Alpha virt. eigenvalues --    2.84429   2.85435   2.85806   2.86554   2.88341
 Alpha virt. eigenvalues --    2.89541   2.90350   2.91098   2.91854   2.92297
 Alpha virt. eigenvalues --    2.93858   2.94008   2.94828   2.96036   2.96899
 Alpha virt. eigenvalues --    2.97190   2.99520   3.01126   3.01999   3.03070
 Alpha virt. eigenvalues --    3.03544   3.05287   3.07029   3.07267   3.09661
 Alpha virt. eigenvalues --    3.12854   3.15204   3.17601   3.18341   3.19093
 Alpha virt. eigenvalues --    3.20140   3.21131   3.22434   3.22706   3.23254
 Alpha virt. eigenvalues --    3.26975   3.29535   3.30547   3.31087   3.32397
 Alpha virt. eigenvalues --    3.33109   3.34596   3.37878   3.38746   3.41587
 Alpha virt. eigenvalues --    3.43124   3.45945   3.47592   3.49669   3.52518
 Alpha virt. eigenvalues --    3.58424   3.60189   3.60732   3.62454   3.63863
 Alpha virt. eigenvalues --    3.66091   3.67108   3.73088   3.76044   3.76888
 Alpha virt. eigenvalues --    3.77823   3.78347   3.78603   3.79578   3.86060
 Alpha virt. eigenvalues --    3.86634   3.88419   3.89761   3.91777   3.92714
 Alpha virt. eigenvalues --    4.02079   4.05514   4.07823   4.10019   4.12968
 Alpha virt. eigenvalues --    4.17028   4.19069   4.25898   4.26754   4.28512
 Alpha virt. eigenvalues --    4.30378   4.33077   4.37416   4.53875   4.77856
 Alpha virt. eigenvalues --    4.93187   4.94808   5.00463   5.15130   5.15990
 Alpha virt. eigenvalues --    5.17903   5.18804   5.37970   5.52963   5.64753
 Alpha virt. eigenvalues --    5.83034   5.89334   5.96176  23.71827  23.79479
 Alpha virt. eigenvalues --   23.94107  24.01945  24.02577  24.03575  24.03945
 Alpha virt. eigenvalues --   24.04413  24.08046  24.08344  24.09377  24.13679
 Alpha virt. eigenvalues --   24.14471  24.22073  24.25654  24.29917  24.30408
 Alpha virt. eigenvalues --   24.31359  35.73810  50.10296  50.14511  50.18505
          Condensed to atoms (all electrons):
               1          2          3          4          5          6
     1  C   10.005616   1.520905   0.519611  -0.717065  -2.388427  -0.342233
     2  C    1.520905   9.801752  -0.114865  -1.734077  -2.717436   0.317965
     3  H    0.519611  -0.114865   0.468088  -0.059569  -0.121652  -0.026569
     4  C   -0.717065  -1.734077  -0.059569  12.542380   0.415734   0.001966
     5  C   -2.388427  -2.717436  -0.121652   0.415734  17.232271   0.113297
     6  O   -0.342233   0.317965  -0.026569   0.001966   0.113297   8.166191
     7  C   -2.295596   0.385167   0.058583  -1.299841  -4.644945  -0.008005
     8  H   -0.046528  -0.028884  -0.018554   0.636264   0.163736   0.001595
     9  C    0.539200  -1.886123   0.026830  -1.304442   0.645034  -0.116013
    10  C   -1.008625   0.329270   0.000649  -1.501147  -0.462164   0.008566
    11  H    0.024955   0.027469  -0.000190   0.012123  -0.079358   0.223449
    12  O    0.086857   0.019620  -0.000306   0.080654   0.019070   0.000299
    13  C    0.488928   0.105065   0.009578  -0.402307  -1.571034  -0.048795
    14  O   -0.011501  -0.202850   0.000931  -0.023624  -0.173866   0.016240
    15  H   -0.025830   0.177984   0.002229  -0.216081  -0.354843  -0.000430
    16  C   -0.276181  -0.017775   0.004201  -0.423814  -0.211097  -0.000753
    17  C    0.209786   0.346657   0.006915  -0.270962  -0.963601   0.036023
    18  H    0.009822  -0.096829  -0.000322  -0.002366  -0.046310  -0.001801
    19  H    0.012777   0.006620   0.001251  -0.018099   0.004916   0.000135
    20  H   -0.016884  -0.005328   0.000255  -0.018396   0.005032  -0.000034
    21  H    0.029397   0.009062   0.000183   0.089469  -0.024324   0.000027
    22  C   -0.044991  -0.085997  -0.000648   0.015401  -0.249378   0.000436
    23  H    0.005987   0.008721  -0.000017  -0.001471  -0.022988  -0.001135
    24  C    0.003577  -0.011930   0.000019  -0.002604  -0.089262  -0.001078
    25  C    0.038440   0.234872   0.000630  -0.020300   0.156015   0.000658
    26  C   -0.000038  -0.006440  -0.000025   0.000560  -0.054849  -0.000299
    27  H    0.000152   0.000888   0.000010  -0.000011   0.000744   0.000027
    28  C    0.000498   0.023947   0.000038   0.001830   0.099971   0.000131
    29  H   -0.000068   0.014768   0.000000   0.008388   0.013792   0.000127
    30  H   -0.000042  -0.000230  -0.000001   0.000004  -0.000116   0.000001
    31  C    0.000942   0.013452   0.000012   0.000272   0.021220  -0.000050
    32  H   -0.000114  -0.001639  -0.000002  -0.000111  -0.003763  -0.000001
    33  N   -0.000001  -0.000021   0.000000   0.000001  -0.000018   0.000000
    34  C   -0.000007  -0.000086   0.000000   0.000011   0.000061   0.000000
    35  C    0.000000   0.000025   0.000000   0.000002  -0.000317   0.000000
    36  H    0.000002   0.000022   0.000000  -0.000001   0.000070   0.000000
    37  H    0.000002   0.000017   0.000000  -0.000002   0.000034   0.000000
    38  H    0.000000  -0.000006   0.000000   0.000000   0.000010   0.000000
    39  H    0.000000   0.000003   0.000000   0.000000   0.000013   0.000000
    40  H    0.000000   0.000001   0.000000   0.000000  -0.000024   0.000000
    41  H    0.000000   0.000001   0.000000   0.000000   0.000025   0.000000
               7          8          9         10         11         12
     1  C   -2.295596  -0.046528   0.539200  -1.008625   0.024955   0.086857
     2  C    0.385167  -0.028884  -1.886123   0.329270   0.027469   0.019620
     3  H    0.058583  -0.018554   0.026830   0.000649  -0.000190  -0.000306
     4  C   -1.299841   0.636264  -1.304442  -1.501147   0.012123   0.080654
     5  C   -4.644945   0.163736   0.645034  -0.462164  -0.079358   0.019070
     6  O   -0.008005   0.001595  -0.116013   0.008566   0.223449   0.000299
     7  C   14.178442  -0.296352  -2.329017   4.787840   0.038586   0.019450
     8  H   -0.296352   0.520775   0.003148  -0.077308  -0.000228  -0.015118
     9  C   -2.329017   0.003148  13.598192  -3.281277  -0.001319   0.006849
    10  C    4.787840  -0.077308  -3.281277  15.018277   0.086325  -0.179817
    11  H    0.038586  -0.000228  -0.001319   0.086325   0.291907   0.000481
    12  O    0.019450  -0.015118   0.006849  -0.179817   0.000481   8.142976
    13  C   -1.800383  -0.002978   2.270508  -3.930191  -0.037139  -0.002331
    14  O   -0.007836  -0.000328   0.777437  -0.059412   0.086577   0.000105
    15  H    0.319960  -0.009879  -0.252246   0.988751   0.004914  -0.045390
    16  C    0.516643  -0.021366  -0.042718   0.209973   0.000451   0.146859
    17  C   -0.534657  -0.004195  -1.710496  -2.679349  -0.056948  -0.003039
    18  H   -0.217252   0.000946   0.132072  -0.207059  -0.002722   0.000386
    19  H   -0.048444  -0.015750   0.004154   0.018366   0.000007  -0.025360
    20  H    0.060052   0.002034  -0.000300   0.014478  -0.000032  -0.069172
    21  H   -0.087624  -0.003982  -0.003656  -0.026004   0.000095  -0.042569
    22  C   -0.024534   0.000382  -0.569006  -0.319711  -0.006860  -0.000671
    23  H   -0.006488   0.000016  -0.013062  -0.024068  -0.000328  -0.000089
    24  C   -0.025734   0.000042  -0.082479   0.040504   0.000742   0.000057
    25  C   -0.044491  -0.000508  -0.753419  -0.410741  -0.004586  -0.000643
    26  C   -0.004048   0.000023   0.267736   0.054886  -0.000174   0.000019
    27  H    0.000182  -0.000002   0.010897   0.001601   0.000007   0.000002
    28  C    0.022101  -0.000066  -0.083419  -0.101132   0.000208  -0.000261
    29  H    0.028032  -0.000051   0.003783  -0.023467   0.000154   0.000476
    30  H    0.000039   0.000000  -0.000147   0.000171   0.000020   0.000000
    31  C    0.001357  -0.000010  -0.025832  -0.042916  -0.000407  -0.000056
    32  H   -0.001297   0.000005  -0.001872   0.002238  -0.000020  -0.000004
    33  N    0.000012   0.000000   0.001050   0.000183   0.000002   0.000000
    34  C    0.000093   0.000000   0.000773  -0.000032  -0.000001   0.000000
    35  C   -0.000001   0.000000   0.002702   0.000127  -0.000003   0.000000
    36  H    0.000006   0.000000   0.000260   0.000065   0.000000   0.000000
    37  H   -0.000010   0.000000  -0.000016  -0.000035   0.000000   0.000000
    38  H    0.000006   0.000000  -0.000044  -0.000008   0.000000   0.000000
    39  H   -0.000001   0.000000  -0.000274  -0.000029   0.000000   0.000000
    40  H   -0.000001   0.000000   0.000180   0.000016   0.000000   0.000000
    41  H    0.000001   0.000000  -0.000098  -0.000008   0.000000   0.000000
              13         14         15         16         17         18
     1  C    0.488928  -0.011501  -0.025830  -0.276181   0.209786   0.009822
     2  C    0.105065  -0.202850   0.177984  -0.017775   0.346657  -0.096829
     3  H    0.009578   0.000931   0.002229   0.004201   0.006915  -0.000322
     4  C   -0.402307  -0.023624  -0.216081  -0.423814  -0.270962  -0.002366
     5  C   -1.571034  -0.173866  -0.354843  -0.211097  -0.963601  -0.046310
     6  O   -0.048795   0.016240  -0.000430  -0.000753   0.036023  -0.001801
     7  C   -1.800383  -0.007836   0.319960   0.516643  -0.534657  -0.217252
     8  H   -0.002978  -0.000328  -0.009879  -0.021366  -0.004195   0.000946
     9  C    2.270508   0.777437  -0.252246  -0.042718  -1.710496   0.132072
    10  C   -3.930191  -0.059412   0.988751   0.209973  -2.679349  -0.207059
    11  H   -0.037139   0.086577   0.004914   0.000451  -0.056948  -0.002722
    12  O   -0.002331   0.000105  -0.045390   0.146859  -0.003039   0.000386
    13  C   11.463920  -0.308806  -0.235144  -0.016373   1.418689   0.878798
    14  O   -0.308806   8.120439   0.002615   0.000025   0.103178  -0.008485
    15  H   -0.235144   0.002615   0.644177   0.028089  -0.107357  -0.065968
    16  C   -0.016373   0.000025   0.028089   5.285159  -0.002499  -0.002176
    17  C    1.418689   0.103178  -0.107357  -0.002499   9.406730   0.066364
    18  H    0.878798  -0.008485  -0.065968  -0.002176   0.066364   0.879529
    19  H    0.001542   0.000002  -0.003166   0.400698   0.000775   0.000017
    20  H   -0.000419   0.000006  -0.000737   0.399946  -0.000124   0.000695
    21  H   -0.001010  -0.000001   0.000806   0.397441  -0.000077  -0.000706
    22  C   -1.083976   0.043094  -0.049750  -0.000194   0.383770   0.039305
    23  H    0.029008   0.001991  -0.000398   0.000035   0.364783   0.007894
    24  C   -0.132968  -0.019139   0.000629  -0.000046  -1.058697   0.056115
    25  C   -1.224206   0.014272  -0.002122   0.000173   0.352441  -0.099867
    26  C    0.736993  -0.003884   0.001580   0.000002   0.441398   0.050665
    27  H    0.030608   0.000020   0.000276  -0.000002   0.057698   0.001975
    28  C   -0.560927   0.001048  -0.000604   0.000146   0.058565  -0.133142
    29  H   -0.162136   0.002016  -0.007034  -0.000087  -0.057367  -0.054113
    30  H   -0.012563   0.000037   0.000016   0.000000  -0.007039  -0.000818
    31  C   -0.291741  -0.000587  -0.004218   0.000021  -0.107416  -0.037178
    32  H    0.038632   0.000025  -0.000187  -0.000007   0.032193   0.012431
    33  N    0.001146  -0.000001   0.000053   0.000000  -0.003950  -0.000943
    34  C    0.005897   0.000006  -0.000029   0.000000   0.003249  -0.001000
    35  C   -0.002293   0.000000  -0.000009   0.000000   0.031221   0.000149
    36  H    0.000356  -0.000001   0.000061   0.000000  -0.001034  -0.000465
    37  H   -0.000780  -0.000001  -0.000001   0.000000  -0.000508  -0.000149
    38  H    0.000070   0.000000  -0.000003   0.000000  -0.001170  -0.000062
    39  H   -0.000638   0.000000  -0.000004   0.000000  -0.001537   0.000062
    40  H    0.000368   0.000000   0.000001   0.000000   0.003873   0.000054
    41  H    0.000403  -0.000001  -0.000001   0.000000  -0.001619  -0.000009
              19         20         21         22         23         24
     1  C    0.012777  -0.016884   0.029397  -0.044991   0.005987   0.003577
     2  C    0.006620  -0.005328   0.009062  -0.085997   0.008721  -0.011930
     3  H    0.001251   0.000255   0.000183  -0.000648  -0.000017   0.000019
     4  C   -0.018099  -0.018396   0.089469   0.015401  -0.001471  -0.002604
     5  C    0.004916   0.005032  -0.024324  -0.249378  -0.022988  -0.089262
     6  O    0.000135  -0.000034   0.000027   0.000436  -0.001135  -0.001078
     7  C   -0.048444   0.060052  -0.087624  -0.024534  -0.006488  -0.025734
     8  H   -0.015750   0.002034  -0.003982   0.000382   0.000016   0.000042
     9  C    0.004154  -0.000300  -0.003656  -0.569006  -0.013062  -0.082479
    10  C    0.018366   0.014478  -0.026004  -0.319711  -0.024068   0.040504
    11  H    0.000007  -0.000032   0.000095  -0.006860  -0.000328   0.000742
    12  O   -0.025360  -0.069172  -0.042569  -0.000671  -0.000089   0.000057
    13  C    0.001542  -0.000419  -0.001010  -1.083976   0.029008  -0.132968
    14  O    0.000002   0.000006  -0.000001   0.043094   0.001991  -0.019139
    15  H   -0.003166  -0.000737   0.000806  -0.049750  -0.000398   0.000629
    16  C    0.400698   0.399946   0.397441  -0.000194   0.000035  -0.000046
    17  C    0.000775  -0.000124  -0.000077   0.383770   0.364783  -1.058697
    18  H    0.000017   0.000695  -0.000706   0.039305   0.007894   0.056115
    19  H    0.586699  -0.019467  -0.060288  -0.000003  -0.000006  -0.000017
    20  H   -0.019467   0.470028  -0.026951  -0.000020   0.000008   0.000016
    21  H   -0.060288  -0.026951   0.585115  -0.000090  -0.000001  -0.000015
    22  C   -0.000003  -0.000020  -0.000090  10.998871  -0.137011   0.792570
    23  H   -0.000006   0.000008  -0.000001  -0.137011   0.460488   0.062807
    24  C   -0.000017   0.000016  -0.000015   0.792570   0.062807  10.601414
    25  C    0.000080   0.000074   0.000019   1.004059   0.009292  -0.853177
    26  C   -0.000006   0.000004  -0.000003  -2.673859   0.009634   0.602243
    27  H    0.000000   0.000000   0.000000  -0.092249  -0.001957   0.261027
    28  C    0.000061  -0.000079   0.000029  -1.188819   0.014588  -1.717812
    29  H    0.000050  -0.000103   0.000108  -0.105505   0.000885   0.026940
    30  H    0.000000   0.000000   0.000000  -0.023720   0.001562   0.046252
    31  C    0.000009  -0.000009   0.000001  -1.245145  -0.001625  -2.047171
    32  H   -0.000002   0.000002  -0.000003   0.098150   0.000299  -0.048429
    33  N    0.000000   0.000000   0.000000  -0.032131  -0.000527   0.057397
    34  C    0.000000   0.000000   0.000000  -0.028568   0.000492  -0.069960
    35  C    0.000000   0.000000   0.000000  -0.143472  -0.001508  -0.089705
    36  H    0.000000   0.000000   0.000000  -0.010177   0.000030  -0.005311
    37  H    0.000000   0.000000   0.000000  -0.003425  -0.000001   0.000381
    38  H    0.000000   0.000000   0.000000   0.003886   0.000042   0.007360
    39  H    0.000000   0.000000   0.000000   0.001801  -0.000107   0.009594
    40  H    0.000000   0.000000   0.000000  -0.007984  -0.000072  -0.021196
    41  H    0.000000   0.000000   0.000000   0.009392  -0.000031  -0.005993
              25         26         27         28         29         30
     1  C    0.038440  -0.000038   0.000152   0.000498  -0.000068  -0.000042
     2  C    0.234872  -0.006440   0.000888   0.023947   0.014768  -0.000230
     3  H    0.000630  -0.000025   0.000010   0.000038   0.000000  -0.000001
     4  C   -0.020300   0.000560  -0.000011   0.001830   0.008388   0.000004
     5  C    0.156015  -0.054849   0.000744   0.099971   0.013792  -0.000116
     6  O    0.000658  -0.000299   0.000027   0.000131   0.000127   0.000001
     7  C   -0.044491  -0.004048   0.000182   0.022101   0.028032   0.000039
     8  H   -0.000508   0.000023  -0.000002  -0.000066  -0.000051   0.000000
     9  C   -0.753419   0.267736   0.010897  -0.083419   0.003783  -0.000147
    10  C   -0.410741   0.054886   0.001601  -0.101132  -0.023467   0.000171
    11  H   -0.004586  -0.000174   0.000007   0.000208   0.000154   0.000020
    12  O   -0.000643   0.000019   0.000002  -0.000261   0.000476   0.000000
    13  C   -1.224206   0.736993   0.030608  -0.560927  -0.162136  -0.012563
    14  O    0.014272  -0.003884   0.000020   0.001048   0.002016   0.000037
    15  H   -0.002122   0.001580   0.000276  -0.000604  -0.007034   0.000016
    16  C    0.000173   0.000002  -0.000002   0.000146  -0.000087   0.000000
    17  C    0.352441   0.441398   0.057698   0.058565  -0.057367  -0.007039
    18  H   -0.099867   0.050665   0.001975  -0.133142  -0.054113  -0.000818
    19  H    0.000080  -0.000006   0.000000   0.000061   0.000050   0.000000
    20  H    0.000074   0.000004   0.000000  -0.000079  -0.000103   0.000000
    21  H    0.000019  -0.000003   0.000000   0.000029   0.000108   0.000000
    22  C    1.004059  -2.673859  -0.092249  -1.188819  -0.105505  -0.023720
    23  H    0.009292   0.009634  -0.001957   0.014588   0.000885   0.001562
    24  C   -0.853177   0.602243   0.261027  -1.717812   0.026940   0.046252
    25  C    9.366548  -1.795885  -0.030925   1.771587   0.389439  -0.012835
    26  C   -1.795885  10.174200   0.014442  -1.728434  -0.044260   0.486775
    27  H   -0.030925   0.014442   0.489402   0.002728  -0.003458  -0.013310
    28  C    1.771587  -1.728434   0.002728   9.091662   0.081732  -0.031568
    29  H    0.389439  -0.044260  -0.003458   0.081732   0.585174   0.001412
    30  H   -0.012835   0.486775  -0.013310  -0.031568   0.001412   0.514013
    31  C   -1.588516  -0.101065   0.048087   0.602241   0.184733  -0.096620
    32  H    0.063821  -0.009627   0.001019   0.384920  -0.042931  -0.000124
    33  N   -0.027515  -0.221470  -0.001318  -0.312302  -0.001020  -0.034447
    34  C    0.002836  -0.180439  -0.000552   0.128907   0.004898  -0.004647
    35  C   -0.052602   0.189185   0.005444  -0.115153  -0.000058   0.013479
    36  H   -0.015986  -0.021033  -0.000033   0.028775   0.001771  -0.001188
    37  H   -0.007245   0.004231  -0.000095   0.016120   0.002148   0.000052
    38  H    0.003174   0.004922  -0.000256   0.022082   0.000073   0.001941
    39  H   -0.006887   0.033280   0.000556  -0.021387  -0.000203  -0.009052
    40  H    0.005599   0.011472   0.000176   0.020964  -0.000480   0.005677
    41  H   -0.001467   0.004636   0.000527   0.005817   0.000042  -0.009349
              31         32         33         34         35         36
     1  C    0.000942  -0.000114  -0.000001  -0.000007   0.000000   0.000002
     2  C    0.013452  -0.001639  -0.000021  -0.000086   0.000025   0.000022
     3  H    0.000012  -0.000002   0.000000   0.000000   0.000000   0.000000
     4  C    0.000272  -0.000111   0.000001   0.000011   0.000002  -0.000001
     5  C    0.021220  -0.003763  -0.000018   0.000061  -0.000317   0.000070
     6  O   -0.000050  -0.000001   0.000000   0.000000   0.000000   0.000000
     7  C    0.001357  -0.001297   0.000012   0.000093  -0.000001   0.000006
     8  H   -0.000010   0.000005   0.000000   0.000000   0.000000   0.000000
     9  C   -0.025832  -0.001872   0.001050   0.000773   0.002702   0.000260
    10  C   -0.042916   0.002238   0.000183  -0.000032   0.000127   0.000065
    11  H   -0.000407  -0.000020   0.000002  -0.000001  -0.000003   0.000000
    12  O   -0.000056  -0.000004   0.000000   0.000000   0.000000   0.000000
    13  C   -0.291741   0.038632   0.001146   0.005897  -0.002293   0.000356
    14  O   -0.000587   0.000025  -0.000001   0.000006   0.000000  -0.000001
    15  H   -0.004218  -0.000187   0.000053  -0.000029  -0.000009   0.000061
    16  C    0.000021  -0.000007   0.000000   0.000000   0.000000   0.000000
    17  C   -0.107416   0.032193  -0.003950   0.003249   0.031221  -0.001034
    18  H   -0.037178   0.012431  -0.000943  -0.001000   0.000149  -0.000465
    19  H    0.000009  -0.000002   0.000000   0.000000   0.000000   0.000000
    20  H   -0.000009   0.000002   0.000000   0.000000   0.000000   0.000000
    21  H    0.000001  -0.000003   0.000000   0.000000   0.000000   0.000000
    22  C   -1.245145   0.098150  -0.032131  -0.028568  -0.143472  -0.010177
    23  H   -0.001625   0.000299  -0.000527   0.000492  -0.001508   0.000030
    24  C   -2.047171  -0.048429   0.057397  -0.069960  -0.089705  -0.005311
    25  C   -1.588516   0.063821  -0.027515   0.002836  -0.052602  -0.015986
    26  C   -0.101065  -0.009627  -0.221470  -0.180439   0.189185  -0.021033
    27  H    0.048087   0.001019  -0.001318  -0.000552   0.005444  -0.000033
    28  C    0.602241   0.384920  -0.312302   0.128907  -0.115153   0.028775
    29  H    0.184733  -0.042931  -0.001020   0.004898  -0.000058   0.001771
    30  H   -0.096620  -0.000124  -0.034447  -0.004647   0.013479  -0.001188
    31  C   11.424454  -0.243324   0.266151  -0.122742  -0.134042   0.028880
    32  H   -0.243324   0.539079  -0.034626   0.012619  -0.003565  -0.010434
    33  N    0.266151  -0.034626   7.001498   0.294853   0.307504  -0.059074
    34  C   -0.122742   0.012619   0.294853   5.227069  -0.108515   0.410514
    35  C   -0.134042  -0.003565   0.307504  -0.108515   5.264247  -0.002374
    36  H    0.028880  -0.010434  -0.059074   0.410514  -0.002374   0.576774
    37  H   -0.016184  -0.013938  -0.053849   0.423473   0.000454  -0.058567
    38  H   -0.018313   0.006609  -0.048776   0.402205  -0.014567  -0.023145
    39  H   -0.025046  -0.000040  -0.058666   0.002290   0.424185  -0.003759
    40  H   -0.002342   0.002398  -0.046018  -0.009167   0.400644  -0.001215
    41  H   -0.008401  -0.000709  -0.054495  -0.002924   0.415454   0.002241
              37         38         39         40         41
     1  C    0.000002   0.000000   0.000000   0.000000   0.000000
     2  C    0.000017  -0.000006   0.000003   0.000001   0.000001
     3  H    0.000000   0.000000   0.000000   0.000000   0.000000
     4  C   -0.000002   0.000000   0.000000   0.000000   0.000000
     5  C    0.000034   0.000010   0.000013  -0.000024   0.000025
     6  O    0.000000   0.000000   0.000000   0.000000   0.000000
     7  C   -0.000010   0.000006  -0.000001  -0.000001   0.000001
     8  H    0.000000   0.000000   0.000000   0.000000   0.000000
     9  C   -0.000016  -0.000044  -0.000274   0.000180  -0.000098
    10  C   -0.000035  -0.000008  -0.000029   0.000016  -0.000008
    11  H    0.000000   0.000000   0.000000   0.000000   0.000000
    12  O    0.000000   0.000000   0.000000   0.000000   0.000000
    13  C   -0.000780   0.000070  -0.000638   0.000368   0.000403
    14  O   -0.000001   0.000000   0.000000   0.000000  -0.000001
    15  H   -0.000001  -0.000003  -0.000004   0.000001  -0.000001
    16  C    0.000000   0.000000   0.000000   0.000000   0.000000
    17  C   -0.000508  -0.001170  -0.001537   0.003873  -0.001619
    18  H   -0.000149  -0.000062   0.000062   0.000054  -0.000009
    19  H    0.000000   0.000000   0.000000   0.000000   0.000000
    20  H    0.000000   0.000000   0.000000   0.000000   0.000000
    21  H    0.000000   0.000000   0.000000   0.000000   0.000000
    22  C   -0.003425   0.003886   0.001801  -0.007984   0.009392
    23  H   -0.000001   0.000042  -0.000107  -0.000072  -0.000031
    24  C    0.000381   0.007360   0.009594  -0.021196  -0.005993
    25  C   -0.007245   0.003174  -0.006887   0.005599  -0.001467
    26  C    0.004231   0.004922   0.033280   0.011472   0.004636
    27  H   -0.000095  -0.000256   0.000556   0.000176   0.000527
    28  C    0.016120   0.022082  -0.021387   0.020964   0.005817
    29  H    0.002148   0.000073  -0.000203  -0.000480   0.000042
    30  H    0.000052   0.001941  -0.009052   0.005677  -0.009349
    31  C   -0.016184  -0.018313  -0.025046  -0.002342  -0.008401
    32  H   -0.013938   0.006609  -0.000040   0.002398  -0.000709
    33  N   -0.053849  -0.048776  -0.058666  -0.046018  -0.054495
    34  C    0.423473   0.402205   0.002290  -0.009167  -0.002924
    35  C    0.000454  -0.014567   0.424185   0.400644   0.415454
    36  H   -0.058567  -0.023145  -0.003759  -0.001215   0.002241
    37  H    0.543142  -0.023379   0.001709  -0.003197  -0.000549
    38  H   -0.023379   0.513924  -0.000760   0.014221  -0.003033
    39  H    0.001709  -0.000760   0.561204  -0.019463  -0.062255
    40  H   -0.003197   0.014221  -0.019463   0.511091  -0.023350
    41  H   -0.000549  -0.003033  -0.062255  -0.023350   0.558084
 Mulliken charges:
               1
     1  C   -0.323324
     2  C   -0.433739
     3  H    0.242703
     4  C    0.211229
     5  C    1.288728
     6  O   -0.339937
     7  C   -0.739996
     8  H    0.213123
     9  C    0.166475
    10  C   -1.227785
    11  H    0.391843
    12  O   -0.139332
    13  C    0.348631
    14  O   -0.349742
    15  H    0.209290
    16  C   -0.374773
    17  C    0.249336
    18  H   -0.157538
    19  H    0.152450
    20  H    0.205425
    21  H    0.165551
    22  C    0.736777
    23  H    0.234327
    24  C   -0.286961
    25  C   -0.460105
    26  C   -0.243049
    27  H    0.215677
    28  C   -0.385591
    29  H    0.151404
    30  H    0.186363
    31  C   -0.430874
    32  H    0.222328
    33  N    0.061318
    34  C   -0.391577
    35  C   -0.386639
    36  H    0.163969
    37  H    0.190167
    38  H    0.152997
    39  H    0.175409
    40  H    0.157774
    41  H    0.177666
 Sum of Mulliken charges =   0.00000
 Mulliken charges with hydrogens summed into heavy atoms:
               1
     1  C   -0.080621
     2  C   -0.433739
     4  C    0.424351
     5  C    1.288728
     6  O    0.051906
     7  C   -0.739996
     9  C    0.166475
    10  C   -1.018495
    12  O   -0.139332
    13  C    0.191093
    14  O   -0.349742
    16  C    0.148653
    17  C    0.483663
    22  C    0.736777
    24  C   -0.071283
    25  C   -0.308701
    26  C   -0.056686
    28  C   -0.163263
    31  C   -0.430874
    33  N    0.061318
    34  C    0.115556
    35  C    0.124211
 Electronic spatial extent (au):  <R**2>=          73867.0884
 Charge=              0.0000 electrons
 Dipole moment (field-independent basis, Debye):
    X=              4.9660    Y=             -2.3872    Z=             -6.2781  Tot=              8.3531
 Quadrupole moment (field-independent basis, Debye-Ang):
   XX=           -139.1160   YY=           -138.2844   ZZ=             52.2087
   XY=              5.5911   XZ=            -30.2873   YZ=             27.1575
 Traceless Quadrupole moment (field-independent basis, Debye-Ang):
   XX=            -64.0521   YY=            -63.2205   ZZ=            127.2726
   XY=              5.5911   XZ=            -30.2873   YZ=             27.1575
 Octapole moment (field-independent basis, Debye-Ang**2):
  XXX=            368.9581  YYY=           -325.2753  ZZZ=            229.0745  XYY=            121.5051
  XXY=           -123.3116  XXZ=           1389.2510  XZZ=            273.7450  YZZ=           -438.4170
  YYZ=           1420.3907  XYZ=             -8.6746
 Hexadecapole moment (field-independent basis, Debye-Ang**3):
 XXXX=          -2733.2942 YYYY=          -1248.8793 ZZZZ=         -26216.9038 XXXY=            625.4449
 XXXZ=          -3693.2670 YYYX=            567.6554 YYYZ=           2237.4090 ZZZX=          -3901.2768
 ZZZY=           6873.8617 XXYY=           -692.8244 XXZZ=         -16595.8019 YYZZ=         -17215.9595
 XXYZ=            804.5576 YYXZ=          -1260.0085 ZZXY=           -178.0166
 N-N= 1.603221125923D+03 E-N=-5.484607117980D+03  KE= 9.732762322738D+02
 Leave Link  601 at Sat Nov  4 12:47:24 2017, MaxMem=  3758096384 cpu:         0.5
 (Enter /share/apps/gaussian/g09_D01/g09/l9999.exe)
 1\1\GINC-NXN32\SP\RwB97XD TD-FC\6-311++G(d,p)\C18H19N1O3\BTX008\04-Nov
 -2017\0\\#p wb97xd 6-311++G** td=(nstates=4) nosymm\\Title\\0,1\C,0,-1
 .43725,1.737391,-5.090015\C,0,-2.092518,1.760412,-6.327449\H,0,-1.9820
 15,2.053463,-4.200181\C,0,-0.10855,1.349894,-4.987871\C,0,-1.383439,1.
 367706,-7.502291\O,0,-3.384223,2.148685,-6.382283\C,0,0.609255,0.98215
 7,-6.138682\H,0,0.364433,1.345964,-4.007958\C,0,-2.077928,1.405596,-8.
 79993\C,0,-0.034409,0.987679,-7.370556\H,0,-3.603283,2.088332,-7.39314
 7\O,0,1.938158,0.624828,-6.13927\C,0,-1.392868,1.031835,-10.014222\O,0
 ,-3.303921,1.77619,-8.822378\H,0,0.547798,0.696891,-8.24235\C,0,2.6513
 58,0.800924,-4.906419\C,0,-1.970686,1.177892,-11.240158\H,0,-0.3972,0.
 602107,-9.93578\H,0,2.505904,1.820143,-4.514101\H,0,3.709475,0.655998,
 -5.149228\H,0,2.326778,0.061456,-4.158875\C,0,-1.442455,0.804607,-12.5
 16617\H,0,-2.971715,1.619772,-11.253795\C,0,-2.247663,0.993537,-13.660
 685\C,0,-0.165861,0.232584,-12.722303\C,0,-1.854201,0.590184,-14.91819
 5\H,0,-3.218203,1.4729,-13.54224\C,0,0.256689,-0.153628,-13.974088\H,0
 ,0.50611,0.091446,-11.874529\H,0,-2.519861,0.758137,-15.761098\C,0,-0.
 59016,-0.021376,-15.110249\H,0,1.257633,-0.559351,-14.093437\N,0,-0.20
 3575,-0.470229,-16.338756\C,0,1.093907,-1.098627,-16.525381\C,0,-1.104
 228,-0.34485,-17.472543\H,0,1.236868,-1.922466,-15.809531\H,0,1.918393
 ,-0.375831,-16.407131\H,0,1.140789,-1.522162,-17.532281\H,0,-2.062067,
 -0.851431,-17.273374\H,0,-0.647642,-0.808814,-18.350308\H,0,-1.309451,
 0.713232,-17.705173\\Version=ES64L-G09RevD.01\HF=-977.6792038\RMSD=4.9
 64e-09\PG=C01 [X(C18H19N1O3)]\\@


 STEINBACH'S GUIDELINES FOR SYSTEMS PROGRAMMING:
 NEVER TEST FOR AN ERROR CONDITION YOU DON'T KNOW HOW
 TO HANDLE.
 Job cpu time:       0 days  3 hours  1 minutes 19.5 seconds.
 File lengths (MBytes):  RWF=    556 Int=      0 D2E=      0 Chk=     63 Scr=      1
 Normal termination of Gaussian 09 at Sat Nov  4 12:47:25 2017.
