 Entering Gaussian System, Link 0=g09
 Input=2hc_5_rel-mega_dimer_3_mon-1.com
 Output=2hc_5_rel-mega_dimer_3_mon-1.out
 Initial command:
 /share/apps/gaussian/g09_D01/g09/l1.exe "/tmp/160970.1.all.q/Gau-17306.inp" -scrdir="/tmp/160970.1.all.q/"
 Entering Link 1 = /share/apps/gaussian/g09_D01/g09/l1.exe PID=     17307.
  
 Copyright (c) 1988,1990,1992,1993,1995,1998,2003,2009,2013,
            Gaussian, Inc.  All Rights Reserved.
  
 This is part of the Gaussian(R) 09 program.  It is based on
 the Gaussian(R) 03 system (copyright 2003, Gaussian, Inc.),
 the Gaussian(R) 98 system (copyright 1998, Gaussian, Inc.),
 the Gaussian(R) 94 system (copyright 1995, Gaussian, Inc.),
 the Gaussian 92(TM) system (copyright 1992, Gaussian, Inc.),
 the Gaussian 90(TM) system (copyright 1990, Gaussian, Inc.),
 the Gaussian 88(TM) system (copyright 1988, Gaussian, Inc.),
 the Gaussian 86(TM) system (copyright 1986, Carnegie Mellon
 University), and the Gaussian 82(TM) system (copyright 1983,
 Carnegie Mellon University). Gaussian is a federally registered
 trademark of Gaussian, Inc.
  
 This software contains proprietary and confidential information,
 including trade secrets, belonging to Gaussian, Inc.
  
 This software is provided under written license and may be
 used, copied, transmitted, or stored only in accord with that
 written license.
  
 The following legend is applicable only to US Government
 contracts under FAR:
  
                    RESTRICTED RIGHTS LEGEND
  
 Use, reproduction and disclosure by the US Government is
 subject to restrictions as set forth in subparagraphs (a)
 and (c) of the Commercial Computer Software - Restricted
 Rights clause in FAR 52.227-19.
  
 Gaussian, Inc.
 340 Quinnipiac St., Bldg. 40, Wallingford CT 06492
  
  
 ---------------------------------------------------------------
 Warning -- This program may not be used in any manner that
 competes with the business of Gaussian, Inc. or will provide
 assistance to any competitor of Gaussian, Inc.  The licensee
 of this program is prohibited from giving any competitor of
 Gaussian, Inc. access to this program.  By using this program,
 the user acknowledges that Gaussian, Inc. is engaged in the
 business of creating and licensing software in the field of
 computational chemistry and represents and warrants to the
 licensee that it is not a competitor of Gaussian, Inc. and that
 it will not use this program in any manner prohibited above.
 ---------------------------------------------------------------
  

 Cite this work as:
 Gaussian 09, Revision D.01,
 M. J. Frisch, G. W. Trucks, H. B. Schlegel, G. E. Scuseria, 
 M. A. Robb, J. R. Cheeseman, G. Scalmani, V. Barone, B. Mennucci, 
 G. A. Petersson, H. Nakatsuji, M. Caricato, X. Li, H. P. Hratchian, 
 A. F. Izmaylov, J. Bloino, G. Zheng, J. L. Sonnenberg, M. Hada, 
 M. Ehara, K. Toyota, R. Fukuda, J. Hasegawa, M. Ishida, T. Nakajima, 
 Y. Honda, O. Kitao, H. Nakai, T. Vreven, J. A. Montgomery, Jr., 
 J. E. Peralta, F. Ogliaro, M. Bearpark, J. J. Heyd, E. Brothers, 
 K. N. Kudin, V. N. Staroverov, T. Keith, R. Kobayashi, J. Normand, 
 K. Raghavachari, A. Rendell, J. C. Burant, S. S. Iyengar, J. Tomasi, 
 M. Cossi, N. Rega, J. M. Millam, M. Klene, J. E. Knox, J. B. Cross, 
 V. Bakken, C. Adamo, J. Jaramillo, R. Gomperts, R. E. Stratmann, 
 O. Yazyev, A. J. Austin, R. Cammi, C. Pomelli, J. W. Ochterski, 
 R. L. Martin, K. Morokuma, V. G. Zakrzewski, G. A. Voth, 
 P. Salvador, J. J. Dannenberg, S. Dapprich, A. D. Daniels, 
 O. Farkas, J. B. Foresman, J. V. Ortiz, J. Cioslowski, 
 and D. J. Fox, Gaussian, Inc., Wallingford CT, 2013.
 
 ******************************************
 Gaussian 09:  ES64L-G09RevD.01 24-Apr-2013
                 6-Nov-2017 
 ******************************************
 %chk=2hc_5_rel-mega_dimer_3_mon-1.chk
 %nproc=4
 Will use up to    4 processors via shared memory.
 %mem=28GB
 ------------------------------------------
 #p wb97xd 6-311++G** td=(nstates=4) nosymm
 ------------------------------------------
 1/38=1/1;
 2/12=2,15=1,17=6,18=5,40=1/2;
 3/5=4,6=6,7=1111,11=9,16=1,25=1,30=1,74=-58/1,2,8,3;
 4//1;
 5/5=2,38=5/2;
 8/6=1,10=2,108=4/1;
 9/41=4,42=1,70=2/14;
 6/7=2,8=2,9=2,10=2/1;
 99/5=1,9=1/99;
 Leave Link    1 at Mon Nov  6 05:10:45 2017, MaxMem=  3758096384 cpu:         0.3
 (Enter /share/apps/gaussian/g09_D01/g09/l101.exe)
 -----
 Title
 -----
 Symbolic Z-matrix:
 Charge =  0 Multiplicity = 1
 C                     0.13453  -8.78123  -4.03059 
 H                    -0.74647  -8.20385  -4.35088 
 H                    -0.15418  -9.82759  -3.88257 
 H                     0.91638  -8.7169   -4.80201 
 O                     0.60346  -8.32088  -2.75612 
 C                     0.9531   -7.00017  -2.64473 
 C                     1.1782   -6.55583  -1.32642 
 C                     1.08176  -6.11399  -3.7049 
 C                     1.43972  -5.22698  -1.06697 
 H                     1.10238  -7.2752   -0.5105 
 C                     1.37498  -4.74804  -3.46873 
 H                     0.9418   -6.47122  -4.72268 
 C                     1.49926  -4.2977   -2.12113 
 H                     1.56698  -4.87026  -0.04548 
 C                     1.58202  -3.77125  -4.54742 
 O                     1.67988  -2.99886  -1.82753 
 C                     1.71015  -4.19689  -5.9271 
 O                     1.69889  -2.53466  -4.23569 
 H                     1.70002  -2.53986  -2.76127 
 C                     1.95999  -3.2998   -6.92727 
 H                     1.66231  -5.26262  -6.14836 
 C                     2.18263  -3.58102  -8.31618 
 H                     1.99454  -2.24357  -6.63705 
 C                     2.37766  -2.51898  -9.22656 
 C                     2.20465  -4.88978  -8.85455 
 C                     2.55369  -2.73377  -10.57973 
 H                     2.36188  -1.49626  -8.84376 
 C                     2.38159  -5.12674  -10.19977 
 H                     2.08094  -5.74573  -8.19223 
 C                     2.53824  -4.04985  -11.11625 
 H                     2.66416  -1.87972  -11.244 
 H                     2.3918   -6.15729  -10.54772 
 N                     2.65124  -4.28006  -12.45484 
 C                     2.44191  -5.61344  -13.00127 
 C                     2.90901  -3.18202  -13.36703 
 H                     3.29224  -6.28469  -12.78938 
 H                     2.29865  -5.53588  -14.08212 
 H                     1.53108  -6.07018  -12.58888 
 H                     2.03822  -2.51012  -13.44555 
 H                     3.11299  -3.58355  -14.36504 
 H                     3.7835   -2.59793  -13.0358 
 
 NAtoms=     41 NQM=       41 NQMF=       0 NMMI=      0 NMMIF=      0
                NMic=       0 NMicF=      0.
                    Isotopes and Nuclear Properties:
 (Nuclear quadrupole moments (NQMom) in fm**2, nuclear magnetic moments (NMagM)
  in nuclear magnetons)

  Atom         1           2           3           4           5           6           7           8           9          10
 IAtWgt=          12           1           1           1          16          12          12          12          12           1
 AtmWgt=  12.0000000   1.0078250   1.0078250   1.0078250  15.9949146  12.0000000  12.0000000  12.0000000  12.0000000   1.0078250
 NucSpn=           0           1           1           1           0           0           0           0           0           1
 AtZEff=   0.0000000   0.0000000   0.0000000   0.0000000   0.0000000   0.0000000   0.0000000   0.0000000   0.0000000   0.0000000
 NQMom=    0.0000000   0.0000000   0.0000000   0.0000000   0.0000000   0.0000000   0.0000000   0.0000000   0.0000000   0.0000000
 NMagM=    0.0000000   2.7928460   2.7928460   2.7928460   0.0000000   0.0000000   0.0000000   0.0000000   0.0000000   2.7928460
 AtZNuc=   6.0000000   1.0000000   1.0000000   1.0000000   8.0000000   6.0000000   6.0000000   6.0000000   6.0000000   1.0000000

  Atom        11          12          13          14          15          16          17          18          19          20
 IAtWgt=          12           1          12           1          12          16          12          16           1          12
 AtmWgt=  12.0000000   1.0078250  12.0000000   1.0078250  12.0000000  15.9949146  12.0000000  15.9949146   1.0078250  12.0000000
 NucSpn=           0           1           0           1           0           0           0           0           1           0
 AtZEff=   0.0000000   0.0000000   0.0000000   0.0000000   0.0000000   0.0000000   0.0000000   0.0000000   0.0000000   0.0000000
 NQMom=    0.0000000   0.0000000   0.0000000   0.0000000   0.0000000   0.0000000   0.0000000   0.0000000   0.0000000   0.0000000
 NMagM=    0.0000000   2.7928460   0.0000000   2.7928460   0.0000000   0.0000000   0.0000000   0.0000000   2.7928460   0.0000000
 AtZNuc=   6.0000000   1.0000000   6.0000000   1.0000000   6.0000000   8.0000000   6.0000000   8.0000000   1.0000000   6.0000000

  Atom        21          22          23          24          25          26          27          28          29          30
 IAtWgt=           1          12           1          12          12          12           1          12           1          12
 AtmWgt=   1.0078250  12.0000000   1.0078250  12.0000000  12.0000000  12.0000000   1.0078250  12.0000000   1.0078250  12.0000000
 NucSpn=           1           0           1           0           0           0           1           0           1           0
 AtZEff=   0.0000000   0.0000000   0.0000000   0.0000000   0.0000000   0.0000000   0.0000000   0.0000000   0.0000000   0.0000000
 NQMom=    0.0000000   0.0000000   0.0000000   0.0000000   0.0000000   0.0000000   0.0000000   0.0000000   0.0000000   0.0000000
 NMagM=    2.7928460   0.0000000   2.7928460   0.0000000   0.0000000   0.0000000   2.7928460   0.0000000   2.7928460   0.0000000
 AtZNuc=   1.0000000   6.0000000   1.0000000   6.0000000   6.0000000   6.0000000   1.0000000   6.0000000   1.0000000   6.0000000

  Atom        31          32          33          34          35          36          37          38          39          40
 IAtWgt=           1           1          14          12          12           1           1           1           1           1
 AtmWgt=   1.0078250   1.0078250  14.0030740  12.0000000  12.0000000   1.0078250   1.0078250   1.0078250   1.0078250   1.0078250
 NucSpn=           1           1           2           0           0           1           1           1           1           1
 AtZEff=   0.0000000   0.0000000   0.0000000   0.0000000   0.0000000   0.0000000   0.0000000   0.0000000   0.0000000   0.0000000
 NQMom=    0.0000000   0.0000000   2.0440000   0.0000000   0.0000000   0.0000000   0.0000000   0.0000000   0.0000000   0.0000000
 NMagM=    2.7928460   2.7928460   0.4037610   0.0000000   0.0000000   2.7928460   2.7928460   2.7928460   2.7928460   2.7928460
 AtZNuc=   1.0000000   1.0000000   7.0000000   6.0000000   6.0000000   1.0000000   1.0000000   1.0000000   1.0000000   1.0000000

  Atom        41
 IAtWgt=           1
 AtmWgt=   1.0078250
 NucSpn=           1
 AtZEff=   0.0000000
 NQMom=    0.0000000
 NMagM=    2.7928460
 AtZNuc=   1.0000000
 Leave Link  101 at Mon Nov  6 05:10:46 2017, MaxMem=  3758096384 cpu:         0.3
 (Enter /share/apps/gaussian/g09_D01/g09/l202.exe)
                          Input orientation:                          
 ---------------------------------------------------------------------
 Center     Atomic      Atomic             Coordinates (Angstroms)
 Number     Number       Type             X           Y           Z
 ---------------------------------------------------------------------
      1          6           0        0.134528   -8.781231   -4.030590
      2          1           0       -0.746474   -8.203850   -4.350885
      3          1           0       -0.154177   -9.827588   -3.882571
      4          1           0        0.916381   -8.716901   -4.802010
      5          8           0        0.603463   -8.320878   -2.756122
      6          6           0        0.953098   -7.000168   -2.644728
      7          6           0        1.178200   -6.555826   -1.326419
      8          6           0        1.081761   -6.113987   -3.704896
      9          6           0        1.439719   -5.226981   -1.066972
     10          1           0        1.102381   -7.275196   -0.510496
     11          6           0        1.374977   -4.748042   -3.468734
     12          1           0        0.941796   -6.471218   -4.722677
     13          6           0        1.499262   -4.297696   -2.121133
     14          1           0        1.566983   -4.870263   -0.045477
     15          6           0        1.582019   -3.771253   -4.547421
     16          8           0        1.679880   -2.998855   -1.827526
     17          6           0        1.710145   -4.196893   -5.927102
     18          8           0        1.698894   -2.534661   -4.235690
     19          1           0        1.700022   -2.539860   -2.761271
     20          6           0        1.959986   -3.299802   -6.927274
     21          1           0        1.662313   -5.262623   -6.148364
     22          6           0        2.182633   -3.581022   -8.316179
     23          1           0        1.994538   -2.243570   -6.637048
     24          6           0        2.377663   -2.518976   -9.226556
     25          6           0        2.204645   -4.889780   -8.854553
     26          6           0        2.553685   -2.733769  -10.579733
     27          1           0        2.361882   -1.496258   -8.843759
     28          6           0        2.381592   -5.126742  -10.199771
     29          1           0        2.080942   -5.745734   -8.192229
     30          6           0        2.538244   -4.049846  -11.116252
     31          1           0        2.664162   -1.879716  -11.243998
     32          1           0        2.391798   -6.157286  -10.547720
     33          7           0        2.651239   -4.280057  -12.454837
     34          6           0        2.441909   -5.613439  -13.001271
     35          6           0        2.909007   -3.182022  -13.367027
     36          1           0        3.292240   -6.284692  -12.789381
     37          1           0        2.298646   -5.535877  -14.082121
     38          1           0        1.531079   -6.070182  -12.588878
     39          1           0        2.038216   -2.510119  -13.445548
     40          1           0        3.112987   -3.583547  -14.365042
     41          1           0        3.783495   -2.597926  -13.035802
 ---------------------------------------------------------------------
                    Distance matrix (angstroms):
                    1          2          3          4          5
     1  C    0.000000
     2  H    1.100964   0.000000
     3  H    1.095501   1.790715   0.000000
     4  H    1.100237   1.797727   1.795853   0.000000
     5  O    1.433909   2.092676   2.028073   2.107228   0.000000
     6  C    2.400595   2.692279   3.279118   2.757242   1.370740
     7  C    3.654343   3.945599   4.360455   4.101040   2.343028
     8  C    2.849126   2.850837   3.917900   2.829518   2.449349
     9  C    4.808248   4.942193   5.624383   5.138476   3.622810
    10  H    3.949170   4.362253   4.411863   4.531027   2.526897
    11  C    4.256878   4.149862   5.320842   4.211861   3.724004
    12  H    2.542995   2.447549   3.629346   2.247228   2.720855
    13  C    5.060693   5.027242   6.034586   5.201560   4.170331
    14  H    5.764436   5.916200   6.500827   6.151789   4.492517
    15  C    5.240441   5.010830   6.335266   4.996731   4.986523
    16  O    6.377890   6.272679   7.363326   6.490496   5.508620
    17  C    5.205332   4.957332   6.273797   4.725078   5.318563
    18  O    6.442743   6.175176   7.532951   6.257247   6.072018
    19  H    6.558708   6.371263   7.603049   6.552446   5.884100
    20  C    6.462905   6.165419   7.506790   5.911922   6.667073
    21  H    4.381746   4.205235   5.410394   3.781682   4.688432
    22  C    7.042953   6.758237   8.008567   6.350593   7.474908
    23  H    7.279716   6.947275   8.349937   6.814235   7.343729
    24  C    8.440708   8.114813   9.401287   7.754110   8.869970
    25  C    6.534477   6.322594   7.393686   5.720978   7.178236
    26  C    9.236633   8.922521  10.124562   8.477070   9.809589
    27  H    9.011023   8.650987  10.017734   8.400172   9.312722
    28  C    7.514212   7.311830   8.272551   6.646195   8.292898
    29  H    5.506542   5.365868   6.342747   4.655923   6.193995
    30  C    8.852709   8.591584   9.641451   8.017574   9.585242
    31  H   10.298700   9.957013  11.193852   9.555158  10.852607
    32  H    7.379251   7.241405   8.023548   6.460779   8.281804
    33  N    9.877365   9.623650  10.589108   9.014493  10.704517
    34  C    9.789384   9.576283  10.375423   8.898685  10.755147
    35  C   11.234675  10.948612  11.979213  10.390619  12.013104
    36  H    9.639516   9.550005  10.186323   8.680924  10.584983
    37  H   10.781883  10.539819  11.334282   9.907070  11.785929
    38  H    9.085397   8.809331   9.631094   8.247320  10.129620
    39  H   11.471369  11.085394  12.239382  10.700159  12.251011
    40  H   11.945210  11.684433  12.631097  11.073752  12.786987
    41  H   11.517034  11.286044  12.310764  10.651644  12.187559
                    6          7          8          9         10
     6  C    0.000000
     7  C    1.409273   0.000000
     8  C    1.387742   2.421090   0.000000
     9  C    2.422871   1.378961   2.805986   0.000000
    10  H    2.157052   1.090400   3.398974   2.149104   0.000000
    11  C    2.434962   2.810039   1.416882   2.449905   3.900255
    12  H    2.144245   3.405527   1.087696   3.893614   4.291228
    13  C    2.806386   2.415327   2.445716   1.406546   3.408397
    14  H    3.416059   2.152461   3.895335   1.089448   2.493151
    15  C    3.800220   4.276888   2.539391   3.775304   5.366976
    16  O    4.148076   3.626959   3.685961   2.366572   4.511670
    17  C    4.382402   5.197482   3.001386   4.975447   6.259788
    18  O    4.798763   4.990466   3.670718   4.166117   6.058512
    19  H    4.523917   4.296403   3.747941   3.187323   5.276985
    20  C    5.748629   6.525524   4.367452   6.190948   7.596992
    21  H    3.974609   5.015764   2.651867   5.086390   6.012448
    22  C    6.735553   7.662577   5.375106   7.470750   8.703020
    23  H    6.296701   6.889466   4.940729   6.343052   7.977960
    24  C    8.088939   8.952488   6.715072   8.648228  10.010878
    25  C    6.676978   7.778310   5.410963   7.832320   8.748056
    26  C    9.150319  10.105637   7.801014   9.896951  11.140932
    27  H    8.408667   9.138421   7.026382   8.674508  10.218891
    28  C    7.913848   9.067900   6.696836   9.181786  10.006712
    29  H    5.798310   6.972126   4.611955   7.172835   7.893406
    30  C    9.109545  10.196592   7.830084  10.177447  11.177954
    31  H   10.153532  11.064920   8.790398  10.783103  12.114389
    32  H    8.076979   9.309353   6.967231   9.573740  10.181266
    33  N   10.320898  11.453849   9.076785  11.491210  12.411168
    34  C   10.554504  11.780799   9.408674  11.982538  12.671828
    35  C   11.548659  12.623569  10.261190  12.555159  13.612801
    36  H   10.435395  11.659424   9.351108  11.914926  12.511898
    37  H   11.608988  12.845374  10.464312  13.047118  13.734820
    38  H   10.004252  11.278447   8.895445  11.553080  12.145911
    39  H   11.747159  12.805493  10.429908  12.687343  13.816559
    40  H   12.397749  13.512347  11.143057  13.503309  14.478234
    41  H   11.634659  12.631793  10.330918  12.476302  13.636294
                   11         12         13         14         15
    11  C    0.000000
    12  H    2.174708   0.000000
    13  C    1.426284   3.435549   0.000000
    14  H    3.430815   4.982983   2.154244   0.000000
    15  C    1.469881   2.780362   2.484122   4.634172   0.000000
    16  O    2.417888   4.580827   1.343806   2.586622   2.829135
    17  C    2.541589   2.685806   3.813140   5.921776   1.449519
    18  O    2.364783   4.038172   2.760344   4.798992   1.280623
    19  H    2.341415   4.458430   1.881507   3.581063   2.172691
    20  C    3.794883   3.994351   4.930218   7.069648   2.455367
    21  H    2.743679   2.003105   4.144425   6.116230   2.189441
    22  C    5.050937   4.775580   6.273692   8.393192   3.821055
    23  H    4.085884   4.758791   4.985802   7.108525   2.621169
    24  C    6.255128   6.161725   7.377159   9.511991   4.908722
    25  C    5.451191   4.600884   6.796107   8.832147   4.493345
    26  C    7.484180   7.132448   8.666348  10.793921   6.197523
    27  H    6.359165   6.614392   7.333885   9.456508   4.923648
    28  C    6.816417   5.820583   8.168856  10.190145   5.867344
    29  H    4.879055   3.723140   6.268443   8.209761   4.175180
    30  C    7.766930   7.020647   9.058315  11.143540   6.643909
    31  H    8.387134   8.159416   9.509484  11.642768   7.042236
    32  H    7.289166   6.011005   8.675371  10.612910   6.507879
    33  N    9.088339   8.216427  10.397731  12.470612   7.995583
    34  C    9.631019   8.457023  10.999871  13.006552   8.694863
    35  C   10.138139   9.455872  11.388689  13.494995   8.938319
    36  H    9.639069   8.404231  10.998838  12.937705   8.784767
    37  H   10.682595   9.503426  12.051446  14.071452   9.723063
    38  H    9.216803   7.898430  10.616798  12.600714   8.363773
    39  H   10.246219   9.642661  11.477294  13.614487   8.998624
    40  H   11.095326  10.296986  12.370425  14.460142   9.938047
    41  H   10.097165   9.601338  11.279935  13.372546   8.847361
                   16         17         18         19         20
    16  O    0.000000
    17  C    4.271151   0.000000
    18  O    2.452568   2.371501   0.000000
    19  H    1.040655   3.573282   1.474429   0.000000
    20  C    5.116293   1.366579   2.810380   4.242720   0.000000
    21  H    4.877970   1.089507   3.331882   4.345947   2.132598
    22  C    6.534087   2.512017   4.240196   5.672207   1.434473
    23  H    4.878623   2.097707   2.436937   3.898227   1.095925
    24  C    7.447337   3.761301   5.036836   6.500734   2.463908
    25  C    7.295895   3.048703   5.209248   6.550180   2.510437
    26  C    8.799712   4.949673   6.404467   7.867318   3.743438
    27  H    7.207666   4.028037   4.769920   6.206756   2.662181
    28  C    8.666879   4.423930   6.538748   7.904921   3.771564
    29  H    6.943748   2.768971   5.109907   6.318072   2.756325
    30  C    9.387321   5.256867   7.095240   8.531611   4.294704
    31  H    9.533689   5.877826   7.104722   8.562827   4.598545
    32  H    9.301844   5.065363   7.310626   8.613542   4.632419
    33  N   10.748244   6.595749   8.456225   9.894358   5.656208
    34  C   11.500840   7.251617   9.320212  10.717037   6.517561
    35  C   11.606222   7.603928   9.233892  10.693740   6.510371
    36  H   11.556760   7.345257   9.474551  10.822288   6.711838
    37  H   12.529743   8.285140  10.311120  11.725874   7.503770
    38  H   11.192046   6.922466   9.072145  10.443829   6.317652
    39  H   11.633817   7.712319   9.216139  10.689670   6.566400
    40  H   12.632694   8.575721  10.281225  11.735981   7.531953
    41  H   11.411021   7.575559   9.043867  10.483807   6.413418
                   21         22         23         24         25
    21  H    0.000000
    22  C    2.792479   0.000000
    23  H    3.076340   2.154910   0.000000
    24  C    4.185044   1.412361   2.632145   0.000000
    25  C    2.785066   1.415337   3.458887   2.406041   0.000000
    26  C    5.179448   2.445239   4.012195   1.381379   2.783246
    27  H    4.684021   2.157942   2.358599   1.092124   3.397180
    28  C    4.117004   2.444740   4.599509   2.783452   1.377343
    29  H    2.141502   2.170641   3.832911   3.401447   1.089327
    30  C    5.188255   2.861235   4.860197   2.437273   2.435582
    31  H    6.197842   3.420298   4.669558   2.135605   3.870541
    32  H    4.548286   3.414771   5.546922   3.870785   2.123302
    33  N    6.458716   4.223355   6.198807   3.687553   3.678757
    34  C    6.906025   5.113514   7.215226   4.881424   4.216070
    35  C    7.615264   5.118387   6.856352   4.226755   4.875960
    36  H    6.914072   5.343276   7.474349   5.264104   4.314106
    37  H    7.963924   6.089417   8.146219   5.717031   5.268182
    38  H    6.492272   4.987624   7.090983   4.963162   3.973943
    39  H    7.808103   5.241957   6.813856   4.232635   5.173753
    40  H    8.511025   6.119993   7.922648   5.298873   5.735575
    41  H    7.683543   5.079771   6.653570   4.061152   5.022769
                   26         27         28         29         30
    26  C    0.000000
    27  H    2.140520   0.000000
    28  C    2.429055   3.875509   0.000000
    29  H    3.872415   4.308302   2.122208   0.000000
    30  C    1.421320   3.422885   1.422738   3.411022   0.000000
    31  H    1.087594   2.449400   3.422489   4.959792   2.177530
    32  H    3.427492   4.962818   1.087747   2.411295   2.187688
    33  N    2.432394   4.568714   2.423821   4.543487   1.362929
    34  C    3.764152   5.851708   2.844102   4.824384   2.451000
    35  C    2.845381   4.858096   3.753880   5.834110   2.440609
    36  H    4.247006   6.273962   2.979297   4.784509   2.891783
    37  H    4.492613   6.615358   3.904730   5.897649   3.325970
    38  H    4.026666   5.969668   2.705787   4.442762   2.695323
    39  H    2.920381   4.723255   4.183263   6.169959   2.836619
    40  H    3.919631   5.950252   4.501763   6.621464   3.332027
    41  H    2.750120   4.561566   4.050101   6.022257   2.709870
                   31         32         33         34         35
    31  H    0.000000
    32  H    4.342418   0.000000
    33  N    2.688482   2.688567   0.000000
    34  C    4.132565   2.513602   1.456131   0.000000
    35  C    2.502639   4.131367   1.450592   2.502748   0.000000
    36  H    4.710255   2.419106   2.131048   1.103875   3.179167
    37  H    4.642850   3.589821   2.085536   1.093058   2.534666
    38  H    4.544511   2.216924   2.115957   1.099224   3.293276
    39  H    2.374034   4.671644   2.118959   3.160846   1.102677
    40  H    3.584048   4.660064   2.084999   2.535878   1.094927
    41  H    2.231433   4.560309   2.109286   3.300661   1.102546
                   36         37         38         39         40
    36  H    0.000000
    37  H    1.794193   0.000000
    38  H    1.785470   1.761935   0.000000
    39  H    4.031195   3.102944   3.696636   0.000000
    40  H    3.132255   2.134195   3.441009   1.775627   0.000000
    41  H    3.727506   3.454145   4.162893   1.794882   1.785472
                   41
    41  H    0.000000
 Symmetry turned off by external request.
 Stoichiometry    C18H19NO3
 Framework group  C1[X(C18H19NO3)]
 Deg. of freedom   117
 Full point group                 C1      NOp   1
 Rotational constants (GHZ):      0.5714851      0.0977049      0.0839363
 Leave Link  202 at Mon Nov  6 05:10:46 2017, MaxMem=  3758096384 cpu:         0.1
 (Enter /share/apps/gaussian/g09_D01/g09/l301.exe)
 Standard basis: 6-311++G(d,p) (5D, 7F)
 Ernie: Thresh=  0.10000D-02 Tol=  0.10000D-05 Strict=F.
   617 basis functions,   963 primitive gaussians,   639 cartesian basis functions
    79 alpha electrons       79 beta electrons
       nuclear repulsion energy      1612.6837460725 Hartrees.
 IExCor= 4639 DFT=T Ex+Corr=wB97XD ExCW=0 ScaHFX=  1.000000
 ScaDFX=  1.000000  1.000000  1.000000  1.000000 ScalE2=  1.000000  1.000000
 IRadAn=      0 IRanWt=     -1 IRanGd=            0 ICorTp=0 IEmpDi=121
  HFx wShort=  0.000000 wLong=  0.200000 cFull=  0.222036 cShort=  0.000000 cLong=  0.777964
  DFx wShort=  0.000000 wLong=  0.200000 cFull=  0.000000 cShort=  0.000000 cLong=  1.000000
 NAtoms=   41 NActive=   41 NUniq=   41 SFac= 1.00D+00 NAtFMM=   60 NAOKFM=F Big=F
 Integral buffers will be    131072 words long.
 Raffenetti 1 integral format.
 Two-electron integral symmetry is turned off.
 R6Disp:  Grimme-D2 Dispersion energy=       -0.0259250432 Hartrees.
 Nuclear repulsion after empirical dispersion term =     1612.6578210293 Hartrees.
 Leave Link  301 at Mon Nov  6 05:10:46 2017, MaxMem=  3758096384 cpu:         0.1
 (Enter /share/apps/gaussian/g09_D01/g09/l302.exe)
 NPDir=0 NMtPBC=     1 NCelOv=     1 NCel=       1 NClECP=     1 NCelD=      1
         NCelK=      1 NCelE2=     1 NClLst=     1 CellRange=     0.0.
 One-electron integrals computed using PRISM.
 NBasis=   617 RedAO= T EigKep=  1.26D-06  NBF=   617
 NBsUse=   610 1.00D-06 EigRej=  7.76D-07 NBFU=   610
 Precomputing XC quadrature grid using
 IXCGrd= 4 IRadAn=           0 IRanWt=          -1 IRanGd=           0 AccXCQ= 0.00D+00.
 Generated NRdTot=       0 NPtTot=           0 NUsed=           0 NTot=          32
 NSgBfM=   620   620   620   620   620 MxSgAt=    41 MxSgA2=    41.
 Leave Link  302 at Mon Nov  6 05:10:50 2017, MaxMem=  3758096384 cpu:         7.7
 (Enter /share/apps/gaussian/g09_D01/g09/l308.exe)
 Leave Link  308 at Mon Nov  6 05:10:50 2017, MaxMem=  3758096384 cpu:         0.9
 (Enter /share/apps/gaussian/g09_D01/g09/l303.exe)
 DipDrv:  MaxL=1.
 Leave Link  303 at Mon Nov  6 05:10:51 2017, MaxMem=  3758096384 cpu:         0.6
 (Enter /share/apps/gaussian/g09_D01/g09/l401.exe)
 ExpMin= 3.60D-02 ExpMax= 8.59D+03 ExpMxC= 1.30D+03 IAcc=3 IRadAn=         5 AccDes= 0.00D+00
 Harris functional with IExCor= 4639 and IRadAn=       5 diagonalized for initial guess.
 HarFok:  IExCor= 4639 AccDes= 0.00D+00 IRadAn=         5 IDoV= 1 UseB2=F ITyADJ=14
 ICtDFT=  3500011 ScaDFX=  1.000000  1.000000  1.000000  1.000000
 FoFCou: FMM=F IPFlag=           0 FMFlag=      100000 FMFlg1=           0
         NFxFlg=           0 DoJE=T BraDBF=F KetDBF=T FulRan=T
         wScrn=  0.000000 ICntrl=     500 IOpCl=  0 I1Cent=   200000004 NGrid=           0
         NMat0=    1 NMatS0=      1 NMatT0=    0 NMatD0=    1 NMtDS0=    0 NMtDT0=    0
 Symmetry not used in FoFCou.
 Harris En= -935.530538356058    
 JPrj=0 DoOrth=F DoCkMO=F.
 Leave Link  401 at Mon Nov  6 05:11:16 2017, MaxMem=  3758096384 cpu:        51.3
 (Enter /share/apps/gaussian/g09_D01/g09/l502.exe)
 Closed shell SCF:
 Using DIIS extrapolation, IDIIS=  1040.
 Two-electron integral symmetry not used.
 IVT=     1251263 IEndB=     1251263 NGot=  3758096384 MDV=  3757270722
 LenX=  3757270722 LenY=  3756861762
 Requested convergence on RMS density matrix=1.00D-08 within 128 cycles.
 Requested convergence on MAX density matrix=1.00D-06.
 Requested convergence on             energy=1.00D-06.
 No special actions if energy rises.
 Fock matrices will be formed incrementally for  20 cycles.

 Cycle   1  Pass 1  IDiag  1:
 FoFJK:  IHMeth= 1 ICntrl=       0 DoSepK=T KAlg= 0 I1Cent=   0 FoldK=F
 IRaf=         1 NMat=   1 IRICut=       1 DoRegI=T DoRafI=F ISym2E= 0.
 FoFCou: FMM=F IPFlag=           0 FMFlag=      100000 FMFlg1=           0
         NFxFlg=           0 DoJE=T BraDBF=F KetDBF=F FulRan=T
         wScrn=  0.000000 ICntrl=     500 IOpCl=  0 I1Cent=           0 NGrid=           0
         NMat0=    1 NMatS0=      1 NMatT0=    0 NMatD0=    1 NMtDS0=    0 NMtDT0=    0
 Symmetry not used in FoFCou.
 E= -977.341871923257    
 DIIS: error= 5.27D-02 at cycle   1 NSaved=   1.
 NSaved= 1 IEnMin= 1 EnMin= -977.341871923257     IErMin= 1 ErrMin= 5.27D-02
 ErrMax= 5.27D-02  0.00D+00 EMaxC= 1.00D-01 BMatC= 2.14D+00 BMatP= 2.14D+00
 IDIUse=3 WtCom= 4.73D-01 WtEn= 5.27D-01
 Coeff-Com:  0.100D+01
 Coeff-En:   0.100D+01
 Coeff:      0.100D+01
 Gap=     0.277 Goal=   None    Shift=    0.000
 GapD=    0.277 DampG=1.000 DampE=0.500 DampFc=0.5000 IDamp=-1.
 Damping current iteration by 5.00D-01
 RMSDP=2.94D-02 MaxDP=3.68D+00              OVMax= 1.89D-01

 Cycle   2  Pass 1  IDiag  1:
 RMSU=  4.77D-03    CP:  8.28D-01
 E= -977.492336612247     Delta-E=       -0.150464688990 Rises=F Damp=T
 DIIS: error= 2.37D-02 at cycle   2 NSaved=   2.
 NSaved= 2 IEnMin= 2 EnMin= -977.492336612247     IErMin= 2 ErrMin= 2.37D-02
 ErrMax= 2.37D-02  0.00D+00 EMaxC= 1.00D-01 BMatC= 4.42D-01 BMatP= 2.14D+00
 IDIUse=3 WtCom= 7.63D-01 WtEn= 2.37D-01
 Coeff-Com: -0.537D+00 0.154D+01
 Coeff-En:   0.000D+00 0.100D+01
 Coeff:     -0.410D+00 0.141D+01
 Gap=     0.272 Goal=   None    Shift=    0.000
 RMSDP=1.61D-02 MaxDP=1.55D+00 DE=-1.50D-01 OVMax= 2.14D-01

 Cycle   3  Pass 1  IDiag  1:
 RMSU=  6.58D-03    CP:  6.47D-01  6.89D-01
 E= -977.548795551051     Delta-E=       -0.056458938804 Rises=F Damp=F
 DIIS: error= 1.57D-02 at cycle   3 NSaved=   3.
 NSaved= 3 IEnMin= 3 EnMin= -977.548795551051     IErMin= 3 ErrMin= 1.57D-02
 ErrMax= 1.57D-02  0.00D+00 EMaxC= 1.00D-01 BMatC= 1.61D-01 BMatP= 4.42D-01
 IDIUse=3 WtCom= 8.43D-01 WtEn= 1.57D-01
 Coeff-Com: -0.368D+00 0.792D+00 0.576D+00
 Coeff-En:   0.000D+00 0.232D+00 0.768D+00
 Coeff:     -0.310D+00 0.704D+00 0.606D+00
 Gap=     0.265 Goal=   None    Shift=    0.000
 RMSDP=6.38D-03 MaxDP=7.82D-01 DE=-5.65D-02 OVMax= 9.41D-02

 Cycle   4  Pass 1  IDiag  1:
 RMSU=  1.54D-03    CP:  5.89D-01  1.27D+00  5.38D-01
 E= -977.671606609859     Delta-E=       -0.122811058809 Rises=F Damp=F
 DIIS: error= 3.89D-03 at cycle   4 NSaved=   4.
 NSaved= 4 IEnMin= 4 EnMin= -977.671606609859     IErMin= 4 ErrMin= 3.89D-03
 ErrMax= 3.89D-03  0.00D+00 EMaxC= 1.00D-01 BMatC= 9.32D-03 BMatP= 1.61D-01
 IDIUse=3 WtCom= 9.61D-01 WtEn= 3.89D-02
 Coeff-Com: -0.148D+00 0.318D+00 0.333D+00 0.497D+00
 Coeff-En:   0.000D+00 0.000D+00 0.000D+00 0.100D+01
 Coeff:     -0.143D+00 0.306D+00 0.320D+00 0.517D+00
 Gap=     0.236 Goal=   None    Shift=    0.000
 RMSDP=1.12D-03 MaxDP=1.14D-01 DE=-1.23D-01 OVMax= 1.79D-02

 Cycle   5  Pass 1  IDiag  1:
 RMSU=  4.77D-04    CP:  5.99D-01  1.24D+00  6.17D-01  7.57D-01
 E= -977.679060164535     Delta-E=       -0.007453554676 Rises=F Damp=F
 DIIS: error= 5.43D-04 at cycle   5 NSaved=   5.
 NSaved= 5 IEnMin= 5 EnMin= -977.679060164535     IErMin= 5 ErrMin= 5.43D-04
 ErrMax= 5.43D-04  0.00D+00 EMaxC= 1.00D-01 BMatC= 2.03D-04 BMatP= 9.32D-03
 IDIUse=3 WtCom= 9.95D-01 WtEn= 5.43D-03
 Coeff-Com:  0.116D-01-0.255D-01 0.196D-01 0.168D+00 0.827D+00
 Coeff-En:   0.000D+00 0.000D+00 0.000D+00 0.000D+00 0.100D+01
 Coeff:      0.116D-01-0.254D-01 0.195D-01 0.167D+00 0.828D+00
 Gap=     0.237 Goal=   None    Shift=    0.000
 RMSDP=4.24D-04 MaxDP=3.82D-02 DE=-7.45D-03 OVMax= 7.09D-03

 Cycle   6  Pass 1  IDiag  1:
 RMSU=  2.44D-04    CP:  5.95D-01  1.23D+00  6.31D-01  8.32D-01  9.32D-01
 E= -977.679319215358     Delta-E=       -0.000259050823 Rises=F Damp=F
 DIIS: error= 4.96D-04 at cycle   6 NSaved=   6.
 NSaved= 6 IEnMin= 6 EnMin= -977.679319215358     IErMin= 6 ErrMin= 4.96D-04
 ErrMax= 4.96D-04  0.00D+00 EMaxC= 1.00D-01 BMatC= 5.87D-05 BMatP= 2.03D-04
 IDIUse=3 WtCom= 9.95D-01 WtEn= 4.96D-03
 Coeff-Com:  0.265D-01-0.569D-01-0.379D-01-0.118D-02 0.409D+00 0.661D+00
 Coeff-En:   0.000D+00 0.000D+00 0.000D+00 0.000D+00 0.000D+00 0.100D+01
 Coeff:      0.264D-01-0.567D-01-0.377D-01-0.117D-02 0.407D+00 0.663D+00
 Gap=     0.238 Goal=   None    Shift=    0.000
 RMSDP=1.12D-04 MaxDP=1.48D-02 DE=-2.59D-04 OVMax= 4.81D-03

 Cycle   7  Pass 1  IDiag  1:
 RMSU=  6.94D-05    CP:  5.94D-01  1.23D+00  6.35D-01  8.41D-01  1.01D+00
                    CP:  9.92D-01
 E= -977.679395468035     Delta-E=       -0.000076252677 Rises=F Damp=F
 DIIS: error= 1.40D-04 at cycle   7 NSaved=   7.
 NSaved= 7 IEnMin= 7 EnMin= -977.679395468035     IErMin= 7 ErrMin= 1.40D-04
 ErrMax= 1.40D-04  0.00D+00 EMaxC= 1.00D-01 BMatC= 5.40D-06 BMatP= 5.87D-05
 IDIUse=3 WtCom= 9.99D-01 WtEn= 1.40D-03
 Coeff-Com:  0.438D-02-0.931D-02-0.109D-01-0.227D-01-0.120D-01 0.206D+00
 Coeff-Com:  0.845D+00
 Coeff-En:   0.000D+00 0.000D+00 0.000D+00 0.000D+00 0.000D+00 0.000D+00
 Coeff-En:   0.100D+01
 Coeff:      0.438D-02-0.929D-02-0.109D-01-0.227D-01-0.120D-01 0.205D+00
 Coeff:      0.845D+00
 Gap=     0.238 Goal=   None    Shift=    0.000
 RMSDP=6.05D-05 MaxDP=5.00D-03 DE=-7.63D-05 OVMax= 2.00D-03

 Cycle   8  Pass 1  IDiag  1:
 RMSU=  3.78D-05    CP:  5.94D-01  1.24D+00  6.32D-01  8.45D-01  1.04D+00
                    CP:  1.13D+00  9.89D-01
 E= -977.679407985551     Delta-E=       -0.000012517516 Rises=F Damp=F
 DIIS: error= 6.89D-05 at cycle   8 NSaved=   8.
 NSaved= 8 IEnMin= 8 EnMin= -977.679407985551     IErMin= 8 ErrMin= 6.89D-05
 ErrMax= 6.89D-05  0.00D+00 EMaxC= 1.00D-01 BMatC= 1.17D-06 BMatP= 5.40D-06
 IDIUse=1 WtCom= 1.00D+00 WtEn= 0.00D+00
 Coeff-Com: -0.223D-02 0.485D-02 0.108D-02-0.114D-01-0.783D-01-0.126D-01
 Coeff-Com:  0.362D+00 0.737D+00
 Coeff:     -0.223D-02 0.485D-02 0.108D-02-0.114D-01-0.783D-01-0.126D-01
 Coeff:      0.362D+00 0.737D+00
 Gap=     0.238 Goal=   None    Shift=    0.000
 RMSDP=1.90D-05 MaxDP=1.25D-03 DE=-1.25D-05 OVMax= 1.21D-03

 Cycle   9  Pass 1  IDiag  1:
 RMSU=  1.27D-05    CP:  5.94D-01  1.24D+00  6.31D-01  8.44D-01  1.05D+00
                    CP:  1.16D+00  1.08D+00  1.11D+00
 E= -977.679410899742     Delta-E=       -0.000002914191 Rises=F Damp=F
 DIIS: error= 2.74D-05 at cycle   9 NSaved=   9.
 NSaved= 9 IEnMin= 9 EnMin= -977.679410899742     IErMin= 9 ErrMin= 2.74D-05
 ErrMax= 2.74D-05  0.00D+00 EMaxC= 1.00D-01 BMatC= 1.65D-07 BMatP= 1.17D-06
 IDIUse=1 WtCom= 1.00D+00 WtEn= 0.00D+00
 Coeff-Com: -0.161D-02 0.344D-02 0.284D-02 0.998D-03-0.231D-01-0.398D-01
 Coeff-Com: -0.631D-01 0.198D+00 0.922D+00
 Coeff:     -0.161D-02 0.344D-02 0.284D-02 0.998D-03-0.231D-01-0.398D-01
 Coeff:     -0.631D-01 0.198D+00 0.922D+00
 Gap=     0.238 Goal=   None    Shift=    0.000
 RMSDP=1.51D-05 MaxDP=2.10D-03 DE=-2.91D-06 OVMax= 5.26D-04

 Cycle  10  Pass 1  IDiag  1:
 RMSU=  7.60D-06    CP:  5.94D-01  1.24D+00  6.31D-01  8.42D-01  1.06D+00
                    CP:  1.19D+00  1.11D+00  1.22D+00  1.11D+00
 E= -977.679411467745     Delta-E=       -0.000000568003 Rises=F Damp=F
 DIIS: error= 1.42D-05 at cycle  10 NSaved=  10.
 NSaved=10 IEnMin=10 EnMin= -977.679411467745     IErMin=10 ErrMin= 1.42D-05
 ErrMax= 1.42D-05  0.00D+00 EMaxC= 1.00D-01 BMatC= 2.24D-08 BMatP= 1.65D-07
 IDIUse=1 WtCom= 1.00D+00 WtEn= 0.00D+00
 Coeff-Com:  0.328D-04-0.805D-04 0.441D-03 0.193D-02 0.570D-02-0.590D-02
 Coeff-Com: -0.739D-01-0.544D-01 0.265D+00 0.861D+00
 Coeff:      0.328D-04-0.805D-04 0.441D-03 0.193D-02 0.570D-02-0.590D-02
 Coeff:     -0.739D-01-0.544D-01 0.265D+00 0.861D+00
 Gap=     0.238 Goal=   None    Shift=    0.000
 RMSDP=5.40D-06 MaxDP=5.60D-04 DE=-5.68D-07 OVMax= 2.17D-04

 Cycle  11  Pass 1  IDiag  1:
 RMSU=  1.97D-06    CP:  5.94D-01  1.24D+00  6.31D-01  8.42D-01  1.06D+00
                    CP:  1.19D+00  1.11D+00  1.27D+00  1.29D+00  1.14D+00
 E= -977.679411542076     Delta-E=       -0.000000074332 Rises=F Damp=F
 DIIS: error= 3.58D-06 at cycle  11 NSaved=  11.
 NSaved=11 IEnMin=11 EnMin= -977.679411542076     IErMin=11 ErrMin= 3.58D-06
 ErrMax= 3.58D-06  0.00D+00 EMaxC= 1.00D-01 BMatC= 4.23D-09 BMatP= 2.24D-08
 IDIUse=1 WtCom= 1.00D+00 WtEn= 0.00D+00
 Coeff-Com:  0.230D-03-0.493D-03-0.235D-03 0.639D-03 0.525D-02 0.354D-02
 Coeff-Com: -0.154D-01-0.455D-01-0.661D-01 0.270D+00 0.848D+00
 Coeff:      0.230D-03-0.493D-03-0.235D-03 0.639D-03 0.525D-02 0.354D-02
 Coeff:     -0.154D-01-0.455D-01-0.661D-01 0.270D+00 0.848D+00
 Gap=     0.238 Goal=   None    Shift=    0.000
 RMSDP=1.93D-06 MaxDP=1.60D-04 DE=-7.43D-08 OVMax= 8.30D-05

 Cycle  12  Pass 1  IDiag  1:
 RMSU=  7.96D-07    CP:  5.94D-01  1.24D+00  6.31D-01  8.42D-01  1.06D+00
                    CP:  1.19D+00  1.11D+00  1.28D+00  1.35D+00  1.21D+00
                    CP:  1.20D+00
 E= -977.679411554167     Delta-E=       -0.000000012091 Rises=F Damp=F
 DIIS: error= 1.40D-06 at cycle  12 NSaved=  12.
 NSaved=12 IEnMin=12 EnMin= -977.679411554167     IErMin=12 ErrMin= 1.40D-06
 ErrMax= 1.40D-06  0.00D+00 EMaxC= 1.00D-01 BMatC= 6.90D-10 BMatP= 4.23D-09
 IDIUse=1 WtCom= 1.00D+00 WtEn= 0.00D+00
 Coeff-Com:  0.561D-04-0.118D-03-0.120D-03-0.342D-04 0.817D-03 0.178D-02
 Coeff-Com:  0.814D-02-0.400D-02-0.653D-01-0.610D-01 0.268D+00 0.852D+00
 Coeff:      0.561D-04-0.118D-03-0.120D-03-0.342D-04 0.817D-03 0.178D-02
 Coeff:      0.814D-02-0.400D-02-0.653D-01-0.610D-01 0.268D+00 0.852D+00
 Gap=     0.238 Goal=   None    Shift=    0.000
 RMSDP=8.42D-07 MaxDP=7.50D-05 DE=-1.21D-08 OVMax= 3.19D-05

 Cycle  13  Pass 1  IDiag  1:
 RMSU=  3.22D-07    CP:  5.94D-01  1.24D+00  6.31D-01  8.42D-01  1.06D+00
                    CP:  1.19D+00  1.12D+00  1.28D+00  1.37D+00  1.24D+00
                    CP:  1.40D+00  1.10D+00
 E= -977.679411555821     Delta-E=       -0.000000001653 Rises=F Damp=F
 DIIS: error= 6.54D-07 at cycle  13 NSaved=  13.
 NSaved=13 IEnMin=13 EnMin= -977.679411555821     IErMin=13 ErrMin= 6.54D-07
 ErrMax= 6.54D-07  0.00D+00 EMaxC= 1.00D-01 BMatC= 1.63D-10 BMatP= 6.90D-10
 IDIUse=1 WtCom= 1.00D+00 WtEn= 0.00D+00
 Coeff-Com: -0.943D-05 0.209D-04-0.217D-04-0.129D-03-0.524D-03 0.132D-03
 Coeff-Com:  0.653D-02 0.574D-02-0.174D-01-0.756D-01-0.171D-01 0.392D+00
 Coeff-Com:  0.706D+00
 Coeff:     -0.943D-05 0.209D-04-0.217D-04-0.129D-03-0.524D-03 0.132D-03
 Coeff:      0.653D-02 0.574D-02-0.174D-01-0.756D-01-0.171D-01 0.392D+00
 Coeff:      0.706D+00
 Gap=     0.238 Goal=   None    Shift=    0.000
 RMSDP=2.61D-07 MaxDP=2.68D-05 DE=-1.65D-09 OVMax= 1.15D-05

 Cycle  14  Pass 1  IDiag  1:
 RMSU=  1.34D-07    CP:  5.94D-01  1.24D+00  6.31D-01  8.42D-01  1.06D+00
                    CP:  1.19D+00  1.12D+00  1.28D+00  1.37D+00  1.24D+00
                    CP:  1.47D+00  1.18D+00  1.09D+00
 E= -977.679411556089     Delta-E=       -0.000000000269 Rises=F Damp=F
 DIIS: error= 2.17D-07 at cycle  14 NSaved=  14.
 NSaved=14 IEnMin=14 EnMin= -977.679411556089     IErMin=14 ErrMin= 2.17D-07
 ErrMax= 2.17D-07  0.00D+00 EMaxC= 1.00D-01 BMatC= 1.14D-11 BMatP= 1.63D-10
 IDIUse=1 WtCom= 1.00D+00 WtEn= 0.00D+00
 Coeff-Com: -0.647D-05 0.138D-04 0.857D-05-0.256D-04-0.206D-03-0.204D-03
 Coeff-Com:  0.272D-03 0.102D-02 0.567D-02-0.983D-02-0.338D-01-0.262D-01
 Coeff-Com:  0.128D+00 0.935D+00
 Coeff:     -0.647D-05 0.138D-04 0.857D-05-0.256D-04-0.206D-03-0.204D-03
 Coeff:      0.272D-03 0.102D-02 0.567D-02-0.983D-02-0.338D-01-0.262D-01
 Coeff:      0.128D+00 0.935D+00
 Gap=     0.238 Goal=   None    Shift=    0.000
 RMSDP=1.18D-07 MaxDP=9.52D-06 DE=-2.69D-10 OVMax= 5.45D-06

 Cycle  15  Pass 1  IDiag  1:
 RMSU=  4.51D-08    CP:  5.94D-01  1.24D+00  6.31D-01  8.42D-01  1.06D+00
                    CP:  1.19D+00  1.12D+00  1.28D+00  1.37D+00  1.24D+00
                    CP:  1.48D+00  1.21D+00  1.24D+00  1.19D+00
 E= -977.679411556045     Delta-E=        0.000000000044 Rises=F Damp=F
 DIIS: error= 1.06D-07 at cycle  15 NSaved=  15.
 NSaved=15 IEnMin=14 EnMin= -977.679411556089     IErMin=15 ErrMin= 1.06D-07
 ErrMax= 1.06D-07  0.00D+00 EMaxC= 1.00D-01 BMatC= 2.93D-12 BMatP= 1.14D-11
 IDIUse=1 WtCom= 1.00D+00 WtEn= 0.00D+00
 Coeff-Com: -0.241D-05 0.503D-05 0.749D-05 0.438D-05-0.311D-04-0.109D-03
 Coeff-Com: -0.608D-03-0.310D-03 0.482D-02 0.439D-02-0.114D-01-0.571D-01
 Coeff-Com: -0.461D-01 0.368D+00 0.739D+00
 Coeff:     -0.241D-05 0.503D-05 0.749D-05 0.438D-05-0.311D-04-0.109D-03
 Coeff:     -0.608D-03-0.310D-03 0.482D-02 0.439D-02-0.114D-01-0.571D-01
 Coeff:     -0.461D-01 0.368D+00 0.739D+00
 Gap=     0.238 Goal=   None    Shift=    0.000
 RMSDP=9.00D-08 MaxDP=1.38D-05 DE= 4.41D-11 OVMax= 1.62D-06

 Cycle  16  Pass 1  IDiag  1:
 RMSU=  3.08D-08    CP:  5.94D-01  1.24D+00  6.31D-01  8.42D-01  1.06D+00
                    CP:  1.19D+00  1.12D+00  1.28D+00  1.38D+00  1.23D+00
                    CP:  1.49D+00  1.22D+00  1.31D+00  1.33D+00  1.04D+00
 E= -977.679411556131     Delta-E=       -0.000000000085 Rises=F Damp=F
 DIIS: error= 4.40D-08 at cycle  16 NSaved=  16.
 NSaved=16 IEnMin=16 EnMin= -977.679411556131     IErMin=16 ErrMin= 4.40D-08
 ErrMax= 4.40D-08  0.00D+00 EMaxC= 1.00D-01 BMatC= 3.92D-13 BMatP= 2.93D-12
 IDIUse=1 WtCom= 1.00D+00 WtEn= 0.00D+00
 Coeff-Com:  0.166D-06-0.390D-06 0.878D-06 0.671D-05 0.298D-04-0.206D-05
 Coeff-Com: -0.190D-03-0.325D-03 0.305D-03 0.263D-02 0.357D-02-0.768D-02
 Coeff-Com: -0.432D-01-0.903D-01 0.169D+00 0.967D+00
 Coeff:      0.166D-06-0.390D-06 0.878D-06 0.671D-05 0.298D-04-0.206D-05
 Coeff:     -0.190D-03-0.325D-03 0.305D-03 0.263D-02 0.357D-02-0.768D-02
 Coeff:     -0.432D-01-0.903D-01 0.169D+00 0.967D+00
 Gap=     0.238 Goal=   None    Shift=    0.000
 RMSDP=3.10D-08 MaxDP=4.05D-06 DE=-8.55D-11 OVMax= 1.14D-06

 Cycle  17  Pass 1  IDiag  1:
 RMSU=  7.15D-09    CP:  5.94D-01  1.24D+00  6.31D-01  8.42D-01  1.06D+00
                    CP:  1.19D+00  1.12D+00  1.28D+00  1.38D+00  1.23D+00
                    CP:  1.49D+00  1.22D+00  1.34D+00  1.39D+00  1.19D+00
                    CP:  1.31D+00
 E= -977.679411556154     Delta-E=       -0.000000000024 Rises=F Damp=F
 DIIS: error= 3.16D-08 at cycle  17 NSaved=  17.
 NSaved=17 IEnMin=17 EnMin= -977.679411556154     IErMin=17 ErrMin= 3.16D-08
 ErrMax= 3.16D-08  0.00D+00 EMaxC= 1.00D-01 BMatC= 1.29D-13 BMatP= 3.92D-13
 IDIUse=1 WtCom= 1.00D+00 WtEn= 0.00D+00
 Coeff-Com:  0.458D-06-0.965D-06-0.829D-06 0.254D-05 0.186D-04 0.164D-04
 Coeff-Com:  0.195D-04-0.115D-03-0.615D-03 0.452D-03 0.338D-02 0.666D-02
 Coeff-Com: -0.111D-01-0.926D-01-0.684D-01 0.428D+00 0.734D+00
 Coeff:      0.458D-06-0.965D-06-0.829D-06 0.254D-05 0.186D-04 0.164D-04
 Coeff:      0.195D-04-0.115D-03-0.615D-03 0.452D-03 0.338D-02 0.666D-02
 Coeff:     -0.111D-01-0.926D-01-0.684D-01 0.428D+00 0.734D+00
 Gap=     0.238 Goal=   None    Shift=    0.000
 RMSDP=1.64D-08 MaxDP=2.18D-06 DE=-2.36D-11 OVMax= 3.39D-07

 Cycle  18  Pass 1  IDiag  1:
 RMSU=  3.47D-09    CP:  5.94D-01  1.24D+00  6.31D-01  8.42D-01  1.06D+00
                    CP:  1.19D+00  1.12D+00  1.28D+00  1.38D+00  1.23D+00
                    CP:  1.49D+00  1.22D+00  1.34D+00  1.41D+00  1.24D+00
                    CP:  1.49D+00  1.00D+00
 E= -977.679411556107     Delta-E=        0.000000000048 Rises=F Damp=F
 DIIS: error= 9.97D-09 at cycle  18 NSaved=  18.
 NSaved=18 IEnMin=17 EnMin= -977.679411556154     IErMin=18 ErrMin= 9.97D-09
 ErrMax= 9.97D-09  0.00D+00 EMaxC= 1.00D-01 BMatC= 1.58D-14 BMatP= 1.29D-13
 IDIUse=1 WtCom= 1.00D+00 WtEn= 0.00D+00
 Coeff-Com:  0.114D-06-0.232D-06-0.432D-06-0.485D-06-0.492D-06 0.537D-05
 Coeff-Com:  0.484D-04 0.276D-04-0.232D-03-0.462D-03 0.706D-04 0.405D-02
 Coeff-Com:  0.586D-02-0.715D-02-0.687D-01-0.674D-01 0.221D+00 0.913D+00
 Coeff:      0.114D-06-0.232D-06-0.432D-06-0.485D-06-0.492D-06 0.537D-05
 Coeff:      0.484D-04 0.276D-04-0.232D-03-0.462D-03 0.706D-04 0.405D-02
 Coeff:      0.586D-02-0.715D-02-0.687D-01-0.674D-01 0.221D+00 0.913D+00
 Gap=     0.238 Goal=   None    Shift=    0.000
 RMSDP=9.44D-09 MaxDP=1.66D-06 DE= 4.77D-11 OVMax= 2.06D-07

 Cycle  19  Pass 1  IDiag  1:
 RMSU=  1.70D-09    CP:  5.94D-01  1.24D+00  6.31D-01  8.42D-01  1.06D+00
                    CP:  1.19D+00  1.12D+00  1.28D+00  1.38D+00  1.23D+00
                    CP:  1.49D+00  1.22D+00  1.34D+00  1.42D+00  1.24D+00
                    CP:  1.59D+00  1.18D+00  1.22D+00
 E= -977.679411556184     Delta-E=       -0.000000000077 Rises=F Damp=F
 DIIS: error= 5.37D-09 at cycle  19 NSaved=  19.
 NSaved=19 IEnMin=19 EnMin= -977.679411556184     IErMin=19 ErrMin= 5.37D-09
 ErrMax= 5.37D-09  0.00D+00 EMaxC= 1.00D-01 BMatC= 3.28D-15 BMatP= 1.58D-14
 IDIUse=1 WtCom= 1.00D+00 WtEn= 0.00D+00
 Coeff-Com: -0.184D-07 0.383D-07-0.294D-07-0.482D-06-0.272D-05-0.358D-06
 Coeff-Com:  0.114D-04 0.212D-04 0.152D-04-0.203D-03-0.522D-03 0.345D-03
 Coeff-Com:  0.334D-02 0.106D-01-0.149D-01-0.841D-01-0.515D-01 0.326D+00
 Coeff-Com:  0.811D+00
 Coeff:     -0.184D-07 0.383D-07-0.294D-07-0.482D-06-0.272D-05-0.358D-06
 Coeff:      0.114D-04 0.212D-04 0.152D-04-0.203D-03-0.522D-03 0.345D-03
 Coeff:      0.334D-02 0.106D-01-0.149D-01-0.841D-01-0.515D-01 0.326D+00
 Coeff:      0.811D+00
 Gap=     0.238 Goal=   None    Shift=    0.000
 RMSDP=3.31D-09 MaxDP=5.31D-07 DE=-7.73D-11 OVMax= 6.77D-08

 SCF Done:  E(RwB97XD) =  -977.679411556     A.U. after   19 cycles
            NFock= 19  Conv=0.33D-08     -V/T= 2.0046
 KE= 9.732199408381D+02 PE=-5.503240352800D+03 EE= 1.939683179376D+03
 Leave Link  502 at Mon Nov  6 05:40:09 2017, MaxMem=  3758096384 cpu:      3465.7
 (Enter /share/apps/gaussian/g09_D01/g09/l801.exe)
 DoSCS=F DFT=T ScalE2(SS,OS)=  1.000000  1.000000
 ExpMin= 3.60D-02 ExpMax= 8.59D+03 ExpMxC= 1.30D+03 IAcc=3 IRadAn=         5 AccDes= 0.00D+00
 HarFok:  IExCor=  205 AccDes= 0.00D+00 IRadAn=         5 IDoV=-2 UseB2=F ITyADJ=14
 ICtDFT= 12500011 ScaDFX=  1.000000  1.000000  1.000000  1.000000
 Largest valence mixing into a core orbital is  5.69D-05
 Largest core mixing into a valence orbital is  1.58D-05
 Range of M.O.s used for correlation:    23   610
 NBasis=   617 NAE=    79 NBE=    79 NFC=    22 NFV=     0
 NROrb=    588 NOA=    57 NOB=    57 NVA=   531 NVB=   531

 **** Warning!!: The largest alpha MO coefficient is  0.13497659D+03

 Leave Link  801 at Mon Nov  6 05:40:11 2017, MaxMem=  3758096384 cpu:         3.5
 (Enter /share/apps/gaussian/g09_D01/g09/l914.exe)
 RHF ground state
 MDV=  3758096384 DFT=T DoStab=F Mixed=T DoRPA=T DoScal=F NonHer=T
 Would need an additional        105423900000 words for in-memory AO integral storage.
 Making orbital integer symmetry assigments:
    16 initial guesses have been made.
 Convergence on wavefunction:    0.001000000000000
 Davidson Disk Diagonalization:  ConvIn= 1.00D-03 SkipCon=T Conv= 1.00D-03.
 Max sub-space:   200 roots to seek:    16 dimension of matrix:        60534
 Iteration     1 Dimension    16 NMult     0 NNew     16
 CISAX will form    16 AO SS matrices at one time.
 NMat=    16 NSing=    16 JSym2X= 0.
 FoFJK:  IHMeth= 1 ICntrl=       0 DoSepK=T KAlg= 0 I1Cent=   0 FoldK=F
 IRaf=         1 NMat=  32 IRICut=       1 DoRegI=T DoRafI=F ISym2E= 0.
 FoFCou: FMM=F IPFlag=           0 FMFlag=      100000 FMFlg1=           0
         NFxFlg=           0 DoJE=F BraDBF=F KetDBF=F FulRan=T
         wScrn=  0.000000 ICntrl=     500 IOpCl=  0 I1Cent=           0 NGrid=           0
         NMat0=   16 NMatS0=     16 NMatT0=    0 NMatD0=   16 NMtDS0=    0 NMtDT0=    0
 Symmetry not used in FoFCou.
 New state      2 was old state     11
 New state      3 was old state      2
 New state      4 was old state     14
 Excitation Energies [eV] at current iteration:
 Root      1 :     3.682035211077382
 Root      2 :     4.273353028420915
 Root      3 :     4.318161415439346
 Root      4 :     5.327837631445592
 Root      5 :     5.441392100706338
 Root      6 :     5.539658456160627
 Root      7 :     5.785571892891667
 Root      8 :     5.858976544865728
 Root      9 :     5.988539817142253
 Root     10 :     5.990540652103361
 Root     11 :     6.156523614208210
 Root     12 :     6.306937905244432
 Root     13 :     6.370037832275949
 Root     14 :     6.744467049464656
 Root     15 :     7.101831003091279
 Root     16 :     7.257184332416026
 Iteration     2 Dimension    24 NMult    16 NNew      8
 CISAX will form     8 AO SS matrices at one time.
 NMat=     8 NSing=     8 JSym2X= 0.
 Root      1 not converged, maximum delta is    0.073429385445437
 New state      2 was old state      3
 Root      2 not converged, maximum delta is    0.170179463459654
 New state      3 was old state      2
 Root      3 not converged, maximum delta is    0.162557474309296
 Root      4 not converged, maximum delta is    0.270002807358223
 Excitation Energies [eV] at current iteration:
 Root      1 :     3.256042466609161   Change is   -0.425992744468221
 Root      2 :     3.734739686492288   Change is   -0.583421728947058
 Root      3 :     3.835455610937052   Change is   -0.437897417483864
 Root      4 :     4.592327323156169   Change is   -0.735510308289424
 Iteration     3 Dimension    32 NMult    24 NNew      8
 CISAX will form     8 AO SS matrices at one time.
 NMat=     8 NSing=     8 JSym2X= 0.
 Root      1 not converged, maximum delta is    0.018636650519250
 Root      2 not converged, maximum delta is    0.027207427634089
 Root      3 not converged, maximum delta is    0.015575963457053
 Root      4 not converged, maximum delta is    0.055555684014543
 Excitation Energies [eV] at current iteration:
 Root      1 :     3.223811645271047   Change is   -0.032230821338114
 Root      2 :     3.687350517050064   Change is   -0.047389169442225
 Root      3 :     3.808816575829880   Change is   -0.026639035107171
 Root      4 :     4.497215122020130   Change is   -0.095112201136039
 Iteration     4 Dimension    40 NMult    32 NNew      8
 CISAX will form     8 AO SS matrices at one time.
 NMat=     8 NSing=     8 JSym2X= 0.
 Root      1 not converged, maximum delta is    0.007394337509106
 Root      2 not converged, maximum delta is    0.009976612027270
 Root      3 not converged, maximum delta is    0.005478414460816
 Root      4 not converged, maximum delta is    0.020344573585131
 Excitation Energies [eV] at current iteration:
 Root      1 :     3.218690630374578   Change is   -0.005121014896469
 Root      2 :     3.677662341547327   Change is   -0.009688175502737
 Root      3 :     3.806809996585163   Change is   -0.002006579244718
 Root      4 :     4.485090250476575   Change is   -0.012124871543554
 Iteration     5 Dimension    48 NMult    40 NNew      8
 CISAX will form     8 AO SS matrices at one time.
 NMat=     8 NSing=     8 JSym2X= 0.
 Root      1 not converged, maximum delta is    0.001969941283526
 Root      2 not converged, maximum delta is    0.003719717072822
 Root      3 not converged, maximum delta is    0.001531213460041
 Root      4 not converged, maximum delta is    0.011743476753296
 Excitation Energies [eV] at current iteration:
 Root      1 :     3.218130026363967   Change is   -0.000560604010612
 Root      2 :     3.676266782088699   Change is   -0.001395559458627
 Root      3 :     3.806666006564890   Change is   -0.000143990020273
 Root      4 :     4.482484214128736   Change is   -0.002606036347839
 Iteration     6 Dimension    56 NMult    48 NNew      8
 CISAX will form     8 AO SS matrices at one time.
 NMat=     8 NSing=     8 JSym2X= 0.
 Root      1 has converged.
 Root      2 has converged.
 Root      3 has converged.
 Root      4 not converged, maximum delta is    0.008358239357104
 Excitation Energies [eV] at current iteration:
 Root      1 :     3.218078974542308   Change is   -0.000051051821659
 Root      2 :     3.676118767803415   Change is   -0.000148014285284
 Root      3 :     3.806649992108655   Change is   -0.000016014456235
 Root      4 :     4.481551513277906   Change is   -0.000932700850831
 Iteration     7 Dimension    58 NMult    56 NNew      2
 CISAX will form     2 AO SS matrices at one time.
 NMat=     2 NSing=     2 JSym2X= 0.
 Root      1 has converged.
 Root      2 has converged.
 Root      3 has converged.
 Root      4 not converged, maximum delta is    0.005356971583144
 Excitation Energies [eV] at current iteration:
 Root      1 :     3.218078928228122   Change is   -0.000000046314186
 Root      2 :     3.676118058252630   Change is   -0.000000709550785
 Root      3 :     3.806649960049055   Change is   -0.000000032059600
 Root      4 :     4.481230671660090   Change is   -0.000320841617816
 Iteration     8 Dimension    60 NMult    58 NNew      2
 CISAX will form     2 AO SS matrices at one time.
 NMat=     2 NSing=     2 JSym2X= 0.
 Root      1 has converged.
 Root      2 has converged.
 Root      3 has converged.
 Root      4 not converged, maximum delta is    0.001761002877078
 Excitation Energies [eV] at current iteration:
 Root      1 :     3.218078772415935   Change is   -0.000000155812187
 Root      2 :     3.676117925699959   Change is   -0.000000132552670
 Root      3 :     3.806649942075269   Change is   -0.000000017973786
 Root      4 :     4.481155728931362   Change is   -0.000074942728728
 Iteration     9 Dimension    62 NMult    60 NNew      2
 CISAX will form     2 AO SS matrices at one time.
 NMat=     2 NSing=     2 JSym2X= 0.
 Root      1 has converged.
 Root      2 has converged.
 Root      3 has converged.
 Root      4 has converged.
 Excitation Energies [eV] at current iteration:
 Root      1 :     3.218078553290790   Change is   -0.000000219125145
 Root      2 :     3.676117872564461   Change is   -0.000000053135499
 Root      3 :     3.806649914304760   Change is   -0.000000027770509
 Root      4 :     4.481141767292449   Change is   -0.000013961638913
 Convergence achieved on expansion vectors.
 ***********************************************************************
 Excited states from <AA,BB:AA,BB> singles matrix:
 ***********************************************************************
 
 1PDM for each excited state written to RWF  633
 Ground to excited state transition densities written to RWF  633
 Ground to excited state transition electric dipole moments (Au):
       state          X           Y           Z        Dip. S.      Osc.
         1         0.3899      0.3847     -3.2480     10.8495      0.8554
         2        -0.3566      0.0271      1.8999      3.7374      0.3366
         3         0.0721      0.0227     -0.2553      0.0709      0.0066
         4        -0.0883     -0.4868      0.4143      0.4164      0.0457
 Ground to excited state transition velocity dipole moments (Au):
       state          X           Y           Z        Dip. S.      Osc.
         1        -0.0441     -0.0405      0.3821      0.1496      0.8433
         2         0.0483     -0.0017     -0.2495      0.0646      0.3187
         3        -0.0121     -0.0032      0.0343      0.0013      0.0064
         4         0.0150      0.0866     -0.0655      0.0120      0.0486
 Ground to excited state transition magnetic dipole moments (Au):
       state          X           Y           Z
         1        -3.2417     -0.7160     -0.3625
         2         0.8978      0.5548      0.3303
         3        -0.0638      0.4103      0.0698
         4         1.5718      0.0401      0.4382
 Ground to excited state transition velocity quadrupole moments (Au):
       state          XX          YY          ZZ          XY          XZ          YZ
         1        -0.3334      0.8018     -9.2813      0.2791      1.9704     -2.8461
         2         0.3415     -0.1565      8.8256     -0.4658     -1.7130      2.1375
         3        -0.0888      0.0905     -1.1773      0.0687      0.2807     -0.2764
         4         0.1450     -1.3702      1.8312      0.2703     -0.4942     -1.1527
 <0|del|b> * <b|rxdel|0> + <0|del|b> * <b|delr+rdel|0>
 Rotatory Strengths (R) in cgs (10**-40 erg-esu-cm/Gauss)
       state          XX          YY          ZZ    R(velocity)    E-M Angle
         1       230.0361     70.0762    -99.6958     66.8055       88.51
         2        78.5230   -135.9744   -151.6954    -69.7156       98.17
         3        10.9661     10.4786    -12.0549      3.1299       83.06
         4        -0.2259    -10.0983      3.4070     -2.3057       90.52
 1/2[<0|r|b>*<b|rxdel|0> + (<0|rxdel|b>*<b|r|0>)*]
 Rotatory Strengths (R) in cgs (10**-40 erg-esu-cm/Gauss)
       state          XX          YY          ZZ     R(length)
         1       893.7502    194.8042   -832.6316     85.3076
         2       226.4110    -10.6174   -443.7551    -75.9871
         3         3.2519     -6.5863     12.5953      3.0870
         4        98.1697     13.8088   -128.3939     -5.4718
  1/2[<0|del|b>*<b|r|0> + (<0|r|b>*<b|del|0>)*] (Au)
       state          X           Y           Z        Dip. S.   Osc.(frdel)
         1        -0.0172     -0.0156     -1.2411      1.2739      0.8492
         2        -0.0172      0.0000     -0.4740      0.4913      0.3275
         3        -0.0009     -0.0001     -0.0088      0.0097      0.0065
         4        -0.0013     -0.0422     -0.0271      0.0706      0.0471

 Excitation energies and oscillator strengths:
 
 Excited state symmetry could not be determined.
 Excited State   1:      Singlet-?Sym    3.2181 eV  385.27 nm  f=0.8554  <S**2>=0.000
      78 -> 80         0.12998
      78 -> 82         0.16800
      79 -> 80         0.65822
 This state for optimization and/or second-order correction.
 Total Energy, E(TD-HF/TD-KS) =  -977.561149340    
 Copying the excited state density for this state as the 1-particle RhoCI density.
 
 Excited state symmetry could not be determined.
 Excited State   2:      Singlet-?Sym    3.6761 eV  337.27 nm  f=0.3366  <S**2>=0.000
      74 -> 80        -0.10133
      78 -> 80         0.64161
      79 -> 80        -0.13679
      79 -> 82         0.17673
 
 Excited state symmetry could not be determined.
 Excited State   3:      Singlet-?Sym    3.8066 eV  325.70 nm  f=0.0066  <S**2>=0.000
      76 -> 80         0.64630
      76 -> 82         0.12949
      77 -> 80        -0.13977
 
 Excited state symmetry could not be determined.
 Excited State   4:      Singlet-?Sym    4.4811 eV  276.68 nm  f=0.0457  <S**2>=0.000
      75 -> 80        -0.25953
      75 -> 82         0.12884
      78 -> 82         0.13893
      78 -> 85        -0.33482
      79 -> 82        -0.22700
      79 -> 84        -0.10132
      79 -> 85         0.43449
 SavETr:  write IOETrn=   770 NScale= 10 NData=  16 NLR=1 NState=    4 LETran=      82.
 Leave Link  914 at Mon Nov  6 06:46:44 2017, MaxMem=  3758096384 cpu:      7984.9
 (Enter /share/apps/gaussian/g09_D01/g09/l601.exe)
 Copying SCF densities to generalized density rwf, IOpCl= 0 IROHF=0.

 **********************************************************************

            Population analysis using the SCF density.

 **********************************************************************

 Alpha  occ. eigenvalues --  -19.27777 -19.24209 -19.23225 -14.47742 -10.38129
 Alpha  occ. eigenvalues --  -10.35479 -10.35132 -10.34583 -10.34238 -10.33696
 Alpha  occ. eigenvalues --  -10.33595 -10.31641 -10.30806 -10.30775 -10.30106
 Alpha  occ. eigenvalues --  -10.29983 -10.29872 -10.29822 -10.29790 -10.29613
 Alpha  occ. eigenvalues --  -10.29103 -10.28591  -1.16538  -1.15052  -1.11196
 Alpha  occ. eigenvalues --   -1.07987  -0.97167  -0.95568  -0.91008  -0.87667
 Alpha  occ. eigenvalues --   -0.87058  -0.85024  -0.84566  -0.84123  -0.79961
 Alpha  occ. eigenvalues --   -0.78808  -0.74842  -0.72324  -0.71635  -0.68798
 Alpha  occ. eigenvalues --   -0.67604  -0.64701  -0.63390  -0.62348  -0.60694
 Alpha  occ. eigenvalues --   -0.59399  -0.58333  -0.58153  -0.57834  -0.55916
 Alpha  occ. eigenvalues --   -0.55530  -0.54731  -0.53660  -0.52625  -0.52308
 Alpha  occ. eigenvalues --   -0.52013  -0.51545  -0.51385  -0.50949  -0.50140
 Alpha  occ. eigenvalues --   -0.48879  -0.48657  -0.48148  -0.47422  -0.46659
 Alpha  occ. eigenvalues --   -0.46397  -0.45809  -0.44619  -0.43170  -0.42596
 Alpha  occ. eigenvalues --   -0.42259  -0.41304  -0.38149  -0.35093  -0.34934
 Alpha  occ. eigenvalues --   -0.34154  -0.33722  -0.27978  -0.26713
 Alpha virt. eigenvalues --   -0.02875   0.02525   0.03143   0.03467   0.04283
 Alpha virt. eigenvalues --    0.04379   0.04952   0.05642   0.05829   0.06345
 Alpha virt. eigenvalues --    0.06463   0.07222   0.07714   0.07831   0.08083
 Alpha virt. eigenvalues --    0.08174   0.08464   0.08998   0.09488   0.09983
 Alpha virt. eigenvalues --    0.10190   0.10317   0.10992   0.11445   0.11957
 Alpha virt. eigenvalues --    0.12566   0.13195   0.13378   0.13606   0.13810
 Alpha virt. eigenvalues --    0.14333   0.14607   0.14877   0.15364   0.15599
 Alpha virt. eigenvalues --    0.15660   0.16035   0.16329   0.16501   0.16830
 Alpha virt. eigenvalues --    0.17207   0.17209   0.17290   0.17814   0.17867
 Alpha virt. eigenvalues --    0.18009   0.18722   0.18816   0.19418   0.19646
 Alpha virt. eigenvalues --    0.19863   0.20010   0.20302   0.20450   0.20645
 Alpha virt. eigenvalues --    0.20929   0.21022   0.21255   0.21601   0.21801
 Alpha virt. eigenvalues --    0.22061   0.22266   0.22550   0.22763   0.22938
 Alpha virt. eigenvalues --    0.23697   0.23809   0.23976   0.24080   0.24445
 Alpha virt. eigenvalues --    0.24802   0.25054   0.25594   0.25824   0.26012
 Alpha virt. eigenvalues --    0.26276   0.26475   0.27049   0.27558   0.27840
 Alpha virt. eigenvalues --    0.28186   0.28517   0.29049   0.29124   0.29411
 Alpha virt. eigenvalues --    0.29699   0.29860   0.30113   0.30303   0.30678
 Alpha virt. eigenvalues --    0.31076   0.31398   0.31730   0.31987   0.32390
 Alpha virt. eigenvalues --    0.32703   0.33222   0.33510   0.33739   0.33924
 Alpha virt. eigenvalues --    0.34441   0.34895   0.35122   0.35416   0.35835
 Alpha virt. eigenvalues --    0.35937   0.36386   0.36903   0.37141   0.37663
 Alpha virt. eigenvalues --    0.37787   0.38107   0.38408   0.38782   0.39107
 Alpha virt. eigenvalues --    0.39319   0.39386   0.39830   0.40319   0.40725
 Alpha virt. eigenvalues --    0.40770   0.41469   0.41907   0.42627   0.42949
 Alpha virt. eigenvalues --    0.43016   0.43974   0.44170   0.44527   0.44765
 Alpha virt. eigenvalues --    0.45508   0.45693   0.46314   0.46752   0.47184
 Alpha virt. eigenvalues --    0.48108   0.48500   0.49282   0.50481   0.50954
 Alpha virt. eigenvalues --    0.51457   0.51889   0.52823   0.53275   0.54504
 Alpha virt. eigenvalues --    0.55117   0.55552   0.57262   0.58723   0.59530
 Alpha virt. eigenvalues --    0.60580   0.61237   0.61724   0.62159   0.62671
 Alpha virt. eigenvalues --    0.62899   0.63109   0.63925   0.64281   0.64769
 Alpha virt. eigenvalues --    0.65553   0.65933   0.66702   0.66983   0.67586
 Alpha virt. eigenvalues --    0.67854   0.68285   0.69042   0.69520   0.70221
 Alpha virt. eigenvalues --    0.70870   0.71110   0.71685   0.72084   0.72558
 Alpha virt. eigenvalues --    0.72723   0.73199   0.73741   0.73899   0.74210
 Alpha virt. eigenvalues --    0.74611   0.74963   0.75443   0.75683   0.75886
 Alpha virt. eigenvalues --    0.76804   0.77021   0.77844   0.78394   0.78854
 Alpha virt. eigenvalues --    0.79065   0.79464   0.80014   0.80425   0.81298
 Alpha virt. eigenvalues --    0.82191   0.82697   0.83647   0.83836   0.84312
 Alpha virt. eigenvalues --    0.84979   0.85608   0.87168   0.88286   0.88751
 Alpha virt. eigenvalues --    0.89278   0.89740   0.91799   0.92625   0.94180
 Alpha virt. eigenvalues --    0.94574   0.95332   0.95560   0.96535   0.97247
 Alpha virt. eigenvalues --    0.97678   0.97935   0.98483   0.98850   0.99242
 Alpha virt. eigenvalues --    0.99862   1.01383   1.01517   1.01947   1.03494
 Alpha virt. eigenvalues --    1.04896   1.05101   1.05344   1.06282   1.06517
 Alpha virt. eigenvalues --    1.06741   1.07724   1.08444   1.08694   1.09702
 Alpha virt. eigenvalues --    1.10172   1.11107   1.11450   1.12322   1.12875
 Alpha virt. eigenvalues --    1.13675   1.13964   1.14234   1.15176   1.16171
 Alpha virt. eigenvalues --    1.16711   1.17513   1.19290   1.19534   1.20268
 Alpha virt. eigenvalues --    1.21160   1.21707   1.22007   1.23391   1.24741
 Alpha virt. eigenvalues --    1.24966   1.27751   1.30866   1.31872   1.32435
 Alpha virt. eigenvalues --    1.34448   1.34942   1.36153   1.37162   1.37439
 Alpha virt. eigenvalues --    1.39698   1.39967   1.40786   1.42724   1.45817
 Alpha virt. eigenvalues --    1.47129   1.48294   1.49848   1.51513   1.52018
 Alpha virt. eigenvalues --    1.52220   1.54333   1.54930   1.55113   1.56681
 Alpha virt. eigenvalues --    1.57222   1.57860   1.58636   1.59825   1.60916
 Alpha virt. eigenvalues --    1.61344   1.61842   1.62225   1.62854   1.62967
 Alpha virt. eigenvalues --    1.63123   1.64027   1.64532   1.65205   1.65611
 Alpha virt. eigenvalues --    1.66607   1.67774   1.68095   1.68606   1.68771
 Alpha virt. eigenvalues --    1.69579   1.70348   1.71900   1.74454   1.75309
 Alpha virt. eigenvalues --    1.75438   1.76493   1.77654   1.77996   1.78834
 Alpha virt. eigenvalues --    1.79918   1.80167   1.80440   1.81201   1.81515
 Alpha virt. eigenvalues --    1.82168   1.83117   1.84017   1.84254   1.84904
 Alpha virt. eigenvalues --    1.86242   1.87323   1.87866   1.88835   1.91732
 Alpha virt. eigenvalues --    1.92476   1.93755   1.94105   1.94432   1.95613
 Alpha virt. eigenvalues --    1.96156   1.97171   1.99229   2.00082   2.00964
 Alpha virt. eigenvalues --    2.01131   2.01892   2.02941   2.03760   2.05260
 Alpha virt. eigenvalues --    2.05555   2.06615   2.07776   2.08263   2.09022
 Alpha virt. eigenvalues --    2.10059   2.10678   2.12656   2.13816   2.14131
 Alpha virt. eigenvalues --    2.14724   2.15624   2.16846   2.17341   2.18166
 Alpha virt. eigenvalues --    2.18403   2.19100   2.20727   2.21670   2.22764
 Alpha virt. eigenvalues --    2.24359   2.24795   2.26061   2.26995   2.28231
 Alpha virt. eigenvalues --    2.29267   2.30792   2.34630   2.35917   2.37504
 Alpha virt. eigenvalues --    2.39137   2.40540   2.42305   2.42760   2.45034
 Alpha virt. eigenvalues --    2.46670   2.48857   2.49308   2.49737   2.52567
 Alpha virt. eigenvalues --    2.53349   2.53522   2.54518   2.55182   2.55914
 Alpha virt. eigenvalues --    2.57549   2.58110   2.58691   2.61547   2.61626
 Alpha virt. eigenvalues --    2.63028   2.64752   2.66486   2.67636   2.68163
 Alpha virt. eigenvalues --    2.70950   2.72575   2.73069   2.74061   2.75072
 Alpha virt. eigenvalues --    2.76661   2.77499   2.77706   2.78178   2.79306
 Alpha virt. eigenvalues --    2.80101   2.80512   2.81471   2.82118   2.82431
 Alpha virt. eigenvalues --    2.83046   2.84375   2.84937   2.85598   2.85915
 Alpha virt. eigenvalues --    2.87554   2.88938   2.89741   2.90368   2.91478
 Alpha virt. eigenvalues --    2.92581   2.93414   2.94708   2.95107   2.96116
 Alpha virt. eigenvalues --    2.97236   2.98252   2.99258   3.01123   3.02235
 Alpha virt. eigenvalues --    3.03220   3.03662   3.04574   3.06385   3.07107
 Alpha virt. eigenvalues --    3.08967   3.13281   3.15069   3.15777   3.18011
 Alpha virt. eigenvalues --    3.18890   3.19458   3.20959   3.22324   3.22675
 Alpha virt. eigenvalues --    3.23425   3.25463   3.28339   3.30414   3.31610
 Alpha virt. eigenvalues --    3.33038   3.33695   3.34616   3.38154   3.39019
 Alpha virt. eigenvalues --    3.40990   3.42307   3.45494   3.46791   3.49209
 Alpha virt. eigenvalues --    3.52706   3.58269   3.59876   3.60306   3.62042
 Alpha virt. eigenvalues --    3.62638   3.65409   3.66167   3.73108   3.74177
 Alpha virt. eigenvalues --    3.75946   3.77639   3.78103   3.78186   3.81236
 Alpha virt. eigenvalues --    3.85842   3.86062   3.88387   3.89765   3.91945
 Alpha virt. eigenvalues --    3.92147   4.02431   4.05268   4.07632   4.10393
 Alpha virt. eigenvalues --    4.12471   4.16455   4.18821   4.25605   4.26538
 Alpha virt. eigenvalues --    4.29313   4.29584   4.33132   4.37070   4.53068
 Alpha virt. eigenvalues --    4.77049   4.92779   4.93940   4.99799   5.15264
 Alpha virt. eigenvalues --    5.17160   5.18055   5.19079   5.37801   5.50730
 Alpha virt. eigenvalues --    5.64763   5.83161   5.89412   5.97103  23.72301
 Alpha virt. eigenvalues --   23.79355  23.94304  24.01511  24.02509  24.03414
 Alpha virt. eigenvalues --   24.03882  24.04298  24.07255  24.07836  24.08714
 Alpha virt. eigenvalues --   24.12320  24.13671  24.22095  24.24784  24.28711
 Alpha virt. eigenvalues --   24.30347  24.30536  35.73545  50.10326  50.14176
 Alpha virt. eigenvalues --   50.18409
          Condensed to atoms (all electrons):
               1          2          3          4          5          6
     1  C    5.279099   0.420547   0.406614   0.381336   0.198218   0.318580
     2  H    0.420547   0.555024  -0.013476  -0.068209  -0.034688   0.007234
     3  H    0.406614  -0.013476   0.464026  -0.025854  -0.065848   0.067109
     4  H    0.381336  -0.068209  -0.025854   0.633778  -0.037180   0.007470
     5  O    0.198218  -0.034688  -0.065848  -0.037180   8.179277   0.160078
     6  C    0.318580   0.007234   0.067109   0.007470   0.160078  19.746530
     7  C    0.022554   0.009136   0.027259  -0.083172  -0.805055  -1.558523
     8  C   -0.351482  -0.030533  -0.047071   0.043196   0.499573  -6.324956
     9  C   -0.000712   0.005389  -0.001971  -0.001745   0.006335  -0.236154
    10  H    0.001435  -0.001162   0.001069  -0.000728  -0.025709  -0.158318
    11  C   -0.227855  -0.015920  -0.011125  -0.019040   0.041978  -6.605203
    12  H   -0.069559  -0.031029  -0.002590   0.000613  -0.035474  -0.227474
    13  C    0.140736  -0.012986   0.001880   0.015234   0.056635   0.544948
    14  H   -0.000394   0.000021  -0.000089  -0.000022   0.000555   0.054592
    15  C   -0.069516   0.010487  -0.003462   0.000889   0.008256  -0.061217
    16  O   -0.000698   0.000209  -0.000023   0.000029   0.000265  -0.023691
    17  C   -0.061447   0.011281  -0.001390  -0.007547  -0.005997   0.423318
    18  O   -0.000482   0.000046  -0.000010   0.000005   0.000046   0.002423
    19  H    0.000315   0.000002   0.000006   0.000036   0.000455   0.008209
    20  C   -0.004408   0.002625   0.000624   0.004593  -0.004840   0.951472
    21  H    0.030810   0.003080   0.000779   0.007425   0.003663  -0.145337
    22  C   -0.003402   0.001301   0.000007  -0.004791   0.000022  -0.156336
    23  H   -0.000843   0.000036  -0.000036  -0.000045  -0.000063   0.004171
    24  C    0.001386  -0.000128   0.000119   0.000104  -0.000160   0.078254
    25  C   -0.002376   0.000154   0.000235   0.003375  -0.000657   0.097362
    26  C    0.000180   0.000053   0.000012  -0.000177  -0.000011   0.010505
    27  H    0.000049  -0.000011   0.000002   0.000011  -0.000001   0.000092
    28  C   -0.002781  -0.000285  -0.000473  -0.000409   0.000348  -0.080852
    29  H   -0.003357   0.000419   0.000039  -0.004763  -0.000345   0.037157
    30  C   -0.000219   0.000165  -0.000032  -0.000163   0.000002  -0.000859
    31  H   -0.000009   0.000002  -0.000001  -0.000008   0.000000  -0.000169
    32  H    0.000117  -0.000023  -0.000005   0.000104   0.000018  -0.002518
    33  N   -0.000002   0.000000   0.000000  -0.000002   0.000000   0.000010
    34  C   -0.000019  -0.000004  -0.000004  -0.000013   0.000000  -0.000188
    35  C    0.000000   0.000002   0.000000  -0.000004   0.000000   0.000001
    36  H    0.000001   0.000001   0.000000   0.000000   0.000000   0.000035
    37  H   -0.000001   0.000000   0.000000  -0.000001   0.000000  -0.000011
    38  H   -0.000001  -0.000003   0.000001   0.000011   0.000000   0.000043
    39  H    0.000000   0.000000   0.000000   0.000000   0.000000   0.000004
    40  H    0.000000   0.000000   0.000000   0.000000   0.000000   0.000001
    41  H    0.000000   0.000000   0.000000   0.000000   0.000000  -0.000003
               7          8          9         10         11         12
     1  C    0.022554  -0.351482  -0.000712   0.001435  -0.227855  -0.069559
     2  H    0.009136  -0.030533   0.005389  -0.001162  -0.015920  -0.031029
     3  H    0.027259  -0.047071  -0.001971   0.001069  -0.011125  -0.002590
     4  H   -0.083172   0.043196  -0.001745  -0.000728  -0.019040   0.000613
     5  O   -0.805055   0.499573   0.006335  -0.025709   0.041978  -0.035474
     6  C   -1.558523  -6.324956  -0.236154  -0.158318  -6.605203  -0.227474
     7  C   15.859009  -4.687611  -1.293946   0.722416   2.300636  -0.044311
     8  C   -4.687611  14.580190   0.494043  -0.193340   1.218269   0.546706
     9  C   -1.293946   0.494043   9.172523  -0.105101  -2.862190   0.072956
    10  H    0.722416  -0.193340  -0.105101   0.476529   0.097347  -0.002612
    11  C    2.300636   1.218269  -2.862190   0.097347  20.926335   0.123082
    12  H   -0.044311   0.546706   0.072956  -0.002612   0.123082   0.859105
    13  C   -1.512274   1.140109   0.533827   0.007448  -0.684660   0.221653
    14  H   -0.235869   0.080428   0.604712  -0.019444  -0.121054   0.002766
    15  C   -1.686572  -1.006672  -0.095790  -0.028176   2.098628  -0.084220
    16  O    0.032704  -0.017741  -0.354055   0.001558   0.166201  -0.001978
    17  C   -0.493397  -0.479492   0.291414  -0.012257  -6.187297  -0.176209
    18  O   -0.007884   0.012452  -0.036763   0.000037   0.016185   0.004840
    19  H    0.004800   0.002094   0.027566   0.000099  -0.098393   0.002337
    20  C   -0.284376   0.216307   0.111940  -0.004223  -4.424486  -0.073241
    21  H   -0.007251   0.122131  -0.021226   0.000450   0.117927  -0.203404
    22  C    0.077309  -0.255356  -0.020604   0.000793   0.228081  -0.043260
    23  H   -0.005845  -0.011040   0.004797  -0.000086  -0.135024   0.004989
    24  C    0.003039   0.138999  -0.017457   0.000070  -0.260585  -0.007327
    25  C   -0.051491   0.010034   0.056147  -0.000787  -0.901445   0.025475
    26  C    0.001262   0.039845  -0.003756   0.000016  -0.117078  -0.006275
    27  H    0.000208   0.000164   0.000088   0.000003   0.017691  -0.000113
    28  C   -0.005632  -0.085277   0.007065  -0.000056   0.246837   0.039962
    29  H    0.001408  -0.022837   0.003101  -0.000073  -0.087073   0.025550
    30  C   -0.000932   0.006352   0.001110  -0.000016  -0.079116   0.000694
    31  H    0.000007  -0.000581  -0.000011   0.000000  -0.001221   0.000053
    32  H    0.000360  -0.000743  -0.000242   0.000008   0.009221  -0.002399
    33  N    0.000002  -0.000033  -0.000001   0.000000   0.000225   0.000085
    34  C    0.000011  -0.000514  -0.000003   0.000000   0.001125   0.000308
    35  C    0.000003   0.000008  -0.000002   0.000000  -0.000692  -0.000075
    36  H   -0.000003   0.000065   0.000000   0.000000  -0.000132   0.000009
    37  H    0.000000  -0.000033   0.000000   0.000000   0.000070   0.000013
    38  H   -0.000004   0.000026   0.000003   0.000000  -0.000171   0.000078
    39  H    0.000000   0.000018   0.000000   0.000000   0.000002   0.000001
    40  H    0.000000   0.000007   0.000000   0.000000  -0.000034  -0.000006
    41  H    0.000000  -0.000012   0.000000   0.000000   0.000079   0.000001
              13         14         15         16         17         18
     1  C    0.140736  -0.000394  -0.069516  -0.000698  -0.061447  -0.000482
     2  H   -0.012986   0.000021   0.010487   0.000209   0.011281   0.000046
     3  H    0.001880  -0.000089  -0.003462  -0.000023  -0.001390  -0.000010
     4  H    0.015234  -0.000022   0.000889   0.000029  -0.007547   0.000005
     5  O    0.056635   0.000555   0.008256   0.000265  -0.005997   0.000046
     6  C    0.544948   0.054592  -0.061217  -0.023691   0.423318   0.002423
     7  C   -1.512274  -0.235869  -1.686572   0.032704  -0.493397  -0.007884
     8  C    1.140109   0.080428  -1.006672  -0.017741  -0.479492   0.012452
     9  C    0.533827   0.604712  -0.095790  -0.354055   0.291414  -0.036763
    10  H    0.007448  -0.019444  -0.028176   0.001558  -0.012257   0.000037
    11  C   -0.684660  -0.121054   2.098628   0.166201  -6.187297   0.016185
    12  H    0.221653   0.002766  -0.084220  -0.001978  -0.176209   0.004840
    13  C   18.996734  -0.113139  -5.371492   0.189986  -5.102616  -0.285174
    14  H   -0.113139   0.478184   0.037220  -0.023055   0.008990   0.000202
    15  C   -5.371492   0.037220  15.658107  -0.050539   0.667440   0.812102
    16  O    0.189986  -0.023055  -0.050539   8.165154  -0.019458   0.018823
    17  C   -5.102616   0.008990   0.667440  -0.019458  14.511989  -0.358507
    18  O   -0.285174   0.000202   0.812102   0.018823  -0.358507   8.108359
    19  H    0.050773   0.000085   0.032041   0.222570   0.006866   0.095855
    20  C   -2.076828   0.005552  -4.045549   0.036839   3.934386  -0.022751
    21  H    0.100540  -0.000353   0.191486  -0.004024   0.648221  -0.018011
    22  C   -0.023900  -0.001259   1.306999   0.002056  -0.631845   0.021317
    23  H   -0.071572   0.000036  -0.070517   0.000053   0.085589   0.001671
    24  C   -0.074367  -0.000153  -0.310642  -0.001382   0.229021  -0.020018
    25  C   -0.100180   0.000871  -2.013926   0.002345  -0.874233   0.005116
    26  C   -0.021812  -0.000042  -0.075569  -0.000246   0.339550  -0.002070
    27  H    0.006896   0.000004   0.042716  -0.000003   0.031769   0.000025
    28  C    0.053695   0.000058   0.396873   0.000196  -0.425001   0.000201
    29  H   -0.023206   0.000003  -0.094901   0.000360  -0.144879   0.003205
    30  C   -0.002548   0.000008  -0.198674  -0.000004  -0.371773  -0.000611
    31  H   -0.000279   0.000000   0.000897   0.000001  -0.015443   0.000062
    32  H    0.000860  -0.000003   0.019393  -0.000007   0.040893  -0.000011
    33  N    0.000010   0.000000   0.001604   0.000000   0.000948  -0.000001
    34  C    0.000071   0.000000   0.005326   0.000000   0.003644   0.000001
    35  C   -0.000007   0.000000   0.001445   0.000000  -0.009660   0.000005
    36  H   -0.000008   0.000000  -0.000519   0.000000  -0.000797   0.000000
    37  H    0.000004   0.000000   0.000319   0.000000   0.000277   0.000000
    38  H   -0.000011   0.000000  -0.000680   0.000000  -0.000413   0.000000
    39  H    0.000001   0.000000  -0.000258   0.000000   0.000112  -0.000001
    40  H   -0.000001   0.000000   0.000027   0.000000  -0.000160   0.000000
    41  H    0.000009   0.000000   0.000174   0.000000   0.000659  -0.000001
              19         20         21         22         23         24
     1  C    0.000315  -0.004408   0.030810  -0.003402  -0.000843   0.001386
     2  H    0.000002   0.002625   0.003080   0.001301   0.000036  -0.000128
     3  H    0.000006   0.000624   0.000779   0.000007  -0.000036   0.000119
     4  H    0.000036   0.004593   0.007425  -0.004791  -0.000045   0.000104
     5  O    0.000455  -0.004840   0.003663   0.000022  -0.000063  -0.000160
     6  C    0.008209   0.951472  -0.145337  -0.156336   0.004171   0.078254
     7  C    0.004800  -0.284376  -0.007251   0.077309  -0.005845   0.003039
     8  C    0.002094   0.216307   0.122131  -0.255356  -0.011040   0.138999
     9  C    0.027566   0.111940  -0.021226  -0.020604   0.004797  -0.017457
    10  H    0.000099  -0.004223   0.000450   0.000793  -0.000086   0.000070
    11  C   -0.098393  -4.424486   0.117927   0.228081  -0.135024  -0.260585
    12  H    0.002337  -0.073241  -0.203404  -0.043260   0.004989  -0.007327
    13  C    0.050773  -2.076828   0.100540  -0.023900  -0.071572  -0.074367
    14  H    0.000085   0.005552  -0.000353  -0.001259   0.000036  -0.000153
    15  C    0.032041  -4.045549   0.191486   1.306999  -0.070517  -0.310642
    16  O    0.222570   0.036839  -0.004024   0.002056   0.000053  -0.001382
    17  C    0.006866   3.934386   0.648221  -0.631845   0.085589   0.229021
    18  O    0.095855  -0.022751  -0.018011   0.021317   0.001671  -0.020018
    19  H    0.277312  -0.029192   0.001319  -0.002758  -0.001198   0.001356
    20  C   -0.029192  11.550953  -0.216771  -1.114706   0.455275  -0.219027
    21  H    0.001319  -0.216771   1.149621   0.138018  -0.016228   0.058113
    22  C   -0.002758  -1.114706   0.138018  12.046214  -0.118810  -0.006879
    23  H   -0.001198   0.455275  -0.016228  -0.118810   0.463451   0.045293
    24  C    0.001356  -0.219027   0.058113  -0.006879   0.045293   9.717085
    25  C   -0.006409   1.214968  -0.383407  -0.224492   0.088682  -0.798331
    26  C   -0.000423   0.619186   0.076196  -2.697761   0.004099   0.777519
    27  H    0.000173   0.036553   0.006651  -0.107534  -0.008109   0.285714
    28  C    0.000320  -0.650246  -0.218367  -0.947050   0.003547  -1.004284
    29  H   -0.000231   0.036308  -0.145869  -0.202476   0.010351   0.038971
    30  C   -0.000524  -0.178007  -0.071311  -1.948049   0.018155  -2.338894
    31  H   -0.000007   0.004367  -0.001366  -0.017276   0.002228   0.046832
    32  H    0.000007   0.016830   0.025170   0.159415  -0.001528  -0.027438
    33  N    0.000001  -0.002350  -0.001311  -0.032413  -0.000614   0.051862
    34  C    0.000001  -0.004728  -0.001833  -0.039272   0.000276  -0.012328
    35  C   -0.000005   0.033647   0.000552  -0.172234  -0.001200  -0.082109
    36  H    0.000000  -0.000021  -0.000417  -0.004093   0.000035  -0.005893
    37  H    0.000000  -0.000721  -0.000050   0.003509   0.000005   0.010052
    38  H   -0.000001  -0.001483  -0.000663  -0.015862   0.000147  -0.008038
    39  H    0.000000  -0.002705  -0.000046   0.005869  -0.000057  -0.006052
    40  H    0.000000   0.003002   0.000091  -0.008186  -0.000055  -0.013994
    41  H    0.000000  -0.000540   0.000106   0.003718  -0.000106   0.004203
              25         26         27         28         29         30
     1  C   -0.002376   0.000180   0.000049  -0.002781  -0.003357  -0.000219
     2  H    0.000154   0.000053  -0.000011  -0.000285   0.000419   0.000165
     3  H    0.000235   0.000012   0.000002  -0.000473   0.000039  -0.000032
     4  H    0.003375  -0.000177   0.000011  -0.000409  -0.004763  -0.000163
     5  O   -0.000657  -0.000011  -0.000001   0.000348  -0.000345   0.000002
     6  C    0.097362   0.010505   0.000092  -0.080852   0.037157  -0.000859
     7  C   -0.051491   0.001262   0.000208  -0.005632   0.001408  -0.000932
     8  C    0.010034   0.039845   0.000164  -0.085277  -0.022837   0.006352
     9  C    0.056147  -0.003756   0.000088   0.007065   0.003101   0.001110
    10  H   -0.000787   0.000016   0.000003  -0.000056  -0.000073  -0.000016
    11  C   -0.901445  -0.117078   0.017691   0.246837  -0.087073  -0.079116
    12  H    0.025475  -0.006275  -0.000113   0.039962   0.025550   0.000694
    13  C   -0.100180  -0.021812   0.006896   0.053695  -0.023206  -0.002548
    14  H    0.000871  -0.000042   0.000004   0.000058   0.000003   0.000008
    15  C   -2.013926  -0.075569   0.042716   0.396873  -0.094901  -0.198674
    16  O    0.002345  -0.000246  -0.000003   0.000196   0.000360  -0.000004
    17  C   -0.874233   0.339550   0.031769  -0.425001  -0.144879  -0.371773
    18  O    0.005116  -0.002070   0.000025   0.000201   0.003205  -0.000611
    19  H   -0.006409  -0.000423   0.000173   0.000320  -0.000231  -0.000524
    20  C    1.214968   0.619186   0.036553  -0.650246   0.036308  -0.178007
    21  H   -0.383407   0.076196   0.006651  -0.218367  -0.145869  -0.071311
    22  C   -0.224492  -2.697761  -0.107534  -0.947050  -0.202476  -1.948049
    23  H    0.088682   0.004099  -0.008109   0.003547   0.010351   0.018155
    24  C   -0.798331   0.777519   0.285714  -1.004284   0.038971  -2.338894
    25  C   11.266841  -1.690076  -0.084961   1.029161   0.576329  -0.519671
    26  C   -1.690076  10.398770   0.036495  -1.679669  -0.040120  -0.097106
    27  H   -0.084961   0.036495   0.489803   0.011119  -0.007723   0.033960
    28  C    1.029161  -1.679669   0.011119   8.961227   0.100592   0.533042
    29  H    0.576329  -0.040120  -0.007723   0.100592   0.651791   0.180979
    30  C   -0.519671  -0.097106   0.033960   0.533042   0.180979  11.895419
    31  H   -0.010489   0.481523  -0.014127  -0.023750   0.003159  -0.122234
    32  H   -0.021019   0.013889   0.002155   0.335914  -0.056397  -0.244619
    33  N   -0.055218  -0.248691  -0.000925  -0.293350   0.000323   0.299740
    34  C   -0.079275  -0.111562  -0.000225   0.062226   0.003710  -0.073901
    35  C   -0.053338   0.208138   0.004647  -0.113028  -0.000283  -0.146446
    36  H    0.009496  -0.006407  -0.000029   0.016831   0.002582  -0.007635
    37  H   -0.002289   0.012484  -0.000161   0.018692  -0.000235  -0.023071
    38  H   -0.016095  -0.040546  -0.000250   0.058690   0.001948   0.018927
    39  H    0.001594  -0.011934   0.000593   0.007532   0.000205   0.007197
    40  H    0.004956   0.018259   0.000053   0.015525  -0.000453  -0.012256
    41  H   -0.012284   0.064186   0.000694  -0.036173  -0.000610  -0.029697
              31         32         33         34         35         36
     1  C   -0.000009   0.000117  -0.000002  -0.000019   0.000000   0.000001
     2  H    0.000002  -0.000023   0.000000  -0.000004   0.000002   0.000001
     3  H   -0.000001  -0.000005   0.000000  -0.000004   0.000000   0.000000
     4  H   -0.000008   0.000104  -0.000002  -0.000013  -0.000004   0.000000
     5  O    0.000000   0.000018   0.000000   0.000000   0.000000   0.000000
     6  C   -0.000169  -0.002518   0.000010  -0.000188   0.000001   0.000035
     7  C    0.000007   0.000360   0.000002   0.000011   0.000003  -0.000003
     8  C   -0.000581  -0.000743  -0.000033  -0.000514   0.000008   0.000065
     9  C   -0.000011  -0.000242  -0.000001  -0.000003  -0.000002   0.000000
    10  H    0.000000   0.000008   0.000000   0.000000   0.000000   0.000000
    11  C   -0.001221   0.009221   0.000225   0.001125  -0.000692  -0.000132
    12  H    0.000053  -0.002399   0.000085   0.000308  -0.000075   0.000009
    13  C   -0.000279   0.000860   0.000010   0.000071  -0.000007  -0.000008
    14  H    0.000000  -0.000003   0.000000   0.000000   0.000000   0.000000
    15  C    0.000897   0.019393   0.001604   0.005326   0.001445  -0.000519
    16  O    0.000001  -0.000007   0.000000   0.000000   0.000000   0.000000
    17  C   -0.015443   0.040893   0.000948   0.003644  -0.009660  -0.000797
    18  O    0.000062  -0.000011  -0.000001   0.000001   0.000005   0.000000
    19  H   -0.000007   0.000007   0.000001   0.000001  -0.000005   0.000000
    20  C    0.004367   0.016830  -0.002350  -0.004728   0.033647  -0.000021
    21  H   -0.001366   0.025170  -0.001311  -0.001833   0.000552  -0.000417
    22  C   -0.017276   0.159415  -0.032413  -0.039272  -0.172234  -0.004093
    23  H    0.002228  -0.001528  -0.000614   0.000276  -0.001200   0.000035
    24  C    0.046832  -0.027438   0.051862  -0.012328  -0.082109  -0.005893
    25  C   -0.010489  -0.021019  -0.055218  -0.079275  -0.053338   0.009496
    26  C    0.481523   0.013889  -0.248691  -0.111562   0.208138  -0.006407
    27  H   -0.014127   0.002155  -0.000925  -0.000225   0.004647  -0.000029
    28  C   -0.023750   0.335914  -0.293350   0.062226  -0.113028   0.016831
    29  H    0.003159  -0.056397   0.000323   0.003710  -0.000283   0.002582
    30  C   -0.122234  -0.244619   0.299740  -0.073901  -0.146446  -0.007635
    31  H    0.513861  -0.000071  -0.033369  -0.004237   0.015124   0.000060
    32  H   -0.000071   0.545026  -0.035020   0.012380  -0.001059  -0.012195
    33  N   -0.033369  -0.035020   7.000686   0.280844   0.301205  -0.058698
    34  C   -0.004237   0.012380   0.280844   5.234181  -0.093084   0.404318
    35  C    0.015124  -0.001059   0.301205  -0.093084   5.283468   0.008642
    36  H    0.000060  -0.012195  -0.058698   0.404318   0.008642   0.550204
    37  H    0.002264   0.007031  -0.053006   0.407012  -0.010717  -0.028545
    38  H   -0.001884  -0.012976  -0.051400   0.435087  -0.013882  -0.055920
    39  H   -0.008698  -0.000430  -0.064447   0.006632   0.407520   0.001130
    40  H    0.006535   0.002619  -0.049131  -0.010029   0.409971  -0.000004
    41  H   -0.010981  -0.000582  -0.048625  -0.007679   0.426951  -0.002318
              37         38         39         40         41
     1  C   -0.000001  -0.000001   0.000000   0.000000   0.000000
     2  H    0.000000  -0.000003   0.000000   0.000000   0.000000
     3  H    0.000000   0.000001   0.000000   0.000000   0.000000
     4  H   -0.000001   0.000011   0.000000   0.000000   0.000000
     5  O    0.000000   0.000000   0.000000   0.000000   0.000000
     6  C   -0.000011   0.000043   0.000004   0.000001  -0.000003
     7  C    0.000000  -0.000004   0.000000   0.000000   0.000000
     8  C   -0.000033   0.000026   0.000018   0.000007  -0.000012
     9  C    0.000000   0.000003   0.000000   0.000000   0.000000
    10  H    0.000000   0.000000   0.000000   0.000000   0.000000
    11  C    0.000070  -0.000171   0.000002  -0.000034   0.000079
    12  H    0.000013   0.000078   0.000001  -0.000006   0.000001
    13  C    0.000004  -0.000011   0.000001  -0.000001   0.000009
    14  H    0.000000   0.000000   0.000000   0.000000   0.000000
    15  C    0.000319  -0.000680  -0.000258   0.000027   0.000174
    16  O    0.000000   0.000000   0.000000   0.000000   0.000000
    17  C    0.000277  -0.000413   0.000112  -0.000160   0.000659
    18  O    0.000000   0.000000  -0.000001   0.000000  -0.000001
    19  H    0.000000  -0.000001   0.000000   0.000000   0.000000
    20  C   -0.000721  -0.001483  -0.002705   0.003002  -0.000540
    21  H   -0.000050  -0.000663  -0.000046   0.000091   0.000106
    22  C    0.003509  -0.015862   0.005869  -0.008186   0.003718
    23  H    0.000005   0.000147  -0.000057  -0.000055  -0.000106
    24  C    0.010052  -0.008038  -0.006052  -0.013994   0.004203
    25  C   -0.002289  -0.016095   0.001594   0.004956  -0.012284
    26  C    0.012484  -0.040546  -0.011934   0.018259   0.064186
    27  H   -0.000161  -0.000250   0.000593   0.000053   0.000694
    28  C    0.018692   0.058690   0.007532   0.015525  -0.036173
    29  H   -0.000235   0.001948   0.000205  -0.000453  -0.000610
    30  C   -0.023071   0.018927   0.007197  -0.012256  -0.029697
    31  H    0.002264  -0.001884  -0.008698   0.006535  -0.010981
    32  H    0.007031  -0.012976  -0.000430   0.002619  -0.000582
    33  N   -0.053006  -0.051400  -0.064447  -0.049131  -0.048625
    34  C    0.407012   0.435087   0.006632  -0.010029  -0.007679
    35  C   -0.010717  -0.013882   0.407520   0.409971   0.426951
    36  H   -0.028545  -0.055920   0.001130  -0.000004  -0.002318
    37  H    0.512969  -0.019083  -0.001402   0.009329  -0.001600
    38  H   -0.019083   0.559402  -0.001770  -0.002644   0.002344
    39  H   -0.001402  -0.001770   0.556244  -0.027785  -0.058047
    40  H    0.009329  -0.002644  -0.027785   0.516086  -0.022098
    41  H   -0.001600   0.002344  -0.058047  -0.022098   0.559349
 Mulliken charges:
               1
     1  C   -0.402415
     2  H    0.181245
     3  H    0.203678
     4  H    0.155660
     5  O   -0.139694
     6  C   -0.937789
     7  C   -0.297973
     8  C    0.364313
     9  C   -0.341288
    10  H    0.242810
    11  C    1.229875
    12  H    0.080280
    13  C   -0.584988
    14  H    0.240589
    15  C   -0.023540
    16  O   -0.342447
    17  C    0.143448
    18  O   -0.350681
    19  H    0.404539
    20  C    0.125770
    21  H   -0.225105
    22  C    0.805975
    23  H    0.250093
    24  C   -0.272505
    25  C   -0.490695
    26  C   -0.250833
    27  H    0.215845
    28  C   -0.332972
    29  H    0.157342
    30  C   -0.527378
    31  H    0.189236
    32  H    0.227874
    33  N    0.091062
    34  C   -0.418256
    35  C   -0.403502
    36  H    0.190223
    37  H    0.156896
    38  H    0.167073
    39  H    0.188978
    40  H    0.160373
    41  H    0.168881
 Sum of Mulliken charges =   0.00000
 Mulliken charges with hydrogens summed into heavy atoms:
               1
     1  C    0.138168
     5  O   -0.139694
     6  C   -0.937789
     7  C   -0.055163
     8  C    0.444593
     9  C   -0.100699
    11  C    1.229875
    13  C   -0.584988
    15  C   -0.023540
    16  O    0.062092
    17  C   -0.081657
    18  O   -0.350681
    20  C    0.375863
    22  C    0.805975
    24  C   -0.056660
    25  C   -0.333352
    26  C   -0.061597
    28  C   -0.105098
    30  C   -0.527378
    33  N    0.091062
    34  C    0.095936
    35  C    0.114730
 Electronic spatial extent (au):  <R**2>=          50652.5663
 Charge=              0.0000 electrons
 Dipole moment (field-independent basis, Debye):
    X=              0.0133    Y=             -3.2792    Z=             -9.6065  Tot=             10.1508
 Quadrupole moment (field-independent basis, Debye-Ang):
   XX=           -134.4400   YY=            -94.7342   ZZ=             21.0257
   XY=             -1.1731   XZ=            -22.7942   YZ=             56.2512
 Traceless Quadrupole moment (field-independent basis, Debye-Ang):
   XX=            -65.0571   YY=            -25.3514   ZZ=             90.4085
   XY=             -1.1731   XZ=            -22.7942   YZ=             56.2512
 Octapole moment (field-independent basis, Debye-Ang**2):
  XXX=           -724.2228  YYY=           1558.7263  ZZZ=            485.3905  XYY=           -220.8035
  XXY=            637.9884  XXZ=            830.3892  XZZ=            155.9368  YZZ=           -113.5188
  YYZ=            447.1526  XYZ=             93.1054
 Hexadecapole moment (field-independent basis, Debye-Ang**3):
 XXXX=          -3187.6845 YYYY=         -17920.3920 ZZZZ=         -18119.5624 XXXY=           3057.0969
 XXXZ=           5614.1560 YYYX=           2910.6453 YYYZ=          -8115.0898 ZZZX=            -58.6850
 ZZZY=          -1791.0810 XXYY=          -3973.3076 XXZZ=          -7628.0284 YYZZ=          -6687.7539
 XXYZ=          -3643.4725 YYXZ=           1314.5147 ZZXY=           -610.4177
 N-N= 1.612657821029D+03 E-N=-5.503240353154D+03  KE= 9.732199408381D+02
 Leave Link  601 at Mon Nov  6 06:46:44 2017, MaxMem=  3758096384 cpu:         0.5
 (Enter /share/apps/gaussian/g09_D01/g09/l9999.exe)
 1\1\GINC-NXN32\SP\RwB97XD TD-FC\6-311++G(d,p)\C18H19N1O3\BTX008\06-Nov
 -2017\0\\#p wb97xd 6-311++G** td=(nstates=4) nosymm\\Title\\0,1\C,0,0.
 134528,-8.781231,-4.03059\H,0,-0.746474,-8.20385,-4.350885\H,0,-0.1541
 77,-9.827588,-3.882571\H,0,0.916381,-8.716901,-4.80201\O,0,0.603463,-8
 .320878,-2.756122\C,0,0.953098,-7.000168,-2.644728\C,0,1.1782,-6.55582
 6,-1.326419\C,0,1.081761,-6.113987,-3.704896\C,0,1.439719,-5.226981,-1
 .066972\H,0,1.102381,-7.275196,-0.510496\C,0,1.374977,-4.748042,-3.468
 734\H,0,0.941796,-6.471218,-4.722677\C,0,1.499262,-4.297696,-2.121133\
 H,0,1.566983,-4.870263,-0.045477\C,0,1.582019,-3.771253,-4.547421\O,0,
 1.67988,-2.998855,-1.827526\C,0,1.710145,-4.196893,-5.927102\O,0,1.698
 894,-2.534661,-4.23569\H,0,1.700022,-2.53986,-2.761271\C,0,1.959986,-3
 .299802,-6.927274\H,0,1.662313,-5.262623,-6.148364\C,0,2.182633,-3.581
 022,-8.316179\H,0,1.994538,-2.24357,-6.637048\C,0,2.377663,-2.518976,-
 9.226556\C,0,2.204645,-4.88978,-8.854553\C,0,2.553685,-2.733769,-10.57
 9733\H,0,2.361882,-1.496258,-8.843759\C,0,2.381592,-5.126742,-10.19977
 1\H,0,2.080942,-5.745734,-8.192229\C,0,2.538244,-4.049846,-11.116252\H
 ,0,2.664162,-1.879716,-11.243998\H,0,2.391798,-6.157286,-10.54772\N,0,
 2.651239,-4.280057,-12.454837\C,0,2.441909,-5.613439,-13.001271\C,0,2.
 909007,-3.182022,-13.367027\H,0,3.29224,-6.284692,-12.789381\H,0,2.298
 646,-5.535877,-14.082121\H,0,1.531079,-6.070182,-12.588878\H,0,2.03821
 6,-2.510119,-13.445548\H,0,3.112987,-3.583547,-14.365042\H,0,3.783495,
 -2.597926,-13.035802\\Version=ES64L-G09RevD.01\HF=-977.6794116\RMSD=3.
 315e-09\PG=C01 [X(C18H19N1O3)]\\@


 NATURE WILL TELL YOU A DIRECT LIE IF SHE CAN.

                                -- CHARLES DARWIN
 Job cpu time:       0 days  3 hours 11 minutes 57.1 seconds.
 File lengths (MBytes):  RWF=    560 Int=      0 D2E=      0 Chk=     63 Scr=      1
 Normal termination of Gaussian 09 at Mon Nov  6 06:46:44 2017.
