 Entering Gaussian System, Link 0=g09
 Input=2hc_5_rel-mega_dimer_2_mon-1.com
 Output=2hc_5_rel-mega_dimer_2_mon-1.out
 Initial command:
 /share/apps/gaussian/g09_D01/g09/l1.exe "/tmp/160970.1.all.q/Gau-2067.inp" -scrdir="/tmp/160970.1.all.q/"
 Entering Link 1 = /share/apps/gaussian/g09_D01/g09/l1.exe PID=      2068.
  
 Copyright (c) 1988,1990,1992,1993,1995,1998,2003,2009,2013,
            Gaussian, Inc.  All Rights Reserved.
  
 This is part of the Gaussian(R) 09 program.  It is based on
 the Gaussian(R) 03 system (copyright 2003, Gaussian, Inc.),
 the Gaussian(R) 98 system (copyright 1998, Gaussian, Inc.),
 the Gaussian(R) 94 system (copyright 1995, Gaussian, Inc.),
 the Gaussian 92(TM) system (copyright 1992, Gaussian, Inc.),
 the Gaussian 90(TM) system (copyright 1990, Gaussian, Inc.),
 the Gaussian 88(TM) system (copyright 1988, Gaussian, Inc.),
 the Gaussian 86(TM) system (copyright 1986, Carnegie Mellon
 University), and the Gaussian 82(TM) system (copyright 1983,
 Carnegie Mellon University). Gaussian is a federally registered
 trademark of Gaussian, Inc.
  
 This software contains proprietary and confidential information,
 including trade secrets, belonging to Gaussian, Inc.
  
 This software is provided under written license and may be
 used, copied, transmitted, or stored only in accord with that
 written license.
  
 The following legend is applicable only to US Government
 contracts under FAR:
  
                    RESTRICTED RIGHTS LEGEND
  
 Use, reproduction and disclosure by the US Government is
 subject to restrictions as set forth in subparagraphs (a)
 and (c) of the Commercial Computer Software - Restricted
 Rights clause in FAR 52.227-19.
  
 Gaussian, Inc.
 340 Quinnipiac St., Bldg. 40, Wallingford CT 06492
  
  
 ---------------------------------------------------------------
 Warning -- This program may not be used in any manner that
 competes with the business of Gaussian, Inc. or will provide
 assistance to any competitor of Gaussian, Inc.  The licensee
 of this program is prohibited from giving any competitor of
 Gaussian, Inc. access to this program.  By using this program,
 the user acknowledges that Gaussian, Inc. is engaged in the
 business of creating and licensing software in the field of
 computational chemistry and represents and warrants to the
 licensee that it is not a competitor of Gaussian, Inc. and that
 it will not use this program in any manner prohibited above.
 ---------------------------------------------------------------
  

 Cite this work as:
 Gaussian 09, Revision D.01,
 M. J. Frisch, G. W. Trucks, H. B. Schlegel, G. E. Scuseria, 
 M. A. Robb, J. R. Cheeseman, G. Scalmani, V. Barone, B. Mennucci, 
 G. A. Petersson, H. Nakatsuji, M. Caricato, X. Li, H. P. Hratchian, 
 A. F. Izmaylov, J. Bloino, G. Zheng, J. L. Sonnenberg, M. Hada, 
 M. Ehara, K. Toyota, R. Fukuda, J. Hasegawa, M. Ishida, T. Nakajima, 
 Y. Honda, O. Kitao, H. Nakai, T. Vreven, J. A. Montgomery, Jr., 
 J. E. Peralta, F. Ogliaro, M. Bearpark, J. J. Heyd, E. Brothers, 
 K. N. Kudin, V. N. Staroverov, T. Keith, R. Kobayashi, J. Normand, 
 K. Raghavachari, A. Rendell, J. C. Burant, S. S. Iyengar, J. Tomasi, 
 M. Cossi, N. Rega, J. M. Millam, M. Klene, J. E. Knox, J. B. Cross, 
 V. Bakken, C. Adamo, J. Jaramillo, R. Gomperts, R. E. Stratmann, 
 O. Yazyev, A. J. Austin, R. Cammi, C. Pomelli, J. W. Ochterski, 
 R. L. Martin, K. Morokuma, V. G. Zakrzewski, G. A. Voth, 
 P. Salvador, J. J. Dannenberg, S. Dapprich, A. D. Daniels, 
 O. Farkas, J. B. Foresman, J. V. Ortiz, J. Cioslowski, 
 and D. J. Fox, Gaussian, Inc., Wallingford CT, 2013.
 
 ******************************************
 Gaussian 09:  ES64L-G09RevD.01 24-Apr-2013
                 5-Nov-2017 
 ******************************************
 %chk=2hc_5_rel-mega_dimer_2_mon-1.chk
 %nproc=4
 Will use up to    4 processors via shared memory.
 %mem=28GB
 ------------------------------------------
 #p wb97xd 6-311++G** td=(nstates=4) nosymm
 ------------------------------------------
 1/38=1/1;
 2/12=2,15=1,17=6,18=5,40=1/2;
 3/5=4,6=6,7=1111,11=9,16=1,25=1,30=1,74=-58/1,2,8,3;
 4//1;
 5/5=2,38=5/2;
 8/6=1,10=2,108=4/1;
 9/41=4,42=1,70=2/14;
 6/7=2,8=2,9=2,10=2/1;
 99/5=1,9=1/99;
 Leave Link    1 at Sun Nov  5 11:01:12 2017, MaxMem=  3758096384 cpu:         0.3
 (Enter /share/apps/gaussian/g09_D01/g09/l101.exe)
 -----
 Title
 -----
 Symbolic Z-matrix:
 Charge =  0 Multiplicity = 1
 C                    -3.63276  -9.27786  -6.4675 
 C                    -4.16252  -9.22797  -7.74786 
 C                    -4.40557  -8.8423   -5.37603 
 O                    -2.37271  -9.72894  -6.14776 
 C                    -5.47843  -8.75438  -7.972 
 H                    -3.56533  -9.56123  -8.59081 
 C                    -5.68474  -8.35972  -5.56819 
 H                    -3.98102  -8.89935  -4.37485 
 C                    -1.54625  -10.1816  -7.2224 
 C                    -6.24541  -8.31662  -6.85285 
 C                    -6.10092  -8.71679  -9.30211 
 H                    -6.28133  -8.02378  -4.72004 
 H                    -1.38256  -9.37563  -7.95617 
 H                    -0.59073  -10.47372  -6.77053 
 H                    -2.00507  -11.0541  -7.71742 
 O                    -7.50797  -7.85283  -7.00388 
 C                    -5.38682  -9.106    -10.49087 
 O                    -7.3241   -8.32793  -9.3919 
 H                    -7.67897  -7.99249  -8.03077 
 C                    -5.98897  -9.05321  -11.71529 
 H                    -4.36303  -9.45952  -10.39864 
 C                    -5.48143  -9.44982  -12.98945 
 H                    -7.01408  -8.66824  -11.72605 
 C                    -6.3113   -9.29062  -14.12281 
 C                    -4.20579  -10.02679  -13.19656 
 C                    -5.91858  -9.68822  -15.38265 
 H                    -7.29761  -8.84623  -13.98578 
 C                    -3.79551  -10.43032  -14.44504 
 H                    -3.53218  -10.16525  -12.35068 
 C                    -4.64538  -10.28602  -15.57883 
 H                    -6.59642  -9.54512  -16.22128 
 H                    -2.80793  -10.87113  -14.55773 
 N                    -4.24952  -10.7147  -16.80894 
 C                    -5.10125  -10.48859  -17.96566 
 C                    -2.90733  -11.24003  -17.01302 
 H                    -5.26946  -9.41102  -18.13185 
 H                    -6.08268  -10.97397  -17.83629 
 H                    -4.62401  -10.90399  -18.85932 
 H                    -2.71899  -12.10135  -16.3555 
 H                    -2.80482  -11.56442  -18.05369 
 H                    -2.14076  -10.47511  -16.80806 
 
 NAtoms=     41 NQM=       41 NQMF=       0 NMMI=      0 NMMIF=      0
                NMic=       0 NMicF=      0.
                    Isotopes and Nuclear Properties:
 (Nuclear quadrupole moments (NQMom) in fm**2, nuclear magnetic moments (NMagM)
  in nuclear magnetons)

  Atom         1           2           3           4           5           6           7           8           9          10
 IAtWgt=          12          12          12          16          12           1          12           1          12          12
 AtmWgt=  12.0000000  12.0000000  12.0000000  15.9949146  12.0000000   1.0078250  12.0000000   1.0078250  12.0000000  12.0000000
 NucSpn=           0           0           0           0           0           1           0           1           0           0
 AtZEff=   0.0000000   0.0000000   0.0000000   0.0000000   0.0000000   0.0000000   0.0000000   0.0000000   0.0000000   0.0000000
 NQMom=    0.0000000   0.0000000   0.0000000   0.0000000   0.0000000   0.0000000   0.0000000   0.0000000   0.0000000   0.0000000
 NMagM=    0.0000000   0.0000000   0.0000000   0.0000000   0.0000000   2.7928460   0.0000000   2.7928460   0.0000000   0.0000000
 AtZNuc=   6.0000000   6.0000000   6.0000000   8.0000000   6.0000000   1.0000000   6.0000000   1.0000000   6.0000000   6.0000000

  Atom        11          12          13          14          15          16          17          18          19          20
 IAtWgt=          12           1           1           1           1          16          12          16           1          12
 AtmWgt=  12.0000000   1.0078250   1.0078250   1.0078250   1.0078250  15.9949146  12.0000000  15.9949146   1.0078250  12.0000000
 NucSpn=           0           1           1           1           1           0           0           0           1           0
 AtZEff=   0.0000000   0.0000000   0.0000000   0.0000000   0.0000000   0.0000000   0.0000000   0.0000000   0.0000000   0.0000000
 NQMom=    0.0000000   0.0000000   0.0000000   0.0000000   0.0000000   0.0000000   0.0000000   0.0000000   0.0000000   0.0000000
 NMagM=    0.0000000   2.7928460   2.7928460   2.7928460   2.7928460   0.0000000   0.0000000   0.0000000   2.7928460   0.0000000
 AtZNuc=   6.0000000   1.0000000   1.0000000   1.0000000   1.0000000   8.0000000   6.0000000   8.0000000   1.0000000   6.0000000

  Atom        21          22          23          24          25          26          27          28          29          30
 IAtWgt=           1          12           1          12          12          12           1          12           1          12
 AtmWgt=   1.0078250  12.0000000   1.0078250  12.0000000  12.0000000  12.0000000   1.0078250  12.0000000   1.0078250  12.0000000
 NucSpn=           1           0           1           0           0           0           1           0           1           0
 AtZEff=   0.0000000   0.0000000   0.0000000   0.0000000   0.0000000   0.0000000   0.0000000   0.0000000   0.0000000   0.0000000
 NQMom=    0.0000000   0.0000000   0.0000000   0.0000000   0.0000000   0.0000000   0.0000000   0.0000000   0.0000000   0.0000000
 NMagM=    2.7928460   0.0000000   2.7928460   0.0000000   0.0000000   0.0000000   2.7928460   0.0000000   2.7928460   0.0000000
 AtZNuc=   1.0000000   6.0000000   1.0000000   6.0000000   6.0000000   6.0000000   1.0000000   6.0000000   1.0000000   6.0000000

  Atom        31          32          33          34          35          36          37          38          39          40
 IAtWgt=           1           1          14          12          12           1           1           1           1           1
 AtmWgt=   1.0078250   1.0078250  14.0030740  12.0000000  12.0000000   1.0078250   1.0078250   1.0078250   1.0078250   1.0078250
 NucSpn=           1           1           2           0           0           1           1           1           1           1
 AtZEff=   0.0000000   0.0000000   0.0000000   0.0000000   0.0000000   0.0000000   0.0000000   0.0000000   0.0000000   0.0000000
 NQMom=    0.0000000   0.0000000   2.0440000   0.0000000   0.0000000   0.0000000   0.0000000   0.0000000   0.0000000   0.0000000
 NMagM=    2.7928460   2.7928460   0.4037610   0.0000000   0.0000000   2.7928460   2.7928460   2.7928460   2.7928460   2.7928460
 AtZNuc=   1.0000000   1.0000000   7.0000000   6.0000000   6.0000000   1.0000000   1.0000000   1.0000000   1.0000000   1.0000000

  Atom        41
 IAtWgt=           1
 AtmWgt=   1.0078250
 NucSpn=           1
 AtZEff=   0.0000000
 NQMom=    0.0000000
 NMagM=    2.7928460
 AtZNuc=   1.0000000
 Leave Link  101 at Sun Nov  5 11:01:13 2017, MaxMem=  3758096384 cpu:         0.3
 (Enter /share/apps/gaussian/g09_D01/g09/l202.exe)
                          Input orientation:                          
 ---------------------------------------------------------------------
 Center     Atomic      Atomic             Coordinates (Angstroms)
 Number     Number       Type             X           Y           Z
 ---------------------------------------------------------------------
      1          6           0       -3.632763   -9.277855   -6.467496
      2          6           0       -4.162522   -9.227970   -7.747855
      3          6           0       -4.405573   -8.842295   -5.376032
      4          8           0       -2.372714   -9.728943   -6.147760
      5          6           0       -5.478434   -8.754379   -7.971997
      6          1           0       -3.565333   -9.561233   -8.590808
      7          6           0       -5.684736   -8.359716   -5.568192
      8          1           0       -3.981016   -8.899345   -4.374849
      9          6           0       -1.546250  -10.181599   -7.222399
     10          6           0       -6.245408   -8.316618   -6.852846
     11          6           0       -6.100916   -8.716791   -9.302113
     12          1           0       -6.281334   -8.023784   -4.720041
     13          1           0       -1.382557   -9.375631   -7.956169
     14          1           0       -0.590725  -10.473715   -6.770532
     15          1           0       -2.005068  -11.054098   -7.717419
     16          8           0       -7.507973   -7.852834   -7.003880
     17          6           0       -5.386820   -9.106002  -10.490867
     18          8           0       -7.324100   -8.327927   -9.391898
     19          1           0       -7.678973   -7.992494   -8.030767
     20          6           0       -5.988972   -9.053207  -11.715286
     21          1           0       -4.363033   -9.459520  -10.398643
     22          6           0       -5.481430   -9.449819  -12.989449
     23          1           0       -7.014084   -8.668235  -11.726047
     24          6           0       -6.311298   -9.290617  -14.122808
     25          6           0       -4.205793  -10.026794  -13.196560
     26          6           0       -5.918582   -9.688218  -15.382653
     27          1           0       -7.297610   -8.846234  -13.985776
     28          6           0       -3.795505  -10.430324  -14.445042
     29          1           0       -3.532176  -10.165254  -12.350682
     30          6           0       -4.645375  -10.286022  -15.578832
     31          1           0       -6.596418   -9.545124  -16.221282
     32          1           0       -2.807933  -10.871125  -14.557730
     33          7           0       -4.249517  -10.714700  -16.808941
     34          6           0       -5.101248  -10.488587  -17.965661
     35          6           0       -2.907331  -11.240027  -17.013020
     36          1           0       -5.269457   -9.411024  -18.131851
     37          1           0       -6.082683  -10.973972  -17.836293
     38          1           0       -4.624006  -10.903989  -18.859321
     39          1           0       -2.718991  -12.101348  -16.355502
     40          1           0       -2.804822  -11.564425  -18.053688
     41          1           0       -2.140762  -10.475113  -16.808062
 ---------------------------------------------------------------------
                    Distance matrix (angstroms):
                    1          2          3          4          5
     1  C    0.000000
     2  C    1.386525   0.000000
     3  C    1.406500   2.415236   0.000000
     4  O    1.376021   2.452487   2.348239   0.000000
     5  C    2.438043   1.416387   2.810301   3.731369   0.000000
     6  H    2.143199   1.085481   3.399656   2.723775   2.166540
     7  C    2.421223   2.796772   1.380603   3.630451   2.444708
     8  H    2.154930   3.393834   1.088977   2.533393   3.899070
     9  C    2.395865   2.833795   3.657668   1.429262   4.249815
    10  C    2.810407   2.443362   2.417087   4.182053   1.425617
    11  C    3.800214   2.536611   4.278323   4.987373   1.469049
    12  H    3.411923   3.886783   2.149131   4.497028   3.428358
    13  H    2.699840   2.791667   4.010010   2.091790   4.142754
    14  H    3.282668   3.907016   4.377125   2.029289   5.318772
    15  H    2.714173   2.826708   4.017037   2.086871   4.173462
    16  O    4.163610   3.692769   3.640578   5.533860   2.422615
    17  C    4.392467   3.006309   5.214779   5.323107   2.544944
    18  O    4.804213   3.675395   4.990947   6.083050   2.367375
    19  H    4.524134   3.737896   4.299410   5.892144   2.329441
    20  C    5.756864   4.371152   6.537414   6.673177   3.789744
    21  H    4.002526   2.668426   5.060573   4.701485   2.762237
    22  C    6.781078   5.409533   7.713020   7.520022   5.065419
    23  H    6.281507   4.926532   6.867119   7.333805   4.056912
    24  C    8.110395   6.727644   8.963195   8.905390   6.230063
    25  C    6.794820   5.507121   7.912244   7.289340   5.525822
    26  C    9.212676   7.847657  10.155651   9.892325   7.482219
    27  H    8.375078   6.991864   9.082488   9.298832   6.283580
    28  C    8.062004   6.814152   9.227186   8.447553   6.895024
    29  H    5.950586   4.739394   7.152537   6.325422   4.995135
    30  C    9.222702   7.916869  10.307230   9.717018   7.804092
    31  H   10.197599   8.821757  11.086623  10.924711   8.362169
    32  H    8.286781   7.135073   9.537934   8.498329   7.415124
    33  N   10.458986   9.182658  11.586270  10.869907   9.134806
    34  C   11.654618  10.337984  12.715856  12.152561  10.150028
    35  C   10.751021   9.563847  11.975531  10.982853   9.722608
    36  H   11.779375  10.444433  12.797682  12.333314  10.183196
    37  H   11.752807  10.416915  12.752053  12.326223  10.128971
    38  H   12.537312  11.246630  13.641751  12.962748  11.130350
    39  H   10.323747   9.188671  11.576474  10.485524   9.439273
    40  H   11.838654  10.654228  13.065043  12.054328  10.802086
    41  H   10.516026   9.366442  11.768040  10.688901   9.600887
                    6          7          8          9         10
     6  H    0.000000
     7  C    3.882231   0.000000
     8  H    4.287796   2.148937   0.000000
     9  C    2.516762   4.814844   3.959899   0.000000
    10  C    3.428175   1.402336   3.406980   5.069202   0.000000
    11  C    2.765541   3.773973   5.367051   5.216882   2.485946
    12  H    4.972248   1.090018   2.485403   5.773992   2.153114
    13  H    2.280729   5.024267   4.450246   1.102179   5.097661
    14  H    3.604764   5.644782   4.439821   1.096605   6.052709
    15  H    2.329352   5.041709   4.440733   1.103093   5.120719
    16  O    4.580543   2.375357   4.521771   6.404142   1.353506
    17  C    2.671193   4.987828   6.278907   5.156527   3.820405
    18  O    4.036226   4.160439   6.055866   6.444096   2.758712
    19  H    4.438088   3.190001   5.278542   6.561702   1.883524
    20  C    3.986788   6.193566   7.611674   6.418495   4.924596
    21  H    1.978620   5.127351   6.061834   4.306297   4.173995
    22  C    4.799154   7.503647   8.761598   7.019972   6.286947
    23  H    4.745635   6.307260   7.955691   7.243640   4.945967
    24  C    6.181956   8.627897  10.030255   8.432981   7.335214
    25  C    4.673317   7.947227   8.896305   6.541233   6.879494
    26  C    7.189093   9.906727  11.204831   9.270947   8.645560
    27  H    6.599000   8.584508  10.167228   8.978007   7.229544
    28  C    5.922867   9.308871  10.187595   7.568856   8.252952
    29  H    3.808227   7.341366   8.088133   5.499405   6.403537
    30  C    7.108044  10.247138  11.309000   8.913218   9.087436
    31  H    8.210473  10.757541  12.148882  10.338723   9.455159
    32  H    6.155780   9.767035  10.438156   7.474916   8.815156
    33  N    8.326842  11.574119  12.568781   9.974650  10.433514
    34  C    9.544993  12.592450  13.729194  11.320333  11.380738
    35  C    8.613070  12.124119  12.897866   9.941281  11.086849
    36  H    9.693199  12.614406  13.826677  11.553017  11.373925
    37  H    9.685653  12.549860  13.781566  11.569867  11.301510
    38  H   10.409906  13.573967  14.636665  12.058706  12.388659
    39  H    8.213340  11.796674  12.465215   9.406079  10.819439
    40  H    9.702435  13.208016  13.985590  10.991498  12.159142
    41  H    8.389746  11.973693  12.667058   9.608565  10.982420
                   11         12         13         14         15
    11  C    0.000000
    12  H    4.637693   0.000000
    13  H    4.950611   6.024785   0.000000
    14  H    6.313310   6.526079   1.799589   0.000000
    15  H    4.974960   6.037676   1.806038   1.798278   0.000000
    16  O    2.829860   2.598035   6.383297   7.400796   6.406184
    17  C    1.440331   5.939174   4.746737   6.222062   4.787832
    18  O    1.286645   4.796469   6.201688   7.537526   6.207092
    19  H    2.152020   3.593784   6.446975   7.614979   6.454828
    20  C    2.439080   7.076626   5.954324   7.457178   5.988155
    21  H    2.185008   6.163419   3.854342   5.331237   3.910453
    22  C    3.810189   8.429504   6.491546   7.977612   6.515605
    23  H    2.590693   7.073638   6.813698   8.311223   6.844829
    24  C    4.859284   9.487771   7.894755   9.390455   7.917227
    25  C    4.524855   8.953842   5.988019   7.386629   5.993290
    26  C    6.160348  10.797834   8.707807  10.157347   8.714186
    27  H    4.835859   9.357515   8.463113   9.984525   8.495762
    28  C    5.890741  10.322133   7.002869   8.316887   6.989683
    29  H    4.241491   8.388709   4.955412   6.315485   4.958753
    30  C    6.631613  11.211932   8.341450   9.698534   8.328444
    31  H    6.986169  11.605701   9.773698  11.235983   9.781267
    32  H    6.565547  10.814434   6.917283   8.106442   6.889697
    33  N    7.985724  12.550331   9.401284  10.687118   9.370620
    34  C    8.899194  13.524582  10.735794  12.069629  10.720662
    35  C    8.719162  13.147070   9.371631  10.529124   9.341137
    36  H    8.895929  13.521279  10.892830  12.332859  11.037043
    37  H    8.827651  13.445413  11.057248  12.363775  10.909857
    38  H    9.914904  14.524516  11.477003  12.751130  11.446543
    39  H    8.523083  12.833580   8.931091   9.952404   8.730573
    40  H    9.775649  14.227031  10.429456  11.549956  10.379716
    41  H    8.666821  13.010519   8.952080  10.156507   9.110073
                   16         17         18         19         20
    16  O    0.000000
    17  C    4.269520   0.000000
    18  O    2.441752   2.359277   0.000000
    19  H    1.050354   3.542027   1.446073   0.000000
    20  C    5.093683   1.365495   2.776100   4.190095   0.000000
    21  H    4.898623   1.087023   3.325952   4.330642   2.131271
    22  C    6.517996   2.523900   4.194812   5.616184   1.427722
    23  H    4.817434   2.089329   2.379111   3.814944   1.095068
    24  C    7.360597   3.752298   4.932955   6.377195   2.440578
    25  C    7.347093   3.092484   5.204367   6.548799   2.514313
    26  C    8.723453   4.954929   6.301985   7.747560   3.722603
    27  H    7.055350   3.991615   4.623101   6.027972   2.628782
    28  C    8.706134   4.463363   6.511937   7.884622   3.762887
    29  H    7.052839   2.832072   5.148676   6.370124   2.770600
    30  C    9.361873   5.275374   7.020531   8.451998   4.272245
    31  H    9.415693   5.873126   6.975068   8.406374   4.573289
    32  H    9.394738   5.128907   7.317748   8.637985   4.637168
    33  N   10.721335   6.618114   8.376292   9.809583   5.633079
    34  C   11.528233   7.606947   9.116959  10.563014   6.474223
    35  C   11.524837   7.296603   9.277374  10.676887   6.507279
    36  H   11.457340   7.647970   9.043309  10.480930   6.466687
    37  H   11.362840   7.611098   8.935909  10.372352   6.415984
    38  H   12.576895   8.593350  10.176380  11.621842   7.505049
    39  H   11.333007   7.105164   9.161742  10.525460   6.443256
    40  H   12.569558   8.361030  10.292007  11.703631   7.524651
    41  H   11.480648   7.233140   9.299295  10.671274   6.539641
                   21         22         23         24         25
    21  H    0.000000
    22  C    2.821911   0.000000
    23  H    3.068584   2.134499   0.000000
    24  C    4.206384   1.413693   2.574049   0.000000
    25  C    2.859172   1.415290   3.448853   2.415169   0.000000
    26  C    5.226126   2.444455   3.951108   1.378231   2.797728
    27  H    4.674974   2.157659   2.284392   1.090443   3.402340
    28  C    4.199749   2.433615   4.566962   2.780644   1.374729
    29  H    2.235809   2.172432   3.841213   3.410123   1.090156
    30  C    5.253302   2.846599   4.803329   2.426136   2.436319
    31  H    6.236863   3.420091   4.598969   2.132993   3.885362
    32  H    4.659289   3.409868   5.528369   3.867910   2.125957
    33  N    6.533015   4.207856   6.137317   3.673454   3.677557
    34  C    7.672268   5.097672   6.775353   4.203198   4.874363
    35  C    7.002803   5.100976   7.171584   4.872424   4.209906
    36  H    7.786300   5.146915   6.680553   4.143954   5.086025
    37  H    7.782634   5.116292   6.596896   4.083616   5.093818
    38  H    8.587064   6.107797   7.848227   5.280576   5.745540
    39  H    6.720588   5.098234   7.187902   5.078366   4.061191
    40  H    8.090634   6.105924   8.132948   5.737368   5.283817
    41  H    6.859342   5.176205   7.269178   5.099705   4.184291
                   26         27         28         29         30
    26  C    0.000000
    27  H    2.135865   0.000000
    28  C    2.436656   3.871047   0.000000
    29  H    3.887846   4.311826   2.127428   0.000000
    30  C    1.420180   3.412502   1.424283   3.416833   0.000000
    31  H    1.087767   2.444914   3.432743   4.975508   2.183630
    32  H    3.428688   4.958277   1.087337   2.427724   2.182015
    33  N    2.423580   4.555469   2.423843   4.548906   1.361483
    34  C    2.824988   4.833303   3.755412   5.839051   2.438402
    35  C    3.759500   5.845426   2.835310   4.825242   2.447002
    36  H    2.838360   4.649982   4.099276   6.083496   2.770019
    37  H    2.774967   4.563967   4.126417   6.103363   2.763197
    38  H    3.904004   5.927390   4.516263   6.640798   3.338255
    39  H    4.123956   6.097140   2.757002   4.521981   2.758547
    40  H    4.511107   6.642410   3.910238   5.917009   3.338692
    41  H    4.113748   6.100133   2.885142   4.679774   2.796399
                   31         32         33         34         35
    31  H    0.000000
    32  H    4.344917   0.000000
    33  N    2.687228   2.677795   0.000000
    34  C    2.483649   4.125485   1.454157   0.000000
    35  C    4.136292   2.484838   1.455706   2.507082   0.000000
    36  H    2.330039   4.578792   2.118948   1.103202   3.190090
    37  H    2.216707   4.635034   2.117350   1.102520   3.291113
    38  H    3.563169   4.669356   2.092876   1.094964   2.543368
    39  H    4.646153   2.180216   2.114453   3.296780   1.099853
    40  H    4.670277   3.564042   2.087719   2.537469   1.094866
    41  H    4.589342   2.380323   2.122322   3.178788   1.102148
                   36         37         38         39         40
    36  H    0.000000
    37  H    1.786476   0.000000
    38  H    1.781787   1.783037   0.000000
    39  H    4.110734   3.844235   3.366283   0.000000
    40  H    3.273785   3.337704   2.096342   1.783112   0.000000
    41  H    3.559977   4.104249   3.249323   1.784320   1.783020
                   41
    41  H    0.000000
 Symmetry turned off by external request.
 Stoichiometry    C18H19NO3
 Framework group  C1[X(C18H19NO3)]
 Deg. of freedom   117
 Full point group                 C1      NOp   1
 Rotational constants (GHZ):      0.5877799      0.0964844      0.0830327
 Leave Link  202 at Sun Nov  5 11:01:13 2017, MaxMem=  3758096384 cpu:         0.1
 (Enter /share/apps/gaussian/g09_D01/g09/l301.exe)
 Standard basis: 6-311++G(d,p) (5D, 7F)
 Ernie: Thresh=  0.10000D-02 Tol=  0.10000D-05 Strict=F.
   617 basis functions,   963 primitive gaussians,   639 cartesian basis functions
    79 alpha electrons       79 beta electrons
       nuclear repulsion energy      1612.1422406589 Hartrees.
 IExCor= 4639 DFT=T Ex+Corr=wB97XD ExCW=0 ScaHFX=  1.000000
 ScaDFX=  1.000000  1.000000  1.000000  1.000000 ScalE2=  1.000000  1.000000
 IRadAn=      0 IRanWt=     -1 IRanGd=            0 ICorTp=0 IEmpDi=121
  HFx wShort=  0.000000 wLong=  0.200000 cFull=  0.222036 cShort=  0.000000 cLong=  0.777964
  DFx wShort=  0.000000 wLong=  0.200000 cFull=  0.000000 cShort=  0.000000 cLong=  1.000000
 NAtoms=   41 NActive=   41 NUniq=   41 SFac= 1.00D+00 NAtFMM=   60 NAOKFM=F Big=F
 Integral buffers will be    131072 words long.
 Raffenetti 1 integral format.
 Two-electron integral symmetry is turned off.
 R6Disp:  Grimme-D2 Dispersion energy=       -0.0258930858 Hartrees.
 Nuclear repulsion after empirical dispersion term =     1612.1163475731 Hartrees.
 Leave Link  301 at Sun Nov  5 11:01:13 2017, MaxMem=  3758096384 cpu:         0.1
 (Enter /share/apps/gaussian/g09_D01/g09/l302.exe)
 NPDir=0 NMtPBC=     1 NCelOv=     1 NCel=       1 NClECP=     1 NCelD=      1
         NCelK=      1 NCelE2=     1 NClLst=     1 CellRange=     0.0.
 One-electron integrals computed using PRISM.
 NBasis=   617 RedAO= T EigKep=  1.01D-06  NBF=   617
 NBsUse=   610 1.00D-06 EigRej=  5.87D-07 NBFU=   610
 Precomputing XC quadrature grid using
 IXCGrd= 4 IRadAn=           0 IRanWt=          -1 IRanGd=           0 AccXCQ= 0.00D+00.
 Generated NRdTot=       0 NPtTot=           0 NUsed=           0 NTot=          32
 NSgBfM=   620   620   620   620   620 MxSgAt=    41 MxSgA2=    41.
 Leave Link  302 at Sun Nov  5 11:01:17 2017, MaxMem=  3758096384 cpu:         7.8
 (Enter /share/apps/gaussian/g09_D01/g09/l308.exe)
 Leave Link  308 at Sun Nov  5 11:01:17 2017, MaxMem=  3758096384 cpu:         0.9
 (Enter /share/apps/gaussian/g09_D01/g09/l303.exe)
 DipDrv:  MaxL=1.
 Leave Link  303 at Sun Nov  5 11:01:17 2017, MaxMem=  3758096384 cpu:         0.6
 (Enter /share/apps/gaussian/g09_D01/g09/l401.exe)
 ExpMin= 3.60D-02 ExpMax= 8.59D+03 ExpMxC= 1.30D+03 IAcc=3 IRadAn=         5 AccDes= 0.00D+00
 Harris functional with IExCor= 4639 and IRadAn=       5 diagonalized for initial guess.
 HarFok:  IExCor= 4639 AccDes= 0.00D+00 IRadAn=         5 IDoV= 1 UseB2=F ITyADJ=14
 ICtDFT=  3500011 ScaDFX=  1.000000  1.000000  1.000000  1.000000
 FoFCou: FMM=F IPFlag=           0 FMFlag=      100000 FMFlg1=           0
         NFxFlg=           0 DoJE=T BraDBF=F KetDBF=T FulRan=T
         wScrn=  0.000000 ICntrl=     500 IOpCl=  0 I1Cent=   200000004 NGrid=           0
         NMat0=    1 NMatS0=      1 NMatT0=    0 NMatD0=    1 NMtDS0=    0 NMtDT0=    0
 Symmetry not used in FoFCou.
 Harris En= -935.530204026506    
 JPrj=0 DoOrth=F DoCkMO=F.
 Leave Link  401 at Sun Nov  5 11:01:43 2017, MaxMem=  3758096384 cpu:        51.2
 (Enter /share/apps/gaussian/g09_D01/g09/l502.exe)
 Closed shell SCF:
 Using DIIS extrapolation, IDIIS=  1040.
 Two-electron integral symmetry not used.
 IVT=     1251263 IEndB=     1251263 NGot=  3758096384 MDV=  3757270722
 LenX=  3757270722 LenY=  3756861762
 Requested convergence on RMS density matrix=1.00D-08 within 128 cycles.
 Requested convergence on MAX density matrix=1.00D-06.
 Requested convergence on             energy=1.00D-06.
 No special actions if energy rises.
 Fock matrices will be formed incrementally for  20 cycles.

 Cycle   1  Pass 1  IDiag  1:
 FoFJK:  IHMeth= 1 ICntrl=       0 DoSepK=T KAlg= 0 I1Cent=   0 FoldK=F
 IRaf=         1 NMat=   1 IRICut=       1 DoRegI=T DoRafI=F ISym2E= 0.
 FoFCou: FMM=F IPFlag=           0 FMFlag=      100000 FMFlg1=           0
         NFxFlg=           0 DoJE=T BraDBF=F KetDBF=F FulRan=T
         wScrn=  0.000000 ICntrl=     500 IOpCl=  0 I1Cent=           0 NGrid=           0
         NMat0=    1 NMatS0=      1 NMatT0=    0 NMatD0=    1 NMtDS0=    0 NMtDT0=    0
 Symmetry not used in FoFCou.
 E= -977.339192733869    
 DIIS: error= 6.07D-02 at cycle   1 NSaved=   1.
 NSaved= 1 IEnMin= 1 EnMin= -977.339192733869     IErMin= 1 ErrMin= 6.07D-02
 ErrMax= 6.07D-02  0.00D+00 EMaxC= 1.00D-01 BMatC= 2.15D+00 BMatP= 2.15D+00
 IDIUse=3 WtCom= 3.93D-01 WtEn= 6.07D-01
 Coeff-Com:  0.100D+01
 Coeff-En:   0.100D+01
 Coeff:      0.100D+01
 Gap=     0.276 Goal=   None    Shift=    0.000
 GapD=    0.276 DampG=1.000 DampE=0.500 DampFc=0.5000 IDamp=-1.
 Damping current iteration by 5.00D-01
 RMSDP=2.90D-02 MaxDP=3.86D+00              OVMax= 1.93D-01

 Cycle   2  Pass 1  IDiag  1:
 RMSU=  5.21D-03    CP:  8.35D-01
 E= -977.490409488421     Delta-E=       -0.151216754552 Rises=F Damp=T
 DIIS: error= 2.72D-02 at cycle   2 NSaved=   2.
 NSaved= 2 IEnMin= 2 EnMin= -977.490409488421     IErMin= 2 ErrMin= 2.72D-02
 ErrMax= 2.72D-02  0.00D+00 EMaxC= 1.00D-01 BMatC= 4.42D-01 BMatP= 2.15D+00
 IDIUse=3 WtCom= 7.28D-01 WtEn= 2.72D-01
 Coeff-Com: -0.534D+00 0.153D+01
 Coeff-En:   0.000D+00 0.100D+01
 Coeff:     -0.389D+00 0.139D+01
 Gap=     0.271 Goal=   None    Shift=    0.000
 RMSDP=1.32D-02 MaxDP=9.84D-01 DE=-1.51D-01 OVMax= 2.13D-01

 Cycle   3  Pass 1  IDiag  1:
 RMSU=  5.24D-03    CP:  6.90D-01  1.49D+00
 E= -977.555286386480     Delta-E=       -0.064876898059 Rises=F Damp=F
 DIIS: error= 1.72D-02 at cycle   3 NSaved=   3.
 NSaved= 3 IEnMin= 3 EnMin= -977.555286386480     IErMin= 3 ErrMin= 1.72D-02
 ErrMax= 1.72D-02  0.00D+00 EMaxC= 1.00D-01 BMatC= 1.52D-01 BMatP= 4.42D-01
 IDIUse=3 WtCom= 8.28D-01 WtEn= 1.72D-01
 Coeff-Com: -0.360D+00 0.776D+00 0.584D+00
 Coeff-En:   0.000D+00 0.179D+00 0.821D+00
 Coeff:     -0.298D+00 0.673D+00 0.625D+00
 Gap=     0.264 Goal=   None    Shift=    0.000
 RMSDP=6.43D-03 MaxDP=9.82D-01 DE=-6.49D-02 OVMax= 9.66D-02

 Cycle   4  Pass 1  IDiag  1:
 RMSU=  1.89D-03    CP:  6.23D-01  1.65D+00  5.01D-01
 E= -977.669844303473     Delta-E=       -0.114557916992 Rises=F Damp=F
 DIIS: error= 4.33D-03 at cycle   4 NSaved=   4.
 NSaved= 4 IEnMin= 4 EnMin= -977.669844303473     IErMin= 4 ErrMin= 4.33D-03
 ErrMax= 4.33D-03  0.00D+00 EMaxC= 1.00D-01 BMatC= 1.11D-02 BMatP= 1.52D-01
 IDIUse=3 WtCom= 9.57D-01 WtEn= 4.33D-02
 Coeff-Com: -0.143D+00 0.308D+00 0.346D+00 0.489D+00
 Coeff-En:   0.000D+00 0.000D+00 0.000D+00 0.100D+01
 Coeff:     -0.137D+00 0.295D+00 0.331D+00 0.511D+00
 Gap=     0.235 Goal=   None    Shift=    0.000
 RMSDP=1.63D-03 MaxDP=1.70D-01 DE=-1.15D-01 OVMax= 1.96D-02

 Cycle   5  Pass 1  IDiag  1:
 RMSU=  4.53D-04    CP:  6.38D-01  1.71D+00  6.19D-01  6.71D-01
 E= -977.678663411481     Delta-E=       -0.008819108009 Rises=F Damp=F
 DIIS: error= 7.08D-04 at cycle   5 NSaved=   5.
 NSaved= 5 IEnMin= 5 EnMin= -977.678663411481     IErMin= 5 ErrMin= 7.08D-04
 ErrMax= 7.08D-04  0.00D+00 EMaxC= 1.00D-01 BMatC= 2.06D-04 BMatP= 1.11D-02
 IDIUse=3 WtCom= 9.93D-01 WtEn= 7.08D-03
 Coeff-Com:  0.119D-01-0.260D-01 0.215D-01 0.167D+00 0.825D+00
 Coeff-En:   0.000D+00 0.000D+00 0.000D+00 0.000D+00 0.100D+01
 Coeff:      0.118D-01-0.258D-01 0.213D-01 0.166D+00 0.827D+00
 Gap=     0.236 Goal=   None    Shift=    0.000
 RMSDP=3.97D-04 MaxDP=2.94D-02 DE=-8.82D-03 OVMax= 7.07D-03

 Cycle   6  Pass 1  IDiag  1:
 RMSU=  2.15D-04    CP:  6.35D-01  1.70D+00  6.28D-01  7.71D-01  9.66D-01
 E= -977.678925281956     Delta-E=       -0.000261870475 Rises=F Damp=F
 DIIS: error= 5.61D-04 at cycle   6 NSaved=   6.
 NSaved= 6 IEnMin= 6 EnMin= -977.678925281956     IErMin= 6 ErrMin= 5.61D-04
 ErrMax= 5.61D-04  0.00D+00 EMaxC= 1.00D-01 BMatC= 5.99D-05 BMatP= 2.06D-04
 IDIUse=3 WtCom= 9.94D-01 WtEn= 5.61D-03
 Coeff-Com:  0.259D-01-0.558D-01-0.394D-01-0.102D-02 0.409D+00 0.661D+00
 Coeff-En:   0.000D+00 0.000D+00 0.000D+00 0.000D+00 0.000D+00 0.100D+01
 Coeff:      0.258D-01-0.555D-01-0.392D-01-0.101D-02 0.407D+00 0.663D+00
 Gap=     0.238 Goal=   None    Shift=    0.000
 RMSDP=1.01D-04 MaxDP=1.48D-02 DE=-2.62D-04 OVMax= 4.80D-03

 Cycle   7  Pass 1  IDiag  1:
 RMSU=  6.37D-05    CP:  6.34D-01  1.71D+00  6.30D-01  7.83D-01  1.07D+00
                    CP:  1.05D+00
 E= -977.679002476857     Delta-E=       -0.000077194901 Rises=F Damp=F
 DIIS: error= 1.49D-04 at cycle   7 NSaved=   7.
 NSaved= 7 IEnMin= 7 EnMin= -977.679002476857     IErMin= 7 ErrMin= 1.49D-04
 ErrMax= 1.49D-04  0.00D+00 EMaxC= 1.00D-01 BMatC= 5.56D-06 BMatP= 5.99D-05
 IDIUse=3 WtCom= 9.99D-01 WtEn= 1.49D-03
 Coeff-Com:  0.430D-02-0.916D-02-0.116D-01-0.225D-01-0.945D-02 0.210D+00
 Coeff-Com:  0.839D+00
 Coeff-En:   0.000D+00 0.000D+00 0.000D+00 0.000D+00 0.000D+00 0.000D+00
 Coeff-En:   0.100D+01
 Coeff:      0.429D-02-0.914D-02-0.116D-01-0.225D-01-0.944D-02 0.210D+00
 Coeff:      0.839D+00
 Gap=     0.238 Goal=   None    Shift=    0.000
 RMSDP=4.96D-05 MaxDP=5.78D-03 DE=-7.72D-05 OVMax= 1.95D-03

 Cycle   8  Pass 1  IDiag  1:
 RMSU=  2.74D-05    CP:  6.34D-01  1.71D+00  6.29D-01  7.92D-01  1.11D+00
                    CP:  1.15D+00  9.91D-01
 E= -977.679015080908     Delta-E=       -0.000012604051 Rises=F Damp=F
 DIIS: error= 7.99D-05 at cycle   8 NSaved=   8.
 NSaved= 8 IEnMin= 8 EnMin= -977.679015080908     IErMin= 8 ErrMin= 7.99D-05
 ErrMax= 7.99D-05  0.00D+00 EMaxC= 1.00D-01 BMatC= 1.19D-06 BMatP= 5.56D-06
 IDIUse=1 WtCom= 1.00D+00 WtEn= 0.00D+00
 Coeff-Com: -0.221D-02 0.481D-02 0.105D-02-0.114D-01-0.781D-01-0.117D-01
 Coeff-Com:  0.360D+00 0.738D+00
 Coeff:     -0.221D-02 0.481D-02 0.105D-02-0.114D-01-0.781D-01-0.117D-01
 Coeff:      0.360D+00 0.738D+00
 Gap=     0.238 Goal=   None    Shift=    0.000
 RMSDP=1.59D-05 MaxDP=1.42D-03 DE=-1.26D-05 OVMax= 1.21D-03

 Cycle   9  Pass 1  IDiag  1:
 RMSU=  1.15D-05    CP:  6.34D-01  1.71D+00  6.29D-01  7.92D-01  1.12D+00
                    CP:  1.18D+00  1.05D+00  1.16D+00
 E= -977.679018037874     Delta-E=       -0.000002956966 Rises=F Damp=F
 DIIS: error= 3.14D-05 at cycle   9 NSaved=   9.
 NSaved= 9 IEnMin= 9 EnMin= -977.679018037874     IErMin= 9 ErrMin= 3.14D-05
 ErrMax= 3.14D-05  0.00D+00 EMaxC= 1.00D-01 BMatC= 1.68D-07 BMatP= 1.19D-06
 IDIUse=1 WtCom= 1.00D+00 WtEn= 0.00D+00
 Coeff-Com: -0.159D-02 0.340D-02 0.297D-02 0.934D-03-0.239D-01-0.406D-01
 Coeff-Com: -0.607D-01 0.200D+00 0.919D+00
 Coeff:     -0.159D-02 0.340D-02 0.297D-02 0.934D-03-0.239D-01-0.406D-01
 Coeff:     -0.607D-01 0.200D+00 0.919D+00
 Gap=     0.238 Goal=   None    Shift=    0.000
 RMSDP=1.13D-05 MaxDP=8.50D-04 DE=-2.96D-06 OVMax= 5.42D-04

 Cycle  10  Pass 1  IDiag  1:
 RMSU=  6.28D-06    CP:  6.34D-01  1.71D+00  6.29D-01  7.91D-01  1.13D+00
                    CP:  1.21D+00  1.06D+00  1.29D+00  1.23D+00
 E= -977.679018616486     Delta-E=       -0.000000578612 Rises=F Damp=F
 DIIS: error= 1.55D-05 at cycle  10 NSaved=  10.
 NSaved=10 IEnMin=10 EnMin= -977.679018616486     IErMin=10 ErrMin= 1.55D-05
 ErrMax= 1.55D-05  0.00D+00 EMaxC= 1.00D-01 BMatC= 2.33D-08 BMatP= 1.68D-07
 IDIUse=1 WtCom= 1.00D+00 WtEn= 0.00D+00
 Coeff-Com:  0.324D-04-0.786D-04 0.490D-03 0.195D-02 0.551D-02-0.625D-02
 Coeff-Com: -0.732D-01-0.554D-01 0.267D+00 0.860D+00
 Coeff:      0.324D-04-0.786D-04 0.490D-03 0.195D-02 0.551D-02-0.625D-02
 Coeff:     -0.732D-01-0.554D-01 0.267D+00 0.860D+00
 Gap=     0.238 Goal=   None    Shift=    0.000
 RMSDP=3.69D-06 MaxDP=2.83D-04 DE=-5.79D-07 OVMax= 2.22D-04

 Cycle  11  Pass 1  IDiag  1:
 RMSU=  1.93D-06    CP:  6.34D-01  1.71D+00  6.29D-01  7.91D-01  1.13D+00
                    CP:  1.21D+00  1.05D+00  1.35D+00  1.40D+00  1.13D+00
 E= -977.679018693727     Delta-E=       -0.000000077242 Rises=F Damp=F
 DIIS: error= 3.77D-06 at cycle  11 NSaved=  11.
 NSaved=11 IEnMin=11 EnMin= -977.679018693727     IErMin=11 ErrMin= 3.77D-06
 ErrMax= 3.77D-06  0.00D+00 EMaxC= 1.00D-01 BMatC= 4.47D-09 BMatP= 2.33D-08
 IDIUse=1 WtCom= 1.00D+00 WtEn= 0.00D+00
 Coeff-Com:  0.236D-03-0.506D-03-0.243D-03 0.673D-03 0.542D-02 0.360D-02
 Coeff-Com: -0.164D-01-0.472D-01-0.627D-01 0.277D+00 0.840D+00
 Coeff:      0.236D-03-0.506D-03-0.243D-03 0.673D-03 0.542D-02 0.360D-02
 Coeff:     -0.164D-01-0.472D-01-0.627D-01 0.277D+00 0.840D+00
 Gap=     0.238 Goal=   None    Shift=    0.000
 RMSDP=1.79D-06 MaxDP=1.99D-04 DE=-7.72D-08 OVMax= 8.69D-05

 Cycle  12  Pass 1  IDiag  1:
 RMSU=  9.27D-07    CP:  6.34D-01  1.71D+00  6.29D-01  7.90D-01  1.13D+00
                    CP:  1.21D+00  1.05D+00  1.38D+00  1.45D+00  1.25D+00
                    CP:  1.21D+00
 E= -977.679018706322     Delta-E=       -0.000000012595 Rises=F Damp=F
 DIIS: error= 1.59D-06 at cycle  12 NSaved=  12.
 NSaved=12 IEnMin=12 EnMin= -977.679018706322     IErMin=12 ErrMin= 1.59D-06
 ErrMax= 1.59D-06  0.00D+00 EMaxC= 1.00D-01 BMatC= 7.43D-10 BMatP= 4.47D-09
 IDIUse=1 WtCom= 1.00D+00 WtEn= 0.00D+00
 Coeff-Com:  0.565D-04-0.120D-03-0.127D-03-0.281D-04 0.878D-03 0.189D-02
 Coeff-Com:  0.797D-02-0.424D-02-0.662D-01-0.625D-01 0.268D+00 0.854D+00
 Coeff:      0.565D-04-0.120D-03-0.127D-03-0.281D-04 0.878D-03 0.189D-02
 Coeff:      0.797D-02-0.424D-02-0.662D-01-0.625D-01 0.268D+00 0.854D+00
 Gap=     0.238 Goal=   None    Shift=    0.000
 RMSDP=7.65D-07 MaxDP=7.39D-05 DE=-1.26D-08 OVMax= 3.30D-05

 Cycle  13  Pass 1  IDiag  1:
 RMSU=  2.55D-07    CP:  6.34D-01  1.71D+00  6.29D-01  7.90D-01  1.13D+00
                    CP:  1.21D+00  1.05D+00  1.38D+00  1.46D+00  1.29D+00
                    CP:  1.38D+00  1.11D+00
 E= -977.679018708116     Delta-E=       -0.000000001794 Rises=F Damp=F
 DIIS: error= 7.04D-07 at cycle  13 NSaved=  13.
 NSaved=13 IEnMin=13 EnMin= -977.679018708116     IErMin=13 ErrMin= 7.04D-07
 ErrMax= 7.04D-07  0.00D+00 EMaxC= 1.00D-01 BMatC= 1.62D-10 BMatP= 7.43D-10
 IDIUse=1 WtCom= 1.00D+00 WtEn= 0.00D+00
 Coeff-Com: -0.106D-04 0.235D-04-0.224D-04-0.130D-03-0.532D-03 0.138D-03
 Coeff-Com:  0.651D-02 0.603D-02-0.170D-01-0.768D-01-0.186D-01 0.383D+00
 Coeff-Com:  0.718D+00
 Coeff:     -0.106D-04 0.235D-04-0.224D-04-0.130D-03-0.532D-03 0.138D-03
 Coeff:      0.651D-02 0.603D-02-0.170D-01-0.768D-01-0.186D-01 0.383D+00
 Coeff:      0.718D+00
 Gap=     0.238 Goal=   None    Shift=    0.000
 RMSDP=2.31D-07 MaxDP=1.74D-05 DE=-1.79D-09 OVMax= 1.21D-05

 Cycle  14  Pass 1  IDiag  1:
 RMSU=  1.10D-07    CP:  6.34D-01  1.71D+00  6.29D-01  7.90D-01  1.13D+00
                    CP:  1.21D+00  1.05D+00  1.37D+00  1.46D+00  1.30D+00
                    CP:  1.42D+00  1.20D+00  1.11D+00
 E= -977.679018708499     Delta-E=       -0.000000000383 Rises=F Damp=F
 DIIS: error= 2.77D-07 at cycle  14 NSaved=  14.
 NSaved=14 IEnMin=14 EnMin= -977.679018708499     IErMin=14 ErrMin= 2.77D-07
 ErrMax= 2.77D-07  0.00D+00 EMaxC= 1.00D-01 BMatC= 1.16D-11 BMatP= 1.62D-10
 IDIUse=1 WtCom= 1.00D+00 WtEn= 0.00D+00
 Coeff-Com: -0.647D-05 0.139D-04 0.917D-05-0.247D-04-0.206D-03-0.211D-03
 Coeff-Com:  0.206D-03 0.917D-03 0.592D-02-0.867D-02-0.323D-01-0.344D-01
 Coeff-Com:  0.119D+00 0.949D+00
 Coeff:     -0.647D-05 0.139D-04 0.917D-05-0.247D-04-0.206D-03-0.211D-03
 Coeff:      0.206D-03 0.917D-03 0.592D-02-0.867D-02-0.323D-01-0.344D-01
 Coeff:      0.119D+00 0.949D+00
 Gap=     0.238 Goal=   None    Shift=    0.000
 RMSDP=1.22D-07 MaxDP=1.07D-05 DE=-3.83D-10 OVMax= 5.50D-06

 Cycle  15  Pass 1  IDiag  1:
 RMSU=  4.72D-08    CP:  6.34D-01  1.71D+00  6.29D-01  7.90D-01  1.13D+00
                    CP:  1.21D+00  1.05D+00  1.38D+00  1.46D+00  1.30D+00
                    CP:  1.43D+00  1.23D+00  1.26D+00  1.24D+00
 E= -977.679018708510     Delta-E=       -0.000000000011 Rises=F Damp=F
 DIIS: error= 1.04D-07 at cycle  15 NSaved=  15.
 NSaved=15 IEnMin=15 EnMin= -977.679018708510     IErMin=15 ErrMin= 1.04D-07
 ErrMax= 1.04D-07  0.00D+00 EMaxC= 1.00D-01 BMatC= 2.38D-12 BMatP= 1.16D-11
 IDIUse=1 WtCom= 1.00D+00 WtEn= 0.00D+00
 Coeff-Com: -0.211D-05 0.441D-05 0.750D-05 0.554D-05-0.242D-04-0.105D-03
 Coeff-Com: -0.603D-03-0.374D-03 0.459D-02 0.484D-02-0.917D-02-0.553D-01
 Coeff-Com: -0.497D-01 0.317D+00 0.789D+00
 Coeff:     -0.211D-05 0.441D-05 0.750D-05 0.554D-05-0.242D-04-0.105D-03
 Coeff:     -0.603D-03-0.374D-03 0.459D-02 0.484D-02-0.917D-02-0.553D-01
 Coeff:     -0.497D-01 0.317D+00 0.789D+00
 Gap=     0.238 Goal=   None    Shift=    0.000
 RMSDP=4.01D-08 MaxDP=4.49D-06 DE=-1.09D-11 OVMax= 1.70D-06

 Cycle  16  Pass 1  IDiag  1:
 RMSU=  1.99D-08    CP:  6.34D-01  1.71D+00  6.29D-01  7.90D-01  1.13D+00
                    CP:  1.21D+00  1.05D+00  1.38D+00  1.46D+00  1.30D+00
                    CP:  1.43D+00  1.24D+00  1.29D+00  1.37D+00  1.07D+00
 E= -977.679018708459     Delta-E=        0.000000000051 Rises=F Damp=F
 DIIS: error= 4.87D-08 at cycle  16 NSaved=  16.
 NSaved=16 IEnMin=15 EnMin= -977.679018708510     IErMin=16 ErrMin= 4.87D-08
 ErrMax= 4.87D-08  0.00D+00 EMaxC= 1.00D-01 BMatC= 3.84D-13 BMatP= 2.38D-12
 IDIUse=1 WtCom= 1.00D+00 WtEn= 0.00D+00
 Coeff-Com:  0.443D-06-0.975D-06 0.234D-06 0.672D-05 0.346D-04 0.817D-05
 Coeff-Com: -0.150D-03-0.332D-03-0.985D-04 0.237D-02 0.466D-02-0.381D-02
 Coeff-Com: -0.380D-01-0.134D+00 0.169D+00 0.100D+01
 Coeff:      0.443D-06-0.975D-06 0.234D-06 0.672D-05 0.346D-04 0.817D-05
 Coeff:     -0.150D-03-0.332D-03-0.985D-04 0.237D-02 0.466D-02-0.381D-02
 Coeff:     -0.380D-01-0.134D+00 0.169D+00 0.100D+01
 Gap=     0.238 Goal=   None    Shift=    0.000
 RMSDP=1.97D-08 MaxDP=1.21D-06 DE= 5.09D-11 OVMax= 1.09D-06

 Cycle  17  Pass 1  IDiag  1:
 RMSU=  6.53D-09    CP:  6.34D-01  1.71D+00  6.29D-01  7.90D-01  1.13D+00
                    CP:  1.21D+00  1.05D+00  1.38D+00  1.47D+00  1.29D+00
                    CP:  1.43D+00  1.24D+00  1.30D+00  1.42D+00  1.25D+00
                    CP:  1.20D+00
 E= -977.679018708476     Delta-E=       -0.000000000017 Rises=F Damp=F
 DIIS: error= 1.91D-08 at cycle  17 NSaved=  17.
 NSaved=17 IEnMin=15 EnMin= -977.679018708510     IErMin=17 ErrMin= 1.91D-08
 ErrMax= 1.91D-08  0.00D+00 EMaxC= 1.00D-01 BMatC= 5.92D-14 BMatP= 3.84D-13
 IDIUse=1 WtCom= 1.00D+00 WtEn= 0.00D+00
 Coeff-Com:  0.371D-06-0.773D-06-0.849D-06 0.145D-05 0.125D-04 0.151D-04
 Coeff-Com:  0.461D-04-0.502D-04-0.553D-03-0.341D-04 0.242D-02 0.712D-02
 Coeff-Com: -0.184D-02-0.718D-01-0.673D-01 0.254D+00 0.878D+00
 Coeff:      0.371D-06-0.773D-06-0.849D-06 0.145D-05 0.125D-04 0.151D-04
 Coeff:      0.461D-04-0.502D-04-0.553D-03-0.341D-04 0.242D-02 0.712D-02
 Coeff:     -0.184D-02-0.718D-01-0.673D-01 0.254D+00 0.878D+00
 Gap=     0.238 Goal=   None    Shift=    0.000
 RMSDP=9.98D-09 MaxDP=7.33D-07 DE=-1.73D-11 OVMax= 3.57D-07

 SCF Done:  E(RwB97XD) =  -977.679018708     A.U. after   17 cycles
            NFock= 17  Conv=0.10D-07     -V/T= 2.0045
 KE= 9.732509600859D+02 PE=-5.502164656192D+03 EE= 1.939118329825D+03
 Leave Link  502 at Sun Nov  5 11:27:58 2017, MaxMem=  3758096384 cpu:      3149.2
 (Enter /share/apps/gaussian/g09_D01/g09/l801.exe)
 DoSCS=F DFT=T ScalE2(SS,OS)=  1.000000  1.000000
 ExpMin= 3.60D-02 ExpMax= 8.59D+03 ExpMxC= 1.30D+03 IAcc=3 IRadAn=         5 AccDes= 0.00D+00
 HarFok:  IExCor=  205 AccDes= 0.00D+00 IRadAn=         5 IDoV=-2 UseB2=F ITyADJ=14
 ICtDFT= 12500011 ScaDFX=  1.000000  1.000000  1.000000  1.000000
 Largest valence mixing into a core orbital is  5.69D-05
 Largest core mixing into a valence orbital is  1.60D-05
 Range of M.O.s used for correlation:    23   610
 NBasis=   617 NAE=    79 NBE=    79 NFC=    22 NFV=     0
 NROrb=    588 NOA=    57 NOB=    57 NVA=   531 NVB=   531

 **** Warning!!: The largest alpha MO coefficient is  0.11867236D+03

 Leave Link  801 at Sun Nov  5 11:28:00 2017, MaxMem=  3758096384 cpu:         3.5
 (Enter /share/apps/gaussian/g09_D01/g09/l914.exe)
 RHF ground state
 MDV=  3758096384 DFT=T DoStab=F Mixed=T DoRPA=T DoScal=F NonHer=T
 Would need an additional        105423900000 words for in-memory AO integral storage.
 Making orbital integer symmetry assigments:
    16 initial guesses have been made.
 Convergence on wavefunction:    0.001000000000000
 Davidson Disk Diagonalization:  ConvIn= 1.00D-03 SkipCon=T Conv= 1.00D-03.
 Max sub-space:   200 roots to seek:    16 dimension of matrix:        60534
 Iteration     1 Dimension    16 NMult     0 NNew     16
 CISAX will form    16 AO SS matrices at one time.
 NMat=    16 NSing=    16 JSym2X= 0.
 FoFJK:  IHMeth= 1 ICntrl=       0 DoSepK=T KAlg= 0 I1Cent=   0 FoldK=F
 IRaf=         1 NMat=  32 IRICut=       1 DoRegI=T DoRafI=F ISym2E= 0.
 FoFCou: FMM=F IPFlag=           0 FMFlag=      100000 FMFlg1=           0
         NFxFlg=           0 DoJE=F BraDBF=F KetDBF=F FulRan=T
         wScrn=  0.000000 ICntrl=     500 IOpCl=  0 I1Cent=           0 NGrid=           0
         NMat0=   16 NMatS0=     16 NMatT0=    0 NMatD0=   16 NMtDS0=    0 NMtDT0=    0
 Symmetry not used in FoFCou.
 New state      2 was old state     10
 New state      3 was old state      2
 New state      4 was old state      9
 Excitation Energies [eV] at current iteration:
 Root      1 :     3.677683595081231
 Root      2 :     4.254856754977308
 Root      3 :     4.323242328316797
 Root      4 :     5.321423842918483
 Root      5 :     5.456411902236377
 Root      6 :     5.545807204196274
 Root      7 :     5.789503492402083
 Root      8 :     5.879090423646893
 Root      9 :     6.005268240138068
 Root     10 :     6.018208115448011
 Root     11 :     6.180603485402241
 Root     12 :     6.320886275004854
 Root     13 :     6.358662771757827
 Root     14 :     6.753620922338579
 Root     15 :     7.111668091703327
 Root     16 :     7.248835430790561
 Iteration     2 Dimension    24 NMult    16 NNew      8
 CISAX will form     8 AO SS matrices at one time.
 NMat=     8 NSing=     8 JSym2X= 0.
 Root      1 not converged, maximum delta is    0.071370101133476
 New state      2 was old state      3
 Root      2 not converged, maximum delta is    0.283639662905745
 New state      3 was old state      2
 Root      3 not converged, maximum delta is    0.255748076294756
 Root      4 not converged, maximum delta is    0.265926866939275
 Excitation Energies [eV] at current iteration:
 Root      1 :     3.250000325839224   Change is   -0.427683269242007
 Root      2 :     3.731703685098751   Change is   -0.591538643218047
 Root      3 :     3.819205328444219   Change is   -0.435651426533089
 Root      4 :     4.594813264895376   Change is   -0.726610578023107
 Iteration     3 Dimension    32 NMult    24 NNew      8
 CISAX will form     8 AO SS matrices at one time.
 NMat=     8 NSing=     8 JSym2X= 0.
 Root      1 not converged, maximum delta is    0.016651169727582
 Root      2 not converged, maximum delta is    0.027394253029176
 Root      3 not converged, maximum delta is    0.025968855229595
 Root      4 not converged, maximum delta is    0.040232981207953
 Excitation Energies [eV] at current iteration:
 Root      1 :     3.217837618323466   Change is   -0.032162707515758
 Root      2 :     3.685215678106236   Change is   -0.046488006992514
 Root      3 :     3.792905476062848   Change is   -0.026299852381371
 Root      4 :     4.505026635391141   Change is   -0.089786629504235
 Iteration     4 Dimension    40 NMult    32 NNew      8
 CISAX will form     8 AO SS matrices at one time.
 NMat=     8 NSing=     8 JSym2X= 0.
 Root      1 not converged, maximum delta is    0.007580484821018
 Root      2 not converged, maximum delta is    0.011263310743011
 Root      3 not converged, maximum delta is    0.009395675159923
 Root      4 not converged, maximum delta is    0.017708320380241
 Excitation Energies [eV] at current iteration:
 Root      1 :     3.212411226230703   Change is   -0.005426392092762
 Root      2 :     3.675280295404661   Change is   -0.009935382701576
 Root      3 :     3.790980700255901   Change is   -0.001924775806948
 Root      4 :     4.493775493464980   Change is   -0.011251141926161
 Iteration     5 Dimension    48 NMult    40 NNew      8
 CISAX will form     8 AO SS matrices at one time.
 NMat=     8 NSing=     8 JSym2X= 0.
 Root      1 not converged, maximum delta is    0.001782373403701
 Root      2 not converged, maximum delta is    0.003735867670526
 Root      3 not converged, maximum delta is    0.001448359476386
 Root      4 not converged, maximum delta is    0.010102095877077
 Excitation Energies [eV] at current iteration:
 Root      1 :     3.211863685029856   Change is   -0.000547541200847
 Root      2 :     3.673911778481290   Change is   -0.001368516923371
 Root      3 :     3.790827437946751   Change is   -0.000153262309149
 Root      4 :     4.491606313212408   Change is   -0.002169180252572
 Iteration     6 Dimension    56 NMult    48 NNew      8
 CISAX will form     8 AO SS matrices at one time.
 NMat=     8 NSing=     8 JSym2X= 0.
 Root      1 has converged.
 Root      2 not converged, maximum delta is    0.001091962244959
 Root      3 has converged.
 Root      4 not converged, maximum delta is    0.007757333118019
 Excitation Energies [eV] at current iteration:
 Root      1 :     3.211813277258377   Change is   -0.000050407771479
 Root      2 :     3.673757314220277   Change is   -0.000154464261013
 Root      3 :     3.790811664464854   Change is   -0.000015773481897
 Root      4 :     4.490804096273296   Change is   -0.000802216939112
 Iteration     7 Dimension    60 NMult    56 NNew      4
 CISAX will form     4 AO SS matrices at one time.
 NMat=     4 NSing=     4 JSym2X= 0.
 Root      1 has converged.
 Root      2 has converged.
 Root      3 has converged.
 Root      4 not converged, maximum delta is    0.005181897073205
 Excitation Energies [eV] at current iteration:
 Root      1 :     3.211812845737285   Change is   -0.000000431521092
 Root      2 :     3.673744345192068   Change is   -0.000012969028210
 Root      3 :     3.790811296834371   Change is   -0.000000367630484
 Root      4 :     4.490534950454220   Change is   -0.000269145819075
 Iteration     8 Dimension    62 NMult    60 NNew      2
 CISAX will form     2 AO SS matrices at one time.
 NMat=     2 NSing=     2 JSym2X= 0.
 Root      1 has converged.
 Root      2 has converged.
 Root      3 has converged.
 Root      4 not converged, maximum delta is    0.001757884577745
 Excitation Energies [eV] at current iteration:
 Root      1 :     3.211812698742075   Change is   -0.000000146995210
 Root      2 :     3.673744207864062   Change is   -0.000000137328006
 Root      3 :     3.790811287134356   Change is   -0.000000009700015
 Root      4 :     4.490464854427646   Change is   -0.000070096026575
 Iteration     9 Dimension    64 NMult    62 NNew      2
 CISAX will form     2 AO SS matrices at one time.
 NMat=     2 NSing=     2 JSym2X= 0.
 Root      1 has converged.
 Root      2 has converged.
 Root      3 has converged.
 Root      4 has converged.
 Excitation Energies [eV] at current iteration:
 Root      1 :     3.211812433507923   Change is   -0.000000265234151
 Root      2 :     3.673744198690887   Change is   -0.000000009173175
 Root      3 :     3.790811277745817   Change is   -0.000000009388539
 Root      4 :     4.490452037536703   Change is   -0.000012816890943
 Convergence achieved on expansion vectors.
 ***********************************************************************
 Excited states from <AA,BB:AA,BB> singles matrix:
 ***********************************************************************
 
 1PDM for each excited state written to RWF  633
 Ground to excited state transition densities written to RWF  633
 Ground to excited state transition electric dipole moments (Au):
       state          X           Y           Z        Dip. S.      Osc.
         1        -0.3513      0.6252      3.2930     11.3579      0.8937
         2         0.3317     -0.4199     -1.8530      3.7199      0.3348
         3         0.0374     -0.0748     -0.2387      0.0640      0.0059
         4         0.3646     -0.0792      0.5260      0.4159      0.0458
 Ground to excited state transition velocity dipole moments (Au):
       state          X           Y           Z        Dip. S.      Osc.
         1         0.0462     -0.0748     -0.3852      0.1561      0.8816
         2        -0.0412      0.0542      0.2438      0.0641      0.3165
         3        -0.0041      0.0117      0.0320      0.0012      0.0056
         4        -0.0670      0.0162     -0.0854      0.0120      0.0486
 Ground to excited state transition magnetic dipole moments (Au):
       state          X           Y           Z
         1         5.0718     -5.0157      1.6016
         2        -2.7712      4.3172     -1.4143
         3         0.1521      0.4051     -0.2255
         4         1.8292      0.5637     -1.3067
 Ground to excited state transition velocity quadrupole moments (Au):
       state          XX          YY          ZZ          XY          XZ          YZ
         1        -0.9898      2.6614     15.9032     -0.0599      2.7347      8.3877
         2         0.8477     -2.0466    -12.5826      0.2909     -0.9072     -6.0482
         3         0.0611     -0.4066     -1.6453     -0.0552     -0.1378     -0.8864
         4         1.1540     -0.6325      4.0587      1.1736      2.7463      1.0219
 <0|del|b> * <b|rxdel|0> + <0|del|b> * <b|delr+rdel|0>
 Rotatory Strengths (R) in cgs (10**-40 erg-esu-cm/Gauss)
       state          XX          YY          ZZ    R(velocity)    E-M Angle
         1       -42.2664    -53.4820     51.9740    -14.5914       90.14
         2        24.1711   -136.1428    130.0163      6.0149       89.85
         3        -6.6597     -6.1266     -2.9561     -5.2475      100.68
         4       -51.2872     44.4778     -1.1495     -2.6530       90.42
 1/2[<0|r|b>*<b|rxdel|0> + (<0|rxdel|b>*<b|r|0>)*]
 Rotatory Strengths (R) in cgs (10**-40 erg-esu-cm/Gauss)
       state          XX          YY          ZZ     R(length)
         1      1259.9977   2217.5334  -3729.5836    -84.0175
         2       649.9338   1282.0834  -1853.2491     26.2560
         3        -4.0207     21.4279    -38.0566     -6.8831
         4      -471.5885     31.5848    486.0805     15.3590
  1/2[<0|del|b>*<b|r|0> + (<0|r|b>*<b|del|0>)*] (Au)
       state          X           Y           Z        Dip. S.   Osc.(frdel)
         1        -0.0162     -0.0468     -1.2683      1.3313      0.8876
         2        -0.0137     -0.0228     -0.4518      0.4883      0.3255
         3        -0.0002     -0.0009     -0.0076      0.0087      0.0058
         4        -0.0244     -0.0013     -0.0449      0.0706      0.0471

 Excitation energies and oscillator strengths:
 
 Excited state symmetry could not be determined.
 Excited State   1:      Singlet-?Sym    3.2118 eV  386.03 nm  f=0.8937  <S**2>=0.000
      78 -> 80         0.11634
      78 -> 82         0.16517
      79 -> 80         0.66118
 This state for optimization and/or second-order correction.
 Total Energy, E(TD-HF/TD-KS) =  -977.560986768    
 Copying the excited state density for this state as the 1-particle RhoCI density.
 
 Excited state symmetry could not be determined.
 Excited State   2:      Singlet-?Sym    3.6737 eV  337.49 nm  f=0.3348  <S**2>=0.000
      78 -> 80         0.64460
      79 -> 80        -0.12455
      79 -> 82         0.17607
 
 Excited state symmetry could not be determined.
 Excited State   3:      Singlet-?Sym    3.7908 eV  327.07 nm  f=0.0059  <S**2>=0.000
      76 -> 80         0.66106
      76 -> 82         0.13656
 
 Excited state symmetry could not be determined.
 Excited State   4:      Singlet-?Sym    4.4905 eV  276.11 nm  f=0.0458  <S**2>=0.000
      74 -> 80         0.19127
      75 -> 80        -0.17285
      78 -> 82        -0.14364
      78 -> 84         0.11262
      78 -> 85        -0.32595
      79 -> 82         0.23139
      79 -> 84        -0.14517
      79 -> 85         0.41886
 SavETr:  write IOETrn=   770 NScale= 10 NData=  16 NLR=1 NState=    4 LETran=      82.
 Leave Link  914 at Sun Nov  5 12:36:07 2017, MaxMem=  3758096384 cpu:      8173.9
 (Enter /share/apps/gaussian/g09_D01/g09/l601.exe)
 Copying SCF densities to generalized density rwf, IOpCl= 0 IROHF=0.

 **********************************************************************

            Population analysis using the SCF density.

 **********************************************************************

 Alpha  occ. eigenvalues --  -19.27785 -19.23798 -19.23181 -14.47900 -10.38106
 Alpha  occ. eigenvalues --  -10.35593 -10.35025 -10.34594 -10.34232 -10.33787
 Alpha  occ. eigenvalues --  -10.33718 -10.31536 -10.30992 -10.30804 -10.30124
 Alpha  occ. eigenvalues --  -10.30112 -10.29891 -10.29845 -10.29821 -10.29609
 Alpha  occ. eigenvalues --  -10.29010 -10.28535  -1.16515  -1.14613  -1.10690
 Alpha  occ. eigenvalues --   -1.08137  -0.97316  -0.95626  -0.91102  -0.87728
 Alpha  occ. eigenvalues --   -0.87291  -0.85121  -0.84531  -0.84245  -0.80035
 Alpha  occ. eigenvalues --   -0.78892  -0.74839  -0.72421  -0.71669  -0.68828
 Alpha  occ. eigenvalues --   -0.67556  -0.64811  -0.63417  -0.62439  -0.60467
 Alpha  occ. eigenvalues --   -0.59485  -0.58391  -0.58043  -0.57871  -0.55974
 Alpha  occ. eigenvalues --   -0.55708  -0.54783  -0.53682  -0.52923  -0.52238
 Alpha  occ. eigenvalues --   -0.51908  -0.51529  -0.51212  -0.51130  -0.50283
 Alpha  occ. eigenvalues --   -0.48791  -0.48660  -0.48384  -0.47391  -0.46472
 Alpha  occ. eigenvalues --   -0.46362  -0.45790  -0.44336  -0.43175  -0.42624
 Alpha  occ. eigenvalues --   -0.42301  -0.41378  -0.38066  -0.35167  -0.35122
 Alpha  occ. eigenvalues --   -0.34083  -0.33726  -0.28074  -0.26770
 Alpha virt. eigenvalues --   -0.02983   0.02484   0.03062   0.03421   0.04221
 Alpha virt. eigenvalues --    0.04313   0.04912   0.05683   0.06073   0.06264
 Alpha virt. eigenvalues --    0.06446   0.07339   0.07749   0.07931   0.08062
 Alpha virt. eigenvalues --    0.08085   0.08136   0.08800   0.09679   0.09980
 Alpha virt. eigenvalues --    0.10175   0.10817   0.11241   0.11682   0.12021
 Alpha virt. eigenvalues --    0.12511   0.12681   0.13393   0.13444   0.13906
 Alpha virt. eigenvalues --    0.14066   0.14544   0.14985   0.15153   0.15424
 Alpha virt. eigenvalues --    0.15734   0.15990   0.16402   0.16745   0.17022
 Alpha virt. eigenvalues --    0.17108   0.17300   0.17350   0.17658   0.17955
 Alpha virt. eigenvalues --    0.18209   0.18365   0.19257   0.19517   0.19585
 Alpha virt. eigenvalues --    0.19660   0.20043   0.20190   0.20526   0.20685
 Alpha virt. eigenvalues --    0.20828   0.21015   0.21191   0.21577   0.21775
 Alpha virt. eigenvalues --    0.22002   0.22164   0.22492   0.22950   0.23122
 Alpha virt. eigenvalues --    0.23569   0.23927   0.24029   0.24056   0.24517
 Alpha virt. eigenvalues --    0.24877   0.25226   0.25446   0.25660   0.26113
 Alpha virt. eigenvalues --    0.26230   0.26557   0.27041   0.27511   0.27735
 Alpha virt. eigenvalues --    0.28096   0.28636   0.28842   0.29330   0.29840
 Alpha virt. eigenvalues --    0.29945   0.29999   0.30274   0.30452   0.30547
 Alpha virt. eigenvalues --    0.31280   0.31686   0.31855   0.32059   0.32398
 Alpha virt. eigenvalues --    0.32814   0.33228   0.33582   0.33856   0.34165
 Alpha virt. eigenvalues --    0.34572   0.34627   0.35101   0.35447   0.35745
 Alpha virt. eigenvalues --    0.35994   0.36686   0.37233   0.37635   0.37851
 Alpha virt. eigenvalues --    0.38015   0.38363   0.38691   0.39171   0.39225
 Alpha virt. eigenvalues --    0.39462   0.39682   0.40100   0.40617   0.40800
 Alpha virt. eigenvalues --    0.41390   0.42092   0.42143   0.42325   0.42459
 Alpha virt. eigenvalues --    0.43813   0.44402   0.44817   0.45472   0.45855
 Alpha virt. eigenvalues --    0.46315   0.46716   0.47161   0.48200   0.48414
 Alpha virt. eigenvalues --    0.48819   0.49603   0.50203   0.50722   0.51602
 Alpha virt. eigenvalues --    0.51825   0.51955   0.52407   0.53308   0.54477
 Alpha virt. eigenvalues --    0.55709   0.56411   0.57441   0.58900   0.60249
 Alpha virt. eigenvalues --    0.60816   0.61045   0.62064   0.62258   0.62641
 Alpha virt. eigenvalues --    0.63371   0.63458   0.64282   0.64311   0.65011
 Alpha virt. eigenvalues --    0.65505   0.66349   0.66472   0.66858   0.67291
 Alpha virt. eigenvalues --    0.67991   0.68638   0.69091   0.69136   0.69446
 Alpha virt. eigenvalues --    0.70006   0.70986   0.71568   0.71963   0.72492
 Alpha virt. eigenvalues --    0.72978   0.73499   0.73617   0.74086   0.74187
 Alpha virt. eigenvalues --    0.74734   0.74773   0.75578   0.75760   0.76049
 Alpha virt. eigenvalues --    0.76691   0.77072   0.78122   0.78688   0.78986
 Alpha virt. eigenvalues --    0.79149   0.79735   0.80343   0.80733   0.80876
 Alpha virt. eigenvalues --    0.82180   0.83449   0.83852   0.84561   0.85106
 Alpha virt. eigenvalues --    0.85601   0.86850   0.87693   0.88775   0.89325
 Alpha virt. eigenvalues --    0.90170   0.91153   0.92559   0.93208   0.94316
 Alpha virt. eigenvalues --    0.94694   0.95177   0.96003   0.96863   0.96930
 Alpha virt. eigenvalues --    0.97820   0.98497   0.99085   0.99491   1.00124
 Alpha virt. eigenvalues --    1.00707   1.01784   1.03395   1.03996   1.04396
 Alpha virt. eigenvalues --    1.04763   1.05513   1.06380   1.06472   1.07027
 Alpha virt. eigenvalues --    1.07758   1.08004   1.08074   1.08829   1.09897
 Alpha virt. eigenvalues --    1.10702   1.10882   1.12216   1.13296   1.13627
 Alpha virt. eigenvalues --    1.13996   1.14361   1.14618   1.15026   1.16335
 Alpha virt. eigenvalues --    1.16490   1.18370   1.19058   1.19376   1.19896
 Alpha virt. eigenvalues --    1.20329   1.21262   1.21945   1.22786   1.23465
 Alpha virt. eigenvalues --    1.25095   1.29700   1.30864   1.32158   1.32595
 Alpha virt. eigenvalues --    1.34658   1.35079   1.36046   1.37512   1.37656
 Alpha virt. eigenvalues --    1.38342   1.40926   1.42104   1.42558   1.47533
 Alpha virt. eigenvalues --    1.47991   1.49005   1.50691   1.50897   1.51373
 Alpha virt. eigenvalues --    1.52504   1.53796   1.54243   1.55319   1.56564
 Alpha virt. eigenvalues --    1.56999   1.58680   1.59040   1.60210   1.60932
 Alpha virt. eigenvalues --    1.61567   1.62136   1.62268   1.62852   1.63075
 Alpha virt. eigenvalues --    1.63371   1.63833   1.64408   1.64814   1.65763
 Alpha virt. eigenvalues --    1.66460   1.67915   1.68354   1.68660   1.69408
 Alpha virt. eigenvalues --    1.69929   1.70271   1.70761   1.74743   1.75246
 Alpha virt. eigenvalues --    1.76170   1.76816   1.77644   1.78049   1.79175
 Alpha virt. eigenvalues --    1.79743   1.80295   1.80523   1.81486   1.81888
 Alpha virt. eigenvalues --    1.82229   1.82774   1.84006   1.84772   1.84926
 Alpha virt. eigenvalues --    1.86997   1.87377   1.88404   1.88677   1.92600
 Alpha virt. eigenvalues --    1.93280   1.93450   1.93647   1.94914   1.95436
 Alpha virt. eigenvalues --    1.96635   1.98074   1.99302   1.99546   2.00942
 Alpha virt. eigenvalues --    2.01444   2.01927   2.02197   2.03469   2.05125
 Alpha virt. eigenvalues --    2.05392   2.06806   2.07402   2.08005   2.08859
 Alpha virt. eigenvalues --    2.10398   2.10490   2.12371   2.14286   2.14412
 Alpha virt. eigenvalues --    2.15013   2.16370   2.17132   2.17580   2.18076
 Alpha virt. eigenvalues --    2.18526   2.19952   2.20231   2.22034   2.23582
 Alpha virt. eigenvalues --    2.24352   2.25065   2.25342   2.27327   2.28077
 Alpha virt. eigenvalues --    2.29751   2.31474   2.35602   2.36386   2.37565
 Alpha virt. eigenvalues --    2.39720   2.41032   2.42269   2.42696   2.45939
 Alpha virt. eigenvalues --    2.47672   2.47883   2.49412   2.50210   2.52627
 Alpha virt. eigenvalues --    2.54284   2.54614   2.55268   2.55528   2.56029
 Alpha virt. eigenvalues --    2.56665   2.56845   2.57755   2.61081   2.62024
 Alpha virt. eigenvalues --    2.63393   2.64926   2.67740   2.68465   2.69279
 Alpha virt. eigenvalues --    2.69922   2.73012   2.73704   2.74285   2.74792
 Alpha virt. eigenvalues --    2.76585   2.77148   2.78071   2.78422   2.78765
 Alpha virt. eigenvalues --    2.79249   2.80577   2.81743   2.82128   2.82904
 Alpha virt. eigenvalues --    2.83803   2.84310   2.85692   2.86537   2.86887
 Alpha virt. eigenvalues --    2.88446   2.88611   2.90823   2.91011   2.92188
 Alpha virt. eigenvalues --    2.92766   2.93179   2.94104   2.95743   2.96469
 Alpha virt. eigenvalues --    2.97493   2.98240   3.00182   3.00889   3.01509
 Alpha virt. eigenvalues --    3.02855   3.03722   3.04858   3.06918   3.07313
 Alpha virt. eigenvalues --    3.08690   3.13680   3.14255   3.16046   3.17862
 Alpha virt. eigenvalues --    3.18843   3.19377   3.21677   3.22605   3.22850
 Alpha virt. eigenvalues --    3.25313   3.27025   3.30006   3.30402   3.31730
 Alpha virt. eigenvalues --    3.32501   3.34182   3.35103   3.38134   3.39164
 Alpha virt. eigenvalues --    3.41805   3.43619   3.45590   3.47422   3.50057
 Alpha virt. eigenvalues --    3.53014   3.58266   3.60281   3.60960   3.62675
 Alpha virt. eigenvalues --    3.63748   3.66059   3.66971   3.73769   3.76015
 Alpha virt. eigenvalues --    3.76608   3.76973   3.77708   3.78009   3.80152
 Alpha virt. eigenvalues --    3.85855   3.85979   3.88356   3.89622   3.92288
 Alpha virt. eigenvalues --    3.92382   4.03003   4.05410   4.07350   4.10364
 Alpha virt. eigenvalues --    4.12928   4.16928   4.19624   4.25918   4.26740
 Alpha virt. eigenvalues --    4.29770   4.30130   4.33800   4.37826   4.54120
 Alpha virt. eigenvalues --    4.78178   4.93082   4.94808   4.99845   5.15079
 Alpha virt. eigenvalues --    5.16212   5.17646   5.18738   5.38552   5.51298
 Alpha virt. eigenvalues --    5.66105   5.82741   5.89342   5.97916  23.72286
 Alpha virt. eigenvalues --   23.79724  23.94101  24.01710  24.02942  24.03612
 Alpha virt. eigenvalues --   24.03747  24.04782  24.07724  24.07925  24.08918
 Alpha virt. eigenvalues --   24.13154  24.14032  24.22396  24.25442  24.30086
 Alpha virt. eigenvalues --   24.30839  24.31136  35.73801  50.10683  50.14561
 Alpha virt. eigenvalues --   50.18639
          Condensed to atoms (all electrons):
               1          2          3          4          5          6
     1  C   17.622162  -5.890204  -1.553751   0.277780  -5.175137  -0.302433
     2  C   -5.890204  14.327292  -4.416705   0.411878   1.935783   0.619763
     3  C   -1.553751  -4.416705  17.086572  -0.879415   1.992965  -0.144397
     4  O    0.277780   0.411878  -0.879415   8.193829   0.012228  -0.022818
     5  C   -5.175137   1.935783   1.992965   0.012228  20.881812   0.122311
     6  H   -0.302433   0.619763  -0.144397  -0.022818   0.122311   0.877409
     7  C   -0.273408   0.498966  -1.641878   0.040245  -2.877515   0.086126
     8  H   -0.173621  -0.196967   0.763459  -0.029603   0.091253  -0.003735
     9  C    0.278962  -0.339075   0.036069   0.207166  -0.207507  -0.066307
    10  C    0.705769   1.402432  -1.665723   0.071054  -0.585007   0.148177
    11  C   -0.328841  -0.955197  -2.114015   0.019711   3.217752  -0.022456
    12  H    0.039994   0.089227  -0.210945   0.001127  -0.114857   0.004061
    13  H    0.046420  -0.036612  -0.036540  -0.034832  -0.027353  -0.011871
    14  H    0.055221  -0.033399   0.035451  -0.067533  -0.006789  -0.004665
    15  H    0.010328  -0.008458  -0.034243  -0.035137  -0.016292  -0.015515
    16  O   -0.047448  -0.009421   0.056025   0.000301   0.220330  -0.000647
    17  C    0.801121  -1.440208  -0.744617  -0.012490  -7.333548  -0.117075
    18  O    0.012745   0.011079  -0.017450   0.000034  -0.025828   0.007704
    19  H    0.017242   0.009183  -0.001824   0.000538  -0.104355   0.002994
    20  C    0.924983  -0.457196  -0.316411  -0.003368  -5.562637  -0.041557
    21  H   -0.041120   0.108475   0.022279   0.000095   0.033716  -0.193878
    22  C    0.025020  -0.030500   0.055140  -0.000759  -0.027688  -0.052753
    23  H    0.000273  -0.024396  -0.005946  -0.000004  -0.157428   0.009453
    24  C    0.094831   0.161361   0.002077  -0.000129  -0.402136  -0.004520
    25  C    0.029926  -0.206208  -0.038810  -0.000280  -1.069043   0.038533
    26  C    0.015083   0.053772   0.000646  -0.000010  -0.151602  -0.003884
    27  H    0.000404   0.001425   0.000130  -0.000002   0.013876  -0.000775
    28  C   -0.067651  -0.095393  -0.004860   0.000216   0.226473   0.040937
    29  H    0.020248  -0.030178   0.002164  -0.000234  -0.048124   0.021220
    30  C    0.002600  -0.001604  -0.000826  -0.000008  -0.123525   0.002965
    31  H   -0.000135  -0.000419   0.000004   0.000000  -0.000168   0.000213
    32  H   -0.001646   0.001524   0.000119   0.000012   0.009196  -0.002242
    33  N   -0.000004  -0.000039   0.000001   0.000000   0.000537   0.000079
    34  C    0.000026   0.000128   0.000001   0.000000  -0.000968  -0.000054
    35  C   -0.000163  -0.000369   0.000004   0.000000   0.002015   0.000135
    36  H    0.000000   0.000001   0.000000   0.000000   0.000017  -0.000003
    37  H   -0.000001  -0.000003   0.000000   0.000000   0.000060  -0.000005
    38  H    0.000003   0.000013   0.000000   0.000000  -0.000062  -0.000004
    39  H    0.000052   0.000023   0.000000   0.000000  -0.000340   0.000079
    40  H   -0.000012  -0.000030   0.000000   0.000000   0.000138   0.000004
    41  H    0.000025   0.000026  -0.000002   0.000000  -0.000218   0.000016
               7          8          9         10         11         12
     1  C   -0.273408  -0.173621   0.278962   0.705769  -0.328841   0.039994
     2  C    0.498966  -0.196967  -0.339075   1.402432  -0.955197   0.089227
     3  C   -1.641878   0.763459   0.036069  -1.665723  -2.114015  -0.210945
     4  O    0.040245  -0.029603   0.207166   0.071054   0.019711   0.001127
     5  C   -2.877515   0.091253  -0.207507  -0.585007   3.217752  -0.114857
     6  H    0.086126  -0.003735  -0.066307   0.148177  -0.022456   0.004061
     7  C    9.338435  -0.110537  -0.005056   0.808562  -0.050248   0.635011
     8  H   -0.110537   0.476448   0.002508   0.004759  -0.033799  -0.020782
     9  C   -0.005056   0.002508   5.275584   0.146901  -0.087726  -0.000521
    10  C    0.808562   0.004759   0.146901  18.981567  -5.175873  -0.161737
    11  C   -0.050248  -0.033799  -0.087726  -5.175873  18.090915   0.036331
    12  H    0.635011  -0.020782  -0.000521  -0.161737   0.036331   0.472657
    13  H    0.002729  -0.000886   0.403145   0.000092   0.003163   0.000009
    14  H   -0.004327   0.001469   0.395981   0.001628  -0.005263  -0.000175
    15  H    0.002910  -0.001321   0.411376   0.005238   0.004413  -0.000002
    16  O   -0.330941   0.001769  -0.001094   0.144735  -0.069904  -0.025207
    17  C    0.201256  -0.014112  -0.060672  -5.443197   0.217593   0.008916
    18  O   -0.055503  -0.000096  -0.000626  -0.380388   0.899517   0.000531
    19  H   -0.000584   0.000090   0.000254   0.016954   0.081397  -0.000180
    20  C    0.052248  -0.004091  -0.005197  -2.186116  -5.005360   0.003871
    21  H   -0.014874   0.000249   0.031840   0.070690   0.157296  -0.000571
    22  C   -0.036626   0.000561   0.002223  -0.144818   1.161370  -0.001014
    23  H    0.003999  -0.000076  -0.001358  -0.075519  -0.081225   0.000023
    24  C   -0.026074   0.000094   0.001922  -0.147493  -0.783857  -0.000187
    25  C    0.056381  -0.000648  -0.008448  -0.057941  -2.449732   0.000713
    26  C   -0.004861   0.000014   0.000295  -0.042297  -0.405919  -0.000037
    27  H    0.000114   0.000002   0.000089   0.005640   0.026431   0.000008
    28  C    0.007521  -0.000070  -0.002249   0.052966   0.433422   0.000078
    29  H    0.001500   0.000010  -0.003161  -0.009219  -0.080028  -0.000012
    30  C    0.000935  -0.000015  -0.000262  -0.006933  -0.482999   0.000010
    31  H   -0.000017   0.000000  -0.000008  -0.000224   0.004665   0.000000
    32  H   -0.000182   0.000003   0.000257   0.000463   0.024381  -0.000001
    33  N   -0.000001   0.000000  -0.000002   0.000022   0.003848   0.000000
    34  C   -0.000002   0.000000   0.000000  -0.000050  -0.003080   0.000000
    35  C   -0.000003   0.000000   0.000005   0.000074   0.007683   0.000000
    36  H    0.000000   0.000000   0.000000   0.000005  -0.000121   0.000000
    37  H    0.000000   0.000000   0.000000   0.000009   0.000159   0.000000
    38  H    0.000000   0.000000   0.000000  -0.000004  -0.000271   0.000000
    39  H    0.000001   0.000000  -0.000006  -0.000020  -0.001142   0.000000
    40  H    0.000000   0.000000   0.000001   0.000005   0.000600   0.000000
    41  H    0.000001   0.000000  -0.000002  -0.000009  -0.000941   0.000000
              13         14         15         16         17         18
     1  C    0.046420   0.055221   0.010328  -0.047448   0.801121   0.012745
     2  C   -0.036612  -0.033399  -0.008458  -0.009421  -1.440208   0.011079
     3  C   -0.036540   0.035451  -0.034243   0.056025  -0.744617  -0.017450
     4  O   -0.034832  -0.067533  -0.035137   0.000301  -0.012490   0.000034
     5  C   -0.027353  -0.006789  -0.016292   0.220330  -7.333548  -0.025828
     6  H   -0.011871  -0.004665  -0.015515  -0.000647  -0.117075   0.007704
     7  C    0.002729  -0.004327   0.002910  -0.330941   0.201256  -0.055503
     8  H   -0.000886   0.001469  -0.001321   0.001769  -0.014112  -0.000096
     9  C    0.403145   0.395981   0.411376  -0.001094  -0.060672  -0.000626
    10  C    0.000092   0.001628   0.005238   0.144735  -5.443197  -0.380388
    11  C    0.003163  -0.005263   0.004413  -0.069904   0.217593   0.899517
    12  H    0.000009  -0.000175  -0.000002  -0.025207   0.008916   0.000531
    13  H    0.596094  -0.018182  -0.069142   0.000139   0.006526   0.000044
    14  H   -0.018182   0.455967  -0.018254  -0.000042  -0.000223  -0.000016
    15  H   -0.069142  -0.018254   0.587152   0.000088   0.000698   0.000025
    16  O    0.000139  -0.000042   0.000088   8.200236  -0.027656   0.030994
    17  C    0.006526  -0.000223   0.000698  -0.027656  15.892764  -0.316274
    18  O    0.000044  -0.000016   0.000025   0.030994  -0.316274   8.115120
    19  H   -0.000029  -0.000012   0.000033   0.210116   0.010654   0.092957
    20  C    0.007503   0.000568   0.001592   0.022066   5.051168  -0.022463
    21  H    0.000622   0.001391   0.003864  -0.003194   0.595969  -0.025009
    22  C   -0.000862   0.000334   0.000046   0.001172   0.030110   0.031851
    23  H    0.000003  -0.000058  -0.000074  -0.000330   0.068084   0.006060
    24  C    0.000021   0.000154  -0.000091  -0.001874   0.352810  -0.032147
    25  C    0.002103  -0.000052   0.000130   0.000197  -1.153504   0.020001
    26  C   -0.000039   0.000020  -0.000019  -0.000241   0.324694  -0.003367
    27  H   -0.000001   0.000005   0.000005  -0.000036   0.048735  -0.000869
    28  C   -0.000989  -0.000278  -0.000959   0.000089  -0.293852   0.001584
    29  H   -0.000691   0.000019  -0.001385   0.000176  -0.133496   0.003802
    30  C    0.000009   0.000011  -0.000134  -0.000065  -0.642605   0.000735
    31  H   -0.000003  -0.000001  -0.000003   0.000004  -0.011727   0.000086
    32  H   -0.000016   0.000000   0.000095   0.000000   0.058258  -0.000080
    33  N    0.000000   0.000000   0.000000   0.000000   0.006825  -0.000005
    34  C    0.000000   0.000000   0.000001   0.000000  -0.012524   0.000008
    35  C   -0.000011  -0.000001  -0.000001   0.000000   0.021050   0.000000
    36  H    0.000000   0.000000   0.000000   0.000000   0.000203  -0.000001
    37  H    0.000000   0.000000   0.000000   0.000000   0.000614  -0.000002
    38  H    0.000000   0.000000   0.000000   0.000000  -0.000727   0.000001
    39  H    0.000001   0.000000  -0.000005   0.000000  -0.003223   0.000001
    40  H   -0.000001   0.000000   0.000000   0.000000   0.001940   0.000000
    41  H    0.000002   0.000000   0.000000   0.000000  -0.002320   0.000001
              19         20         21         22         23         24
     1  C    0.017242   0.924983  -0.041120   0.025020   0.000273   0.094831
     2  C    0.009183  -0.457196   0.108475  -0.030500  -0.024396   0.161361
     3  C   -0.001824  -0.316411   0.022279   0.055140  -0.005946   0.002077
     4  O    0.000538  -0.003368   0.000095  -0.000759  -0.000004  -0.000129
     5  C   -0.104355  -5.562637   0.033716  -0.027688  -0.157428  -0.402136
     6  H    0.002994  -0.041557  -0.193878  -0.052753   0.009453  -0.004520
     7  C   -0.000584   0.052248  -0.014874  -0.036626   0.003999  -0.026074
     8  H    0.000090  -0.004091   0.000249   0.000561  -0.000076   0.000094
     9  C    0.000254  -0.005197   0.031840   0.002223  -0.001358   0.001922
    10  C    0.016954  -2.186116   0.070690  -0.144818  -0.075519  -0.147493
    11  C    0.081397  -5.005360   0.157296   1.161370  -0.081225  -0.783857
    12  H   -0.000180   0.003871  -0.000571  -0.001014   0.000023  -0.000187
    13  H   -0.000029   0.007503   0.000622  -0.000862   0.000003   0.000021
    14  H   -0.000012   0.000568   0.001391   0.000334  -0.000058   0.000154
    15  H    0.000033   0.001592   0.003864   0.000046  -0.000074  -0.000091
    16  O    0.210116   0.022066  -0.003194   0.001172  -0.000330  -0.001874
    17  C    0.010654   5.051168   0.595969   0.030110   0.068084   0.352810
    18  O    0.092957  -0.022463  -0.025009   0.031851   0.006060  -0.032147
    19  H    0.266319  -0.014978  -0.000340  -0.003011  -0.001194   0.001898
    20  C   -0.014978  11.905648  -0.190641  -0.497446   0.442006   0.108100
    21  H   -0.000340  -0.190641   1.053704   0.145602  -0.022550   0.063427
    22  C   -0.003011  -0.497446   0.145602  11.608347  -0.119361   0.206360
    23  H   -0.001194   0.442006  -0.022550  -0.119361   0.470907   0.064905
    24  C    0.001898   0.108100   0.063427   0.206360   0.064905  10.751241
    25  C   -0.009288   1.633150  -0.314819  -0.287964   0.118731  -0.923573
    26  C   -0.000272   0.359845   0.060032  -2.977533   0.006622   0.729296
    27  H    0.000202   0.043706   0.009178  -0.115276  -0.008761   0.262625
    28  C    0.000376  -0.375835  -0.202275  -1.021242   0.008732  -1.503522
    29  H   -0.000078   0.022492  -0.094969  -0.192158   0.010227   0.028982
    30  C   -0.000845  -0.121185  -0.073588  -2.586329   0.038016  -2.691944
    31  H    0.000010  -0.008613  -0.002160  -0.010057   0.002457   0.054490
    32  H    0.000024   0.008012   0.020607   0.167784  -0.002377  -0.037409
    33  N    0.000003   0.001331  -0.001024  -0.023477  -0.000944   0.055677
    34  C   -0.000004   0.010825   0.000170  -0.157658  -0.000971  -0.092926
    35  C    0.000006  -0.000235  -0.000537   0.009324  -0.000112  -0.040961
    36  H    0.000000  -0.000300   0.000059   0.002826  -0.000053  -0.004135
    37  H    0.000000  -0.000980   0.000074   0.004890  -0.000136  -0.013008
    38  H    0.000000   0.001054   0.000044  -0.008500  -0.000035  -0.012048
    39  H   -0.000001  -0.001293  -0.000831  -0.014536   0.000152  -0.005382
    40  H    0.000000   0.000077   0.000033   0.009339  -0.000029   0.010020
    41  H   -0.000001  -0.000475  -0.000394  -0.010480   0.000129  -0.001463
              25         26         27         28         29         30
     1  C    0.029926   0.015083   0.000404  -0.067651   0.020248   0.002600
     2  C   -0.206208   0.053772   0.001425  -0.095393  -0.030178  -0.001604
     3  C   -0.038810   0.000646   0.000130  -0.004860   0.002164  -0.000826
     4  O   -0.000280  -0.000010  -0.000002   0.000216  -0.000234  -0.000008
     5  C   -1.069043  -0.151602   0.013876   0.226473  -0.048124  -0.123525
     6  H    0.038533  -0.003884  -0.000775   0.040937   0.021220   0.002965
     7  C    0.056381  -0.004861   0.000114   0.007521   0.001500   0.000935
     8  H   -0.000648   0.000014   0.000002  -0.000070   0.000010  -0.000015
     9  C   -0.008448   0.000295   0.000089  -0.002249  -0.003161  -0.000262
    10  C   -0.057941  -0.042297   0.005640   0.052966  -0.009219  -0.006933
    11  C   -2.449732  -0.405919   0.026431   0.433422  -0.080028  -0.482999
    12  H    0.000713  -0.000037   0.000008   0.000078  -0.000012   0.000010
    13  H    0.002103  -0.000039  -0.000001  -0.000989  -0.000691   0.000009
    14  H   -0.000052   0.000020   0.000005  -0.000278   0.000019   0.000011
    15  H    0.000130  -0.000019   0.000005  -0.000959  -0.001385  -0.000134
    16  O    0.000197  -0.000241  -0.000036   0.000089   0.000176  -0.000065
    17  C   -1.153504   0.324694   0.048735  -0.293852  -0.133496  -0.642605
    18  O    0.020001  -0.003367  -0.000869   0.001584   0.003802   0.000735
    19  H   -0.009288  -0.000272   0.000202   0.000376  -0.000078  -0.000845
    20  C    1.633150   0.359845   0.043706  -0.375835   0.022492  -0.121185
    21  H   -0.314819   0.060032   0.009178  -0.202275  -0.094969  -0.073588
    22  C   -0.287964  -2.977533  -0.115276  -1.021242  -0.192158  -2.586329
    23  H    0.118731   0.006622  -0.008761   0.008732   0.010227   0.038016
    24  C   -0.923573   0.729296   0.262625  -1.503522   0.028982  -2.691944
    25  C   11.628336  -1.557005  -0.083468   1.106701   0.488115  -0.425304
    26  C   -1.557005  10.837722   0.054988  -1.804358  -0.025258   0.580419
    27  H   -0.083468   0.054988   0.491863   0.010986  -0.008198   0.039352
    28  C    1.106701  -1.804358   0.010986   9.290324   0.088974   0.225994
    29  H    0.488115  -0.025258  -0.008198   0.088974   0.588388   0.214429
    30  C   -0.425304   0.580419   0.039352   0.225994   0.214429  13.264245
    31  H   -0.011916   0.458945  -0.014905  -0.029404   0.003522  -0.099068
    32  H    0.006083  -0.018641   0.002977   0.375348  -0.048314  -0.302164
    33  N   -0.041289  -0.266073  -0.001071  -0.271283  -0.000674   0.250937
    34  C   -0.031766   0.208365   0.004806  -0.140242   0.000858  -0.083205
    35  C   -0.020128  -0.168290  -0.000054   0.168335   0.001698  -0.265021
    36  H   -0.004222   0.021854   0.000504  -0.004399  -0.000230  -0.022418
    37  H   -0.002750   0.013366   0.000896  -0.004793  -0.000234   0.003546
    38  H    0.004538   0.037282   0.000094  -0.001165  -0.000288  -0.005433
    39  H   -0.001147  -0.020490  -0.000130   0.034279   0.003277   0.020701
    40  H    0.000351   0.003635  -0.000175   0.031937  -0.000539  -0.040429
    41  H   -0.011433   0.003106  -0.000280   0.013223   0.002608   0.004098
              31         32         33         34         35         36
     1  C   -0.000135  -0.001646  -0.000004   0.000026  -0.000163   0.000000
     2  C   -0.000419   0.001524  -0.000039   0.000128  -0.000369   0.000001
     3  C    0.000004   0.000119   0.000001   0.000001   0.000004   0.000000
     4  O    0.000000   0.000012   0.000000   0.000000   0.000000   0.000000
     5  C   -0.000168   0.009196   0.000537  -0.000968   0.002015   0.000017
     6  H    0.000213  -0.002242   0.000079  -0.000054   0.000135  -0.000003
     7  C   -0.000017  -0.000182  -0.000001  -0.000002  -0.000003   0.000000
     8  H    0.000000   0.000003   0.000000   0.000000   0.000000   0.000000
     9  C   -0.000008   0.000257  -0.000002   0.000000   0.000005   0.000000
    10  C   -0.000224   0.000463   0.000022  -0.000050   0.000074   0.000005
    11  C    0.004665   0.024381   0.003848  -0.003080   0.007683  -0.000121
    12  H    0.000000  -0.000001   0.000000   0.000000   0.000000   0.000000
    13  H   -0.000003  -0.000016   0.000000   0.000000  -0.000011   0.000000
    14  H   -0.000001   0.000000   0.000000   0.000000  -0.000001   0.000000
    15  H   -0.000003   0.000095   0.000000   0.000001  -0.000001   0.000000
    16  O    0.000004   0.000000   0.000000   0.000000   0.000000   0.000000
    17  C   -0.011727   0.058258   0.006825  -0.012524   0.021050   0.000203
    18  O    0.000086  -0.000080  -0.000005   0.000008   0.000000  -0.000001
    19  H    0.000010   0.000024   0.000003  -0.000004   0.000006   0.000000
    20  C   -0.008613   0.008012   0.001331   0.010825  -0.000235  -0.000300
    21  H   -0.002160   0.020607  -0.001024   0.000170  -0.000537   0.000059
    22  C   -0.010057   0.167784  -0.023477  -0.157658   0.009324   0.002826
    23  H    0.002457  -0.002377  -0.000944  -0.000971  -0.000112  -0.000053
    24  C    0.054490  -0.037409   0.055677  -0.092926  -0.040961  -0.004135
    25  C   -0.011916   0.006083  -0.041289  -0.031766  -0.020128  -0.004222
    26  C    0.458945  -0.018641  -0.266073   0.208365  -0.168290   0.021854
    27  H   -0.014905   0.002977  -0.001071   0.004806  -0.000054   0.000504
    28  C   -0.029404   0.375348  -0.271283  -0.140242   0.168335  -0.004399
    29  H    0.003522  -0.048314  -0.000674   0.000858   0.001698  -0.000230
    30  C   -0.099068  -0.302164   0.250937  -0.083205  -0.265021  -0.022418
    31  H    0.510588  -0.001532  -0.033350   0.011618  -0.004069  -0.011042
    32  H   -0.001532   0.549662  -0.035006  -0.006645   0.020739  -0.000419
    33  N   -0.033350  -0.035006   6.980349   0.308980   0.305234  -0.055302
    34  C    0.011618  -0.006645   0.308980   5.288139  -0.126659   0.433017
    35  C   -0.004069   0.020739   0.305234  -0.126659   5.259240  -0.005697
    36  H   -0.011042  -0.000419  -0.055302   0.433017  -0.005697   0.550344
    37  H   -0.007912  -0.000104  -0.054372   0.402877   0.005417  -0.061531
    38  H    0.006163   0.001545  -0.044520   0.403105  -0.013730  -0.019978
    39  H   -0.000625  -0.010156  -0.051633   0.004569   0.395635   0.001833
    40  H    0.001835   0.008791  -0.047912  -0.016580   0.404347  -0.004175
    41  H   -0.000043  -0.017444  -0.055774  -0.003796   0.432248   0.001009
              37         38         39         40         41
     1  C   -0.000001   0.000003   0.000052  -0.000012   0.000025
     2  C   -0.000003   0.000013   0.000023  -0.000030   0.000026
     3  C    0.000000   0.000000   0.000000   0.000000  -0.000002
     4  O    0.000000   0.000000   0.000000   0.000000   0.000000
     5  C    0.000060  -0.000062  -0.000340   0.000138  -0.000218
     6  H   -0.000005  -0.000004   0.000079   0.000004   0.000016
     7  C    0.000000   0.000000   0.000001   0.000000   0.000001
     8  H    0.000000   0.000000   0.000000   0.000000   0.000000
     9  C    0.000000   0.000000  -0.000006   0.000001  -0.000002
    10  C    0.000009  -0.000004  -0.000020   0.000005  -0.000009
    11  C    0.000159  -0.000271  -0.001142   0.000600  -0.000941
    12  H    0.000000   0.000000   0.000000   0.000000   0.000000
    13  H    0.000000   0.000000   0.000001  -0.000001   0.000002
    14  H    0.000000   0.000000   0.000000   0.000000   0.000000
    15  H    0.000000   0.000000  -0.000005   0.000000   0.000000
    16  O    0.000000   0.000000   0.000000   0.000000   0.000000
    17  C    0.000614  -0.000727  -0.003223   0.001940  -0.002320
    18  O   -0.000002   0.000001   0.000001   0.000000   0.000001
    19  H    0.000000   0.000000  -0.000001   0.000000  -0.000001
    20  C   -0.000980   0.001054  -0.001293   0.000077  -0.000475
    21  H    0.000074   0.000044  -0.000831   0.000033  -0.000394
    22  C    0.004890  -0.008500  -0.014536   0.009339  -0.010480
    23  H   -0.000136  -0.000035   0.000152  -0.000029   0.000129
    24  C   -0.013008  -0.012048  -0.005382   0.010020  -0.001463
    25  C   -0.002750   0.004538  -0.001147   0.000351  -0.011433
    26  C    0.013366   0.037282  -0.020490   0.003635   0.003106
    27  H    0.000896   0.000094  -0.000130  -0.000175  -0.000280
    28  C   -0.004793  -0.001165   0.034279   0.031937   0.013223
    29  H   -0.000234  -0.000288   0.003277  -0.000539   0.002608
    30  C    0.003546  -0.005433   0.020701  -0.040429   0.004098
    31  H   -0.007912   0.006163  -0.000625   0.001835  -0.000043
    32  H   -0.000104   0.001545  -0.010156   0.008791  -0.017444
    33  N   -0.054372  -0.044520  -0.051633  -0.047912  -0.055774
    34  C    0.402877   0.403105   0.004569  -0.016580  -0.003796
    35  C    0.005417  -0.013730   0.395635   0.404347   0.432248
    36  H   -0.061531  -0.019978   0.001833  -0.004175   0.001009
    37  H    0.566286  -0.022097  -0.004447  -0.000060   0.001682
    38  H   -0.022097   0.503356   0.000469   0.015647  -0.004507
    39  H   -0.004447   0.000469   0.576112  -0.026100  -0.059958
    40  H   -0.000060   0.015647  -0.026100   0.510269  -0.019956
    41  H    0.001682  -0.004507  -0.059958  -0.019956   0.544683
 Mulliken charges:
               1
     1  C   -1.125642
     2  C    0.540229
     3  C   -0.224749
     4  O   -0.149589
     5  C    1.257664
     6  H    0.029419
     7  C   -0.304306
     8  H    0.247668
     9  C   -0.405299
    10  C   -0.485175
    11  C   -0.252653
    12  H    0.243664
    13  H    0.169435
    14  H    0.211051
    15  H    0.173040
    16  O   -0.370337
    17  C    0.064064
    18  O   -0.354754
    19  H    0.425744
    20  C    0.216134
    21  H   -0.196640
    22  C    0.857751
    23  H    0.252160
    24  C   -0.225414
    25  C   -0.423249
    26  C   -0.319806
    27  H    0.214962
    28  C   -0.293674
    29  H    0.174760
    30  C   -0.673092
    31  H    0.192800
    32  H    0.228500
    33  N    0.069928
    34  C   -0.400363
    35  C   -0.387145
    36  H    0.182353
    37  H    0.172556
    38  H    0.160058
    39  H    0.164282
    40  H    0.157027
    41  H    0.186638
 Sum of Mulliken charges =   0.00000
 Mulliken charges with hydrogens summed into heavy atoms:
               1
     1  C   -1.125642
     2  C    0.569647
     3  C    0.022919
     4  O   -0.149589
     5  C    1.257664
     7  C   -0.060642
     9  C    0.148227
    10  C   -0.485175
    11  C   -0.252653
    16  O    0.055407
    17  C   -0.132576
    18  O   -0.354754
    20  C    0.468294
    22  C    0.857751
    24  C   -0.010452
    25  C   -0.248490
    26  C   -0.127005
    28  C   -0.065173
    30  C   -0.673092
    33  N    0.069928
    34  C    0.114605
    35  C    0.120802
 Electronic spatial extent (au):  <R**2>=         143439.1279
 Charge=              0.0000 electrons
 Dipole moment (field-independent basis, Debye):
    X=              5.1049    Y=             -3.2661    Z=             -8.5224  Tot=             10.4575
 Quadrupole moment (field-independent basis, Debye-Ang):
   XX=           -179.9045   YY=            -73.8908   ZZ=             87.5749
   XY=            -34.2641   XZ=             -7.4161   YZ=            119.5351
 Traceless Quadrupole moment (field-independent basis, Debye-Ang):
   XX=           -124.4977   YY=            -18.4840   ZZ=            142.9817
   XY=            -34.2641   XZ=             -7.4161   YZ=            119.5351
 Octapole moment (field-independent basis, Debye-Ang**2):
  XXX=           2322.0321  YYY=           2964.9310  ZZZ=           -127.5157  XYY=            869.6120
  XXY=           1614.6991  XXZ=           1647.6339  XZZ=             74.0298  YZZ=          -1358.5614
  YYZ=            -33.0301  XYZ=            -69.1303
 Hexadecapole moment (field-independent basis, Debye-Ang**3):
 XXXX=         -23991.2363 YYYY=         -62276.2076 ZZZZ=         -23952.8573 XXXY=         -20939.0293
 XXXZ=         -22982.5654 YYYX=         -19370.6262 YYYZ=         -24924.3157 ZZZX=          -5071.8377
 ZZZY=           8358.1035 XXYY=         -18322.7770 XXZZ=         -19887.5381 YYZZ=           -383.1149
 XXYZ=         -15255.1504 YYXZ=          -5344.7040 ZZXY=           1058.5413
 N-N= 1.612116347573D+03 E-N=-5.502164654855D+03  KE= 9.732509600859D+02
 Leave Link  601 at Sun Nov  5 12:36:07 2017, MaxMem=  3758096384 cpu:         0.5
 (Enter /share/apps/gaussian/g09_D01/g09/l9999.exe)
 1\1\GINC-NXN32\SP\RwB97XD TD-FC\6-311++G(d,p)\C18H19N1O3\BTX008\05-Nov
 -2017\0\\#p wb97xd 6-311++G** td=(nstates=4) nosymm\\Title\\0,1\C,0,-3
 .632763,-9.277855,-6.467496\C,0,-4.162522,-9.22797,-7.747855\C,0,-4.40
 5573,-8.842295,-5.376032\O,0,-2.372714,-9.728943,-6.14776\C,0,-5.47843
 4,-8.754379,-7.971997\H,0,-3.565333,-9.561233,-8.590808\C,0,-5.684736,
 -8.359716,-5.568192\H,0,-3.981016,-8.899345,-4.374849\C,0,-1.54625,-10
 .181599,-7.222399\C,0,-6.245408,-8.316618,-6.852846\C,0,-6.100916,-8.7
 16791,-9.302113\H,0,-6.281334,-8.023784,-4.720041\H,0,-1.382557,-9.375
 631,-7.956169\H,0,-0.590725,-10.473715,-6.770532\H,0,-2.005068,-11.054
 098,-7.717419\O,0,-7.507973,-7.852834,-7.00388\C,0,-5.38682,-9.106002,
 -10.490867\O,0,-7.3241,-8.327927,-9.391898\H,0,-7.678973,-7.992494,-8.
 030767\C,0,-5.988972,-9.053207,-11.715286\H,0,-4.363033,-9.45952,-10.3
 98643\C,0,-5.48143,-9.449819,-12.989449\H,0,-7.014084,-8.668235,-11.72
 6047\C,0,-6.311298,-9.290617,-14.122808\C,0,-4.205793,-10.026794,-13.1
 9656\C,0,-5.918582,-9.688218,-15.382653\H,0,-7.29761,-8.846234,-13.985
 776\C,0,-3.795505,-10.430324,-14.445042\H,0,-3.532176,-10.165254,-12.3
 50682\C,0,-4.645375,-10.286022,-15.578832\H,0,-6.596418,-9.545124,-16.
 221282\H,0,-2.807933,-10.871125,-14.55773\N,0,-4.249517,-10.7147,-16.8
 08941\C,0,-5.101248,-10.488587,-17.965661\C,0,-2.907331,-11.240027,-17
 .01302\H,0,-5.269457,-9.411024,-18.131851\H,0,-6.082683,-10.973972,-17
 .836293\H,0,-4.624006,-10.903989,-18.859321\H,0,-2.718991,-12.101348,-
 16.355502\H,0,-2.804822,-11.564425,-18.053688\H,0,-2.140762,-10.475113
 ,-16.808062\\Version=ES64L-G09RevD.01\HF=-977.6790187\RMSD=9.984e-09\P
 G=C01 [X(C18H19N1O3)]\\@


 FESTINA LENTE!
     - IMPERATOR AUGUSTUS 
 Job cpu time:       0 days  3 hours  9 minutes 49.6 seconds.
 File lengths (MBytes):  RWF=    560 Int=      0 D2E=      0 Chk=     63 Scr=      1
 Normal termination of Gaussian 09 at Sun Nov  5 12:36:07 2017.
