 Entering Gaussian System, Link 0=g09
 Input=2hc_5_rel-mega_dimer_1_mon-0.com
 Output=2hc_5_rel-mega_dimer_1_mon-0.out
 Initial command:
 /share/apps/gaussian/g09_D01/g09/l1.exe "/tmp/160970.1.all.q/Gau-27566.inp" -scrdir="/tmp/160970.1.all.q/"
 Entering Link 1 = /share/apps/gaussian/g09_D01/g09/l1.exe PID=     27567.
  
 Copyright (c) 1988,1990,1992,1993,1995,1998,2003,2009,2013,
            Gaussian, Inc.  All Rights Reserved.
  
 This is part of the Gaussian(R) 09 program.  It is based on
 the Gaussian(R) 03 system (copyright 2003, Gaussian, Inc.),
 the Gaussian(R) 98 system (copyright 1998, Gaussian, Inc.),
 the Gaussian(R) 94 system (copyright 1995, Gaussian, Inc.),
 the Gaussian 92(TM) system (copyright 1992, Gaussian, Inc.),
 the Gaussian 90(TM) system (copyright 1990, Gaussian, Inc.),
 the Gaussian 88(TM) system (copyright 1988, Gaussian, Inc.),
 the Gaussian 86(TM) system (copyright 1986, Carnegie Mellon
 University), and the Gaussian 82(TM) system (copyright 1983,
 Carnegie Mellon University). Gaussian is a federally registered
 trademark of Gaussian, Inc.
  
 This software contains proprietary and confidential information,
 including trade secrets, belonging to Gaussian, Inc.
  
 This software is provided under written license and may be
 used, copied, transmitted, or stored only in accord with that
 written license.
  
 The following legend is applicable only to US Government
 contracts under FAR:
  
                    RESTRICTED RIGHTS LEGEND
  
 Use, reproduction and disclosure by the US Government is
 subject to restrictions as set forth in subparagraphs (a)
 and (c) of the Commercial Computer Software - Restricted
 Rights clause in FAR 52.227-19.
  
 Gaussian, Inc.
 340 Quinnipiac St., Bldg. 40, Wallingford CT 06492
  
  
 ---------------------------------------------------------------
 Warning -- This program may not be used in any manner that
 competes with the business of Gaussian, Inc. or will provide
 assistance to any competitor of Gaussian, Inc.  The licensee
 of this program is prohibited from giving any competitor of
 Gaussian, Inc. access to this program.  By using this program,
 the user acknowledges that Gaussian, Inc. is engaged in the
 business of creating and licensing software in the field of
 computational chemistry and represents and warrants to the
 licensee that it is not a competitor of Gaussian, Inc. and that
 it will not use this program in any manner prohibited above.
 ---------------------------------------------------------------
  

 Cite this work as:
 Gaussian 09, Revision D.01,
 M. J. Frisch, G. W. Trucks, H. B. Schlegel, G. E. Scuseria, 
 M. A. Robb, J. R. Cheeseman, G. Scalmani, V. Barone, B. Mennucci, 
 G. A. Petersson, H. Nakatsuji, M. Caricato, X. Li, H. P. Hratchian, 
 A. F. Izmaylov, J. Bloino, G. Zheng, J. L. Sonnenberg, M. Hada, 
 M. Ehara, K. Toyota, R. Fukuda, J. Hasegawa, M. Ishida, T. Nakajima, 
 Y. Honda, O. Kitao, H. Nakai, T. Vreven, J. A. Montgomery, Jr., 
 J. E. Peralta, F. Ogliaro, M. Bearpark, J. J. Heyd, E. Brothers, 
 K. N. Kudin, V. N. Staroverov, T. Keith, R. Kobayashi, J. Normand, 
 K. Raghavachari, A. Rendell, J. C. Burant, S. S. Iyengar, J. Tomasi, 
 M. Cossi, N. Rega, J. M. Millam, M. Klene, J. E. Knox, J. B. Cross, 
 V. Bakken, C. Adamo, J. Jaramillo, R. Gomperts, R. E. Stratmann, 
 O. Yazyev, A. J. Austin, R. Cammi, C. Pomelli, J. W. Ochterski, 
 R. L. Martin, K. Morokuma, V. G. Zakrzewski, G. A. Voth, 
 P. Salvador, J. J. Dannenberg, S. Dapprich, A. D. Daniels, 
 O. Farkas, J. B. Foresman, J. V. Ortiz, J. Cioslowski, 
 and D. J. Fox, Gaussian, Inc., Wallingford CT, 2013.
 
 ******************************************
 Gaussian 09:  ES64L-G09RevD.01 24-Apr-2013
                 4-Nov-2017 
 ******************************************
 %chk=2hc_5_rel-mega_dimer_1_mon-0.chk
 %nproc=4
 Will use up to    4 processors via shared memory.
 %mem=28GB
 ------------------------------------------
 #p wb97xd 6-311++G** td=(nstates=4) nosymm
 ------------------------------------------
 1/38=1/1;
 2/12=2,15=1,17=6,18=5,40=1/2;
 3/5=4,6=6,7=1111,11=9,16=1,25=1,30=1,74=-58/1,2,8,3;
 4//1;
 5/5=2,38=5/2;
 8/6=1,10=2,108=4/1;
 9/41=4,42=1,70=2/14;
 6/7=2,8=2,9=2,10=2/1;
 99/5=1,9=1/99;
 Leave Link    1 at Sat Nov  4 09:45:56 2017, MaxMem=  3758096384 cpu:         0.2
 (Enter /share/apps/gaussian/g09_D01/g09/l101.exe)
 -----
 Title
 -----
 Symbolic Z-matrix:
 Charge =  0 Multiplicity = 1
 C                    -3.08543  -3.5461   -18.68995 
 C                    -3.80324  -3.17836  -17.53914 
 H                    -3.55841  -3.54217  -19.66986 
 C                    -1.75673  -3.9336   -18.58781 
 C                    -3.15957  -3.18389  -16.30727 
 O                    -5.13214  -2.82104  -17.53855 
 C                    -1.10146  -3.95662  -17.35037 
 H                    -1.21197  -4.24967  -19.47764 
 H                    -3.74178  -2.8931   -15.43547 
 C                    -1.81054  -3.56391  -16.17553 
 C                    -5.84534  -2.99713  -18.7714 
 O                     0.19024  -4.34489  -17.29554 
 C                    -1.11605  -3.6018   -14.87789 
 H                    -5.69989  -4.01635  -19.16372 
 H                    -6.90346  -2.85221  -18.52859 
 H                    -5.52076  -2.25766  -19.51895 
 H                     0.4093   -4.28454  -16.28467 
 C                    -1.80111  -3.22804  -13.6636 
 O                     0.10994  -3.9724   -14.85544 
 H                    -2.79678  -2.79831  -13.74204 
 C                    -1.2233   -3.3741   -12.43766 
 C                    -1.75153  -3.00081  -11.1612 
 H                    -0.22227  -3.81598  -12.42403 
 C                    -3.02812  -2.42879  -10.95552 
 C                    -0.94632  -3.18974  -10.01714 
 C                    -3.45067  -2.04258  -9.70373 
 H                    -3.70009  -2.28765  -11.80329 
 C                    -1.33978  -2.78639  -8.75963 
 H                     0.02422  -3.66911  -10.13558 
 C                    -2.60382  -2.17483  -8.56757 
 H                    -4.45161  -1.63686  -9.58438 
 H                    -0.67412  -2.95434  -7.91672 
 N                    -2.99041  -1.72598  -7.33906 
 C                    -4.28789  -1.09758  -7.15244 
 C                    -2.08975  -1.85136  -6.20528 
 H                    -5.11237  -1.82038  -7.27069 
 H                    -4.33477  -0.67405  -6.14554 
 H                    -4.43085  -0.27374  -7.86829 
 H                    -1.13191  -1.34478  -6.40445 
 H                    -2.54634  -1.38739  -5.32751 
 H                    -1.88453  -2.90944  -5.97265 
 
 NAtoms=     41 NQM=       41 NQMF=       0 NMMI=      0 NMMIF=      0
                NMic=       0 NMicF=      0.
                    Isotopes and Nuclear Properties:
 (Nuclear quadrupole moments (NQMom) in fm**2, nuclear magnetic moments (NMagM)
  in nuclear magnetons)

  Atom         1           2           3           4           5           6           7           8           9          10
 IAtWgt=          12          12           1          12          12          16          12           1           1          12
 AtmWgt=  12.0000000  12.0000000   1.0078250  12.0000000  12.0000000  15.9949146  12.0000000   1.0078250   1.0078250  12.0000000
 NucSpn=           0           0           1           0           0           0           0           1           1           0
 AtZEff=   0.0000000   0.0000000   0.0000000   0.0000000   0.0000000   0.0000000   0.0000000   0.0000000   0.0000000   0.0000000
 NQMom=    0.0000000   0.0000000   0.0000000   0.0000000   0.0000000   0.0000000   0.0000000   0.0000000   0.0000000   0.0000000
 NMagM=    0.0000000   0.0000000   2.7928460   0.0000000   0.0000000   0.0000000   0.0000000   2.7928460   2.7928460   0.0000000
 AtZNuc=   6.0000000   6.0000000   1.0000000   6.0000000   6.0000000   8.0000000   6.0000000   1.0000000   1.0000000   6.0000000

  Atom        11          12          13          14          15          16          17          18          19          20
 IAtWgt=          12          16          12           1           1           1           1          12          16           1
 AtmWgt=  12.0000000  15.9949146  12.0000000   1.0078250   1.0078250   1.0078250   1.0078250  12.0000000  15.9949146   1.0078250
 NucSpn=           0           0           0           1           1           1           1           0           0           1
 AtZEff=   0.0000000   0.0000000   0.0000000   0.0000000   0.0000000   0.0000000   0.0000000   0.0000000   0.0000000   0.0000000
 NQMom=    0.0000000   0.0000000   0.0000000   0.0000000   0.0000000   0.0000000   0.0000000   0.0000000   0.0000000   0.0000000
 NMagM=    0.0000000   0.0000000   0.0000000   2.7928460   2.7928460   2.7928460   2.7928460   0.0000000   0.0000000   2.7928460
 AtZNuc=   6.0000000   8.0000000   6.0000000   1.0000000   1.0000000   1.0000000   1.0000000   6.0000000   8.0000000   1.0000000

  Atom        21          22          23          24          25          26          27          28          29          30
 IAtWgt=          12          12           1          12          12          12           1          12           1          12
 AtmWgt=  12.0000000  12.0000000   1.0078250  12.0000000  12.0000000  12.0000000   1.0078250  12.0000000   1.0078250  12.0000000
 NucSpn=           0           0           1           0           0           0           1           0           1           0
 AtZEff=   0.0000000   0.0000000   0.0000000   0.0000000   0.0000000   0.0000000   0.0000000   0.0000000   0.0000000   0.0000000
 NQMom=    0.0000000   0.0000000   0.0000000   0.0000000   0.0000000   0.0000000   0.0000000   0.0000000   0.0000000   0.0000000
 NMagM=    0.0000000   0.0000000   2.7928460   0.0000000   0.0000000   0.0000000   2.7928460   0.0000000   2.7928460   0.0000000
 AtZNuc=   6.0000000   6.0000000   1.0000000   6.0000000   6.0000000   6.0000000   1.0000000   6.0000000   1.0000000   6.0000000

  Atom        31          32          33          34          35          36          37          38          39          40
 IAtWgt=           1           1          14          12          12           1           1           1           1           1
 AtmWgt=   1.0078250   1.0078250  14.0030740  12.0000000  12.0000000   1.0078250   1.0078250   1.0078250   1.0078250   1.0078250
 NucSpn=           1           1           2           0           0           1           1           1           1           1
 AtZEff=   0.0000000   0.0000000   0.0000000   0.0000000   0.0000000   0.0000000   0.0000000   0.0000000   0.0000000   0.0000000
 NQMom=    0.0000000   0.0000000   2.0440000   0.0000000   0.0000000   0.0000000   0.0000000   0.0000000   0.0000000   0.0000000
 NMagM=    2.7928460   2.7928460   0.4037610   0.0000000   0.0000000   2.7928460   2.7928460   2.7928460   2.7928460   2.7928460
 AtZNuc=   1.0000000   1.0000000   7.0000000   6.0000000   6.0000000   1.0000000   1.0000000   1.0000000   1.0000000   1.0000000

  Atom        41
 IAtWgt=           1
 AtmWgt=   1.0078250
 NucSpn=           1
 AtZEff=   0.0000000
 NQMom=    0.0000000
 NMagM=    2.7928460
 AtZNuc=   1.0000000
 Leave Link  101 at Sat Nov  4 09:45:56 2017, MaxMem=  3758096384 cpu:         0.3
 (Enter /share/apps/gaussian/g09_D01/g09/l202.exe)
                          Input orientation:                          
 ---------------------------------------------------------------------
 Center     Atomic      Atomic             Coordinates (Angstroms)
 Number     Number       Type             X           Y           Z
 ---------------------------------------------------------------------
      1          6           0       -3.085431   -3.546101  -18.689950
      2          6           0       -3.803236   -3.178364  -17.539139
      3          1           0       -3.558414   -3.542171  -19.669863
      4          6           0       -1.756731   -3.933599  -18.587806
      5          6           0       -3.159572   -3.183886  -16.307265
      6          8           0       -5.132139   -2.821035  -17.538551
      7          6           0       -1.101463   -3.956620  -17.350372
      8          1           0       -1.211966   -4.249670  -19.477640
      9          1           0       -3.741779   -2.893099  -15.435471
     10          6           0       -1.810542   -3.563913  -16.175530
     11          6           0       -5.845340   -2.997131  -18.771402
     12          8           0        0.190242   -4.344893  -17.295538
     13          6           0       -1.116053   -3.601804  -14.877891
     14          1           0       -5.699885   -4.016350  -19.163720
     15          1           0       -6.903456   -2.852205  -18.528593
     16          1           0       -5.520759   -2.257664  -19.518946
     17          1           0        0.409302   -4.284539  -16.284674
     18          6           0       -1.801113   -3.228043  -13.663599
     19          8           0        0.109940   -3.972397  -14.855443
     20          1           0       -2.796781   -2.798314  -13.742041
     21          6           0       -1.223295   -3.374099  -12.437663
     22          6           0       -1.751526   -3.000815  -11.161204
     23          1           0       -0.222266   -3.815979  -12.424026
     24          6           0       -3.028120   -2.428791  -10.955517
     25          6           0       -0.946318   -3.189744  -10.017136
     26          6           0       -3.450669   -2.042579   -9.703733
     27          1           0       -3.700091   -2.287654  -11.803292
     28          6           0       -1.339780   -2.786392   -8.759626
     29          1           0        0.024222   -3.669107  -10.135581
     30          6           0       -2.603820   -2.174831   -8.567571
     31          1           0       -4.451614   -1.636857   -9.584384
     32          1           0       -0.674120   -2.954344   -7.916723
     33          7           0       -2.990406   -1.725978   -7.339064
     34          6           0       -4.287887   -1.097580   -7.152439
     35          6           0       -2.089753   -1.851358   -6.205278
     36          1           0       -5.112373   -1.820376   -7.270690
     37          1           0       -4.334769   -0.674045   -6.145539
     38          1           0       -4.430849   -0.273741   -7.868291
     39          1           0       -1.131914   -1.344777   -6.404447
     40          1           0       -2.546339   -1.387393   -5.327513
     41          1           0       -1.884530   -2.909439   -5.972648
 ---------------------------------------------------------------------
                    Distance matrix (angstroms):
                    1          2          3          4          5
     1  C    0.000000
     2  C    1.405290   0.000000
     3  H    1.088098   2.175380   0.000000
     4  C    1.387815   2.420385   2.137785   0.000000
     5  C    2.411200   1.389909   3.405071   2.780450   0.000000
     6  O    2.457734   1.376106   2.745749   3.705687   2.353454
     7  C    2.428811   2.817959   3.404176   1.400410   2.433311
     8  H    2.150659   3.408836   2.458317   1.090172   3.870445
     9  H    3.383613   2.123811   4.287772   3.867851   1.087909
    10  C    2.819214   2.445180   3.907159   2.441032   1.407713
    11  C    2.815155   2.391967   2.516810   4.198500   3.649685
    12  O    3.648628   4.167493   4.509346   2.372725   3.680472
    13  C    4.291078   3.805587   5.378818   3.779421   2.528584
    14  H    2.698326   2.634153   2.250983   3.985848   3.912227
    15  H    3.883921   3.270591   3.601091   5.259439   4.365888
    16  H    2.877173   2.777987   2.350220   4.224179   4.092430
    17  H    4.306252   4.532415   5.268148   3.181081   3.734810
    18  C    5.197580   4.362428   6.265939   4.974695   2.972597
    19  O    5.009548   4.810994   6.067994   4.173308   3.663229
    20  H    5.012415   3.946561   6.022664   5.084488   2.619286
    21  C    6.525966   5.720093   7.601694   6.198536   4.331186
    22  C    7.665419   6.702171   8.715227   7.484954   5.338357
    23  H    6.894371   6.276486   7.981667   6.352999   4.909873
    24  C    7.814929   6.671337   8.801173   7.882431   5.406353
    25  C    8.939826   8.046281  10.006118   8.640976   6.668152
    26  C    9.118447   7.925143  10.078895   9.239704   6.707753
    27  H    7.027628   5.805510   7.967234   7.246752   4.623977
    28  C   10.111172   9.126999  11.159158   9.903689   7.774092
    29  H    9.102873   8.348828  10.185967   8.641867   6.961441
    30  C   10.226186   9.106850  11.226832  10.208621   7.824955
    31  H    9.403351   8.128639  10.302665   9.674659   7.018533
    32  H   11.055633  10.120891  12.116146  10.770469   8.753934
    33  N   11.496282  10.334972  12.476770  11.529516   9.087505
    34  C   11.855603  10.604154  12.774743  12.050617   9.457093
    35  C   12.638456  11.539210  13.649574  12.560797  10.245501
    36  H   11.725448  10.440259  12.614232  11.991795   9.345174
    37  H   12.929493  11.677682  13.846885  13.117964  10.532856
    38  H   11.385376  10.117116  12.276843  11.638448   9.016727
    39  H   12.633117  11.596524  13.663371  12.471032  10.274216
    40  H   13.546415  12.406094  14.538582  13.525606  11.142639
    41  H   12.789733  11.727637  13.813614  12.657308  10.416591
                    6          7          8          9         10
     6  O    0.000000
     7  C    4.191815   0.000000
     8  H    4.600959   2.150200   0.000000
     9  H    2.522150   3.430626   4.957758   0.000000
    10  C    3.666429   1.427328   3.425272   2.174248   0.000000
    11  C    1.435126   5.044236   4.851369   3.945152   4.831086
    12  O    5.541565   1.349913   2.595539   4.585667   2.422289
    13  C    4.880334   2.497853   4.646140   2.776256   1.472283
    14  H    2.095779   4.943408   4.504931   4.358407   4.925542
    15  H    2.029463   6.022546   5.936890   4.423265   5.655193
    16  H    2.095323   5.207623   4.747156   4.499257   5.162405
    17  H    5.866994   1.877672   3.581167   4.459678   2.336434
    18  C    5.126075   3.822647   5.932444   2.649132   2.534304
    19  O    6.000341   2.773521   4.815498   4.041912   2.365954
    20  H    4.457342   4.151606   6.124963   1.941574   2.735083
    21  C    6.450116   4.948624   7.094225   3.944740   3.788474
    22  C    7.220209   6.296185   8.426973   4.716150   5.046189
    23  H    7.159269   5.006161   7.135900   4.723080   4.081659
    24  C    6.922217   6.851309   8.901719   4.560140   5.479008
    25  C    8.615610   7.374857   9.523400   6.104175   6.229984
    26  C    8.050945   8.225169  10.267049   5.801806   6.847527
    27  H    5.935356   6.348891   8.302764   3.682530   4.931095
    28  C    9.563091   8.673358  10.818195   7.095625   7.471398
    29  H    9.061526   7.307738   9.441360   6.547808   6.313352
    30  C    9.342829   9.086773  11.192489   6.998493   7.774309
    31  H    8.070574   8.770141  10.733062   6.026378   7.357446
    32  H   10.605248   9.496363  11.645684   8.120705   8.358883
    33  N   10.479299  10.429293  12.525051   8.214532   9.102374
    34  C   10.561931  11.060074  13.088451   8.492982   9.676580
    35  C   11.774526  11.385164  13.515843   9.434558  10.120115
    36  H   10.316525  11.056714  13.043170   8.348228   9.655992
    37  H   11.620933  12.115191  14.152099   9.569675  10.738891
    38  H   10.024692  10.703190  12.686457   8.037292   9.311362
    39  H   11.922643  11.253263  13.392281   9.527229  10.042866
    40  H   12.563882  12.378923  14.498251  10.289171  11.088648
    41  H   12.013530  11.452615  13.587986   9.643374  10.224119
                   11         12         13         14         15
    11  C    0.000000
    12  O    6.357900   0.000000
    13  C    6.155584   2.846683   0.000000
    14  H    1.101761   6.188024   6.289014   0.000000
    15  H    1.095248   7.353169   6.883572   1.790867   0.000000
    16  H    1.100448   6.474226   6.538160   1.803122   1.801702
    17  H    6.852867   1.036087   2.184462   6.758920   7.782235
    18  C    6.519106   4.289968   1.443437   6.787723   7.059981
    19  O    7.193833   2.469669   1.280977   7.233066   7.995910
    20  H    5.884532   4.893011   2.181879   6.269468   6.307041
    21  C    7.849946   5.151648   2.453174   8.105072   8.344821
    22  C    8.641437   6.573208   3.818216   8.981153   8.991267
    23  H    8.519311   4.917473   2.620340   8.687228   9.101258
    24  C    8.327532   7.363774   4.518515   8.776860   8.517569
    25  C   10.033678   7.456626   4.881142  10.341164  10.394533
    26  C    9.426995   8.728825   5.886725   9.922001   9.510804
    27  H    7.325299   7.037875   4.225802   7.820708   7.470605
    28  C   10.980899   8.810885   6.176416  11.347620  11.242399
    29  H   10.463303   7.193694   4.877936  10.695479  10.913418
    30  C   10.737867   9.417715   6.638512  11.191746  10.870495
    31  H    9.391172   9.399052   6.558064   9.949063   9.353474
    32  H   12.023619   9.520657   7.005167  12.364510  12.305562
    33  N   11.851786  10.775278   7.991610  12.345427  11.907389
    34  C   11.875784  11.553404   8.718617  12.441215  11.804101
    35  C   13.165284  11.593531   8.900920  13.625031  13.267913
    36  H   11.583970  11.618455   8.775737  12.108329  11.446092
    37  H   12.926367  12.580673   9.756325  13.509537  12.832870
    38  H   11.326759  11.260628   8.437913  11.966800  11.242967
    39  H   13.337475  11.373858   8.768904  13.813135  13.512141
    40  H   13.936026  12.628116   9.907525  14.432494  13.978507
    41  H   13.397903  11.600562   8.965115  13.776305  13.522006
                   16         17         18         19         20
    16  H    0.000000
    17  H    7.052259   0.000000
    18  C    7.004462   3.587778   0.000000
    19  O    7.509550   1.493235   2.372062   0.000000
    20  H    6.409757   4.353483   1.087279   3.326734   0.000000
    21  C    8.358181   4.277121   1.363131   2.825090   2.123391
    22  C    9.198437   5.706757   2.513180   4.249286   2.791825
    23  H    8.991121   3.939928   2.091642   2.458987   3.066094
    24  C    8.920474   6.607540   3.078645   5.238279   2.820422
    25  C   10.586722   6.505253   3.745508   5.013725   4.177601
    26  C   10.033441   7.952015   4.450494   6.553034   4.160125
    27  H    7.927613   6.399800   2.819786   5.164332   2.198975
    28  C   11.555220   7.869567   4.945385   6.377090   5.191094
    29  H   10.990292   6.191800   3.996661   4.730373   4.660782
    30  C   11.333491   8.548886   5.265273   7.080471   5.215468
    31  H   10.011193   8.690950   5.118303   7.351638   4.623155
    32  H   12.593127   8.542004   5.862730   7.056700   6.201965
    33  N   12.451301   9.905967   6.608355   8.435312   6.495037
    34  C   12.481837  10.752581   7.288218   9.324255   6.966976
    35  C   13.754659  10.665827   7.589804   9.174029   7.628854
    36  H   12.262862  10.854165   7.335888   9.456861   6.942385
    37  H   13.518966  11.761970   8.334479  10.319738   8.036465
    38  H   11.868514  10.504716   7.016339   9.116968   6.598832
    39  H   13.859488  10.422880   7.529263   8.936774   7.663213
    40  H   14.525884  11.712756   8.569346  10.223479   8.535672
    41  H   14.040982  10.653189   7.697999   9.165797   7.823555
                   21         22         23         24         25
    21  C    0.000000
    22  C    1.430984   0.000000
    23  H    1.094305   2.144259   0.000000
    24  C    2.519476   1.413935   3.457402   0.000000
    25  C    2.443288   1.411717   2.590278   2.406971   0.000000
    26  C    3.769418   2.435062   4.579031   1.376470   2.772361
    27  H    2.778004   2.172045   3.849202   1.090957   3.404025
    28  C    3.726516   2.446035   3.966953   2.792903   1.377983
    29  H    2.634940   2.156803   2.306363   3.395213   1.088929
    30  C    4.280386   2.852295   4.820520   2.438609   2.424582
    31  H    4.645563   3.411337   5.540715   2.129202   3.858216
    32  H    4.573476   3.419009   4.611113   3.879664   2.131018
    33  N    5.642224   4.215304   6.155286   3.684305   3.673279
    34  C    6.519805   5.111323   7.190869   4.221675   4.873369
    35  C    6.473956   5.098711   6.783809   4.876344   4.198688
    36  H    6.651060   5.274924   7.379190   4.276942   5.174374
    37  H    7.520797   6.102778   8.136574   5.284161   5.727094
    38  H    6.385905   5.045689   7.142433   4.017817   5.026188
    39  H    6.366019   5.074753   6.570360   5.048061   4.060772
    40  H    7.500112   6.104655   7.852378   5.743784   5.272675
    41  H    6.515333   5.191065   6.723482   5.134959   4.161333
                   26         27         28         29         30
    26  C    0.000000
    27  H    2.128479   0.000000
    28  C    2.429084   3.883775   0.000000
    29  H    3.860952   4.308153   2.129070   0.000000
    30  C    1.423203   3.418249   1.417282   3.405601   0.000000
    31  H    1.086621   2.431435   3.418357   4.946409   2.176618
    32  H    3.425485   4.970553   1.087105   2.433495   2.180593
    33  N    2.429761   4.555048   2.422197   4.547993   1.363872
    34  C    2.846587   4.836550   3.758520   5.840049   2.449316
    35  C    3.758703   5.841344   2.821603   4.818753   2.439124
    36  H    2.954714   4.770469   4.169242   6.165226   2.846116
    37  H    3.913472   5.917493   4.501713   6.625076   3.333884
    38  H    2.731005   4.480411   4.081985   6.042911   2.727851
    39  H    4.092535   6.052444   2.769175   4.545385   2.744923
    40  H    4.516457   6.639076   3.897741   5.910289   3.334867
    41  H    4.138264   6.138346   2.842383   4.642245   2.791174
                   31         32         33         34         35
    31  H    0.000000
    32  H    4.334320   0.000000
    33  N    2.680398   2.684726   0.000000
    34  C    2.496394   4.134128   1.453675   0.000000
    35  C    4.128287   2.479847   1.453398   2.509400   0.000000
    36  H    2.413185   4.626157   2.125166   1.102812   3.205042
    37  H    3.572998   4.662318   2.082877   1.093356   2.535692
    38  H    2.191687   4.615300   2.112806   1.100724   3.276464
    39  H    4.606269   2.255496   2.114903   3.252809   1.101702
    40  H    4.670466   3.558728   2.087624   2.539160   1.092797
    41  H    4.610208   2.290532   2.119112   3.232780   1.102619
                   36         37         38         39         40
    36  H    0.000000
    37  H    1.784575   0.000000
    38  H    1.792674   1.771256   0.000000
    39  H    4.101296   3.282559   3.764695   0.000000
    40  H    3.247759   2.092012   3.353677   1.778258   0.000000
    41  H    3.645537   3.321227   4.126028   1.789147   1.780678
                   41
    41  H    0.000000
 Symmetry turned off by external request.
 Stoichiometry    C18H19NO3
 Framework group  C1[X(C18H19NO3)]
 Deg. of freedom   117
 Full point group                 C1      NOp   1
 Rotational constants (GHZ):      0.5853953      0.0929906      0.0804942
 Leave Link  202 at Sat Nov  4 09:45:56 2017, MaxMem=  3758096384 cpu:         0.1
 (Enter /share/apps/gaussian/g09_D01/g09/l301.exe)
 Standard basis: 6-311++G(d,p) (5D, 7F)
 Ernie: Thresh=  0.10000D-02 Tol=  0.10000D-05 Strict=F.
   617 basis functions,   963 primitive gaussians,   639 cartesian basis functions
    79 alpha electrons       79 beta electrons
       nuclear repulsion energy      1603.2468356228 Hartrees.
 IExCor= 4639 DFT=T Ex+Corr=wB97XD ExCW=0 ScaHFX=  1.000000
 ScaDFX=  1.000000  1.000000  1.000000  1.000000 ScalE2=  1.000000  1.000000
 IRadAn=      0 IRanWt=     -1 IRanGd=            0 ICorTp=0 IEmpDi=121
  HFx wShort=  0.000000 wLong=  0.200000 cFull=  0.222036 cShort=  0.000000 cLong=  0.777964
  DFx wShort=  0.000000 wLong=  0.200000 cFull=  0.000000 cShort=  0.000000 cLong=  1.000000
 NAtoms=   41 NActive=   41 NUniq=   41 SFac= 1.00D+00 NAtFMM=   60 NAOKFM=F Big=F
 Integral buffers will be    131072 words long.
 Raffenetti 1 integral format.
 Two-electron integral symmetry is turned off.
 R6Disp:  Grimme-D2 Dispersion energy=       -0.0257237464 Hartrees.
 Nuclear repulsion after empirical dispersion term =     1603.2211118764 Hartrees.
 Leave Link  301 at Sat Nov  4 09:45:57 2017, MaxMem=  3758096384 cpu:         0.1
 (Enter /share/apps/gaussian/g09_D01/g09/l302.exe)
 NPDir=0 NMtPBC=     1 NCelOv=     1 NCel=       1 NClECP=     1 NCelD=      1
         NCelK=      1 NCelE2=     1 NClLst=     1 CellRange=     0.0.
 One-electron integrals computed using PRISM.
 NBasis=   617 RedAO= T EigKep=  1.47D-06  NBF=   617
 NBsUse=   609 1.00D-06 EigRej=  9.14D-07 NBFU=   609
 Precomputing XC quadrature grid using
 IXCGrd= 4 IRadAn=           0 IRanWt=          -1 IRanGd=           0 AccXCQ= 0.00D+00.
 Generated NRdTot=       0 NPtTot=           0 NUsed=           0 NTot=          32
 NSgBfM=   620   620   620   620   620 MxSgAt=    41 MxSgA2=    41.
 Leave Link  302 at Sat Nov  4 09:46:00 2017, MaxMem=  3758096384 cpu:         7.8
 (Enter /share/apps/gaussian/g09_D01/g09/l308.exe)
 Leave Link  308 at Sat Nov  4 09:46:01 2017, MaxMem=  3758096384 cpu:         0.9
 (Enter /share/apps/gaussian/g09_D01/g09/l303.exe)
 DipDrv:  MaxL=1.
 Leave Link  303 at Sat Nov  4 09:46:01 2017, MaxMem=  3758096384 cpu:         0.6
 (Enter /share/apps/gaussian/g09_D01/g09/l401.exe)
 ExpMin= 3.60D-02 ExpMax= 8.59D+03 ExpMxC= 1.30D+03 IAcc=3 IRadAn=         5 AccDes= 0.00D+00
 Harris functional with IExCor= 4639 and IRadAn=       5 diagonalized for initial guess.
 HarFok:  IExCor= 4639 AccDes= 0.00D+00 IRadAn=         5 IDoV= 1 UseB2=F ITyADJ=14
 ICtDFT=  3500011 ScaDFX=  1.000000  1.000000  1.000000  1.000000
 FoFCou: FMM=F IPFlag=           0 FMFlag=      100000 FMFlg1=           0
         NFxFlg=           0 DoJE=T BraDBF=F KetDBF=T FulRan=T
         wScrn=  0.000000 ICntrl=     500 IOpCl=  0 I1Cent=   200000004 NGrid=           0
         NMat0=    1 NMatS0=      1 NMatT0=    0 NMatD0=    1 NMtDS0=    0 NMtDT0=    0
 Symmetry not used in FoFCou.
 Harris En= -935.528776923745    
 JPrj=0 DoOrth=F DoCkMO=F.
 Leave Link  401 at Sat Nov  4 09:46:26 2017, MaxMem=  3758096384 cpu:        49.8
 (Enter /share/apps/gaussian/g09_D01/g09/l502.exe)
 Closed shell SCF:
 Using DIIS extrapolation, IDIIS=  1040.
 Two-electron integral symmetry not used.
 IVT=     1251263 IEndB=     1251263 NGot=  3758096384 MDV=  3757270722
 LenX=  3757270722 LenY=  3756861762
 Requested convergence on RMS density matrix=1.00D-08 within 128 cycles.
 Requested convergence on MAX density matrix=1.00D-06.
 Requested convergence on             energy=1.00D-06.
 No special actions if energy rises.
 Fock matrices will be formed incrementally for  20 cycles.

 Cycle   1  Pass 1  IDiag  1:
 FoFJK:  IHMeth= 1 ICntrl=       0 DoSepK=T KAlg= 0 I1Cent=   0 FoldK=F
 IRaf=         1 NMat=   1 IRICut=       1 DoRegI=T DoRafI=F ISym2E= 0.
 FoFCou: FMM=F IPFlag=           0 FMFlag=      100000 FMFlg1=           0
         NFxFlg=           0 DoJE=T BraDBF=F KetDBF=F FulRan=T
         wScrn=  0.000000 ICntrl=     500 IOpCl=  0 I1Cent=           0 NGrid=           0
         NMat0=    1 NMatS0=      1 NMatT0=    0 NMatD0=    1 NMtDS0=    0 NMtDT0=    0
 Symmetry not used in FoFCou.
 E= -977.339379880276    
 DIIS: error= 6.12D-02 at cycle   1 NSaved=   1.
 NSaved= 1 IEnMin= 1 EnMin= -977.339379880276     IErMin= 1 ErrMin= 6.12D-02
 ErrMax= 6.12D-02  0.00D+00 EMaxC= 1.00D-01 BMatC= 2.15D+00 BMatP= 2.15D+00
 IDIUse=3 WtCom= 3.88D-01 WtEn= 6.12D-01
 Coeff-Com:  0.100D+01
 Coeff-En:   0.100D+01
 Coeff:      0.100D+01
 Gap=     0.276 Goal=   None    Shift=    0.000
 GapD=    0.276 DampG=1.000 DampE=0.500 DampFc=0.5000 IDamp=-1.
 Damping current iteration by 5.00D-01
 RMSDP=2.49D-02 MaxDP=2.08D+00              OVMax= 1.92D-01

 Cycle   2  Pass 1  IDiag  1:
 RMSU=  3.35D-03    CP:  8.11D-01
 E= -977.490885216695     Delta-E=       -0.151505336419 Rises=F Damp=T
 DIIS: error= 2.80D-02 at cycle   2 NSaved=   2.
 NSaved= 2 IEnMin= 2 EnMin= -977.490885216695     IErMin= 2 ErrMin= 2.80D-02
 ErrMax= 2.80D-02  0.00D+00 EMaxC= 1.00D-01 BMatC= 4.42D-01 BMatP= 2.15D+00
 IDIUse=3 WtCom= 7.20D-01 WtEn= 2.80D-01
 Coeff-Com: -0.535D+00 0.153D+01
 Coeff-En:   0.000D+00 0.100D+01
 Coeff:     -0.385D+00 0.138D+01
 Gap=     0.273 Goal=   None    Shift=    0.000
 RMSDP=1.10D-02 MaxDP=8.72D-01 DE=-1.52D-01 OVMax= 2.12D-01

 Cycle   3  Pass 1  IDiag  1:
 RMSU=  3.94D-03    CP:  6.49D-01  1.09D+00
 E= -977.560506626936     Delta-E=       -0.069621410241 Rises=F Damp=F
 DIIS: error= 1.86D-02 at cycle   3 NSaved=   3.
 NSaved= 3 IEnMin= 3 EnMin= -977.560506626936     IErMin= 3 ErrMin= 1.86D-02
 ErrMax= 1.86D-02  0.00D+00 EMaxC= 1.00D-01 BMatC= 1.46D-01 BMatP= 4.42D-01
 IDIUse=3 WtCom= 8.14D-01 WtEn= 1.86D-01
 Coeff-Com: -0.356D+00 0.768D+00 0.588D+00
 Coeff-En:   0.000D+00 0.139D+00 0.861D+00
 Coeff:     -0.290D+00 0.651D+00 0.639D+00
 Gap=     0.267 Goal=   None    Shift=    0.000
 RMSDP=4.52D-03 MaxDP=3.91D-01 DE=-6.96D-02 OVMax= 9.80D-02

 Cycle   4  Pass 1  IDiag  1:
 RMSU=  1.42D-03    CP:  5.92D-01  1.47D+00  5.18D-01
 E= -977.669179686212     Delta-E=       -0.108673059276 Rises=F Damp=F
 DIIS: error= 5.53D-03 at cycle   4 NSaved=   4.
 NSaved= 4 IEnMin= 4 EnMin= -977.669179686212     IErMin= 4 ErrMin= 5.53D-03
 ErrMax= 5.53D-03  0.00D+00 EMaxC= 1.00D-01 BMatC= 1.25D-02 BMatP= 1.46D-01
 IDIUse=3 WtCom= 9.45D-01 WtEn= 5.53D-02
 Coeff-Com: -0.142D+00 0.305D+00 0.357D+00 0.479D+00
 Coeff-En:   0.000D+00 0.000D+00 0.479D-02 0.995D+00
 Coeff:     -0.134D+00 0.289D+00 0.338D+00 0.508D+00
 Gap=     0.237 Goal=   None    Shift=    0.000
 RMSDP=8.85D-04 MaxDP=8.12D-02 DE=-1.09D-01 OVMax= 1.89D-02

 Cycle   5  Pass 1  IDiag  1:
 RMSU=  3.31D-04    CP:  6.02D-01  1.43D+00  6.24D-01  7.46D-01
 E= -977.678842694039     Delta-E=       -0.009663007826 Rises=F Damp=F
 DIIS: error= 8.44D-04 at cycle   5 NSaved=   5.
 NSaved= 5 IEnMin= 5 EnMin= -977.678842694039     IErMin= 5 ErrMin= 8.44D-04
 ErrMax= 8.44D-04  0.00D+00 EMaxC= 1.00D-01 BMatC= 2.29D-04 BMatP= 1.25D-02
 IDIUse=3 WtCom= 9.92D-01 WtEn= 8.44D-03
 Coeff-Com:  0.118D-01-0.257D-01 0.246D-01 0.181D+00 0.809D+00
 Coeff-En:   0.000D+00 0.000D+00 0.000D+00 0.000D+00 0.100D+01
 Coeff:      0.117D-01-0.254D-01 0.244D-01 0.179D+00 0.810D+00
 Gap=     0.238 Goal=   None    Shift=    0.000
 RMSDP=2.60D-04 MaxDP=1.75D-02 DE=-9.66D-03 OVMax= 6.27D-03

 Cycle   6  Pass 1  IDiag  1:
 RMSU=  1.89D-04    CP:  6.00D-01  1.42D+00  6.36D-01  8.45D-01  9.21D-01
 E= -977.679111008187     Delta-E=       -0.000268314148 Rises=F Damp=F
 DIIS: error= 5.16D-04 at cycle   6 NSaved=   6.
 NSaved= 6 IEnMin= 6 EnMin= -977.679111008187     IErMin= 6 ErrMin= 5.16D-04
 ErrMax= 5.16D-04  0.00D+00 EMaxC= 1.00D-01 BMatC= 5.94D-05 BMatP= 2.29D-04
 IDIUse=3 WtCom= 9.95D-01 WtEn= 5.16D-03
 Coeff-Com:  0.257D-01-0.554D-01-0.404D-01 0.458D-02 0.400D+00 0.665D+00
 Coeff-En:   0.000D+00 0.000D+00 0.000D+00 0.000D+00 0.000D+00 0.100D+01
 Coeff:      0.256D-01-0.551D-01-0.402D-01 0.456D-02 0.398D+00 0.667D+00
 Gap=     0.239 Goal=   None    Shift=    0.000
 RMSDP=1.03D-04 MaxDP=9.44D-03 DE=-2.68D-04 OVMax= 4.28D-03

 Cycle   7  Pass 1  IDiag  1:
 RMSU=  6.27D-05    CP:  5.99D-01  1.42D+00  6.37D-01  8.60D-01  1.05D+00
                    CP:  1.03D+00
 E= -977.679188117640     Delta-E=       -0.000077109453 Rises=F Damp=F
 DIIS: error= 1.41D-04 at cycle   7 NSaved=   7.
 NSaved= 7 IEnMin= 7 EnMin= -977.679188117640     IErMin= 7 ErrMin= 1.41D-04
 ErrMax= 1.41D-04  0.00D+00 EMaxC= 1.00D-01 BMatC= 4.82D-06 BMatP= 5.94D-05
 IDIUse=3 WtCom= 9.99D-01 WtEn= 1.41D-03
 Coeff-Com:  0.329D-02-0.699D-02-0.105D-01-0.221D-01-0.241D-01 0.185D+00
 Coeff-Com:  0.876D+00
 Coeff-En:   0.000D+00 0.000D+00 0.000D+00 0.000D+00 0.000D+00 0.000D+00
 Coeff-En:   0.100D+01
 Coeff:      0.328D-02-0.698D-02-0.105D-01-0.221D-01-0.241D-01 0.185D+00
 Coeff:      0.876D+00
 Gap=     0.239 Goal=   None    Shift=    0.000
 RMSDP=4.77D-05 MaxDP=3.46D-03 DE=-7.71D-05 OVMax= 1.99D-03

 Cycle   8  Pass 1  IDiag  1:
 RMSU=  3.19D-05    CP:  5.99D-01  1.42D+00  6.38D-01  8.73D-01  1.08D+00
                    CP:  1.17D+00  1.13D+00
 E= -977.679200323508     Delta-E=       -0.000012205868 Rises=F Damp=F
 DIIS: error= 7.31D-05 at cycle   8 NSaved=   8.
 NSaved= 8 IEnMin= 8 EnMin= -977.679200323508     IErMin= 8 ErrMin= 7.31D-05
 ErrMax= 7.31D-05  0.00D+00 EMaxC= 1.00D-01 BMatC= 1.15D-06 BMatP= 4.82D-06
 IDIUse=1 WtCom= 1.00D+00 WtEn= 0.00D+00
 Coeff-Com: -0.226D-02 0.492D-02 0.117D-02-0.119D-01-0.777D-01-0.144D-01
 Coeff-Com:  0.382D+00 0.718D+00
 Coeff:     -0.226D-02 0.492D-02 0.117D-02-0.119D-01-0.777D-01-0.144D-01
 Coeff:      0.382D+00 0.718D+00
 Gap=     0.239 Goal=   None    Shift=    0.000
 RMSDP=1.76D-05 MaxDP=1.22D-03 DE=-1.22D-05 OVMax= 1.00D-03

 Cycle   9  Pass 1  IDiag  1:
 RMSU=  9.97D-06    CP:  5.99D-01  1.42D+00  6.38D-01  8.74D-01  1.09D+00
                    CP:  1.22D+00  1.24D+00  9.62D-01
 E= -977.679203091026     Delta-E=       -0.000002767518 Rises=F Damp=F
 DIIS: error= 3.13D-05 at cycle   9 NSaved=   9.
 NSaved= 9 IEnMin= 9 EnMin= -977.679203091026     IErMin= 9 ErrMin= 3.13D-05
 ErrMax= 3.13D-05  0.00D+00 EMaxC= 1.00D-01 BMatC= 1.76D-07 BMatP= 1.15D-06
 IDIUse=1 WtCom= 1.00D+00 WtEn= 0.00D+00
 Coeff-Com: -0.162D-02 0.347D-02 0.305D-02 0.343D-03-0.254D-01-0.410D-01
 Coeff-Com: -0.517D-01 0.222D+00 0.891D+00
 Coeff:     -0.162D-02 0.347D-02 0.305D-02 0.343D-03-0.254D-01-0.410D-01
 Coeff:     -0.517D-01 0.222D+00 0.891D+00
 Gap=     0.239 Goal=   None    Shift=    0.000
 RMSDP=8.31D-06 MaxDP=6.40D-04 DE=-2.77D-06 OVMax= 5.94D-04

 Cycle  10  Pass 1  IDiag  1:
 RMSU=  4.39D-06    CP:  5.99D-01  1.42D+00  6.39D-01  8.75D-01  1.09D+00
                    CP:  1.24D+00  1.28D+00  1.03D+00  1.30D+00
 E= -977.679203690061     Delta-E=       -0.000000599035 Rises=F Damp=F
 DIIS: error= 1.40D-05 at cycle  10 NSaved=  10.
 NSaved=10 IEnMin=10 EnMin= -977.679203690061     IErMin=10 ErrMin= 1.40D-05
 ErrMax= 1.40D-05  0.00D+00 EMaxC= 1.00D-01 BMatC= 3.00D-08 BMatP= 1.76D-07
 IDIUse=1 WtCom= 1.00D+00 WtEn= 0.00D+00
 Coeff-Com: -0.424D-04 0.814D-04 0.687D-03 0.212D-02 0.477D-02-0.830D-02
 Coeff-Com: -0.819D-01-0.476D-01 0.312D+00 0.818D+00
 Coeff:     -0.424D-04 0.814D-04 0.687D-03 0.212D-02 0.477D-02-0.830D-02
 Coeff:     -0.819D-01-0.476D-01 0.312D+00 0.818D+00
 Gap=     0.239 Goal=   None    Shift=    0.000
 RMSDP=3.92D-06 MaxDP=3.14D-04 DE=-5.99D-07 OVMax= 2.46D-04

 Cycle  11  Pass 1  IDiag  1:
 RMSU=  1.27D-06    CP:  5.99D-01  1.42D+00  6.39D-01  8.75D-01  1.09D+00
                    CP:  1.25D+00  1.28D+00  1.03D+00  1.51D+00  1.16D+00
 E= -977.679203778220     Delta-E=       -0.000000088159 Rises=F Damp=F
 DIIS: error= 4.79D-06 at cycle  11 NSaved=  11.
 NSaved=11 IEnMin=11 EnMin= -977.679203778220     IErMin=11 ErrMin= 4.79D-06
 ErrMax= 4.79D-06  0.00D+00 EMaxC= 1.00D-01 BMatC= 4.79D-09 BMatP= 3.00D-08
 IDIUse=1 WtCom= 1.00D+00 WtEn= 0.00D+00
 Coeff-Com:  0.249D-03-0.535D-03-0.271D-03 0.717D-03 0.558D-02 0.405D-02
 Coeff-Com: -0.174D-01-0.512D-01-0.619D-01 0.248D+00 0.873D+00
 Coeff:      0.249D-03-0.535D-03-0.271D-03 0.717D-03 0.558D-02 0.405D-02
 Coeff:     -0.174D-01-0.512D-01-0.619D-01 0.248D+00 0.873D+00
 Gap=     0.239 Goal=   None    Shift=    0.000
 RMSDP=1.72D-06 MaxDP=1.42D-04 DE=-8.82D-08 OVMax= 1.01D-04

 Cycle  12  Pass 1  IDiag  1:
 RMSU=  8.53D-07    CP:  5.99D-01  1.42D+00  6.39D-01  8.75D-01  1.09D+00
                    CP:  1.25D+00  1.29D+00  1.03D+00  1.62D+00  1.24D+00
                    CP:  1.23D+00
 E= -977.679203793253     Delta-E=       -0.000000015033 Rises=F Damp=F
 DIIS: error= 1.72D-06 at cycle  12 NSaved=  12.
 NSaved=12 IEnMin=12 EnMin= -977.679203793253     IErMin=12 ErrMin= 1.72D-06
 ErrMax= 1.72D-06  0.00D+00 EMaxC= 1.00D-01 BMatC= 7.80D-10 BMatP= 4.79D-09
 IDIUse=1 WtCom= 1.00D+00 WtEn= 0.00D+00
 Coeff-Com:  0.625D-04-0.133D-03-0.138D-03-0.377D-05 0.103D-02 0.210D-02
 Coeff-Com:  0.776D-02-0.665D-02-0.655D-01-0.554D-01 0.272D+00 0.845D+00
 Coeff:      0.625D-04-0.133D-03-0.138D-03-0.377D-05 0.103D-02 0.210D-02
 Coeff:      0.776D-02-0.665D-02-0.655D-01-0.554D-01 0.272D+00 0.845D+00
 Gap=     0.239 Goal=   None    Shift=    0.000
 RMSDP=5.38D-07 MaxDP=3.35D-05 DE=-1.50D-08 OVMax= 3.28D-05

 Cycle  13  Pass 1  IDiag  1:
 RMSU=  2.69D-07    CP:  5.99D-01  1.42D+00  6.39D-01  8.75D-01  1.09D+00
                    CP:  1.25D+00  1.29D+00  1.02D+00  1.65D+00  1.26D+00
                    CP:  1.37D+00  1.16D+00
 E= -977.679203795250     Delta-E=       -0.000000001997 Rises=F Damp=F
 DIIS: error= 6.32D-07 at cycle  13 NSaved=  13.
 NSaved=13 IEnMin=13 EnMin= -977.679203795250     IErMin=13 ErrMin= 6.32D-07
 ErrMax= 6.32D-07  0.00D+00 EMaxC= 1.00D-01 BMatC= 1.92D-10 BMatP= 7.80D-10
 IDIUse=1 WtCom= 1.00D+00 WtEn= 0.00D+00
 Coeff-Com: -0.124D-04 0.272D-04-0.241D-04-0.147D-03-0.558D-03 0.187D-03
 Coeff-Com:  0.707D-02 0.603D-02-0.182D-01-0.739D-01-0.348D-01 0.390D+00
 Coeff-Com:  0.724D+00
 Coeff:     -0.124D-04 0.272D-04-0.241D-04-0.147D-03-0.558D-03 0.187D-03
 Coeff:      0.707D-02 0.603D-02-0.182D-01-0.739D-01-0.348D-01 0.390D+00
 Coeff:      0.724D+00
 Gap=     0.239 Goal=   None    Shift=    0.000
 RMSDP=4.11D-07 MaxDP=2.34D-05 DE=-2.00D-09 OVMax= 1.33D-05

 Cycle  14  Pass 1  IDiag  1:
 RMSU=  1.58D-07    CP:  5.99D-01  1.42D+00  6.39D-01  8.75D-01  1.09D+00
                    CP:  1.25D+00  1.29D+00  1.01D+00  1.67D+00  1.26D+00
                    CP:  1.43D+00  1.34D+00  9.98D-01
 E= -977.679203795756     Delta-E=       -0.000000000506 Rises=F Damp=F
 DIIS: error= 3.32D-07 at cycle  14 NSaved=  14.
 NSaved=14 IEnMin=14 EnMin= -977.679203795756     IErMin=14 ErrMin= 3.32D-07
 ErrMax= 3.32D-07  0.00D+00 EMaxC= 1.00D-01 BMatC= 1.21D-11 BMatP= 1.92D-10
 IDIUse=1 WtCom= 1.00D+00 WtEn= 0.00D+00
 Coeff-Com: -0.780D-05 0.168D-04 0.800D-05-0.400D-04-0.237D-03-0.200D-03
 Coeff-Com:  0.551D-03 0.150D-02 0.456D-02-0.975D-02-0.352D-01-0.747D-02
 Coeff-Com:  0.115D+00 0.931D+00
 Coeff:     -0.780D-05 0.168D-04 0.800D-05-0.400D-04-0.237D-03-0.200D-03
 Coeff:      0.551D-03 0.150D-02 0.456D-02-0.975D-02-0.352D-01-0.747D-02
 Coeff:      0.115D+00 0.931D+00
 Gap=     0.239 Goal=   None    Shift=    0.000
 RMSDP=1.11D-07 MaxDP=5.36D-06 DE=-5.06D-10 OVMax= 5.33D-06

 Cycle  15  Pass 1  IDiag  1:
 RMSU=  3.22D-08    CP:  5.99D-01  1.42D+00  6.39D-01  8.75D-01  1.09D+00
                    CP:  1.25D+00  1.29D+00  1.01D+00  1.67D+00  1.25D+00
                    CP:  1.43D+00  1.38D+00  1.13D+00  1.24D+00
 E= -977.679203795741     Delta-E=        0.000000000015 Rises=F Damp=F
 DIIS: error= 1.24D-07 at cycle  15 NSaved=  15.
 NSaved=15 IEnMin=14 EnMin= -977.679203795756     IErMin=15 ErrMin= 1.24D-07
 ErrMax= 1.24D-07  0.00D+00 EMaxC= 1.00D-01 BMatC= 4.09D-12 BMatP= 1.21D-11
 IDIUse=1 WtCom= 1.00D+00 WtEn= 0.00D+00
 Coeff-Com: -0.244D-05 0.509D-05 0.827D-05 0.247D-05-0.249D-04-0.110D-03
 Coeff-Com: -0.731D-03-0.301D-03 0.468D-02 0.616D-02-0.998D-02-0.590D-01
 Coeff-Com: -0.752D-01 0.389D+00 0.745D+00
 Coeff:     -0.244D-05 0.509D-05 0.827D-05 0.247D-05-0.249D-04-0.110D-03
 Coeff:     -0.731D-03-0.301D-03 0.468D-02 0.616D-02-0.998D-02-0.590D-01
 Coeff:     -0.752D-01 0.389D+00 0.745D+00
 Gap=     0.239 Goal=   None    Shift=    0.000
 RMSDP=7.26D-08 MaxDP=4.10D-06 DE= 1.55D-11 OVMax= 1.98D-06

 Cycle  16  Pass 1  IDiag  1:
 RMSU=  1.86D-08    CP:  5.99D-01  1.42D+00  6.39D-01  8.75D-01  1.09D+00
                    CP:  1.25D+00  1.29D+00  1.01D+00  1.67D+00  1.25D+00
                    CP:  1.44D+00  1.41D+00  1.17D+00  1.45D+00  1.18D+00
 E= -977.679203795797     Delta-E=       -0.000000000057 Rises=F Damp=F
 DIIS: error= 6.13D-08 at cycle  16 NSaved=  16.
 NSaved=16 IEnMin=16 EnMin= -977.679203795797     IErMin=16 ErrMin= 6.13D-08
 ErrMax= 6.13D-08  0.00D+00 EMaxC= 1.00D-01 BMatC= 5.17D-13 BMatP= 4.09D-12
 IDIUse=1 WtCom= 1.00D+00 WtEn= 0.00D+00
 Coeff-Com:  0.228D-06-0.541D-06 0.123D-05 0.746D-05 0.341D-04-0.212D-05
 Coeff-Com: -0.275D-03-0.368D-03 0.400D-03 0.334D-02 0.407D-02-0.117D-01
 Coeff-Com: -0.492D-01-0.714D-01 0.181D+00 0.944D+00
 Coeff:      0.228D-06-0.541D-06 0.123D-05 0.746D-05 0.341D-04-0.212D-05
 Coeff:     -0.275D-03-0.368D-03 0.400D-03 0.334D-02 0.407D-02-0.117D-01
 Coeff:     -0.492D-01-0.714D-01 0.181D+00 0.944D+00
 Gap=     0.239 Goal=   None    Shift=    0.000
 RMSDP=2.63D-08 MaxDP=1.44D-06 DE=-5.68D-11 OVMax= 1.43D-06

 Cycle  17  Pass 1  IDiag  1:
 RMSU=  7.04D-09    CP:  5.99D-01  1.42D+00  6.39D-01  8.75D-01  1.09D+00
                    CP:  1.25D+00  1.29D+00  1.01D+00  1.67D+00  1.25D+00
                    CP:  1.44D+00  1.42D+00  1.19D+00  1.54D+00  1.39D+00
                    CP:  1.25D+00
 E= -977.679203795678     Delta-E=        0.000000000119 Rises=F Damp=F
 DIIS: error= 3.19D-08 at cycle  17 NSaved=  17.
 NSaved=17 IEnMin=16 EnMin= -977.679203795797     IErMin=17 ErrMin= 3.19D-08
 ErrMax= 3.19D-08  0.00D+00 EMaxC= 1.00D-01 BMatC= 1.77D-13 BMatP= 5.17D-13
 IDIUse=1 WtCom= 1.00D+00 WtEn= 0.00D+00
 Coeff-Com:  0.627D-06-0.133D-05-0.116D-05 0.315D-05 0.225D-04 0.236D-04
 Coeff-Com:  0.191D-04-0.127D-03-0.757D-03 0.450D-03 0.394D-02 0.667D-02
 Coeff-Com: -0.865D-02-0.101D+00-0.904D-01 0.416D+00 0.774D+00
 Coeff:      0.627D-06-0.133D-05-0.116D-05 0.315D-05 0.225D-04 0.236D-04
 Coeff:      0.191D-04-0.127D-03-0.757D-03 0.450D-03 0.394D-02 0.667D-02
 Coeff:     -0.865D-02-0.101D+00-0.904D-01 0.416D+00 0.774D+00
 Gap=     0.239 Goal=   None    Shift=    0.000
 RMSDP=1.30D-08 MaxDP=6.69D-07 DE= 1.19D-10 OVMax= 5.23D-07

 Cycle  18  Pass 1  IDiag  1:
 RMSU=  3.09D-09    CP:  5.99D-01  1.42D+00  6.39D-01  8.75D-01  1.09D+00
                    CP:  1.25D+00  1.29D+00  1.01D+00  1.67D+00  1.25D+00
                    CP:  1.44D+00  1.43D+00  1.19D+00  1.58D+00  1.47D+00
                    CP:  1.49D+00  1.15D+00
 E= -977.679203795750     Delta-E=       -0.000000000072 Rises=F Damp=F
 DIIS: error= 1.14D-08 at cycle  18 NSaved=  18.
 NSaved=18 IEnMin=16 EnMin= -977.679203795797     IErMin=18 ErrMin= 1.14D-08
 ErrMax= 1.14D-08  0.00D+00 EMaxC= 1.00D-01 BMatC= 1.43D-14 BMatP= 1.77D-13
 IDIUse=1 WtCom= 1.00D+00 WtEn= 0.00D+00
 Coeff-Com:  0.968D-07-0.194D-06-0.480D-06-0.764D-06-0.163D-05 0.647D-05
 Coeff-Com:  0.548D-04 0.386D-04-0.242D-03-0.524D-03-0.102D-03 0.346D-02
 Coeff-Com:  0.719D-02-0.161D-02-0.588D-01-0.880D-01 0.136D+00 0.100D+01
 Coeff:      0.968D-07-0.194D-06-0.480D-06-0.764D-06-0.163D-05 0.647D-05
 Coeff:      0.548D-04 0.386D-04-0.242D-03-0.524D-03-0.102D-03 0.346D-02
 Coeff:      0.719D-02-0.161D-02-0.588D-01-0.880D-01 0.136D+00 0.100D+01
 Gap=     0.239 Goal=   None    Shift=    0.000
 RMSDP=4.97D-09 MaxDP=4.06D-07 DE=-7.19D-11 OVMax= 2.27D-07

 SCF Done:  E(RwB97XD) =  -977.679203796     A.U. after   18 cycles
            NFock= 18  Conv=0.50D-08     -V/T= 2.0045
 KE= 9.732762345385D+02 PE=-5.484607089983D+03 EE= 1.930430539772D+03
 Leave Link  502 at Sat Nov  4 10:13:09 2017, MaxMem=  3758096384 cpu:      3204.3
 (Enter /share/apps/gaussian/g09_D01/g09/l801.exe)
 DoSCS=F DFT=T ScalE2(SS,OS)=  1.000000  1.000000
 ExpMin= 3.60D-02 ExpMax= 8.59D+03 ExpMxC= 1.30D+03 IAcc=3 IRadAn=         5 AccDes= 0.00D+00
 HarFok:  IExCor=  205 AccDes= 0.00D+00 IRadAn=         5 IDoV=-2 UseB2=F ITyADJ=14
 ICtDFT= 12500011 ScaDFX=  1.000000  1.000000  1.000000  1.000000
 Largest valence mixing into a core orbital is  5.69D-05
 Largest core mixing into a valence orbital is  1.56D-05
 Range of M.O.s used for correlation:    23   609
 NBasis=   617 NAE=    79 NBE=    79 NFC=    22 NFV=     0
 NROrb=    587 NOA=    57 NOB=    57 NVA=   530 NVB=   530

 **** Warning!!: The largest alpha MO coefficient is  0.14014843D+03

 Leave Link  801 at Sat Nov  4 10:13:10 2017, MaxMem=  3758096384 cpu:         3.5
 (Enter /share/apps/gaussian/g09_D01/g09/l914.exe)
 RHF ground state
 MDV=  3758096384 DFT=T DoStab=F Mixed=T DoRPA=T DoScal=F NonHer=T
 Would need an additional        105423900000 words for in-memory AO integral storage.
 Making orbital integer symmetry assigments:
    16 initial guesses have been made.
 Convergence on wavefunction:    0.001000000000000
 Davidson Disk Diagonalization:  ConvIn= 1.00D-03 SkipCon=T Conv= 1.00D-03.
 Max sub-space:   200 roots to seek:    16 dimension of matrix:        60420
 Iteration     1 Dimension    16 NMult     0 NNew     16
 CISAX will form    16 AO SS matrices at one time.
 NMat=    16 NSing=    16 JSym2X= 0.
 FoFJK:  IHMeth= 1 ICntrl=       0 DoSepK=T KAlg= 0 I1Cent=   0 FoldK=F
 IRaf=         1 NMat=  32 IRICut=       1 DoRegI=T DoRafI=F ISym2E= 0.
 FoFCou: FMM=F IPFlag=           0 FMFlag=      100000 FMFlg1=           0
         NFxFlg=           0 DoJE=F BraDBF=F KetDBF=F FulRan=T
         wScrn=  0.000000 ICntrl=     500 IOpCl=  0 I1Cent=           0 NGrid=           0
         NMat0=   16 NMatS0=     16 NMatT0=    0 NMatD0=   16 NMtDS0=    0 NMtDT0=    0
 Symmetry not used in FoFCou.
 New state      3 was old state     11
 New state      4 was old state     15
 Excitation Energies [eV] at current iteration:
 Root      1 :     3.703052672383635
 Root      2 :     4.244675351776028
 Root      3 :     4.270409972165838
 Root      4 :     5.354667765501771
 Root      5 :     5.483756965574749
 Root      6 :     5.575337927577622
 Root      7 :     5.795044471661560
 Root      8 :     5.926336702338332
 Root      9 :     5.957394338571347
 Root     10 :     5.965975961592631
 Root     11 :     6.292544239274403
 Root     12 :     6.324810975934418
 Root     13 :     6.386304037581659
 Root     14 :     6.915010663834213
 Root     15 :     7.158592649735284
 Root     16 :     7.228430305955121
 Iteration     2 Dimension    24 NMult    16 NNew      8
 CISAX will form     8 AO SS matrices at one time.
 NMat=     8 NSing=     8 JSym2X= 0.
 Root      1 not converged, maximum delta is    0.078851072142386
 Root      2 not converged, maximum delta is    0.219678510268759
 Root      3 not converged, maximum delta is    0.197336530307410
 Root      4 not converged, maximum delta is    0.267515420418487
 Excitation Energies [eV] at current iteration:
 Root      1 :     3.281040874005407   Change is   -0.422011798378228
 Root      2 :     3.687687717727480   Change is   -0.556987634048548
 Root      3 :     3.827367180307747   Change is   -0.443042791858091
 Root      4 :     4.613556038698171   Change is   -0.741111726803601
 Iteration     3 Dimension    32 NMult    24 NNew      8
 CISAX will form     8 AO SS matrices at one time.
 NMat=     8 NSing=     8 JSym2X= 0.
 Root      1 not converged, maximum delta is    0.015589409282507
 Root      2 not converged, maximum delta is    0.023063265083477
 Root      3 not converged, maximum delta is    0.015190433907440
 Root      4 not converged, maximum delta is    0.057949079351042
 Excitation Energies [eV] at current iteration:
 Root      1 :     3.248256814812708   Change is   -0.032784059192700
 Root      2 :     3.642990755168264   Change is   -0.044696962559217
 Root      3 :     3.801228408087570   Change is   -0.026138772220177
 Root      4 :     4.518149640524536   Change is   -0.095406398173636
 Iteration     4 Dimension    40 NMult    32 NNew      8
 CISAX will form     8 AO SS matrices at one time.
 NMat=     8 NSing=     8 JSym2X= 0.
 Root      1 not converged, maximum delta is    0.007148087432715
 Root      2 not converged, maximum delta is    0.010269487044935
 Root      3 not converged, maximum delta is    0.005160122438168
 Root      4 not converged, maximum delta is    0.022989687048298
 Excitation Energies [eV] at current iteration:
 Root      1 :     3.242220737959219   Change is   -0.006036076853489
 Root      2 :     3.633867656180125   Change is   -0.009123098988139
 Root      3 :     3.799335765176538   Change is   -0.001892642911032
 Root      4 :     4.505629182731723   Change is   -0.012520457792812
 Iteration     5 Dimension    48 NMult    40 NNew      8
 CISAX will form     8 AO SS matrices at one time.
 NMat=     8 NSing=     8 JSym2X= 0.
 Root      1 not converged, maximum delta is    0.002046112100601
 Root      2 not converged, maximum delta is    0.002629399166627
 Root      3 not converged, maximum delta is    0.001433315877311
 Root      4 not converged, maximum delta is    0.013148699977363
 Excitation Energies [eV] at current iteration:
 Root      1 :     3.241592595395332   Change is   -0.000628142563887
 Root      2 :     3.632699122201593   Change is   -0.001168533978532
 Root      3 :     3.799198107962797   Change is   -0.000137657213741
 Root      4 :     4.502732176342906   Change is   -0.002897006388817
 Iteration     6 Dimension    56 NMult    48 NNew      8
 CISAX will form     8 AO SS matrices at one time.
 NMat=     8 NSing=     8 JSym2X= 0.
 Root      1 has converged.
 Root      2 has converged.
 Root      3 has converged.
 Root      4 not converged, maximum delta is    0.010546333585027
 Excitation Energies [eV] at current iteration:
 Root      1 :     3.241529337272347   Change is   -0.000063258122984
 Root      2 :     3.632560798440485   Change is   -0.000138323761108
 Root      3 :     3.799184158063102   Change is   -0.000013949899695
 Root      4 :     4.501545163067794   Change is   -0.001187013275112
 Iteration     7 Dimension    58 NMult    56 NNew      2
 CISAX will form     2 AO SS matrices at one time.
 NMat=     2 NSing=     2 JSym2X= 0.
 Root      1 has converged.
 Root      2 has converged.
 Root      3 has converged.
 Root      4 not converged, maximum delta is    0.004712760032971
 Excitation Energies [eV] at current iteration:
 Root      1 :     3.241529196771080   Change is   -0.000000140501267
 Root      2 :     3.632560090112817   Change is   -0.000000708327668
 Root      3 :     3.799184135190010   Change is   -0.000000022873093
 Root      4 :     4.501239559954843   Change is   -0.000305603112950
 Iteration     8 Dimension    60 NMult    58 NNew      2
 CISAX will form     2 AO SS matrices at one time.
 NMat=     2 NSing=     2 JSym2X= 0.
 Root      1 has converged.
 Root      2 has converged.
 Root      3 has converged.
 Root      4 not converged, maximum delta is    0.001186946264220
 Excitation Energies [eV] at current iteration:
 Root      1 :     3.241528897329305   Change is   -0.000000299441775
 Root      2 :     3.632559993045832   Change is   -0.000000097066985
 Root      3 :     3.799184102402250   Change is   -0.000000032787760
 Root      4 :     4.501174356808564   Change is   -0.000065203146279
 Iteration     9 Dimension    62 NMult    60 NNew      2
 CISAX will form     2 AO SS matrices at one time.
 NMat=     2 NSing=     2 JSym2X= 0.
 Root      1 has converged.
 Root      2 has converged.
 Root      3 has converged.
 Root      4 has converged.
 Excitation Energies [eV] at current iteration:
 Root      1 :     3.241528205635257   Change is   -0.000000691694049
 Root      2 :     3.632559946840928   Change is   -0.000000046204904
 Root      3 :     3.799184088401230   Change is   -0.000000014001020
 Root      4 :     4.501165686034843   Change is   -0.000008670773721
 Convergence achieved on expansion vectors.
 ***********************************************************************
 Excited states from <AA,BB:AA,BB> singles matrix:
 ***********************************************************************
 
 1PDM for each excited state written to RWF  633
 Ground to excited state transition densities written to RWF  633
 Ground to excited state transition electric dipole moments (Au):
       state          X           Y           Z        Dip. S.      Osc.
         1        -0.3330      0.5772      3.1343     10.2680      0.8154
         2         0.2903     -0.4337     -2.0781      4.5910      0.4086
         3         0.0280     -0.0714     -0.2416      0.0643      0.0060
         4        -0.3858      0.0851     -0.5084      0.4146      0.0457
 Ground to excited state transition velocity dipole moments (Au):
       state          X           Y           Z        Dip. S.      Osc.
         1         0.0440     -0.0697     -0.3712      0.1446      0.8093
         2        -0.0357      0.0554      0.2697      0.0771      0.3849
         3        -0.0032      0.0116      0.0320      0.0012      0.0056
         4         0.0707     -0.0171      0.0825      0.0121      0.0487
 Ground to excited state transition magnetic dipole moments (Au):
       state          X           Y           Z
         1         0.5501     -2.3561      0.5148
         2        -0.6228      0.7967     -0.2782
         3        -0.4235      0.2075      0.0017
         4        -0.9299     -1.4434      0.5154
 Ground to excited state transition velocity quadrupole moments (Au):
       state          XX          YY          ZZ          XY          XZ          YZ
         1        -0.2663      0.7672     18.6933      0.0344      0.4590      3.8429
         2         0.1961     -0.4934    -11.1019     -0.1081     -0.8046     -2.3448
         3         0.0436     -0.1409     -1.3951     -0.0086     -0.1141     -0.4195
         4        -0.7148      0.1415     -3.6450     -0.2033     -1.5790     -0.2012
 <0|del|b> * <b|rxdel|0> + <0|del|b> * <b|delr+rdel|0>
 Rotatory Strengths (R) in cgs (10**-40 erg-esu-cm/Gauss)
       state          XX          YY          ZZ    R(velocity)    E-M Angle
         1       -22.5409     45.0126    -37.8470     -5.1251       90.16
         2       -40.9884    159.1122   -163.9945    -15.2903       91.70
         3         8.8795      7.6322      2.7732      6.4283       76.35
         4        50.0708    -44.0701      0.6878      2.2295       89.55
 1/2[<0|r|b>*<b|rxdel|0> + (<0|rxdel|b>*<b|r|0>)*]
 Rotatory Strengths (R) in cgs (10**-40 erg-esu-cm/Gauss)
       state          XX          YY          ZZ     R(length)
         1       129.5389    961.7568  -1140.9900    -16.5648
         2       127.8295    244.3295   -408.8740    -12.2383
         3         8.3905     10.4815      0.2905      6.3875
         4      -253.6841     86.9041    185.3065      6.1755
  1/2[<0|del|b>*<b|r|0> + (<0|r|b>*<b|del|0>)*] (Au)
       state          X           Y           Z        Dip. S.   Osc.(frdel)
         1        -0.0147     -0.0402     -1.1635      1.2184      0.8123
         2        -0.0104     -0.0240     -0.5604      0.5948      0.3966
         3        -0.0001     -0.0008     -0.0077      0.0087      0.0058
         4        -0.0273     -0.0015     -0.0420      0.0707      0.0471

 Excitation energies and oscillator strengths:
 
 Excited state symmetry could not be determined.
 Excited State   1:      Singlet-?Sym    3.2415 eV  382.49 nm  f=0.8154  <S**2>=0.000
      78 -> 80         0.16087
      78 -> 82        -0.17746
      79 -> 80         0.64738
 This state for optimization and/or second-order correction.
 Total Energy, E(TD-HF/TD-KS) =  -977.560079821    
 Copying the excited state density for this state as the 1-particle RhoCI density.
 
 Excited state symmetry could not be determined.
 Excited State   2:      Singlet-?Sym    3.6326 eV  341.31 nm  f=0.4086  <S**2>=0.000
      78 -> 80         0.63780
      79 -> 80        -0.17061
      79 -> 82        -0.17250
 
 Excited state symmetry could not be determined.
 Excited State   3:      Singlet-?Sym    3.7992 eV  326.34 nm  f=0.0060  <S**2>=0.000
      76 -> 80         0.66004
      76 -> 82        -0.12967
 
 Excited state symmetry could not be determined.
 Excited State   4:      Singlet-?Sym    4.5012 eV  275.45 nm  f=0.0457  <S**2>=0.000
      75 -> 80        -0.26250
      75 -> 82        -0.13345
      78 -> 82        -0.13570
      78 -> 85        -0.33168
      79 -> 82         0.21848
      79 -> 85         0.45078
 SavETr:  write IOETrn=   770 NScale= 10 NData=  16 NLR=1 NState=    4 LETran=      82.
 Leave Link  914 at Sat Nov  4 11:16:44 2017, MaxMem=  3758096384 cpu:      7627.2
 (Enter /share/apps/gaussian/g09_D01/g09/l601.exe)
 Copying SCF densities to generalized density rwf, IOpCl= 0 IROHF=0.

 **********************************************************************

            Population analysis using the SCF density.

 **********************************************************************

 Alpha  occ. eigenvalues --  -19.27611 -19.24002 -19.23254 -14.47632 -10.38109
 Alpha  occ. eigenvalues --  -10.35290 -10.34855 -10.34492 -10.34036 -10.33534
 Alpha  occ. eigenvalues --  -10.33480 -10.31433 -10.30713 -10.30498 -10.29908
 Alpha  occ. eigenvalues --  -10.29877 -10.29872 -10.29828 -10.29533 -10.29503
 Alpha  occ. eigenvalues --  -10.28785 -10.28476  -1.16261  -1.14748  -1.11050
 Alpha  occ. eigenvalues --   -1.07852  -0.97112  -0.95566  -0.90958  -0.87452
 Alpha  occ. eigenvalues --   -0.86999  -0.85277  -0.84521  -0.84025  -0.79246
 Alpha  occ. eigenvalues --   -0.78852  -0.74834  -0.72285  -0.71488  -0.68931
 Alpha  occ. eigenvalues --   -0.67490  -0.64567  -0.63206  -0.62197  -0.60664
 Alpha  occ. eigenvalues --   -0.59168  -0.58450  -0.57777  -0.57687  -0.55767
 Alpha  occ. eigenvalues --   -0.55463  -0.54486  -0.53767  -0.52562  -0.52181
 Alpha  occ. eigenvalues --   -0.51430  -0.51409  -0.51231  -0.50870  -0.50046
 Alpha  occ. eigenvalues --   -0.49026  -0.48376  -0.48226  -0.47195  -0.46651
 Alpha  occ. eigenvalues --   -0.46332  -0.45631  -0.44457  -0.43531  -0.42535
 Alpha  occ. eigenvalues --   -0.41593  -0.41220  -0.38047  -0.35042  -0.34823
 Alpha  occ. eigenvalues --   -0.34129  -0.33719  -0.27735  -0.26719
 Alpha virt. eigenvalues --   -0.02788   0.02718   0.03213   0.04017   0.04261
 Alpha virt. eigenvalues --    0.04564   0.04710   0.05710   0.06189   0.06251
 Alpha virt. eigenvalues --    0.06629   0.07513   0.07727   0.07904   0.08015
 Alpha virt. eigenvalues --    0.08210   0.08458   0.08961   0.09802   0.09983
 Alpha virt. eigenvalues --    0.10338   0.10670   0.11398   0.11559   0.12149
 Alpha virt. eigenvalues --    0.12457   0.12772   0.13501   0.13676   0.14161
 Alpha virt. eigenvalues --    0.14425   0.14597   0.14786   0.15125   0.15668
 Alpha virt. eigenvalues --    0.15828   0.15958   0.16257   0.16417   0.16832
 Alpha virt. eigenvalues --    0.16896   0.17165   0.17618   0.17778   0.18002
 Alpha virt. eigenvalues --    0.18357   0.18632   0.19139   0.19214   0.19442
 Alpha virt. eigenvalues --    0.19809   0.20104   0.20355   0.20658   0.21137
 Alpha virt. eigenvalues --    0.21239   0.21339   0.21520   0.21704   0.21950
 Alpha virt. eigenvalues --    0.22197   0.22358   0.22992   0.23255   0.23386
 Alpha virt. eigenvalues --    0.23623   0.23964   0.24134   0.24364   0.24443
 Alpha virt. eigenvalues --    0.24731   0.25305   0.25648   0.25932   0.26395
 Alpha virt. eigenvalues --    0.26613   0.26778   0.27069   0.27778   0.27873
 Alpha virt. eigenvalues --    0.27993   0.28609   0.28847   0.29111   0.29420
 Alpha virt. eigenvalues --    0.29490   0.29996   0.30832   0.30976   0.31190
 Alpha virt. eigenvalues --    0.31354   0.31513   0.32091   0.32302   0.32417
 Alpha virt. eigenvalues --    0.32916   0.33445   0.34011   0.34324   0.34374
 Alpha virt. eigenvalues --    0.34514   0.34842   0.35122   0.35722   0.36274
 Alpha virt. eigenvalues --    0.36758   0.37144   0.37211   0.37429   0.37744
 Alpha virt. eigenvalues --    0.38246   0.38558   0.38832   0.39032   0.39292
 Alpha virt. eigenvalues --    0.39744   0.39922   0.40392   0.41105   0.41264
 Alpha virt. eigenvalues --    0.41389   0.41965   0.42662   0.42718   0.43148
 Alpha virt. eigenvalues --    0.43702   0.43958   0.45393   0.45600   0.45671
 Alpha virt. eigenvalues --    0.46190   0.46973   0.48505   0.48685   0.48975
 Alpha virt. eigenvalues --    0.49616   0.49937   0.50074   0.50608   0.51307
 Alpha virt. eigenvalues --    0.51993   0.52689   0.53391   0.54199   0.55266
 Alpha virt. eigenvalues --    0.55967   0.57824   0.58530   0.59390   0.60178
 Alpha virt. eigenvalues --    0.61064   0.61473   0.62088   0.62249   0.62899
 Alpha virt. eigenvalues --    0.63212   0.63962   0.64304   0.64429   0.65148
 Alpha virt. eigenvalues --    0.65918   0.66607   0.66821   0.67069   0.67762
 Alpha virt. eigenvalues --    0.68419   0.69114   0.69641   0.69956   0.70580
 Alpha virt. eigenvalues --    0.70946   0.71246   0.71687   0.72335   0.72598
 Alpha virt. eigenvalues --    0.73255   0.73328   0.73787   0.74077   0.74810
 Alpha virt. eigenvalues --    0.75099   0.76054   0.76387   0.76566   0.77002
 Alpha virt. eigenvalues --    0.77106   0.78521   0.78683   0.79157   0.79401
 Alpha virt. eigenvalues --    0.79820   0.80209   0.80610   0.81227   0.81814
 Alpha virt. eigenvalues --    0.82986   0.83363   0.84216   0.85334   0.85946
 Alpha virt. eigenvalues --    0.86828   0.87012   0.87620   0.89164   0.90015
 Alpha virt. eigenvalues --    0.90293   0.91641   0.92904   0.93812   0.94555
 Alpha virt. eigenvalues --    0.95059   0.96210   0.96788   0.97047   0.97295
 Alpha virt. eigenvalues --    0.98524   0.98811   0.99243   0.99979   1.00677
 Alpha virt. eigenvalues --    1.01160   1.01776   1.02033   1.03685   1.04152
 Alpha virt. eigenvalues --    1.04170   1.05238   1.05956   1.06298   1.06761
 Alpha virt. eigenvalues --    1.07711   1.08090   1.08884   1.09502   1.10046
 Alpha virt. eigenvalues --    1.11162   1.11675   1.13022   1.13668   1.13983
 Alpha virt. eigenvalues --    1.14401   1.15433   1.15543   1.16165   1.16979
 Alpha virt. eigenvalues --    1.18329   1.19357   1.19439   1.20044   1.20572
 Alpha virt. eigenvalues --    1.21023   1.21489   1.22205   1.23847   1.26181
 Alpha virt. eigenvalues --    1.28404   1.31084   1.32380   1.33366   1.34318
 Alpha virt. eigenvalues --    1.35480   1.36206   1.37386   1.38567   1.39256
 Alpha virt. eigenvalues --    1.40573   1.42200   1.42510   1.47091   1.47822
 Alpha virt. eigenvalues --    1.49152   1.50276   1.51510   1.51735   1.53245
 Alpha virt. eigenvalues --    1.53827   1.54489   1.55769   1.56195   1.57397
 Alpha virt. eigenvalues --    1.57965   1.58962   1.59258   1.60788   1.61200
 Alpha virt. eigenvalues --    1.62002   1.62615   1.63110   1.63341   1.63442
 Alpha virt. eigenvalues --    1.63600   1.64660   1.64990   1.66064   1.66799
 Alpha virt. eigenvalues --    1.67680   1.68276   1.68591   1.68890   1.69624
 Alpha virt. eigenvalues --    1.70320   1.70761   1.74109   1.74996   1.75431
 Alpha virt. eigenvalues --    1.76199   1.77363   1.78660   1.79160   1.79601
 Alpha virt. eigenvalues --    1.80478   1.80695   1.80962   1.81330   1.82193
 Alpha virt. eigenvalues --    1.83003   1.84413   1.84924   1.85070   1.86496
 Alpha virt. eigenvalues --    1.87597   1.88767   1.89025   1.91273   1.93384
 Alpha virt. eigenvalues --    1.93754   1.94290   1.95041   1.96134   1.96869
 Alpha virt. eigenvalues --    1.98529   1.99677   2.00494   2.01040   2.01689
 Alpha virt. eigenvalues --    2.02076   2.02651   2.03951   2.04855   2.05444
 Alpha virt. eigenvalues --    2.06669   2.07787   2.08507   2.08988   2.09386
 Alpha virt. eigenvalues --    2.10610   2.12732   2.14173   2.14670   2.15795
 Alpha virt. eigenvalues --    2.16080   2.16770   2.17571   2.18299   2.18967
 Alpha virt. eigenvalues --    2.20382   2.21299   2.21975   2.23871   2.24562
 Alpha virt. eigenvalues --    2.25314   2.26232   2.27496   2.27838   2.29227
 Alpha virt. eigenvalues --    2.31935   2.35243   2.36063   2.37265   2.39593
 Alpha virt. eigenvalues --    2.41272   2.42586   2.43233   2.45199   2.47707
 Alpha virt. eigenvalues --    2.48322   2.49262   2.50318   2.52756   2.54161
 Alpha virt. eigenvalues --    2.54849   2.54938   2.55394   2.55538   2.56896
 Alpha virt. eigenvalues --    2.57390   2.57581   2.61702   2.62100   2.63348
 Alpha virt. eigenvalues --    2.64733   2.67155   2.68396   2.68933   2.70122
 Alpha virt. eigenvalues --    2.72493   2.73326   2.74404   2.74956   2.76751
 Alpha virt. eigenvalues --    2.77095   2.78044   2.78746   2.78992   2.79461
 Alpha virt. eigenvalues --    2.79856   2.81525   2.82213   2.82753   2.84056
 Alpha virt. eigenvalues --    2.84429   2.85435   2.85806   2.86554   2.88341
 Alpha virt. eigenvalues --    2.89541   2.90350   2.91098   2.91854   2.92297
 Alpha virt. eigenvalues --    2.93858   2.94008   2.94828   2.96036   2.96899
 Alpha virt. eigenvalues --    2.97190   2.99520   3.01126   3.01999   3.03070
 Alpha virt. eigenvalues --    3.03544   3.05288   3.07029   3.07267   3.09661
 Alpha virt. eigenvalues --    3.12854   3.15204   3.17601   3.18341   3.19093
 Alpha virt. eigenvalues --    3.20140   3.21131   3.22434   3.22706   3.23254
 Alpha virt. eigenvalues --    3.26975   3.29535   3.30547   3.31087   3.32397
 Alpha virt. eigenvalues --    3.33109   3.34596   3.37878   3.38746   3.41587
 Alpha virt. eigenvalues --    3.43124   3.45945   3.47592   3.49669   3.52518
 Alpha virt. eigenvalues --    3.58424   3.60189   3.60732   3.62454   3.63863
 Alpha virt. eigenvalues --    3.66091   3.67108   3.73088   3.76044   3.76888
 Alpha virt. eigenvalues --    3.77823   3.78347   3.78603   3.79578   3.86060
 Alpha virt. eigenvalues --    3.86634   3.88419   3.89761   3.91777   3.92714
 Alpha virt. eigenvalues --    4.02079   4.05514   4.07823   4.10019   4.12968
 Alpha virt. eigenvalues --    4.17028   4.19069   4.25898   4.26754   4.28512
 Alpha virt. eigenvalues --    4.30378   4.33077   4.37416   4.53875   4.77856
 Alpha virt. eigenvalues --    4.93187   4.94808   5.00463   5.15130   5.15990
 Alpha virt. eigenvalues --    5.17903   5.18804   5.37970   5.52963   5.64754
 Alpha virt. eigenvalues --    5.83034   5.89334   5.96176  23.71827  23.79479
 Alpha virt. eigenvalues --   23.94107  24.01945  24.02576  24.03575  24.03945
 Alpha virt. eigenvalues --   24.04413  24.08046  24.08344  24.09377  24.13679
 Alpha virt. eigenvalues --   24.14471  24.22073  24.25654  24.29917  24.30408
 Alpha virt. eigenvalues --   24.31360  35.73810  50.10296  50.14511  50.18505
          Condensed to atoms (all electrons):
               1          2          3          4          5          6
     1  C   12.542331  -1.299844   0.636262  -0.717058  -1.501145   0.080653
     2  C   -1.299844  14.178409  -0.296351  -2.295597   4.787838   0.019450
     3  H    0.636262  -0.296351   0.520775  -0.046528  -0.077308  -0.015118
     4  C   -0.717058  -2.295597  -0.046528  10.005617  -1.008640   0.086857
     5  C   -1.501145   4.787838  -0.077308  -1.008640  15.018327  -0.179816
     6  O    0.080653   0.019450  -0.015118   0.086857  -0.179816   8.142976
     7  C   -1.734068   0.385164  -0.028884   1.520901   0.329242   0.019620
     8  H   -0.059569   0.058583  -0.018554   0.519612   0.000649  -0.000306
     9  H   -0.216081   0.319959  -0.009879  -0.025831   0.988754  -0.045390
    10  C    0.415727  -4.644953   0.163735  -2.388415  -0.462247   0.019070
    11  C   -0.423814   0.516642  -0.021366  -0.276180   0.209973   0.146859
    12  O    0.001967  -0.008005   0.001595  -0.342234   0.008566   0.000299
    13  C   -1.304415  -2.329001   0.003148   0.539200  -3.281254   0.006849
    14  H   -0.018099  -0.048445  -0.015750   0.012777   0.018366  -0.025360
    15  H   -0.018396   0.060052   0.002034  -0.016884   0.014478  -0.069172
    16  H    0.089469  -0.087624  -0.003982   0.029397  -0.026004  -0.042569
    17  H    0.012123   0.038586  -0.000228   0.024955   0.086323   0.000481
    18  C   -0.402297  -1.800372  -0.002978   0.488928  -3.930186  -0.002331
    19  O   -0.023624  -0.007836  -0.000328  -0.011500  -0.059412   0.000105
    20  H   -0.002366  -0.217251   0.000946   0.009822  -0.207058   0.000386
    21  C   -0.270954  -0.534642  -0.004195   0.209783  -2.679315  -0.003038
    22  C    0.015402  -0.024531   0.000382  -0.044991  -0.319699  -0.000671
    23  H   -0.001471  -0.006488   0.000016   0.005987  -0.024067  -0.000089
    24  C   -0.020299  -0.044489  -0.000508   0.038440  -0.410739  -0.000643
    25  C   -0.002604  -0.025733   0.000042   0.003577   0.040510   0.000057
    26  C    0.001830   0.022102  -0.000066   0.000498  -0.101132  -0.000261
    27  H    0.008388   0.028032  -0.000051  -0.000068  -0.023468   0.000476
    28  C    0.000560  -0.004049   0.000023  -0.000038   0.054887   0.000019
    29  H   -0.000011   0.000182  -0.000002   0.000152   0.001601   0.000002
    30  C    0.000272   0.001358  -0.000010   0.000942  -0.042916  -0.000056
    31  H   -0.000111  -0.001297   0.000005  -0.000114   0.002238  -0.000004
    32  H    0.000004   0.000039   0.000000  -0.000042   0.000171   0.000000
    33  N    0.000001   0.000012   0.000000  -0.000001   0.000183   0.000000
    34  C    0.000011   0.000093   0.000000  -0.000007  -0.000032   0.000000
    35  C    0.000002  -0.000001   0.000000   0.000000   0.000127   0.000000
    36  H   -0.000002  -0.000010   0.000000   0.000002  -0.000035   0.000000
    37  H    0.000000   0.000006   0.000000   0.000000  -0.000008   0.000000
    38  H   -0.000001   0.000006   0.000000   0.000002   0.000065   0.000000
    39  H    0.000000  -0.000001   0.000000   0.000000  -0.000029   0.000000
    40  H    0.000000  -0.000001   0.000000   0.000000   0.000016   0.000000
    41  H    0.000000   0.000001   0.000000   0.000000  -0.000008   0.000000
               7          8          9         10         11         12
     1  C   -1.734068  -0.059569  -0.216081   0.415727  -0.423814   0.001967
     2  C    0.385164   0.058583   0.319959  -4.644953   0.516642  -0.008005
     3  H   -0.028884  -0.018554  -0.009879   0.163735  -0.021366   0.001595
     4  C    1.520901   0.519612  -0.025831  -2.388415  -0.276180  -0.342234
     5  C    0.329242   0.000649   0.988754  -0.462247   0.209973   0.008566
     6  O    0.019620  -0.000306  -0.045390   0.019070   0.146859   0.000299
     7  C    9.801759  -0.114864   0.177983  -2.717424  -0.017775   0.317965
     8  H   -0.114864   0.468088   0.002229  -0.121651   0.004201  -0.026569
     9  H    0.177983   0.002229   0.644177  -0.354846   0.028089  -0.000430
    10  C   -2.717424  -0.121651  -0.354846  17.232225  -0.211096   0.113298
    11  C   -0.017775   0.004201   0.028089  -0.211096   5.285158  -0.000753
    12  O    0.317965  -0.026569  -0.000430   0.113298  -0.000753   8.166191
    13  C   -1.886126   0.026830  -0.252246   0.645041  -0.042718  -0.116014
    14  H    0.006620   0.001251  -0.003166   0.004916   0.400698   0.000135
    15  H   -0.005328   0.000255  -0.000737   0.005032   0.399946  -0.000034
    16  H    0.009062   0.000183   0.000806  -0.024324   0.397441   0.000027
    17  H    0.027470  -0.000190   0.004914  -0.079362   0.000451   0.223449
    18  C    0.105071   0.009578  -0.235144  -1.571008  -0.016373  -0.048795
    19  O   -0.202850   0.000931   0.002615  -0.173865   0.000025   0.016240
    20  H   -0.096828  -0.000322  -0.065968  -0.046310  -0.002176  -0.001801
    21  C    0.346657   0.006915  -0.107356  -0.963541  -0.002499   0.036022
    22  C   -0.085997  -0.000648  -0.049750  -0.249366  -0.000194   0.000436
    23  H    0.008721  -0.000017  -0.000398  -0.022987   0.000035  -0.001135
    24  C    0.234873   0.000630  -0.002122   0.156025   0.000173   0.000658
    25  C   -0.011931   0.000019   0.000629  -0.089262  -0.000046  -0.001078
    26  C    0.023947   0.000038  -0.000604   0.099973   0.000146   0.000131
    27  H    0.014768   0.000000  -0.007034   0.013793  -0.000087   0.000127
    28  C   -0.006440  -0.000025   0.001580  -0.054851   0.000002  -0.000299
    29  H    0.000888   0.000010   0.000276   0.000744  -0.000002   0.000027
    30  C    0.013452   0.000012  -0.004218   0.021221   0.000021  -0.000050
    31  H   -0.001639  -0.000002  -0.000187  -0.003763  -0.000007  -0.000001
    32  H   -0.000230  -0.000001   0.000016  -0.000116   0.000000   0.000001
    33  N   -0.000021   0.000000   0.000053  -0.000018   0.000000   0.000000
    34  C   -0.000086   0.000000  -0.000029   0.000061   0.000000   0.000000
    35  C    0.000025   0.000000  -0.000009  -0.000317   0.000000   0.000000
    36  H    0.000017   0.000000  -0.000001   0.000034   0.000000   0.000000
    37  H   -0.000006   0.000000  -0.000003   0.000010   0.000000   0.000000
    38  H    0.000022   0.000000   0.000061   0.000070   0.000000   0.000000
    39  H    0.000003   0.000000  -0.000004   0.000013   0.000000   0.000000
    40  H    0.000001   0.000000   0.000001  -0.000024   0.000000   0.000000
    41  H    0.000001   0.000000  -0.000001   0.000025   0.000000   0.000000
              13         14         15         16         17         18
     1  C   -1.304415  -0.018099  -0.018396   0.089469   0.012123  -0.402297
     2  C   -2.329001  -0.048445   0.060052  -0.087624   0.038586  -1.800372
     3  H    0.003148  -0.015750   0.002034  -0.003982  -0.000228  -0.002978
     4  C    0.539200   0.012777  -0.016884   0.029397   0.024955   0.488928
     5  C   -3.281254   0.018366   0.014478  -0.026004   0.086323  -3.930186
     6  O    0.006849  -0.025360  -0.069172  -0.042569   0.000481  -0.002331
     7  C   -1.886126   0.006620  -0.005328   0.009062   0.027470   0.105071
     8  H    0.026830   0.001251   0.000255   0.000183  -0.000190   0.009578
     9  H   -0.252246  -0.003166  -0.000737   0.000806   0.004914  -0.235144
    10  C    0.645041   0.004916   0.005032  -0.024324  -0.079362  -1.571008
    11  C   -0.042718   0.400698   0.399946   0.397441   0.000451  -0.016373
    12  O   -0.116014   0.000135  -0.000034   0.000027   0.223449  -0.048795
    13  C   13.598075   0.004154  -0.000300  -0.003656  -0.001317   2.270461
    14  H    0.004154   0.586699  -0.019467  -0.060288   0.000007   0.001542
    15  H   -0.000300  -0.019467   0.470028  -0.026951  -0.000032  -0.000419
    16  H   -0.003656  -0.060288  -0.026951   0.585115   0.000095  -0.001010
    17  H   -0.001317   0.000007  -0.000032   0.000095   0.291906  -0.037139
    18  C    2.270461   0.001542  -0.000419  -0.001010  -0.037139  11.463878
    19  O    0.777434   0.000002   0.000006  -0.000001   0.086577  -0.308807
    20  H    0.132072   0.000017   0.000695  -0.000706  -0.002722   0.878795
    21  C   -1.710476   0.000775  -0.000124  -0.000077  -0.056946   1.418673
    22  C   -0.568975  -0.000003  -0.000020  -0.000090  -0.006859  -1.083969
    23  H   -0.013061  -0.000006   0.000008  -0.000001  -0.000328   0.029009
    24  C   -0.753401   0.000080   0.000074   0.000019  -0.004586  -1.224189
    25  C   -0.082464  -0.000017   0.000016  -0.000015   0.000743  -0.132956
    26  C   -0.083416   0.000061  -0.000079   0.000029   0.000208  -0.560920
    27  H    0.003782   0.000050  -0.000103   0.000108   0.000154  -0.162136
    28  C    0.267730  -0.000006   0.000004  -0.000003  -0.000174   0.736984
    29  H    0.010897   0.000000   0.000000   0.000000   0.000007   0.030608
    30  C   -0.025826   0.000009  -0.000009   0.000001  -0.000407  -0.291726
    31  H   -0.001872  -0.000002   0.000002  -0.000003  -0.000020   0.038632
    32  H   -0.000147   0.000000   0.000000   0.000000   0.000020  -0.012564
    33  N    0.001050   0.000000   0.000000   0.000000   0.000002   0.001146
    34  C    0.000773   0.000000   0.000000   0.000000  -0.000001   0.005897
    35  C    0.002702   0.000000   0.000000   0.000000  -0.000003  -0.002293
    36  H   -0.000016   0.000000   0.000000   0.000000   0.000000  -0.000780
    37  H   -0.000044   0.000000   0.000000   0.000000   0.000000   0.000070
    38  H    0.000260   0.000000   0.000000   0.000000   0.000000   0.000356
    39  H   -0.000274   0.000000   0.000000   0.000000   0.000000  -0.000638
    40  H    0.000180   0.000000   0.000000   0.000000   0.000000   0.000368
    41  H   -0.000098   0.000000   0.000000   0.000000   0.000000   0.000403
              19         20         21         22         23         24
     1  C   -0.023624  -0.002366  -0.270954   0.015402  -0.001471  -0.020299
     2  C   -0.007836  -0.217251  -0.534642  -0.024531  -0.006488  -0.044489
     3  H   -0.000328   0.000946  -0.004195   0.000382   0.000016  -0.000508
     4  C   -0.011500   0.009822   0.209783  -0.044991   0.005987   0.038440
     5  C   -0.059412  -0.207058  -2.679315  -0.319699  -0.024067  -0.410739
     6  O    0.000105   0.000386  -0.003038  -0.000671  -0.000089  -0.000643
     7  C   -0.202850  -0.096828   0.346657  -0.085997   0.008721   0.234873
     8  H    0.000931  -0.000322   0.006915  -0.000648  -0.000017   0.000630
     9  H    0.002615  -0.065968  -0.107356  -0.049750  -0.000398  -0.002122
    10  C   -0.173865  -0.046310  -0.963541  -0.249366  -0.022987   0.156025
    11  C    0.000025  -0.002176  -0.002499  -0.000194   0.000035   0.000173
    12  O    0.016240  -0.001801   0.036022   0.000436  -0.001135   0.000658
    13  C    0.777434   0.132072  -1.710476  -0.568975  -0.013061  -0.753401
    14  H    0.000002   0.000017   0.000775  -0.000003  -0.000006   0.000080
    15  H    0.000006   0.000695  -0.000124  -0.000020   0.000008   0.000074
    16  H   -0.000001  -0.000706  -0.000077  -0.000090  -0.000001   0.000019
    17  H    0.086577  -0.002722  -0.056946  -0.006859  -0.000328  -0.004586
    18  C   -0.308807   0.878795   1.418673  -1.083969   0.029009  -1.224189
    19  O    8.120439  -0.008485   0.103179   0.043094   0.001991   0.014272
    20  H   -0.008485   0.879527   0.066364   0.039304   0.007894  -0.099866
    21  C    0.103179   0.066364   9.406638   0.383752   0.364782   0.352428
    22  C    0.043094   0.039304   0.383752  10.998864  -0.137013   1.004042
    23  H    0.001991   0.007894   0.364782  -0.137013   0.460488   0.009292
    24  C    0.014272  -0.099866   0.352428   1.004042   0.009292   9.366536
    25  C   -0.019139   0.056115  -1.058685   0.792563   0.062807  -0.853190
    26  C    0.001048  -0.133141   0.058560  -1.188825   0.014588   1.771582
    27  H    0.002016  -0.054113  -0.057367  -0.105506   0.000885   0.389438
    28  C   -0.003884   0.050665   0.441388  -2.673861   0.009635  -1.795882
    29  H    0.000020   0.001975   0.057697  -0.092249  -0.001957  -0.030925
    30  C   -0.000587  -0.037178  -0.107410  -1.245151  -0.001625  -1.588506
    31  H    0.000025   0.012431   0.032192   0.098149   0.000299   0.063820
    32  H    0.000037  -0.000818  -0.007039  -0.023719   0.001562  -0.012836
    33  N   -0.000001  -0.000943  -0.003950  -0.032131  -0.000527  -0.027515
    34  C    0.000006  -0.001000   0.003249  -0.028568   0.000492   0.002836
    35  C    0.000000   0.000149   0.031221  -0.143472  -0.001508  -0.052602
    36  H   -0.000001  -0.000149  -0.000508  -0.003424  -0.000001  -0.007245
    37  H    0.000000  -0.000062  -0.001170   0.003886   0.000042   0.003174
    38  H   -0.000001  -0.000465  -0.001034  -0.010177   0.000030  -0.015987
    39  H    0.000000   0.000062  -0.001537   0.001801  -0.000107  -0.006886
    40  H    0.000000   0.000054   0.003873  -0.007984  -0.000072   0.005599
    41  H   -0.000001  -0.000009  -0.001619   0.009392  -0.000031  -0.001467
              25         26         27         28         29         30
     1  C   -0.002604   0.001830   0.008388   0.000560  -0.000011   0.000272
     2  C   -0.025733   0.022102   0.028032  -0.004049   0.000182   0.001358
     3  H    0.000042  -0.000066  -0.000051   0.000023  -0.000002  -0.000010
     4  C    0.003577   0.000498  -0.000068  -0.000038   0.000152   0.000942
     5  C    0.040510  -0.101132  -0.023468   0.054887   0.001601  -0.042916
     6  O    0.000057  -0.000261   0.000476   0.000019   0.000002  -0.000056
     7  C   -0.011931   0.023947   0.014768  -0.006440   0.000888   0.013452
     8  H    0.000019   0.000038   0.000000  -0.000025   0.000010   0.000012
     9  H    0.000629  -0.000604  -0.007034   0.001580   0.000276  -0.004218
    10  C   -0.089262   0.099973   0.013793  -0.054851   0.000744   0.021221
    11  C   -0.000046   0.000146  -0.000087   0.000002  -0.000002   0.000021
    12  O   -0.001078   0.000131   0.000127  -0.000299   0.000027  -0.000050
    13  C   -0.082464  -0.083416   0.003782   0.267730   0.010897  -0.025826
    14  H   -0.000017   0.000061   0.000050  -0.000006   0.000000   0.000009
    15  H    0.000016  -0.000079  -0.000103   0.000004   0.000000  -0.000009
    16  H   -0.000015   0.000029   0.000108  -0.000003   0.000000   0.000001
    17  H    0.000743   0.000208   0.000154  -0.000174   0.000007  -0.000407
    18  C   -0.132956  -0.560920  -0.162136   0.736984   0.030608  -0.291726
    19  O   -0.019139   0.001048   0.002016  -0.003884   0.000020  -0.000587
    20  H    0.056115  -0.133141  -0.054113   0.050665   0.001975  -0.037178
    21  C   -1.058685   0.058560  -0.057367   0.441388   0.057697  -0.107410
    22  C    0.792563  -1.188825  -0.105506  -2.673861  -0.092249  -1.245151
    23  H    0.062807   0.014588   0.000885   0.009635  -0.001957  -0.001625
    24  C   -0.853190   1.771582   0.389438  -1.795882  -0.030925  -1.588506
    25  C   10.601419  -1.717815   0.026939   0.602252   0.261026  -2.047211
    26  C   -1.717815   9.091650   0.081733  -1.728428   0.002728   0.602255
    27  H    0.026939   0.081733   0.585174  -0.044261  -0.003458   0.184734
    28  C    0.602252  -1.728428  -0.044261  10.174213   0.014442  -0.101067
    29  H    0.261026   0.002728  -0.003458   0.014442   0.489402   0.048088
    30  C   -2.047211   0.602255   0.184734  -0.101067   0.048088  11.424449
    31  H   -0.048429   0.384920  -0.042931  -0.009627   0.001019  -0.243323
    32  H    0.046253  -0.031568   0.001412   0.486776  -0.013310  -0.096622
    33  N    0.057397  -0.312301  -0.001020  -0.221470  -0.001318   0.266150
    34  C   -0.069961   0.128908   0.004897  -0.180440  -0.000552  -0.122743
    35  C   -0.089703  -0.115155  -0.000058   0.189187   0.005444  -0.134043
    36  H    0.000381   0.016120   0.002148   0.004231  -0.000095  -0.016185
    37  H    0.007360   0.022083   0.000073   0.004921  -0.000256  -0.018313
    38  H   -0.005311   0.028774   0.001771  -0.021032  -0.000033   0.028881
    39  H    0.009594  -0.021386  -0.000203   0.033279   0.000556  -0.025046
    40  H   -0.021196   0.020964  -0.000480   0.011472   0.000176  -0.002342
    41  H   -0.005993   0.005817   0.000042   0.004636   0.000527  -0.008400
              31         32         33         34         35         36
     1  C   -0.000111   0.000004   0.000001   0.000011   0.000002  -0.000002
     2  C   -0.001297   0.000039   0.000012   0.000093  -0.000001  -0.000010
     3  H    0.000005   0.000000   0.000000   0.000000   0.000000   0.000000
     4  C   -0.000114  -0.000042  -0.000001  -0.000007   0.000000   0.000002
     5  C    0.002238   0.000171   0.000183  -0.000032   0.000127  -0.000035
     6  O   -0.000004   0.000000   0.000000   0.000000   0.000000   0.000000
     7  C   -0.001639  -0.000230  -0.000021  -0.000086   0.000025   0.000017
     8  H   -0.000002  -0.000001   0.000000   0.000000   0.000000   0.000000
     9  H   -0.000187   0.000016   0.000053  -0.000029  -0.000009  -0.000001
    10  C   -0.003763  -0.000116  -0.000018   0.000061  -0.000317   0.000034
    11  C   -0.000007   0.000000   0.000000   0.000000   0.000000   0.000000
    12  O   -0.000001   0.000001   0.000000   0.000000   0.000000   0.000000
    13  C   -0.001872  -0.000147   0.001050   0.000773   0.002702  -0.000016
    14  H   -0.000002   0.000000   0.000000   0.000000   0.000000   0.000000
    15  H    0.000002   0.000000   0.000000   0.000000   0.000000   0.000000
    16  H   -0.000003   0.000000   0.000000   0.000000   0.000000   0.000000
    17  H   -0.000020   0.000020   0.000002  -0.000001  -0.000003   0.000000
    18  C    0.038632  -0.012564   0.001146   0.005897  -0.002293  -0.000780
    19  O    0.000025   0.000037  -0.000001   0.000006   0.000000  -0.000001
    20  H    0.012431  -0.000818  -0.000943  -0.001000   0.000149  -0.000149
    21  C    0.032192  -0.007039  -0.003950   0.003249   0.031221  -0.000508
    22  C    0.098149  -0.023719  -0.032131  -0.028568  -0.143472  -0.003424
    23  H    0.000299   0.001562  -0.000527   0.000492  -0.001508  -0.000001
    24  C    0.063820  -0.012836  -0.027515   0.002836  -0.052602  -0.007245
    25  C   -0.048429   0.046253   0.057397  -0.069961  -0.089703   0.000381
    26  C    0.384920  -0.031568  -0.312301   0.128908  -0.115155   0.016120
    27  H   -0.042931   0.001412  -0.001020   0.004897  -0.000058   0.002148
    28  C   -0.009627   0.486776  -0.221470  -0.180440   0.189187   0.004231
    29  H    0.001019  -0.013310  -0.001318  -0.000552   0.005444  -0.000095
    30  C   -0.243323  -0.096622   0.266150  -0.122743  -0.134043  -0.016185
    31  H    0.539079  -0.000124  -0.034626   0.012620  -0.003565  -0.013938
    32  H   -0.000124   0.514013  -0.034447  -0.004647   0.013479   0.000052
    33  N   -0.034626  -0.034447   7.001498   0.294853   0.307504  -0.053849
    34  C    0.012620  -0.004647   0.294853   5.227070  -0.108515   0.423473
    35  C   -0.003565   0.013479   0.307504  -0.108515   5.264248   0.000454
    36  H   -0.013938   0.000052  -0.053849   0.423473   0.000454   0.543143
    37  H    0.006609   0.001941  -0.048776   0.402205  -0.014567  -0.023379
    38  H   -0.010434  -0.001188  -0.059074   0.410514  -0.002373  -0.058567
    39  H   -0.000039  -0.009051  -0.058666   0.002290   0.424186   0.001709
    40  H    0.002398   0.005677  -0.046018  -0.009167   0.400644  -0.003197
    41  H   -0.000709  -0.009350  -0.054495  -0.002924   0.415454  -0.000549
              37         38         39         40         41
     1  C    0.000000  -0.000001   0.000000   0.000000   0.000000
     2  C    0.000006   0.000006  -0.000001  -0.000001   0.000001
     3  H    0.000000   0.000000   0.000000   0.000000   0.000000
     4  C    0.000000   0.000002   0.000000   0.000000   0.000000
     5  C   -0.000008   0.000065  -0.000029   0.000016  -0.000008
     6  O    0.000000   0.000000   0.000000   0.000000   0.000000
     7  C   -0.000006   0.000022   0.000003   0.000001   0.000001
     8  H    0.000000   0.000000   0.000000   0.000000   0.000000
     9  H   -0.000003   0.000061  -0.000004   0.000001  -0.000001
    10  C    0.000010   0.000070   0.000013  -0.000024   0.000025
    11  C    0.000000   0.000000   0.000000   0.000000   0.000000
    12  O    0.000000   0.000000   0.000000   0.000000   0.000000
    13  C   -0.000044   0.000260  -0.000274   0.000180  -0.000098
    14  H    0.000000   0.000000   0.000000   0.000000   0.000000
    15  H    0.000000   0.000000   0.000000   0.000000   0.000000
    16  H    0.000000   0.000000   0.000000   0.000000   0.000000
    17  H    0.000000   0.000000   0.000000   0.000000   0.000000
    18  C    0.000070   0.000356  -0.000638   0.000368   0.000403
    19  O    0.000000  -0.000001   0.000000   0.000000  -0.000001
    20  H   -0.000062  -0.000465   0.000062   0.000054  -0.000009
    21  C   -0.001170  -0.001034  -0.001537   0.003873  -0.001619
    22  C    0.003886  -0.010177   0.001801  -0.007984   0.009392
    23  H    0.000042   0.000030  -0.000107  -0.000072  -0.000031
    24  C    0.003174  -0.015987  -0.006886   0.005599  -0.001467
    25  C    0.007360  -0.005311   0.009594  -0.021196  -0.005993
    26  C    0.022083   0.028774  -0.021386   0.020964   0.005817
    27  H    0.000073   0.001771  -0.000203  -0.000480   0.000042
    28  C    0.004921  -0.021032   0.033279   0.011472   0.004636
    29  H   -0.000256  -0.000033   0.000556   0.000176   0.000527
    30  C   -0.018313   0.028881  -0.025046  -0.002342  -0.008400
    31  H    0.006609  -0.010434  -0.000039   0.002398  -0.000709
    32  H    0.001941  -0.001188  -0.009051   0.005677  -0.009350
    33  N   -0.048776  -0.059074  -0.058666  -0.046018  -0.054495
    34  C    0.402205   0.410514   0.002290  -0.009167  -0.002924
    35  C   -0.014567  -0.002373   0.424186   0.400644   0.415454
    36  H   -0.023379  -0.058567   0.001709  -0.003197  -0.000549
    37  H    0.513924  -0.023145  -0.000760   0.014221  -0.003033
    38  H   -0.023145   0.576774  -0.003759  -0.001215   0.002241
    39  H   -0.000760  -0.003759   0.561204  -0.019463  -0.062255
    40  H    0.014221  -0.001215  -0.019463   0.511091  -0.023350
    41  H   -0.003033   0.002241  -0.062255  -0.023350   0.558084
 Mulliken charges:
               1
     1  C    0.211226
     2  C   -0.739994
     3  H    0.213122
     4  C   -0.323321
     5  C   -1.227796
     6  O   -0.139333
     7  C   -0.433737
     8  H    0.242703
     9  H    0.209290
    10  C    1.288732
    11  C   -0.374772
    12  O   -0.339937
    13  C    0.166477
    14  H    0.152450
    15  H    0.205425
    16  H    0.165551
    17  H    0.391843
    18  C    0.348633
    19  O   -0.349741
    20  H   -0.157537
    21  C    0.249336
    22  C    0.736776
    23  H    0.234327
    24  C   -0.460107
    25  C   -0.286957
    26  C   -0.385594
    27  H    0.151404
    28  C   -0.243050
    29  H    0.215677
    30  C   -0.430873
    31  H    0.222328
    32  H    0.186363
    33  N    0.061318
    34  C   -0.391577
    35  C   -0.386639
    36  H    0.190167
    37  H    0.152997
    38  H    0.163969
    39  H    0.175409
    40  H    0.157774
    41  H    0.177667
 Sum of Mulliken charges =   0.00000
 Mulliken charges with hydrogens summed into heavy atoms:
               1
     1  C    0.424349
     2  C   -0.739994
     4  C   -0.080618
     5  C   -1.018506
     6  O   -0.139333
     7  C   -0.433737
    10  C    1.288732
    11  C    0.148653
    12  O    0.051906
    13  C    0.166477
    18  C    0.191095
    19  O   -0.349741
    21  C    0.483663
    22  C    0.736776
    24  C   -0.308703
    25  C   -0.071280
    26  C   -0.163266
    28  C   -0.056687
    30  C   -0.430873
    33  N    0.061318
    34  C    0.115556
    35  C    0.124211
 Electronic spatial extent (au):  <R**2>=         121009.8135
 Charge=              0.0000 electrons
 Dipole moment (field-independent basis, Debye):
    X=             -4.9660    Y=              2.3872    Z=              6.2781  Tot=              8.3531
 Quadrupole moment (field-independent basis, Debye-Ang):
   XX=           -107.3934   YY=           -148.7700   ZZ=           -245.0968
   XY=              8.8728   XZ=             67.2442   YZ=            -43.1542
 Traceless Quadrupole moment (field-independent basis, Debye-Ang):
   XX=             59.6933   YY=             18.3168   ZZ=            -78.0101
   XY=              8.8728   XZ=             67.2442   YZ=            -43.1542
 Octapole moment (field-independent basis, Debye-Ang**2):
  XXX=            812.0611  YYY=           1270.9217  ZZZ=           6621.6846  XYY=            305.1524
  XXY=            347.8072  XXZ=           1411.1114  XZZ=           -840.7625  YZZ=           1028.9966
  YYZ=           2013.1523  XYZ=           -177.5971
 Hexadecapole moment (field-independent basis, Debye-Ang**3):
 XXXX=          -5887.4369 YYYY=          -8209.4636 ZZZZ=        -162261.9481 XXXY=          -2246.2450
 XXXZ=         -10740.8737 YYYX=          -2557.5855 YYYZ=         -18170.3657 ZZZX=           9375.5256
 ZZZY=         -24823.7343 XXYY=          -2337.0851 XXZZ=         -20929.6637 YYZZ=         -30817.7018
 XXYZ=          -4723.6119 YYXZ=          -3848.5600 ZZXY=           2824.9201
 N-N= 1.603221111876D+03 E-N=-5.484607089629D+03  KE= 9.732762345385D+02
 Leave Link  601 at Sat Nov  4 11:16:44 2017, MaxMem=  3758096384 cpu:         0.5
 (Enter /share/apps/gaussian/g09_D01/g09/l9999.exe)
 1\1\GINC-NXN32\SP\RwB97XD TD-FC\6-311++G(d,p)\C18H19N1O3\BTX008\04-Nov
 -2017\0\\#p wb97xd 6-311++G** td=(nstates=4) nosymm\\Title\\0,1\C,0,-3
 .085431,-3.546101,-18.68995\C,0,-3.803236,-3.178364,-17.539139\H,0,-3.
 558414,-3.542171,-19.669863\C,0,-1.756731,-3.933599,-18.587806\C,0,-3.
 159572,-3.183886,-16.307265\O,0,-5.132139,-2.821035,-17.538551\C,0,-1.
 101463,-3.95662,-17.350372\H,0,-1.211966,-4.24967,-19.47764\H,0,-3.741
 779,-2.893099,-15.435471\C,0,-1.810542,-3.563913,-16.17553\C,0,-5.8453
 4,-2.997131,-18.771402\O,0,0.190242,-4.344893,-17.295538\C,0,-1.116053
 ,-3.601804,-14.877891\H,0,-5.699885,-4.01635,-19.16372\H,0,-6.903456,-
 2.852205,-18.528593\H,0,-5.520759,-2.257664,-19.518946\H,0,0.409302,-4
 .284539,-16.284674\C,0,-1.801113,-3.228043,-13.663599\O,0,0.10994,-3.9
 72397,-14.855443\H,0,-2.796781,-2.798314,-13.742041\C,0,-1.223295,-3.3
 74099,-12.437663\C,0,-1.751526,-3.000815,-11.161204\H,0,-0.222266,-3.8
 15979,-12.424026\C,0,-3.02812,-2.428791,-10.955517\C,0,-0.946318,-3.18
 9744,-10.017136\C,0,-3.450669,-2.042579,-9.703733\H,0,-3.700091,-2.287
 654,-11.803292\C,0,-1.33978,-2.786392,-8.759626\H,0,0.024222,-3.669107
 ,-10.135581\C,0,-2.60382,-2.174831,-8.567571\H,0,-4.451614,-1.636857,-
 9.584384\H,0,-0.67412,-2.954344,-7.916723\N,0,-2.990406,-1.725978,-7.3
 39064\C,0,-4.287887,-1.09758,-7.152439\C,0,-2.089753,-1.851358,-6.2052
 78\H,0,-5.112373,-1.820376,-7.27069\H,0,-4.334769,-0.674045,-6.145539\
 H,0,-4.430849,-0.273741,-7.868291\H,0,-1.131914,-1.344777,-6.404447\H,
 0,-2.546339,-1.387393,-5.327513\H,0,-1.88453,-2.909439,-5.972648\\Vers
 ion=ES64L-G09RevD.01\HF=-977.6792038\RMSD=4.970e-09\PG=C01 [X(C18H19N1
 O3)]\\@


 AND THIS OUR LIFE, EXEMPT FROM PUBLIC HAUNT,
 FINDS TONGUES IN TREES, BOOKS IN THE RUNNING BROOKS,
 SERMONS IN STONES, AND GOOD IN EVERYTHING.
 I WOULD NOT CHANGE IT. -- W. SHAKESPEARE
 AS YOU LIKE IT, ACT II, SCENE 1.
 Job cpu time:       0 days  3 hours  1 minutes 36.7 seconds.
 File lengths (MBytes):  RWF=    556 Int=      0 D2E=      0 Chk=     63 Scr=      1
 Normal termination of Gaussian 09 at Sat Nov  4 11:16:45 2017.
