 Entering Gaussian System, Link 0=g09
 Input=2hc_5_rel-mega_dimer_3.com
 Output=2hc_5_rel-mega_dimer_3.out
 Initial command:
 /share/apps/gaussian/g09_D01/g09/l1.exe "/tmp/160970.1.all.q/Gau-14643.inp" -scrdir="/tmp/160970.1.all.q/"
 Entering Link 1 = /share/apps/gaussian/g09_D01/g09/l1.exe PID=     14644.
  
 Copyright (c) 1988,1990,1992,1993,1995,1998,2003,2009,2013,
            Gaussian, Inc.  All Rights Reserved.
  
 This is part of the Gaussian(R) 09 program.  It is based on
 the Gaussian(R) 03 system (copyright 2003, Gaussian, Inc.),
 the Gaussian(R) 98 system (copyright 1998, Gaussian, Inc.),
 the Gaussian(R) 94 system (copyright 1995, Gaussian, Inc.),
 the Gaussian 92(TM) system (copyright 1992, Gaussian, Inc.),
 the Gaussian 90(TM) system (copyright 1990, Gaussian, Inc.),
 the Gaussian 88(TM) system (copyright 1988, Gaussian, Inc.),
 the Gaussian 86(TM) system (copyright 1986, Carnegie Mellon
 University), and the Gaussian 82(TM) system (copyright 1983,
 Carnegie Mellon University). Gaussian is a federally registered
 trademark of Gaussian, Inc.
  
 This software contains proprietary and confidential information,
 including trade secrets, belonging to Gaussian, Inc.
  
 This software is provided under written license and may be
 used, copied, transmitted, or stored only in accord with that
 written license.
  
 The following legend is applicable only to US Government
 contracts under FAR:
  
                    RESTRICTED RIGHTS LEGEND
  
 Use, reproduction and disclosure by the US Government is
 subject to restrictions as set forth in subparagraphs (a)
 and (c) of the Commercial Computer Software - Restricted
 Rights clause in FAR 52.227-19.
  
 Gaussian, Inc.
 340 Quinnipiac St., Bldg. 40, Wallingford CT 06492
  
  
 ---------------------------------------------------------------
 Warning -- This program may not be used in any manner that
 competes with the business of Gaussian, Inc. or will provide
 assistance to any competitor of Gaussian, Inc.  The licensee
 of this program is prohibited from giving any competitor of
 Gaussian, Inc. access to this program.  By using this program,
 the user acknowledges that Gaussian, Inc. is engaged in the
 business of creating and licensing software in the field of
 computational chemistry and represents and warrants to the
 licensee that it is not a competitor of Gaussian, Inc. and that
 it will not use this program in any manner prohibited above.
 ---------------------------------------------------------------
  

 Cite this work as:
 Gaussian 09, Revision D.01,
 M. J. Frisch, G. W. Trucks, H. B. Schlegel, G. E. Scuseria, 
 M. A. Robb, J. R. Cheeseman, G. Scalmani, V. Barone, B. Mennucci, 
 G. A. Petersson, H. Nakatsuji, M. Caricato, X. Li, H. P. Hratchian, 
 A. F. Izmaylov, J. Bloino, G. Zheng, J. L. Sonnenberg, M. Hada, 
 M. Ehara, K. Toyota, R. Fukuda, J. Hasegawa, M. Ishida, T. Nakajima, 
 Y. Honda, O. Kitao, H. Nakai, T. Vreven, J. A. Montgomery, Jr., 
 J. E. Peralta, F. Ogliaro, M. Bearpark, J. J. Heyd, E. Brothers, 
 K. N. Kudin, V. N. Staroverov, T. Keith, R. Kobayashi, J. Normand, 
 K. Raghavachari, A. Rendell, J. C. Burant, S. S. Iyengar, J. Tomasi, 
 M. Cossi, N. Rega, J. M. Millam, M. Klene, J. E. Knox, J. B. Cross, 
 V. Bakken, C. Adamo, J. Jaramillo, R. Gomperts, R. E. Stratmann, 
 O. Yazyev, A. J. Austin, R. Cammi, C. Pomelli, J. W. Ochterski, 
 R. L. Martin, K. Morokuma, V. G. Zakrzewski, G. A. Voth, 
 P. Salvador, J. J. Dannenberg, S. Dapprich, A. D. Daniels, 
 O. Farkas, J. B. Foresman, J. V. Ortiz, J. Cioslowski, 
 and D. J. Fox, Gaussian, Inc., Wallingford CT, 2013.
 
 ******************************************
 Gaussian 09:  ES64L-G09RevD.01 24-Apr-2013
                 5-Nov-2017 
 ******************************************
 %chk=2hc_5_rel-mega_dimer_3.chk
 %nproc=4
 Will use up to    4 processors via shared memory.
 %mem=28GB
 ------------------------------------------
 #p wb97xd 6-311++G** td=(nstates=4) nosymm
 ------------------------------------------
 1/38=1/1;
 2/12=2,15=1,17=6,18=5,40=1/2;
 3/5=4,6=6,7=1111,11=9,16=1,25=1,30=1,74=-58/1,2,8,3;
 4//1;
 5/5=2,38=5/2;
 8/6=1,10=2,108=4/1;
 9/41=4,42=1,70=2/14;
 6/7=2,8=2,9=2,10=2/1;
 99/5=1,9=1/99;
 Leave Link    1 at Sun Nov  5 12:36:08 2017, MaxMem=  3758096384 cpu:         0.2
 (Enter /share/apps/gaussian/g09_D01/g09/l101.exe)
 -----
 Title
 -----
 Symbolic Z-matrix:
 Charge =  0 Multiplicity = 1
 C                    -5.70642  -6.01206  -16.45542 
 H                    -5.87011  -6.81802  -15.72165 
 H                    -6.66194  -5.71994  -16.90729 
 H                    -5.2476   -5.13956  -15.9604 
 O                    -4.87995  -6.46471  -17.53006 
 C                    -3.6199   -6.9158   -17.21033 
 C                    -3.09015  -6.96569  -15.92997 
 C                    -2.84709  -7.35136  -18.30179 
 H                    -3.68734  -6.63242  -15.08701 
 C                    -1.77423  -7.43928  -15.70582 
 C                    -1.56793  -7.83394  -18.10963 
 H                    -3.27165  -7.29431  -19.30297 
 C                    -1.00726  -7.87704  -16.82498 
 C                    -1.15175  -7.47686  -14.37571 
 H                    -0.97133  -8.16987  -18.95778 
 O                     0.25531  -8.34082  -16.67394 
 C                    -1.86585  -7.08765  -13.18695 
 O                     0.07143  -7.86573  -14.28592 
 H                     0.42631  -8.20116  -15.64705 
 C                    -1.2637   -7.14045  -11.96253 
 H                    -2.88963  -6.73413  -13.27918 
 C                    -1.77124  -6.74384  -10.68837 
 H                    -0.23858  -7.52542  -11.95177 
 C                    -3.04688  -6.16686  -10.48126 
 C                    -0.94137  -6.90304  -9.55501 
 C                    -3.45716  -5.76333  -9.23278 
 H                    -3.72049  -6.0284   -11.32714 
 C                    -1.33409  -6.50544  -8.29517 
 H                     0.04494  -7.34742  -9.69205 
 H                    -4.44474  -5.32253  -9.12009 
 C                    -2.60729  -5.90763  -8.09899 
 H                    -0.65625  -6.64853  -7.45654 
 N                    -3.00315  -5.47895  -6.86888 
 C                    -4.34534  -4.95363  -6.6648 
 C                    -2.15142  -5.70507  -5.71216 
 H                    -4.53368  -4.09231  -7.32232 
 H                    -4.44785  -4.62923  -5.62413 
 H                    -5.11191  -5.71854  -6.86976 
 H                    -2.62866  -5.28967  -4.8185 
 H                    -1.98321  -6.78263  -5.54597 
 H                    -1.16999  -5.21968  -5.84153 
 C                     0.13453  -8.78123  -4.03059 
 H                    -0.74647  -8.20385  -4.35088 
 H                    -0.15418  -9.82759  -3.88257 
 H                     0.91638  -8.7169   -4.80201 
 O                     0.60346  -8.32088  -2.75612 
 C                     0.9531   -7.00017  -2.64473 
 C                     1.1782   -6.55583  -1.32642 
 C                     1.08176  -6.11399  -3.7049 
 C                     1.43972  -5.22698  -1.06697 
 H                     1.10238  -7.2752   -0.5105 
 C                     1.37498  -4.74804  -3.46873 
 H                     0.9418   -6.47122  -4.72268 
 C                     1.49926  -4.2977   -2.12113 
 H                     1.56698  -4.87026  -0.04548 
 C                     1.58202  -3.77125  -4.54742 
 O                     1.67988  -2.99886  -1.82753 
 C                     1.71015  -4.19689  -5.9271 
 O                     1.69889  -2.53466  -4.23569 
 H                     1.70002  -2.53986  -2.76127 
 C                     1.95999  -3.2998   -6.92727 
 H                     1.66231  -5.26262  -6.14836 
 C                     2.18263  -3.58102  -8.31618 
 H                     1.99454  -2.24357  -6.63705 
 C                     2.37766  -2.51898  -9.22656 
 C                     2.20465  -4.88978  -8.85455 
 C                     2.55369  -2.73377  -10.57973 
 H                     2.36188  -1.49626  -8.84376 
 C                     2.38159  -5.12674  -10.19977 
 H                     2.08094  -5.74573  -8.19223 
 C                     2.53824  -4.04985  -11.11625 
 H                     2.66416  -1.87972  -11.244 
 H                     2.3918   -6.15729  -10.54772 
 N                     2.65124  -4.28006  -12.45484 
 C                     2.44191  -5.61344  -13.00127 
 C                     2.90901  -3.18202  -13.36703 
 H                     3.29224  -6.28469  -12.78938 
 H                     2.29865  -5.53588  -14.08212 
 H                     1.53108  -6.07018  -12.58888 
 H                     2.03822  -2.51012  -13.44555 
 H                     3.11299  -3.58355  -14.36504 
 H                     3.7835   -2.59793  -13.0358 
 
 NAtoms=     82 NQM=       82 NQMF=       0 NMMI=      0 NMMIF=      0
                NMic=       0 NMicF=      0.
                    Isotopes and Nuclear Properties:
 (Nuclear quadrupole moments (NQMom) in fm**2, nuclear magnetic moments (NMagM)
  in nuclear magnetons)

  Atom         1           2           3           4           5           6           7           8           9          10
 IAtWgt=          12           1           1           1          16          12          12          12           1          12
 AtmWgt=  12.0000000   1.0078250   1.0078250   1.0078250  15.9949146  12.0000000  12.0000000  12.0000000   1.0078250  12.0000000
 NucSpn=           0           1           1           1           0           0           0           0           1           0
 AtZEff=   0.0000000   0.0000000   0.0000000   0.0000000   0.0000000   0.0000000   0.0000000   0.0000000   0.0000000   0.0000000
 NQMom=    0.0000000   0.0000000   0.0000000   0.0000000   0.0000000   0.0000000   0.0000000   0.0000000   0.0000000   0.0000000
 NMagM=    0.0000000   2.7928460   2.7928460   2.7928460   0.0000000   0.0000000   0.0000000   0.0000000   2.7928460   0.0000000
 AtZNuc=   6.0000000   1.0000000   1.0000000   1.0000000   8.0000000   6.0000000   6.0000000   6.0000000   1.0000000   6.0000000

  Atom        11          12          13          14          15          16          17          18          19          20
 IAtWgt=          12           1          12          12           1          16          12          16           1          12
 AtmWgt=  12.0000000   1.0078250  12.0000000  12.0000000   1.0078250  15.9949146  12.0000000  15.9949146   1.0078250  12.0000000
 NucSpn=           0           1           0           0           1           0           0           0           1           0
 AtZEff=   0.0000000   0.0000000   0.0000000   0.0000000   0.0000000   0.0000000   0.0000000   0.0000000   0.0000000   0.0000000
 NQMom=    0.0000000   0.0000000   0.0000000   0.0000000   0.0000000   0.0000000   0.0000000   0.0000000   0.0000000   0.0000000
 NMagM=    0.0000000   2.7928460   0.0000000   0.0000000   2.7928460   0.0000000   0.0000000   0.0000000   2.7928460   0.0000000
 AtZNuc=   6.0000000   1.0000000   6.0000000   6.0000000   1.0000000   8.0000000   6.0000000   8.0000000   1.0000000   6.0000000

  Atom        21          22          23          24          25          26          27          28          29          30
 IAtWgt=           1          12           1          12          12          12           1          12           1           1
 AtmWgt=   1.0078250  12.0000000   1.0078250  12.0000000  12.0000000  12.0000000   1.0078250  12.0000000   1.0078250   1.0078250
 NucSpn=           1           0           1           0           0           0           1           0           1           1
 AtZEff=   0.0000000   0.0000000   0.0000000   0.0000000   0.0000000   0.0000000   0.0000000   0.0000000   0.0000000   0.0000000
 NQMom=    0.0000000   0.0000000   0.0000000   0.0000000   0.0000000   0.0000000   0.0000000   0.0000000   0.0000000   0.0000000
 NMagM=    2.7928460   0.0000000   2.7928460   0.0000000   0.0000000   0.0000000   2.7928460   0.0000000   2.7928460   2.7928460
 AtZNuc=   1.0000000   6.0000000   1.0000000   6.0000000   6.0000000   6.0000000   1.0000000   6.0000000   1.0000000   1.0000000

  Atom        31          32          33          34          35          36          37          38          39          40
 IAtWgt=          12           1          14          12          12           1           1           1           1           1
 AtmWgt=  12.0000000   1.0078250  14.0030740  12.0000000  12.0000000   1.0078250   1.0078250   1.0078250   1.0078250   1.0078250
 NucSpn=           0           1           2           0           0           1           1           1           1           1
 AtZEff=   0.0000000   0.0000000   0.0000000   0.0000000   0.0000000   0.0000000   0.0000000   0.0000000   0.0000000   0.0000000
 NQMom=    0.0000000   0.0000000   2.0440000   0.0000000   0.0000000   0.0000000   0.0000000   0.0000000   0.0000000   0.0000000
 NMagM=    0.0000000   2.7928460   0.4037610   0.0000000   0.0000000   2.7928460   2.7928460   2.7928460   2.7928460   2.7928460
 AtZNuc=   6.0000000   1.0000000   7.0000000   6.0000000   6.0000000   1.0000000   1.0000000   1.0000000   1.0000000   1.0000000

  Atom        41          42          43          44          45          46          47          48          49          50
 IAtWgt=           1          12           1           1           1          16          12          12          12          12
 AtmWgt=   1.0078250  12.0000000   1.0078250   1.0078250   1.0078250  15.9949146  12.0000000  12.0000000  12.0000000  12.0000000
 NucSpn=           1           0           1           1           1           0           0           0           0           0
 AtZEff=   0.0000000   0.0000000   0.0000000   0.0000000   0.0000000   0.0000000   0.0000000   0.0000000   0.0000000   0.0000000
 NQMom=    0.0000000   0.0000000   0.0000000   0.0000000   0.0000000   0.0000000   0.0000000   0.0000000   0.0000000   0.0000000
 NMagM=    2.7928460   0.0000000   2.7928460   2.7928460   2.7928460   0.0000000   0.0000000   0.0000000   0.0000000   0.0000000
 AtZNuc=   1.0000000   6.0000000   1.0000000   1.0000000   1.0000000   8.0000000   6.0000000   6.0000000   6.0000000   6.0000000

  Atom        51          52          53          54          55          56          57          58          59          60
 IAtWgt=           1          12           1          12           1          12          16          12          16           1
 AtmWgt=   1.0078250  12.0000000   1.0078250  12.0000000   1.0078250  12.0000000  15.9949146  12.0000000  15.9949146   1.0078250
 NucSpn=           1           0           1           0           1           0           0           0           0           1
 AtZEff=   0.0000000   0.0000000   0.0000000   0.0000000   0.0000000   0.0000000   0.0000000   0.0000000   0.0000000   0.0000000
 NQMom=    0.0000000   0.0000000   0.0000000   0.0000000   0.0000000   0.0000000   0.0000000   0.0000000   0.0000000   0.0000000
 NMagM=    2.7928460   0.0000000   2.7928460   0.0000000   2.7928460   0.0000000   0.0000000   0.0000000   0.0000000   2.7928460
 AtZNuc=   1.0000000   6.0000000   1.0000000   6.0000000   1.0000000   6.0000000   8.0000000   6.0000000   8.0000000   1.0000000

  Atom        61          62          63          64          65          66          67          68          69          70
 IAtWgt=          12           1          12           1          12          12          12           1          12           1
 AtmWgt=  12.0000000   1.0078250  12.0000000   1.0078250  12.0000000  12.0000000  12.0000000   1.0078250  12.0000000   1.0078250
 NucSpn=           0           1           0           1           0           0           0           1           0           1
 AtZEff=   0.0000000   0.0000000   0.0000000   0.0000000   0.0000000   0.0000000   0.0000000   0.0000000   0.0000000   0.0000000
 NQMom=    0.0000000   0.0000000   0.0000000   0.0000000   0.0000000   0.0000000   0.0000000   0.0000000   0.0000000   0.0000000
 NMagM=    0.0000000   2.7928460   0.0000000   2.7928460   0.0000000   0.0000000   0.0000000   2.7928460   0.0000000   2.7928460
 AtZNuc=   6.0000000   1.0000000   6.0000000   1.0000000   6.0000000   6.0000000   6.0000000   1.0000000   6.0000000   1.0000000

  Atom        71          72          73          74          75          76          77          78          79          80
 IAtWgt=          12           1           1          14          12          12           1           1           1           1
 AtmWgt=  12.0000000   1.0078250   1.0078250  14.0030740  12.0000000  12.0000000   1.0078250   1.0078250   1.0078250   1.0078250
 NucSpn=           0           1           1           2           0           0           1           1           1           1
 AtZEff=   0.0000000   0.0000000   0.0000000   0.0000000   0.0000000   0.0000000   0.0000000   0.0000000   0.0000000   0.0000000
 NQMom=    0.0000000   0.0000000   0.0000000   2.0440000   0.0000000   0.0000000   0.0000000   0.0000000   0.0000000   0.0000000
 NMagM=    0.0000000   2.7928460   2.7928460   0.4037610   0.0000000   0.0000000   2.7928460   2.7928460   2.7928460   2.7928460
 AtZNuc=   6.0000000   1.0000000   1.0000000   7.0000000   6.0000000   6.0000000   1.0000000   1.0000000   1.0000000   1.0000000

  Atom        81          82
 IAtWgt=           1           1
 AtmWgt=   1.0078250   1.0078250
 NucSpn=           1           1
 AtZEff=   0.0000000   0.0000000
 NQMom=    0.0000000   0.0000000
 NMagM=    2.7928460   2.7928460
 AtZNuc=   1.0000000   1.0000000
 Leave Link  101 at Sun Nov  5 12:36:08 2017, MaxMem=  3758096384 cpu:         0.3
 (Enter /share/apps/gaussian/g09_D01/g09/l202.exe)
 Symmetry turned off by external request.
 Stoichiometry    C36H38N2O6
 Framework group  C1[X(C36H38N2O6)]
 Deg. of freedom   240
 Full point group                 C1      NOp   1
                          Input orientation:                          
 ---------------------------------------------------------------------
 Center     Atomic      Atomic             Coordinates (Angstroms)
 Number     Number       Type             X           Y           Z
 ---------------------------------------------------------------------
      1          6           0       -5.706418   -6.012055  -16.455422
      2          1           0       -5.870111   -6.818024  -15.721653
      3          1           0       -6.661943   -5.719940  -16.907289
      4          1           0       -5.247600   -5.139557  -15.960401
      5          8           0       -4.879954   -6.464712  -17.530061
      6          6           0       -3.619904   -6.915799  -17.210325
      7          6           0       -3.090146   -6.965685  -15.929966
      8          6           0       -2.847094   -7.351359  -18.301788
      9          1           0       -3.687335   -6.632421  -15.087013
     10          6           0       -1.774234   -7.439275  -15.705824
     11          6           0       -1.567932   -7.833938  -18.109629
     12          1           0       -3.271652   -7.294310  -19.302973
     13          6           0       -1.007261   -7.877037  -16.824975
     14          6           0       -1.151752   -7.476864  -14.375708
     15          1           0       -0.971334   -8.169870  -18.957781
     16          8           0        0.255306   -8.340820  -16.673941
     17          6           0       -1.865848   -7.087653  -13.186955
     18          8           0        0.071433   -7.865727  -14.285922
     19          1           0        0.426305   -8.201161  -15.647053
     20          6           0       -1.263696   -7.140447  -11.962534
     21          1           0       -2.889634   -6.734134  -13.279178
     22          6           0       -1.771238   -6.743836  -10.688372
     23          1           0       -0.238584   -7.525420  -11.951774
     24          6           0       -3.046875   -6.166860  -10.481261
     25          6           0       -0.941370   -6.903038   -9.555013
     26          6           0       -3.457163   -5.763330   -9.232779
     27          1           0       -3.720492   -6.028400  -11.327139
     28          6           0       -1.334086   -6.505437   -8.295168
     29          1           0        0.044942   -7.347420   -9.692045
     30          1           0       -4.444735   -5.322529   -9.120091
     31          6           0       -2.607293   -5.907632   -8.098989
     32          1           0       -0.656250   -6.648531   -7.456539
     33          7           0       -3.003151   -5.478954   -6.868880
     34          6           0       -4.345337   -4.953627   -6.664801
     35          6           0       -2.151420   -5.705067   -5.712160
     36          1           0       -4.533677   -4.092307   -7.322319
     37          1           0       -4.447846   -4.629229   -5.624133
     38          1           0       -5.111906   -5.718541   -6.869759
     39          1           0       -2.628662   -5.289666   -4.818500
     40          1           0       -1.983211   -6.782630   -5.545970
     41          1           0       -1.169985   -5.219682   -5.841528
     42          6           0        0.134528   -8.781231   -4.030590
     43          1           0       -0.746474   -8.203850   -4.350885
     44          1           0       -0.154177   -9.827588   -3.882571
     45          1           0        0.916381   -8.716901   -4.802010
     46          8           0        0.603463   -8.320878   -2.756122
     47          6           0        0.953098   -7.000168   -2.644728
     48          6           0        1.178200   -6.555826   -1.326419
     49          6           0        1.081761   -6.113987   -3.704896
     50          6           0        1.439719   -5.226981   -1.066972
     51          1           0        1.102381   -7.275196   -0.510496
     52          6           0        1.374977   -4.748042   -3.468734
     53          1           0        0.941796   -6.471218   -4.722677
     54          6           0        1.499262   -4.297696   -2.121133
     55          1           0        1.566983   -4.870263   -0.045477
     56          6           0        1.582019   -3.771253   -4.547421
     57          8           0        1.679880   -2.998855   -1.827526
     58          6           0        1.710145   -4.196893   -5.927102
     59          8           0        1.698894   -2.534661   -4.235690
     60          1           0        1.700022   -2.539860   -2.761271
     61          6           0        1.959986   -3.299802   -6.927274
     62          1           0        1.662313   -5.262623   -6.148364
     63          6           0        2.182633   -3.581022   -8.316179
     64          1           0        1.994538   -2.243570   -6.637048
     65          6           0        2.377663   -2.518976   -9.226556
     66          6           0        2.204645   -4.889780   -8.854553
     67          6           0        2.553685   -2.733769  -10.579733
     68          1           0        2.361882   -1.496258   -8.843759
     69          6           0        2.381592   -5.126742  -10.199771
     70          1           0        2.080942   -5.745734   -8.192229
     71          6           0        2.538244   -4.049846  -11.116252
     72          1           0        2.664162   -1.879716  -11.243998
     73          1           0        2.391798   -6.157286  -10.547720
     74          7           0        2.651239   -4.280057  -12.454837
     75          6           0        2.441909   -5.613439  -13.001271
     76          6           0        2.909007   -3.182022  -13.367027
     77          1           0        3.292240   -6.284692  -12.789381
     78          1           0        2.298646   -5.535877  -14.082121
     79          1           0        1.531079   -6.070182  -12.588878
     80          1           0        2.038216   -2.510119  -13.445548
     81          1           0        3.112987   -3.583547  -14.365042
     82          1           0        3.783495   -2.597926  -13.035802
 ---------------------------------------------------------------------
 Rotational constants (GHZ):      0.1205313      0.0276600      0.0251016
 Leave Link  202 at Sun Nov  5 12:36:08 2017, MaxMem=  3758096384 cpu:         0.1
 (Enter /share/apps/gaussian/g09_D01/g09/l301.exe)
 Standard basis: 6-311++G(d,p) (5D, 7F)
 Ernie: Thresh=  0.10000D-02 Tol=  0.10000D-05 Strict=F.
  1234 basis functions,  1926 primitive gaussians,  1278 cartesian basis functions
   158 alpha electrons      158 beta electrons
       nuclear repulsion energy      4854.6019494813 Hartrees.
 IExCor= 4639 DFT=T Ex+Corr=wB97XD ExCW=0 ScaHFX=  1.000000
 ScaDFX=  1.000000  1.000000  1.000000  1.000000 ScalE2=  1.000000  1.000000
 IRadAn=      0 IRanWt=     -1 IRanGd=            0 ICorTp=0 IEmpDi=121
  HFx wShort=  0.000000 wLong=  0.200000 cFull=  0.222036 cShort=  0.000000 cLong=  0.777964
  DFx wShort=  0.000000 wLong=  0.200000 cFull=  0.000000 cShort=  0.000000 cLong=  1.000000
 NAtoms=   82 NActive=   82 NUniq=   82 SFac= 1.00D+00 NAtFMM=   60 NAOKFM=T Big=T
 Integral buffers will be    131072 words long.
 Raffenetti 1 integral format.
 Two-electron integral symmetry is turned off.
 R6Disp:  Grimme-D2 Dispersion energy=       -0.0632350442 Hartrees.
 Nuclear repulsion after empirical dispersion term =     4854.5387144371 Hartrees.
 Leave Link  301 at Sun Nov  5 12:36:08 2017, MaxMem=  3758096384 cpu:         0.1
 (Enter /share/apps/gaussian/g09_D01/g09/l302.exe)
 NPDir=0 NMtPBC=     1 NCelOv=     1 NCel=       1 NClECP=     1 NCelD=      1
         NCelK=      1 NCelE2=     1 NClLst=     1 CellRange=     0.0.
 One-electron integrals computed using PRISM.
 NBasis=  1234 RedAO= T EigKep=  1.15D-06  NBF=  1234
 NBsUse=  1217 1.00D-06 EigRej=  8.57D-07 NBFU=  1217
 Precomputing XC quadrature grid using
 IXCGrd= 4 IRadAn=           0 IRanWt=          -1 IRanGd=           0 AccXCQ= 0.00D+00.
 Generated NRdTot=       0 NPtTot=           0 NUsed=           0 NTot=          32
 NSgBfM=  1132  1132  1132  1132  1132 MxSgAt=    82 MxSgA2=    82.
 Leave Link  302 at Sun Nov  5 12:36:21 2017, MaxMem=  3758096384 cpu:        24.9
 (Enter /share/apps/gaussian/g09_D01/g09/l308.exe)
 Leave Link  308 at Sun Nov  5 12:36:22 2017, MaxMem=  3758096384 cpu:         1.9
 (Enter /share/apps/gaussian/g09_D01/g09/l303.exe)
 DipDrv:  MaxL=1.
 Leave Link  303 at Sun Nov  5 12:36:23 2017, MaxMem=  3758096384 cpu:         1.3
 (Enter /share/apps/gaussian/g09_D01/g09/l401.exe)
 ExpMin= 3.60D-02 ExpMax= 8.59D+03 ExpMxC= 1.30D+03 IAcc=3 IRadAn=         5 AccDes= 0.00D+00
 Harris functional with IExCor= 4639 and IRadAn=       5 diagonalized for initial guess.
 HarFok:  IExCor= 4639 AccDes= 0.00D+00 IRadAn=         5 IDoV= 1 UseB2=F ITyADJ=14
 ICtDFT=  3500011 ScaDFX=  1.000000  1.000000  1.000000  1.000000
 FoFCou: FMM=F IPFlag=           0 FMFlag=      100000 FMFlg1=        2001
         NFxFlg=           0 DoJE=T BraDBF=F KetDBF=T FulRan=T
         wScrn=  0.000000 ICntrl=     500 IOpCl=  0 I1Cent=   200000004 NGrid=           0
         NMat0=    1 NMatS0=      1 NMatT0=    0 NMatD0=    1 NMtDS0=    0 NMtDT0=    0
 Symmetry not used in FoFCou.
 Harris En= -1871.07243667287    
 JPrj=0 DoOrth=F DoCkMO=F.
 Leave Link  401 at Sun Nov  5 12:37:59 2017, MaxMem=  3758096384 cpu:       191.6
 (Enter /share/apps/gaussian/g09_D01/g09/l502.exe)
 Closed shell SCF:
 Using DIIS extrapolation, IDIIS=  1040.
 Two-electron integral symmetry not used.
 IVT=     4933902 IEndB=     4933902 NGot=  3758096384 MDV=  3754813685
 LenX=  3754813685 LenY=  3753179123
 Requested convergence on RMS density matrix=1.00D-08 within 128 cycles.
 Requested convergence on MAX density matrix=1.00D-06.
 Requested convergence on             energy=1.00D-06.
 No special actions if energy rises.
 Fock matrices will be formed incrementally for  20 cycles.

 Cycle   1  Pass 1  IDiag  1:
 FoFJK:  IHMeth= 1 ICntrl=       0 DoSepK=T KAlg= 0 I1Cent=   0 FoldK=F
 IRaf=         1 NMat=   1 IRICut=       1 DoRegI=T DoRafI=F ISym2E= 0.
 FoFCou: FMM=T IPFlag=           0 FMFlag=      100000 FMFlg1=        2001
         NFxFlg=           0 DoJE=T BraDBF=F KetDBF=F FulRan=T
         wScrn=  0.000000 ICntrl=     500 IOpCl=  0 I1Cent=           0 NGrid=           0
         NMat0=    1 NMatS0=      1 NMatT0=    0 NMatD0=    1 NMtDS0=    0 NMtDT0=    0
 Symmetry not used in FoFCou.
 FMM levels:  10  Number of levels for PrismC:   9
 E= -1954.70176176971    
 DIIS: error= 6.26D-02 at cycle   1 NSaved=   1.
 NSaved= 1 IEnMin= 1 EnMin= -1954.70176176971     IErMin= 1 ErrMin= 6.26D-02
 ErrMax= 6.26D-02  0.00D+00 EMaxC= 1.00D-01 BMatC= 4.29D+00 BMatP= 4.29D+00
 IDIUse=3 WtCom= 3.74D-01 WtEn= 6.26D-01
 Coeff-Com:  0.100D+01
 Coeff-En:   0.100D+01
 Coeff:      0.100D+01
 Gap=     0.268 Goal=   None    Shift=    0.000
 GapD=    0.268 DampG=1.000 DampE=0.500 DampFc=0.5000 IDamp=-1.
 Damping current iteration by 5.00D-01
 RMSDP=2.12D-02 MaxDP=4.23D+00              OVMax= 1.85D-01

 Cycle   2  Pass 1  IDiag  1:
 RMSU=  3.22D-03    CP:  8.09D-01
 E= -1955.00152588737     Delta-E=       -0.299764117656 Rises=F Damp=T
 DIIS: error= 2.84D-02 at cycle   2 NSaved=   2.
 NSaved= 2 IEnMin= 2 EnMin= -1955.00152588737     IErMin= 2 ErrMin= 2.84D-02
 ErrMax= 2.84D-02  0.00D+00 EMaxC= 1.00D-01 BMatC= 8.83D-01 BMatP= 4.29D+00
 IDIUse=3 WtCom= 7.16D-01 WtEn= 2.84D-01
 Coeff-Com: -0.538D+00 0.154D+01
 Coeff-En:   0.000D+00 0.100D+01
 Coeff:     -0.385D+00 0.138D+01
 Gap=     0.253 Goal=   None    Shift=    0.000
 RMSDP=1.07D-02 MaxDP=1.66D+00 DE=-3.00D-01 OVMax= 2.08D-01

 Cycle   3  Pass 1  IDiag  1:
 RMSU=  4.95D-03    CP:  6.30D-01  9.36D-01
 E= -1955.13841213554     Delta-E=       -0.136886248171 Rises=F Damp=F
 DIIS: error= 1.23D-02 at cycle   3 NSaved=   3.
 NSaved= 3 IEnMin= 3 EnMin= -1955.13841213554     IErMin= 3 ErrMin= 1.23D-02
 ErrMax= 1.23D-02  0.00D+00 EMaxC= 1.00D-01 BMatC= 2.91D-01 BMatP= 8.83D-01
 IDIUse=3 WtCom= 8.77D-01 WtEn= 1.23D-01
 Coeff-Com: -0.357D+00 0.769D+00 0.587D+00
 Coeff-En:   0.000D+00 0.142D+00 0.858D+00
 Coeff:     -0.313D+00 0.692D+00 0.621D+00
 Gap=     0.250 Goal=   None    Shift=    0.000
 RMSDP=4.36D-03 MaxDP=9.81D-01 DE=-1.37D-01 OVMax= 9.07D-02

 Cycle   4  Pass 1  IDiag  1:
 RMSU=  1.28D-03    CP:  5.72D-01  1.41D+00  5.15D-01
 E= -1955.36021004271     Delta-E=       -0.221797907173 Rises=F Damp=F
 DIIS: error= 3.21D-03 at cycle   4 NSaved=   4.
 NSaved= 4 IEnMin= 4 EnMin= -1955.36021004271     IErMin= 4 ErrMin= 3.21D-03
 ErrMax= 3.21D-03  0.00D+00 EMaxC= 1.00D-01 BMatC= 1.57D-02 BMatP= 2.91D-01
 IDIUse=3 WtCom= 9.68D-01 WtEn= 3.21D-02
 Coeff-Com: -0.148D+00 0.317D+00 0.336D+00 0.494D+00
 Coeff-En:   0.000D+00 0.000D+00 0.000D+00 0.100D+01
 Coeff:     -0.143D+00 0.307D+00 0.326D+00 0.510D+00
 Gap=     0.227 Goal=   None    Shift=    0.000
 RMSDP=7.77D-04 MaxDP=1.08D-01 DE=-2.22D-01 OVMax= 1.63D-02

 Cycle   5  Pass 1  IDiag  1:
 RMSU=  3.47D-04    CP:  5.81D-01  1.37D+00  6.08D-01  8.24D-01
 E= -1955.37258734208     Delta-E=       -0.012377299375 Rises=F Damp=F
 DIIS: error= 4.66D-04 at cycle   5 NSaved=   5.
 NSaved= 5 IEnMin= 5 EnMin= -1955.37258734208     IErMin= 5 ErrMin= 4.66D-04
 ErrMax= 4.66D-04  0.00D+00 EMaxC= 1.00D-01 BMatC= 3.81D-04 BMatP= 1.57D-02
 IDIUse=3 WtCom= 9.95D-01 WtEn= 4.66D-03
 Coeff-Com:  0.705D-02-0.158D-01 0.258D-01 0.163D+00 0.820D+00
 Coeff-En:   0.000D+00 0.000D+00 0.000D+00 0.000D+00 0.100D+01
 Coeff:      0.701D-02-0.157D-01 0.257D-01 0.162D+00 0.821D+00
 Gap=     0.227 Goal=   None    Shift=    0.000
 RMSDP=2.36D-04 MaxDP=3.02D-02 DE=-1.24D-02 OVMax= 7.31D-03

 Cycle   6  Pass 1  IDiag  1:
 RMSU=  1.80D-04    CP:  5.79D-01  1.36D+00  6.20D-01  9.03D-01  1.02D+00
 E= -1955.37308833259     Delta-E=       -0.000500990501 Rises=F Damp=F
 DIIS: error= 3.64D-04 at cycle   6 NSaved=   6.
 NSaved= 6 IEnMin= 6 EnMin= -1955.37308833259     IErMin= 6 ErrMin= 3.64D-04
 ErrMax= 3.64D-04  0.00D+00 EMaxC= 1.00D-01 BMatC= 1.11D-04 BMatP= 3.81D-04
 IDIUse=3 WtCom= 9.96D-01 WtEn= 3.64D-03
 Coeff-Com:  0.254D-01-0.546D-01-0.376D-01-0.751D-02 0.401D+00 0.673D+00
 Coeff-En:   0.000D+00 0.000D+00 0.000D+00 0.000D+00 0.000D+00 0.100D+01
 Coeff:      0.253D-01-0.544D-01-0.374D-01-0.748D-02 0.399D+00 0.675D+00
 Gap=     0.229 Goal=   None    Shift=    0.000
 RMSDP=9.34D-05 MaxDP=1.94D-02 DE=-5.01D-04 OVMax= 4.77D-03

 Cycle   7  Pass 1  IDiag  1:
 RMSU=  5.35D-05    CP:  5.79D-01  1.37D+00  6.21D-01  9.36D-01  1.15D+00
                    CP:  1.12D+00
 E= -1955.37324654048     Delta-E=       -0.000158207898 Rises=F Damp=F
 DIIS: error= 1.10D-04 at cycle   7 NSaved=   7.
 NSaved= 7 IEnMin= 7 EnMin= -1955.37324654048     IErMin= 7 ErrMin= 1.10D-04
 ErrMax= 1.10D-04  0.00D+00 EMaxC= 1.00D-01 BMatC= 1.10D-05 BMatP= 1.11D-04
 IDIUse=3 WtCom= 9.99D-01 WtEn= 1.10D-03
 Coeff-Com:  0.435D-02-0.921D-02-0.112D-01-0.247D-01-0.267D-01 0.201D+00
 Coeff-Com:  0.866D+00
 Coeff-En:   0.000D+00 0.000D+00 0.000D+00 0.000D+00 0.000D+00 0.000D+00
 Coeff-En:   0.100D+01
 Coeff:      0.434D-02-0.920D-02-0.112D-01-0.247D-01-0.266D-01 0.201D+00
 Coeff:      0.866D+00
 Gap=     0.229 Goal=   None    Shift=    0.000
 RMSDP=5.28D-05 MaxDP=6.49D-03 DE=-1.58D-04 OVMax= 2.81D-03

 Cycle   8  Pass 1  IDiag  1:
 RMSU=  3.00D-05    CP:  5.79D-01  1.37D+00  6.19D-01  9.54D-01  1.20D+00
                    CP:  1.28D+00  1.20D+00
 E= -1955.37327692187     Delta-E=       -0.000030381388 Rises=F Damp=F
 DIIS: error= 6.05D-05 at cycle   8 NSaved=   8.
 NSaved= 8 IEnMin= 8 EnMin= -1955.37327692187     IErMin= 8 ErrMin= 6.05D-05
 ErrMax= 6.05D-05  0.00D+00 EMaxC= 1.00D-01 BMatC= 2.38D-06 BMatP= 1.10D-05
 IDIUse=1 WtCom= 1.00D+00 WtEn= 0.00D+00
 Coeff-Com: -0.247D-02 0.539D-02 0.175D-02-0.104D-01-0.867D-01-0.252D-01
 Coeff-Com:  0.349D+00 0.769D+00
 Coeff:     -0.247D-02 0.539D-02 0.175D-02-0.104D-01-0.867D-01-0.252D-01
 Coeff:      0.349D+00 0.769D+00
 Gap=     0.229 Goal=   None    Shift=    0.000
 RMSDP=2.38D-05 MaxDP=2.38D-03 DE=-3.04D-05 OVMax= 1.56D-03

 Cycle   9  Pass 1  IDiag  1:
 RMSU=  1.32D-05    CP:  5.79D-01  1.37D+00  6.19D-01  9.58D-01  1.22D+00
                    CP:  1.35D+00  1.38D+00  1.15D+00
 E= -1955.37328429197     Delta-E=       -0.000007370096 Rises=F Damp=F
 DIIS: error= 2.28D-05 at cycle   9 NSaved=   9.
 NSaved= 9 IEnMin= 9 EnMin= -1955.37328429197     IErMin= 9 ErrMin= 2.28D-05
 ErrMax= 2.28D-05  0.00D+00 EMaxC= 1.00D-01 BMatC= 4.28D-07 BMatP= 2.38D-06
 IDIUse=1 WtCom= 1.00D+00 WtEn= 0.00D+00
 Coeff-Com: -0.183D-02 0.391D-02 0.343D-02 0.214D-02-0.236D-01-0.472D-01
 Coeff-Com: -0.882D-01 0.221D+00 0.930D+00
 Coeff:     -0.183D-02 0.391D-02 0.343D-02 0.214D-02-0.236D-01-0.472D-01
 Coeff:     -0.882D-01 0.221D+00 0.930D+00
 Gap=     0.229 Goal=   None    Shift=    0.000
 RMSDP=1.38D-05 MaxDP=1.57D-03 DE=-7.37D-06 OVMax= 8.90D-04

 Cycle  10  Pass 1  IDiag  1:
 RMSU=  6.25D-06    CP:  5.79D-01  1.37D+00  6.19D-01  9.59D-01  1.24D+00
                    CP:  1.38D+00  1.47D+00  1.31D+00  1.47D+00
 E= -1955.37328597961     Delta-E=       -0.000001687642 Rises=F Damp=F
 DIIS: error= 1.06D-05 at cycle  10 NSaved=  10.
 NSaved=10 IEnMin=10 EnMin= -1955.37328597961     IErMin=10 ErrMin= 1.06D-05
 ErrMax= 1.06D-05  0.00D+00 EMaxC= 1.00D-01 BMatC= 6.24D-08 BMatP= 4.28D-07
 IDIUse=1 WtCom= 1.00D+00 WtEn= 0.00D+00
 Coeff-Com:  0.450D-04-0.111D-03 0.488D-03 0.232D-02 0.826D-02-0.535D-02
 Coeff-Com: -0.862D-01-0.643D-01 0.275D+00 0.870D+00
 Coeff:      0.450D-04-0.111D-03 0.488D-03 0.232D-02 0.826D-02-0.535D-02
 Coeff:     -0.862D-01-0.643D-01 0.275D+00 0.870D+00
 Gap=     0.229 Goal=   None    Shift=    0.000
 RMSDP=4.66D-06 MaxDP=4.80D-04 DE=-1.69D-06 OVMax= 3.59D-04

 Cycle  11  Pass 1  IDiag  1:
 RMSU=  1.87D-06    CP:  5.79D-01  1.37D+00  6.19D-01  9.59D-01  1.24D+00
                    CP:  1.38D+00  1.49D+00  1.36D+00  1.71D+00  1.13D+00
 E= -1955.37328621235     Delta-E=       -0.000000232743 Rises=F Damp=F
 DIIS: error= 3.34D-06 at cycle  11 NSaved=  11.
 NSaved=11 IEnMin=11 EnMin= -1955.37328621235     IErMin=11 ErrMin= 3.34D-06
 ErrMax= 3.34D-06  0.00D+00 EMaxC= 1.00D-01 BMatC= 1.36D-08 BMatP= 6.24D-08
 IDIUse=1 WtCom= 1.00D+00 WtEn= 0.00D+00
 Coeff-Com:  0.286D-03-0.614D-03-0.317D-03 0.706D-03 0.672D-02 0.488D-02
 Coeff-Com: -0.189D-01-0.570D-01-0.587D-01 0.311D+00 0.812D+00
 Coeff:      0.286D-03-0.614D-03-0.317D-03 0.706D-03 0.672D-02 0.488D-02
 Coeff:     -0.189D-01-0.570D-01-0.587D-01 0.311D+00 0.812D+00
 Gap=     0.229 Goal=   None    Shift=    0.000
 RMSDP=2.00D-06 MaxDP=3.46D-04 DE=-2.33D-07 OVMax= 1.28D-04

 Cycle  12  Pass 1  IDiag  1:
 RMSU=  9.48D-07    CP:  5.79D-01  1.37D+00  6.19D-01  9.59D-01  1.24D+00
                    CP:  1.39D+00  1.50D+00  1.37D+00  1.78D+00  1.26D+00
                    CP:  1.18D+00
 E= -1955.37328624923     Delta-E=       -0.000000036874 Rises=F Damp=F
 DIIS: error= 1.41D-06 at cycle  12 NSaved=  12.
 NSaved=12 IEnMin=12 EnMin= -1955.37328624923     IErMin=12 ErrMin= 1.41D-06
 ErrMax= 1.41D-06  0.00D+00 EMaxC= 1.00D-01 BMatC= 2.77D-09 BMatP= 1.36D-08
 IDIUse=1 WtCom= 1.00D+00 WtEn= 0.00D+00
 Coeff-Com:  0.889D-04-0.189D-03-0.177D-03-0.365D-04 0.126D-02 0.245D-02
 Coeff-Com:  0.879D-02-0.997D-02-0.744D-01-0.386D-01 0.328D+00 0.783D+00
 Coeff:      0.889D-04-0.189D-03-0.177D-03-0.365D-04 0.126D-02 0.245D-02
 Coeff:      0.879D-02-0.997D-02-0.744D-01-0.386D-01 0.328D+00 0.783D+00
 Gap=     0.229 Goal=   None    Shift=    0.000
 RMSDP=8.65D-07 MaxDP=8.69D-05 DE=-3.69D-08 OVMax= 4.20D-05

 Cycle  13  Pass 1  IDiag  1:
 RMSU=  3.38D-07    CP:  5.79D-01  1.37D+00  6.19D-01  9.59D-01  1.24D+00
                    CP:  1.39D+00  1.50D+00  1.37D+00  1.82D+00  1.30D+00
                    CP:  1.39D+00  1.15D+00
 E= -1955.37328625481     Delta-E=       -0.000000005582 Rises=F Damp=F
 DIIS: error= 7.18D-07 at cycle  13 NSaved=  13.
 NSaved=13 IEnMin=13 EnMin= -1955.37328625481     IErMin=13 ErrMin= 7.18D-07
 ErrMax= 7.18D-07  0.00D+00 EMaxC= 1.00D-01 BMatC= 6.98D-10 BMatP= 2.77D-09
 IDIUse=1 WtCom= 1.00D+00 WtEn= 0.00D+00
 Coeff-Com: -0.596D-05 0.140D-04-0.344D-04-0.156D-03-0.641D-03 0.217D-03
 Coeff-Com:  0.851D-02 0.608D-02-0.245D-01-0.817D-01 0.123D-01 0.405D+00
 Coeff-Com:  0.674D+00
 Coeff:     -0.596D-05 0.140D-04-0.344D-04-0.156D-03-0.641D-03 0.217D-03
 Coeff:      0.851D-02 0.608D-02-0.245D-01-0.817D-01 0.123D-01 0.405D+00
 Coeff:      0.674D+00
 Gap=     0.229 Goal=   None    Shift=    0.000
 RMSDP=2.94D-07 MaxDP=2.75D-05 DE=-5.58D-09 OVMax= 1.42D-05

 Cycle  14  Pass 1  IDiag  1:
 RMSU=  1.95D-07    CP:  5.79D-01  1.37D+00  6.19D-01  9.59D-01  1.24D+00
                    CP:  1.39D+00  1.50D+00  1.37D+00  1.82D+00  1.32D+00
                    CP:  1.45D+00  1.23D+00  1.06D+00
 E= -1955.37328625569     Delta-E=       -0.000000000878 Rises=F Damp=F
 DIIS: error= 2.48D-07 at cycle  14 NSaved=  14.
 NSaved=14 IEnMin=14 EnMin= -1955.37328625569     IErMin=14 ErrMin= 2.48D-07
 ErrMax= 2.48D-07  0.00D+00 EMaxC= 1.00D-01 BMatC= 6.09D-11 BMatP= 6.98D-10
 IDIUse=1 WtCom= 1.00D+00 WtEn= 0.00D+00
 Coeff-Com: -0.107D-04 0.232D-04 0.643D-05-0.594D-04-0.400D-03-0.259D-03
 Coeff-Com:  0.196D-02 0.284D-02 0.141D-02-0.270D-01-0.348D-01 0.513D-01
 Coeff-Com:  0.224D+00 0.781D+00
 Coeff:     -0.107D-04 0.232D-04 0.643D-05-0.594D-04-0.400D-03-0.259D-03
 Coeff:      0.196D-02 0.284D-02 0.141D-02-0.270D-01-0.348D-01 0.513D-01
 Coeff:      0.224D+00 0.781D+00
 Gap=     0.229 Goal=   None    Shift=    0.000
 RMSDP=2.33D-07 MaxDP=2.55D-05 DE=-8.78D-10 OVMax= 5.96D-06

 Cycle  15  Pass 1  IDiag  1:
 RMSU=  1.69D-07    CP:  5.79D-01  1.37D+00  6.19D-01  9.59D-01  1.24D+00
                    CP:  1.39D+00  1.50D+00  1.37D+00  1.82D+00  1.32D+00
                    CP:  1.47D+00  1.31D+00  1.32D+00  1.39D+00
 E= -1955.37328625639     Delta-E=       -0.000000000700 Rises=F Damp=F
 DIIS: error= 1.08D-07 at cycle  15 NSaved=  15.
 NSaved=15 IEnMin=15 EnMin= -1955.37328625639     IErMin=15 ErrMin= 1.08D-07
 ErrMax= 1.08D-07  0.00D+00 EMaxC= 1.00D-01 BMatC= 1.71D-11 BMatP= 6.09D-11
 IDIUse=1 WtCom= 1.00D+00 WtEn= 0.00D+00
 Coeff-Com: -0.411D-05 0.868D-05 0.108D-04 0.166D-05-0.648D-04-0.165D-03
 Coeff-Com: -0.678D-03-0.531D-04 0.593D-02 0.221D-02-0.176D-01-0.517D-01
 Coeff-Com: -0.343D-01 0.366D+00 0.731D+00
 Coeff:     -0.411D-05 0.868D-05 0.108D-04 0.166D-05-0.648D-04-0.165D-03
 Coeff:     -0.678D-03-0.531D-04 0.593D-02 0.221D-02-0.176D-01-0.517D-01
 Coeff:     -0.343D-01 0.366D+00 0.731D+00
 Gap=     0.229 Goal=   None    Shift=    0.000
 RMSDP=2.73D-07 MaxDP=2.22D-05 DE=-7.00D-10 OVMax= 3.11D-06

 Cycle  16  Pass 1  IDiag  1:
 RMSU=  1.30D-07    CP:  5.79D-01  1.37D+00  6.19D-01  9.59D-01  1.24D+00
                    CP:  1.38D+00  1.50D+00  1.37D+00  1.82D+00  1.32D+00
                    CP:  1.47D+00  1.35D+00  1.53D+00  2.08D+00  1.99D+00
 E= -1955.37328625623     Delta-E=        0.000000000156 Rises=F Damp=F
 DIIS: error= 6.93D-08 at cycle  16 NSaved=  16.
 NSaved=16 IEnMin=15 EnMin= -1955.37328625639     IErMin=16 ErrMin= 6.93D-08
 ErrMax= 6.93D-08  0.00D+00 EMaxC= 1.00D-01 BMatC= 1.97D-12 BMatP= 1.71D-11
 IDIUse=1 WtCom= 1.00D+00 WtEn= 0.00D+00
 Coeff-Com: -0.355D-06 0.668D-06 0.288D-05 0.915D-05 0.341D-04-0.190D-04
 Coeff-Com: -0.401D-03-0.438D-03 0.153D-02 0.389D-02 0.621D-03-0.188D-01
 Coeff-Com: -0.462D-01-0.426D-01 0.175D+00 0.927D+00
 Coeff:     -0.355D-06 0.668D-06 0.288D-05 0.915D-05 0.341D-04-0.190D-04
 Coeff:     -0.401D-03-0.438D-03 0.153D-02 0.389D-02 0.621D-03-0.188D-01
 Coeff:     -0.462D-01-0.426D-01 0.175D+00 0.927D+00
 Gap=     0.229 Goal=   None    Shift=    0.000
 RMSDP=4.56D-07 MaxDP=4.83D-05 DE= 1.56D-10 OVMax= 1.64D-06

 Cycle  17  Pass 1  IDiag  1:
 RMSU=  2.22D-07    CP:  5.79D-01  1.37D+00  6.19D-01  9.59D-01  1.24D+00
                    CP:  1.38D+00  1.50D+00  1.37D+00  1.81D+00  1.33D+00
                    CP:  1.47D+00  1.39D+00  1.84D+00  2.84D+00  3.00D+00
                    CP:  2.65D+00
 E= -1955.37328625638     Delta-E=       -0.000000000147 Rises=F Damp=F
 DIIS: error= 2.77D-08 at cycle  17 NSaved=  17.
 NSaved=17 IEnMin=15 EnMin= -1955.37328625639     IErMin=17 ErrMin= 2.77D-08
 ErrMax= 2.77D-08  0.00D+00 EMaxC= 1.00D-01 BMatC= 6.61D-13 BMatP= 1.97D-12
 IDIUse=1 WtCom= 1.00D+00 WtEn= 0.00D+00
 Coeff-Com:  0.399D-06-0.866D-06-0.343D-06 0.399D-05 0.242D-04 0.123D-04
 Coeff-Com: -0.643D-04-0.219D-03-0.184D-03 0.119D-02 0.278D-02 0.526D-03
 Coeff-Com: -0.140D-01-0.685D-01-0.302D-01 0.376D+00 0.732D+00
 Coeff:      0.399D-06-0.866D-06-0.343D-06 0.399D-05 0.242D-04 0.123D-04
 Coeff:     -0.643D-04-0.219D-03-0.184D-03 0.119D-02 0.278D-02 0.526D-03
 Coeff:     -0.140D-01-0.685D-01-0.302D-01 0.376D+00 0.732D+00
 Gap=     0.229 Goal=   None    Shift=    0.000
 RMSDP=6.04D-07 MaxDP=5.83D-05 DE=-1.47D-10 OVMax= 6.64D-07

 Cycle  18  Pass 1  IDiag  1:
 RMSU=  3.59D-07    CP:  5.79D-01  1.37D+00  6.19D-01  9.59D-01  1.24D+00
                    CP:  1.38D+00  1.50D+00  1.37D+00  1.81D+00  1.32D+00
                    CP:  1.47D+00  1.42D+00  2.19D+00  3.00D+00  3.00D+00
                    CP:  3.00D+00  2.74D+00
 E= -1955.37328625733     Delta-E=       -0.000000000950 Rises=F Damp=F
 DIIS: error= 4.75D-08 at cycle  18 NSaved=  18.
 NSaved=18 IEnMin=18 EnMin= -1955.37328625733     IErMin=17 ErrMin= 2.77D-08
 ErrMax= 4.75D-08  0.00D+00 EMaxC= 1.00D-01 BMatC= 4.31D-13 BMatP= 6.61D-13
 IDIUse=1 WtCom= 1.00D+00 WtEn= 0.00D+00
 Coeff-Com:  0.193D-06-0.418D-06-0.118D-06 0.229D-05 0.129D-04 0.587D-05
 Coeff-Com: -0.361D-04-0.123D-03-0.497D-04 0.653D-03 0.135D-02 0.222D-03
 Coeff-Com: -0.748D-02-0.345D-01-0.142D-01 0.182D+00 0.361D+00 0.512D+00
 Coeff:      0.193D-06-0.418D-06-0.118D-06 0.229D-05 0.129D-04 0.587D-05
 Coeff:     -0.361D-04-0.123D-03-0.497D-04 0.653D-03 0.135D-02 0.222D-03
 Coeff:     -0.748D-02-0.345D-01-0.142D-01 0.182D+00 0.361D+00 0.512D+00
 Gap=     0.229 Goal=   None    Shift=    0.000
 RMSDP=4.88D-07 MaxDP=4.65D-05 DE=-9.50D-10 OVMax= 1.40D-07

 Cycle  19  Pass 1  IDiag  1:
 RMSU=  2.03D-07    CP:  5.79D-01  1.37D+00  6.19D-01  9.59D-01  1.24D+00
                    CP:  1.38D+00  1.50D+00  1.38D+00  1.81D+00  1.32D+00
                    CP:  1.47D+00  1.47D+00  2.50D+00  3.00D+00  3.00D+00
                    CP:  3.00D+00  3.00D+00  1.94D+00
 E= -1955.37328625677     Delta-E=        0.000000000560 Rises=F Damp=F
 DIIS: error= 5.77D-08 at cycle  19 NSaved=  19.
 NSaved=19 IEnMin=18 EnMin= -1955.37328625733     IErMin=17 ErrMin= 2.77D-08
 ErrMax= 5.77D-08  0.00D+00 EMaxC= 1.00D-01 BMatC= 4.51D-13 BMatP= 4.31D-13
 IDIUse=1 WtCom= 1.00D+00 WtEn= 0.00D+00
 Coeff-Com:  0.176D-06-0.385D-06-0.424D-07 0.238D-05 0.131D-04 0.503D-05
 Coeff-Com: -0.453D-04-0.128D-03-0.128D-04 0.716D-03 0.130D-02-0.327D-03
 Coeff-Com: -0.836D-02-0.341D-01-0.870D-02 0.200D+00 0.330D+00 0.197D+00
 Coeff-Com:  0.322D+00
 Coeff:      0.176D-06-0.385D-06-0.424D-07 0.238D-05 0.131D-04 0.503D-05
 Coeff:     -0.453D-04-0.128D-03-0.128D-04 0.716D-03 0.130D-02-0.327D-03
 Coeff:     -0.836D-02-0.341D-01-0.870D-02 0.200D+00 0.330D+00 0.197D+00
 Coeff:      0.322D+00
 Gap=     0.229 Goal=   None    Shift=    0.000
 RMSDP=1.60D-07 MaxDP=1.60D-05 DE= 5.60D-10 OVMax= 3.01D-08

 Cycle  20  Pass 1  IDiag  1:
 RMSU=  5.62D-08    CP:  5.79D-01  1.37D+00  6.19D-01  9.59D-01  1.24D+00
                    CP:  1.38D+00  1.50D+00  1.38D+00  1.81D+00  1.32D+00
                    CP:  1.47D+00  1.47D+00  2.61D+00  3.00D+00  3.00D+00
                    CP:  3.00D+00  3.00D+00  2.21D+00  1.41D+00
 E= -1955.37328625700     Delta-E=       -0.000000000233 Rises=F Damp=F
 DIIS: error= 7.77D-08 at cycle  20 NSaved=  20.
 NSaved=20 IEnMin=18 EnMin= -1955.37328625733     IErMin=17 ErrMin= 2.77D-08
 ErrMax= 7.77D-08  0.00D+00 EMaxC= 1.00D-01 BMatC= 5.74D-13 BMatP= 4.31D-13
 IDIUse=1 WtCom= 1.00D+00 WtEn= 0.00D+00
 Coeff-Com:  0.160D-06-0.353D-06-0.169D-07 0.227D-05 0.123D-04 0.444D-05
 Coeff-Com: -0.450D-04-0.122D-03 0.719D-06 0.683D-03 0.117D-02-0.475D-03
 Coeff-Com: -0.807D-02-0.317D-01-0.672D-02 0.189D+00 0.290D+00 0.158D+00
 Coeff-Com:  0.101D+01-0.603D+00
 Coeff:      0.160D-06-0.353D-06-0.169D-07 0.227D-05 0.123D-04 0.444D-05
 Coeff:     -0.450D-04-0.122D-03 0.719D-06 0.683D-03 0.117D-02-0.475D-03
 Coeff:     -0.807D-02-0.317D-01-0.672D-02 0.189D+00 0.290D+00 0.158D+00
 Coeff:      0.101D+01-0.603D+00
 Gap=     0.229 Goal=   None    Shift=    0.000
 RMSDP=1.51D-07 MaxDP=1.62D-05 DE=-2.33D-10 OVMax= 2.35D-08

 Cycle  21  Pass 1  IDiag  1:
 Restarting incremental Fock formation.
 E= -1955.37328625011     Delta-E=        0.000000006889 Rises=F Damp=F
 DIIS: error= 9.75D-07 at cycle  21 NSaved=  20.
 NSaved=20 IEnMin=17 EnMin= -1955.37328625733     IErMin=16 ErrMin= 2.77D-08
 ErrMax= 9.75D-07  0.00D+00 EMaxC= 1.00D-01 BMatC= 2.03D-10 BMatP= 4.31D-13
 IDIUse=1 WtCom= 1.00D+00 WtEn= 0.00D+00
 Coeff-Com: -0.849D-08 0.241D-06 0.227D-05 0.101D-04 0.175D-05-0.441D-04
 Coeff-Com: -0.109D-03 0.282D-04 0.643D-03 0.105D-02-0.538D-03-0.791D-02
 Coeff-Com: -0.308D-01-0.591D-02 0.188D+00 0.287D+00 0.159D+00 0.101D+01
 Coeff-Com: -0.600D+00 0.758D-03
 Coeff:     -0.849D-08 0.241D-06 0.227D-05 0.101D-04 0.175D-05-0.441D-04
 Coeff:     -0.109D-03 0.282D-04 0.643D-03 0.105D-02-0.538D-03-0.791D-02
 Coeff:     -0.308D-01-0.591D-02 0.188D+00 0.287D+00 0.159D+00 0.101D+01
 Coeff:     -0.600D+00 0.758D-03
 Gap=     0.229 Goal=   None    Shift=    0.000
 RMSDP=3.64D-08 MaxDP=4.60D-06 DE= 6.89D-09 OVMax= 2.67D-09

 Cycle  22  Pass 1  IDiag  1:
 RMSU=  3.64D-08    CP:  1.00D+00
 E= -1955.37328625066     Delta-E=       -0.000000000549 Rises=F Damp=F
 DIIS: error= 9.74D-07 at cycle  22 NSaved=  20.
 NSaved=20 IEnMin=16 EnMin= -1955.37328625733     IErMin=15 ErrMin= 2.77D-08
 ErrMax= 9.74D-07  0.00D+00 EMaxC= 1.00D-01 BMatC= 2.02D-10 BMatP= 4.31D-13
 IDIUse=1 WtCom= 1.00D+00 WtEn= 0.00D+00
 Coeff-Com:  0.229D-06 0.222D-05 0.991D-05 0.187D-05-0.420D-04-0.108D-03
 Coeff-Com:  0.211D-04 0.629D-03 0.106D-02-0.471D-03-0.782D-02-0.309D-01
 Coeff-Com: -0.628D-02 0.187D+00 0.288D+00 0.159D+00 0.101D+01-0.604D+00
 Coeff-Com: -0.107D+00 0.108D+00
 Coeff:      0.229D-06 0.222D-05 0.991D-05 0.187D-05-0.420D-04-0.108D-03
 Coeff:      0.211D-04 0.629D-03 0.106D-02-0.471D-03-0.782D-02-0.309D-01
 Coeff:     -0.628D-02 0.187D+00 0.288D+00 0.159D+00 0.101D+01-0.604D+00
 Coeff:     -0.107D+00 0.108D+00
 Gap=     0.229 Goal=   None    Shift=    0.000
 RMSDP=2.11D-08 MaxDP=1.74D-06 DE=-5.49D-10 OVMax= 1.90D-09

 Cycle  23  Pass 1  IDiag  1:
 RMSU=  1.97D-08    CP:  1.00D+00  1.12D+00
 E= -1955.37328625076     Delta-E=       -0.000000000100 Rises=F Damp=F
 DIIS: error= 9.77D-07 at cycle  23 NSaved=  20.
 NSaved=20 IEnMin=15 EnMin= -1955.37328625733     IErMin=14 ErrMin= 2.77D-08
 ErrMax= 9.77D-07  0.00D+00 EMaxC= 1.00D-01 BMatC= 2.03D-10 BMatP= 4.31D-13
 IDIUse=1 WtCom= 1.00D+00 WtEn= 0.00D+00
 Coeff-Com:  0.135D-05 0.689D-05 0.324D-05-0.125D-04-0.839D-04-0.622D-04
 Coeff-Com:  0.409D-03 0.107D-02 0.406D-03-0.641D-02-0.311D-01-0.106D-01
 Coeff-Com:  0.179D+00 0.290D+00 0.172D+00 0.994D+00-0.590D+00-0.903D-01
 Coeff-Com:  0.253D+00-0.161D+00
 Coeff:      0.135D-05 0.689D-05 0.324D-05-0.125D-04-0.839D-04-0.622D-04
 Coeff:      0.409D-03 0.107D-02 0.406D-03-0.641D-02-0.311D-01-0.106D-01
 Coeff:      0.179D+00 0.290D+00 0.172D+00 0.994D+00-0.590D+00-0.903D-01
 Coeff:      0.253D+00-0.161D+00
 Gap=     0.229 Goal=   None    Shift=    0.000
 RMSDP=3.63D-08 MaxDP=3.32D-06 DE=-1.00D-10 OVMax= 6.00D-09

 Cycle  24  Pass 1  IDiag  1:
 RMSU=  3.44D-08    CP:  1.00D+00  1.08D+00  5.92D-01
 E= -1955.37328625097     Delta-E=       -0.000000000212 Rises=F Damp=F
 DIIS: error= 9.75D-07 at cycle  24 NSaved=  20.
 NSaved=20 IEnMin=14 EnMin= -1955.37328625733     IErMin=13 ErrMin= 2.77D-08
 ErrMax= 9.75D-07  0.00D+00 EMaxC= 1.00D-01 BMatC= 2.03D-10 BMatP= 4.31D-13
 IDIUse=1 WtCom= 1.00D+00 WtEn= 0.00D+00
 Coeff-Com:  0.185D-05 0.510D-06-0.173D-04-0.507D-04 0.160D-03 0.342D-03
 Coeff-Com:  0.587D-06-0.158D-02-0.609D-02-0.138D-01 0.103D-01 0.146D+00
 Coeff-Com:  0.222D+00 0.208D+00 0.105D+01-0.616D+00-0.362D-01 0.219D+00
 Coeff-Com: -0.244D-01-0.158D+00
 Coeff:      0.185D-05 0.510D-06-0.173D-04-0.507D-04 0.160D-03 0.342D-03
 Coeff:      0.587D-06-0.158D-02-0.609D-02-0.138D-01 0.103D-01 0.146D+00
 Coeff:      0.222D+00 0.208D+00 0.105D+01-0.616D+00-0.362D-01 0.219D+00
 Coeff:     -0.244D-01-0.158D+00
 Gap=     0.229 Goal=   None    Shift=    0.000
 RMSDP=5.45D-08 MaxDP=5.33D-06 DE=-2.12D-10 OVMax= 3.48D-08

 Cycle  25  Pass 1  IDiag  1:
 RMSU=  5.04D-08    CP:  1.00D+00  1.32D+00  1.13D+00  1.35D+00
 E= -1955.37328625133     Delta-E=       -0.000000000360 Rises=F Damp=F
 DIIS: error= 9.77D-07 at cycle  25 NSaved=  20.
 NSaved=20 IEnMin=13 EnMin= -1955.37328625733     IErMin=12 ErrMin= 2.77D-08
 ErrMax= 9.77D-07  0.00D+00 EMaxC= 1.00D-01 BMatC= 2.03D-10 BMatP= 4.31D-13
 IDIUse=1 WtCom= 1.00D+00 WtEn= 0.00D+00
 Coeff-Com: -0.127D-05-0.149D-04-0.393D-04 0.182D-03 0.311D-03-0.109D-03
 Coeff-Com: -0.168D-02-0.588D-02-0.122D-01 0.115D-01 0.143D+00 0.219D+00
 Coeff-Com:  0.208D+00 0.104D+01-0.600D+00-0.643D-01 0.172D+00 0.168D-01
 Coeff-Com: -0.422D-01-0.813D-01
 Coeff:     -0.127D-05-0.149D-04-0.393D-04 0.182D-03 0.311D-03-0.109D-03
 Coeff:     -0.168D-02-0.588D-02-0.122D-01 0.115D-01 0.143D+00 0.219D+00
 Coeff:      0.208D+00 0.104D+01-0.600D+00-0.643D-01 0.172D+00 0.168D-01
 Coeff:     -0.422D-01-0.813D-01
 Gap=     0.229 Goal=   None    Shift=    0.000
 RMSDP=1.57D-08 MaxDP=1.11D-06 DE=-3.60D-10 OVMax= 4.19D-09

 Cycle  26  Pass 1  IDiag  1:
 RMSU=  1.24D-08    CP:  1.00D+00  1.36D+00  8.95D-01  1.59D+00  9.79D-01
 E= -1955.37328625120     Delta-E=        0.000000000137 Rises=F Damp=F
 DIIS: error= 9.80D-07 at cycle  26 NSaved=  20.
 NSaved=20 IEnMin=12 EnMin= -1955.37328625733     IErMin=11 ErrMin= 2.77D-08
 ErrMax= 9.80D-07  0.00D+00 EMaxC= 1.00D-01 BMatC= 2.04D-10 BMatP= 4.31D-13
 IDIUse=1 WtCom= 1.00D+00 WtEn= 0.00D+00
 Coeff-Com: -0.113D-04-0.399D-04 0.167D-03 0.299D-03-0.890D-04-0.161D-02
 Coeff-Com: -0.580D-02-0.122D-01 0.113D-01 0.140D+00 0.214D+00 0.207D+00
 Coeff-Com:  0.104D+01-0.596D+00-0.406D-01 0.990D-01 0.107D+00-0.747D-01
 Coeff-Com: -0.250D+00 0.161D+00
 Coeff:     -0.113D-04-0.399D-04 0.167D-03 0.299D-03-0.890D-04-0.161D-02
 Coeff:     -0.580D-02-0.122D-01 0.113D-01 0.140D+00 0.214D+00 0.207D+00
 Coeff:      0.104D+01-0.596D+00-0.406D-01 0.990D-01 0.107D+00-0.747D-01
 Coeff:     -0.250D+00 0.161D+00
 Gap=     0.229 Goal=   None    Shift=    0.000
 RMSDP=3.68D-08 MaxDP=4.12D-06 DE= 1.37D-10 OVMax= 7.21D-09

 Cycle  27  Pass 1  IDiag  1:
 RMSU=  3.52D-08    CP:  1.00D+00  1.55D+00  5.27D-01  1.67D+00  9.09D-01
                    CP:  1.04D+00
 E= -1955.37328625117     Delta-E=        0.000000000024 Rises=F Damp=F
 DIIS: error= 9.77D-07 at cycle  27 NSaved=  20.
 NSaved=20 IEnMin=11 EnMin= -1955.37328625733     IErMin=10 ErrMin= 2.77D-08
 ErrMax= 9.77D-07  0.00D+00 EMaxC= 1.00D-01 BMatC= 2.03D-10 BMatP= 4.31D-13
 IDIUse=1 WtCom= 1.00D+00 WtEn= 0.00D+00
 Coeff-Com: -0.339D-04 0.129D-03 0.195D-03-0.736D-04-0.112D-02-0.500D-02
 Coeff-Com: -0.119D-01 0.979D-02 0.136D+00 0.214D+00 0.213D+00 0.104D+01
 Coeff-Com: -0.599D+00-0.242D-01 0.875D-01 0.118D+00-0.109D+00-0.239D+00
 Coeff-Com:  0.131D+00 0.372D-01
 Coeff:     -0.339D-04 0.129D-03 0.195D-03-0.736D-04-0.112D-02-0.500D-02
 Coeff:     -0.119D-01 0.979D-02 0.136D+00 0.214D+00 0.213D+00 0.104D+01
 Coeff:     -0.599D+00-0.242D-01 0.875D-01 0.118D+00-0.109D+00-0.239D+00
 Coeff:      0.131D+00 0.372D-01
 Gap=     0.229 Goal=   None    Shift=    0.000
 RMSDP=7.52D-09 MaxDP=9.88D-07 DE= 2.36D-11 OVMax= 9.63D-09

 SCF Done:  E(RwB97XD) =  -1955.37328625     A.U. after   27 cycles
            NFock= 27  Conv=0.75D-08     -V/T= 2.0046
 KE= 1.946454362765D+03 PE=-1.426362269222D+04 EE= 5.507256328767D+03
 Leave Link  502 at Sun Nov  5 16:17:19 2017, MaxMem=  3758096384 cpu:     26283.8
 (Enter /share/apps/gaussian/g09_D01/g09/l801.exe)
 DoSCS=F DFT=T ScalE2(SS,OS)=  1.000000  1.000000
 ExpMin= 3.60D-02 ExpMax= 8.59D+03 ExpMxC= 1.30D+03 IAcc=3 IRadAn=         5 AccDes= 0.00D+00
 HarFok:  IExCor=  205 AccDes= 0.00D+00 IRadAn=         5 IDoV=-2 UseB2=F ITyADJ=14
 ICtDFT= 12500011 ScaDFX=  1.000000  1.000000  1.000000  1.000000
 Largest valence mixing into a core orbital is  5.70D-05
 Largest core mixing into a valence orbital is  1.59D-05
 Range of M.O.s used for correlation:    45  1217
 NBasis=  1234 NAE=   158 NBE=   158 NFC=    44 NFV=     0
 NROrb=   1173 NOA=   114 NOB=   114 NVA=  1059 NVB=  1059

 **** Warning!!: The largest alpha MO coefficient is  0.98770762D+02

 Leave Link  801 at Sun Nov  5 16:17:22 2017, MaxMem=  3758096384 cpu:         6.9
 (Enter /share/apps/gaussian/g09_D01/g09/l914.exe)
 RHF ground state
 MDV=  3758096384 DFT=T DoStab=F Mixed=T DoRPA=T DoScal=F NonHer=T
 Would need an additional       1739199500000 words for in-memory AO integral storage.
 Making orbital integer symmetry assigments:
    16 initial guesses have been made.
 Convergence on wavefunction:    0.001000000000000
 Davidson Disk Diagonalization:  ConvIn= 1.00D-03 SkipCon=T Conv= 1.00D-03.
 Max sub-space:   200 roots to seek:    16 dimension of matrix:       241452
 Iteration     1 Dimension    16 NMult     0 NNew     16
 CISAX will form    16 AO SS matrices at one time.
 NMat=    16 NSing=    16 JSym2X= 0.
 FoFJK:  IHMeth= 1 ICntrl=       0 DoSepK=T KAlg= 0 I1Cent=   0 FoldK=F
 IRaf=         1 NMat=  32 IRICut=       1 DoRegI=T DoRafI=F ISym2E= 0.
 FoFCou: FMM=T IPFlag=           0 FMFlag=      100000 FMFlg1=        2001
         NFxFlg=           0 DoJE=F BraDBF=F KetDBF=F FulRan=T
         wScrn=  0.000000 ICntrl=     500 IOpCl=  0 I1Cent=           0 NGrid=           0
         NMat0=   16 NMatS0=     16 NMatT0=    0 NMatD0=   16 NMtDS0=    0 NMtDT0=    0
 Symmetry not used in FoFCou.
 FMM levels:  10  Number of levels for PrismC:   9
 New state      1 was old state      2
 New state      2 was old state      3
 New state      3 was old state      1
 New state      4 was old state      6
 Excitation Energies [eV] at current iteration:
 Root      1 :     3.715147473399400
 Root      2 :     3.760417561853125
 Root      3 :     4.065229374933264
 Root      4 :     4.305403843699881
 Root      5 :     4.430176613482388
 Root      6 :     4.477271458246993
 Root      7 :     5.237340429489117
 Root      8 :     5.615054911079251
 Root      9 :     5.631472686513225
 Root     10 :     5.667209919535710
 Root     11 :     5.758922374155602
 Root     12 :     5.808125175399050
 Root     13 :     6.106379989210645
 Root     14 :     6.295911693242400
 Root     15 :     6.353938079533989
 Root     16 :     6.505470270252647
 Iteration     2 Dimension    24 NMult    16 NNew      8
 CISAX will form     8 AO SS matrices at one time.
 NMat=     8 NSing=     8 JSym2X= 0.
 Root      1 not converged, maximum delta is    0.090956195233579
 Root      2 not converged, maximum delta is    0.090547366329350
 New state      3 was old state      4
 Root      3 not converged, maximum delta is    0.101504843679996
 New state      4 was old state      3
 Root      4 not converged, maximum delta is    0.077932295575389
 Excitation Energies [eV] at current iteration:
 Root      1 :     3.191239804484796   Change is   -0.523907668914604
 Root      2 :     3.258599510871502   Change is   -0.501818050981623
 Root      3 :     3.648786376229547   Change is   -0.656617467470334
 Root      4 :     4.010561418349992   Change is   -0.054667956583272
 Iteration     3 Dimension    32 NMult    24 NNew      8
 CISAX will form     8 AO SS matrices at one time.
 NMat=     8 NSing=     8 JSym2X= 0.
