 Entering Gaussian System, Link 0=g09
 Input=2hc_5_rel-mega_dimer_1.com
 Output=2hc_5_rel-mega_dimer_1.out
 Initial command:
 /share/apps/gaussian/g09_D01/g09/l1.exe "/tmp/160970.1.all.q/Gau-10541.inp" -scrdir="/tmp/160970.1.all.q/"
 Entering Link 1 = /share/apps/gaussian/g09_D01/g09/l1.exe PID=     10542.
  
 Copyright (c) 1988,1990,1992,1993,1995,1998,2003,2009,2013,
            Gaussian, Inc.  All Rights Reserved.
  
 This is part of the Gaussian(R) 09 program.  It is based on
 the Gaussian(R) 03 system (copyright 2003, Gaussian, Inc.),
 the Gaussian(R) 98 system (copyright 1998, Gaussian, Inc.),
 the Gaussian(R) 94 system (copyright 1995, Gaussian, Inc.),
 the Gaussian 92(TM) system (copyright 1992, Gaussian, Inc.),
 the Gaussian 90(TM) system (copyright 1990, Gaussian, Inc.),
 the Gaussian 88(TM) system (copyright 1988, Gaussian, Inc.),
 the Gaussian 86(TM) system (copyright 1986, Carnegie Mellon
 University), and the Gaussian 82(TM) system (copyright 1983,
 Carnegie Mellon University). Gaussian is a federally registered
 trademark of Gaussian, Inc.
  
 This software contains proprietary and confidential information,
 including trade secrets, belonging to Gaussian, Inc.
  
 This software is provided under written license and may be
 used, copied, transmitted, or stored only in accord with that
 written license.
  
 The following legend is applicable only to US Government
 contracts under FAR:
  
                    RESTRICTED RIGHTS LEGEND
  
 Use, reproduction and disclosure by the US Government is
 subject to restrictions as set forth in subparagraphs (a)
 and (c) of the Commercial Computer Software - Restricted
 Rights clause in FAR 52.227-19.
  
 Gaussian, Inc.
 340 Quinnipiac St., Bldg. 40, Wallingford CT 06492
  
  
 ---------------------------------------------------------------
 Warning -- This program may not be used in any manner that
 competes with the business of Gaussian, Inc. or will provide
 assistance to any competitor of Gaussian, Inc.  The licensee
 of this program is prohibited from giving any competitor of
 Gaussian, Inc. access to this program.  By using this program,
 the user acknowledges that Gaussian, Inc. is engaged in the
 business of creating and licensing software in the field of
 computational chemistry and represents and warrants to the
 licensee that it is not a competitor of Gaussian, Inc. and that
 it will not use this program in any manner prohibited above.
 ---------------------------------------------------------------
  

 Cite this work as:
 Gaussian 09, Revision D.01,
 M. J. Frisch, G. W. Trucks, H. B. Schlegel, G. E. Scuseria, 
 M. A. Robb, J. R. Cheeseman, G. Scalmani, V. Barone, B. Mennucci, 
 G. A. Petersson, H. Nakatsuji, M. Caricato, X. Li, H. P. Hratchian, 
 A. F. Izmaylov, J. Bloino, G. Zheng, J. L. Sonnenberg, M. Hada, 
 M. Ehara, K. Toyota, R. Fukuda, J. Hasegawa, M. Ishida, T. Nakajima, 
 Y. Honda, O. Kitao, H. Nakai, T. Vreven, J. A. Montgomery, Jr., 
 J. E. Peralta, F. Ogliaro, M. Bearpark, J. J. Heyd, E. Brothers, 
 K. N. Kudin, V. N. Staroverov, T. Keith, R. Kobayashi, J. Normand, 
 K. Raghavachari, A. Rendell, J. C. Burant, S. S. Iyengar, J. Tomasi, 
 M. Cossi, N. Rega, J. M. Millam, M. Klene, J. E. Knox, J. B. Cross, 
 V. Bakken, C. Adamo, J. Jaramillo, R. Gomperts, R. E. Stratmann, 
 O. Yazyev, A. J. Austin, R. Cammi, C. Pomelli, J. W. Ochterski, 
 R. L. Martin, K. Morokuma, V. G. Zakrzewski, G. A. Voth, 
 P. Salvador, J. J. Dannenberg, S. Dapprich, A. D. Daniels, 
 O. Farkas, J. B. Foresman, J. V. Ortiz, J. Cioslowski, 
 and D. J. Fox, Gaussian, Inc., Wallingford CT, 2013.
 
 ******************************************
 Gaussian 09:  ES64L-G09RevD.01 24-Apr-2013
                 3-Nov-2017 
 ******************************************
 %chk=2hc_5_rel-mega_dimer_1.chk
 %nproc=4
 Will use up to    4 processors via shared memory.
 %mem=28GB
 ------------------------------------------
 #p wb97xd 6-311++G** td=(nstates=4) nosymm
 ------------------------------------------
 1/38=1/1;
 2/12=2,15=1,17=6,18=5,40=1/2;
 3/5=4,6=6,7=1111,11=9,16=1,25=1,30=1,74=-58/1,2,8,3;
 4//1;
 5/5=2,38=5/2;
 8/6=1,10=2,108=4/1;
 9/41=4,42=1,70=2/14;
 6/7=2,8=2,9=2,10=2/1;
 99/5=1,9=1/99;
 Leave Link    1 at Fri Nov  3 19:24:12 2017, MaxMem=  3758096384 cpu:         0.2
 (Enter /share/apps/gaussian/g09_D01/g09/l101.exe)
 -----
 Title
 -----
 Symbolic Z-matrix:
 Charge =  0 Multiplicity = 1
 C                    -3.08543  -3.5461   -18.68995 
 C                    -3.80324  -3.17836  -17.53914 
 H                    -3.55841  -3.54217  -19.66986 
 C                    -1.75673  -3.9336   -18.58781 
 C                    -3.15957  -3.18389  -16.30727 
 O                    -5.13214  -2.82104  -17.53855 
 C                    -1.10146  -3.95662  -17.35037 
 H                    -1.21197  -4.24967  -19.47764 
 H                    -3.74178  -2.8931   -15.43547 
 C                    -1.81054  -3.56391  -16.17553 
 C                    -5.84534  -2.99713  -18.7714 
 O                     0.19024  -4.34489  -17.29554 
 C                    -1.11605  -3.6018   -14.87789 
 H                    -5.69989  -4.01635  -19.16372 
 H                    -6.90346  -2.85221  -18.52859 
 H                    -5.52076  -2.25766  -19.51895 
 H                     0.4093   -4.28454  -16.28467 
 C                    -1.80111  -3.22804  -13.6636 
 O                     0.10994  -3.9724   -14.85544 
 H                    -2.79678  -2.79831  -13.74204 
 C                    -1.2233   -3.3741   -12.43766 
 C                    -1.75153  -3.00081  -11.1612 
 H                    -0.22227  -3.81598  -12.42403 
 C                    -3.02812  -2.42879  -10.95552 
 C                    -0.94632  -3.18974  -10.01714 
 C                    -3.45067  -2.04258  -9.70373 
 H                    -3.70009  -2.28765  -11.80329 
 C                    -1.33978  -2.78639  -8.75963 
 H                     0.02422  -3.66911  -10.13558 
 C                    -2.60382  -2.17483  -8.56757 
 H                    -4.45161  -1.63686  -9.58438 
 H                    -0.67412  -2.95434  -7.91672 
 N                    -2.99041  -1.72598  -7.33906 
 C                    -4.28789  -1.09758  -7.15244 
 C                    -2.08975  -1.85136  -6.20528 
 H                    -5.11237  -1.82038  -7.27069 
 H                    -4.33477  -0.67405  -6.14554 
 H                    -4.43085  -0.27374  -7.86829 
 H                    -1.13191  -1.34478  -6.40445 
 H                    -2.54634  -1.38739  -5.32751 
 H                    -1.88453  -2.90944  -5.97265 
 C                    -1.43725   1.73739  -5.09002 
 C                    -2.09252   1.76041  -6.32745 
 H                    -1.98202   2.05346  -4.20018 
 C                    -0.10855   1.34989  -4.98787 
 C                    -1.38344   1.36771  -7.50229 
 O                    -3.38422   2.14868  -6.38228 
 C                     0.60926   0.98216  -6.13868 
 H                     0.36443   1.34596  -4.00796 
 C                    -2.07793   1.4056   -8.79993 
 C                    -0.03441   0.98768  -7.37056 
 H                    -3.60328   2.08833  -7.39315 
 O                     1.93816   0.62483  -6.13927 
 C                    -1.39287   1.03184  -10.01422 
 O                    -3.30392   1.77619  -8.82238 
 H                     0.5478    0.69689  -8.24235 
 C                     2.65136   0.80092  -4.90642 
 C                    -1.97069   1.17789  -11.24016 
 H                    -0.3972    0.60211  -9.93578 
 H                     2.5059    1.82014  -4.5141 
 H                     3.70948   0.656    -5.14923 
 H                     2.32678   0.06146  -4.15888 
 C                    -1.44246   0.80461  -12.51662 
 H                    -2.97172   1.61977  -11.2538 
 C                    -2.24766   0.99354  -13.66069 
 C                    -0.16586   0.23258  -12.7223 
 C                    -1.8542    0.59018  -14.9182 
 H                    -3.2182    1.4729   -13.54224 
 C                     0.25669  -0.15363  -13.97409 
 H                     0.50611   0.09145  -11.87453 
 H                    -2.51986   0.75814  -15.7611 
 C                    -0.59016  -0.02138  -15.11025 
 H                     1.25763  -0.55935  -14.09344 
 N                    -0.20358  -0.47023  -16.33876 
 C                     1.09391  -1.09863  -16.52538 
 C                    -1.10423  -0.34485  -17.47254 
 H                     1.23687  -1.92247  -15.80953 
 H                     1.91839  -0.37583  -16.40713 
 H                     1.14079  -1.52216  -17.53228 
 H                    -2.06207  -0.85143  -17.27337 
 H                    -0.64764  -0.80881  -18.35031 
 H                    -1.30945   0.71323  -17.70517 
 
 NAtoms=     82 NQM=       82 NQMF=       0 NMMI=      0 NMMIF=      0
                NMic=       0 NMicF=      0.
                    Isotopes and Nuclear Properties:
 (Nuclear quadrupole moments (NQMom) in fm**2, nuclear magnetic moments (NMagM)
  in nuclear magnetons)

  Atom         1           2           3           4           5           6           7           8           9          10
 IAtWgt=          12          12           1          12          12          16          12           1           1          12
 AtmWgt=  12.0000000  12.0000000   1.0078250  12.0000000  12.0000000  15.9949146  12.0000000   1.0078250   1.0078250  12.0000000
 NucSpn=           0           0           1           0           0           0           0           1           1           0
 AtZEff=   0.0000000   0.0000000   0.0000000   0.0000000   0.0000000   0.0000000   0.0000000   0.0000000   0.0000000   0.0000000
 NQMom=    0.0000000   0.0000000   0.0000000   0.0000000   0.0000000   0.0000000   0.0000000   0.0000000   0.0000000   0.0000000
 NMagM=    0.0000000   0.0000000   2.7928460   0.0000000   0.0000000   0.0000000   0.0000000   2.7928460   2.7928460   0.0000000
 AtZNuc=   6.0000000   6.0000000   1.0000000   6.0000000   6.0000000   8.0000000   6.0000000   1.0000000   1.0000000   6.0000000

  Atom        11          12          13          14          15          16          17          18          19          20
 IAtWgt=          12          16          12           1           1           1           1          12          16           1
 AtmWgt=  12.0000000  15.9949146  12.0000000   1.0078250   1.0078250   1.0078250   1.0078250  12.0000000  15.9949146   1.0078250
 NucSpn=           0           0           0           1           1           1           1           0           0           1
 AtZEff=   0.0000000   0.0000000   0.0000000   0.0000000   0.0000000   0.0000000   0.0000000   0.0000000   0.0000000   0.0000000
 NQMom=    0.0000000   0.0000000   0.0000000   0.0000000   0.0000000   0.0000000   0.0000000   0.0000000   0.0000000   0.0000000
 NMagM=    0.0000000   0.0000000   0.0000000   2.7928460   2.7928460   2.7928460   2.7928460   0.0000000   0.0000000   2.7928460
 AtZNuc=   6.0000000   8.0000000   6.0000000   1.0000000   1.0000000   1.0000000   1.0000000   6.0000000   8.0000000   1.0000000

  Atom        21          22          23          24          25          26          27          28          29          30
 IAtWgt=          12          12           1          12          12          12           1          12           1          12
 AtmWgt=  12.0000000  12.0000000   1.0078250  12.0000000  12.0000000  12.0000000   1.0078250  12.0000000   1.0078250  12.0000000
 NucSpn=           0           0           1           0           0           0           1           0           1           0
 AtZEff=   0.0000000   0.0000000   0.0000000   0.0000000   0.0000000   0.0000000   0.0000000   0.0000000   0.0000000   0.0000000
 NQMom=    0.0000000   0.0000000   0.0000000   0.0000000   0.0000000   0.0000000   0.0000000   0.0000000   0.0000000   0.0000000
 NMagM=    0.0000000   0.0000000   2.7928460   0.0000000   0.0000000   0.0000000   2.7928460   0.0000000   2.7928460   0.0000000
 AtZNuc=   6.0000000   6.0000000   1.0000000   6.0000000   6.0000000   6.0000000   1.0000000   6.0000000   1.0000000   6.0000000

  Atom        31          32          33          34          35          36          37          38          39          40
 IAtWgt=           1           1          14          12          12           1           1           1           1           1
 AtmWgt=   1.0078250   1.0078250  14.0030740  12.0000000  12.0000000   1.0078250   1.0078250   1.0078250   1.0078250   1.0078250
 NucSpn=           1           1           2           0           0           1           1           1           1           1
 AtZEff=   0.0000000   0.0000000   0.0000000   0.0000000   0.0000000   0.0000000   0.0000000   0.0000000   0.0000000   0.0000000
 NQMom=    0.0000000   0.0000000   2.0440000   0.0000000   0.0000000   0.0000000   0.0000000   0.0000000   0.0000000   0.0000000
 NMagM=    2.7928460   2.7928460   0.4037610   0.0000000   0.0000000   2.7928460   2.7928460   2.7928460   2.7928460   2.7928460
 AtZNuc=   1.0000000   1.0000000   7.0000000   6.0000000   6.0000000   1.0000000   1.0000000   1.0000000   1.0000000   1.0000000

  Atom        41          42          43          44          45          46          47          48          49          50
 IAtWgt=           1          12          12           1          12          12          16          12           1          12
 AtmWgt=   1.0078250  12.0000000  12.0000000   1.0078250  12.0000000  12.0000000  15.9949146  12.0000000   1.0078250  12.0000000
 NucSpn=           1           0           0           1           0           0           0           0           1           0
 AtZEff=   0.0000000   0.0000000   0.0000000   0.0000000   0.0000000   0.0000000   0.0000000   0.0000000   0.0000000   0.0000000
 NQMom=    0.0000000   0.0000000   0.0000000   0.0000000   0.0000000   0.0000000   0.0000000   0.0000000   0.0000000   0.0000000
 NMagM=    2.7928460   0.0000000   0.0000000   2.7928460   0.0000000   0.0000000   0.0000000   0.0000000   2.7928460   0.0000000
 AtZNuc=   1.0000000   6.0000000   6.0000000   1.0000000   6.0000000   6.0000000   8.0000000   6.0000000   1.0000000   6.0000000

  Atom        51          52          53          54          55          56          57          58          59          60
 IAtWgt=          12           1          16          12          16           1          12          12           1           1
 AtmWgt=  12.0000000   1.0078250  15.9949146  12.0000000  15.9949146   1.0078250  12.0000000  12.0000000   1.0078250   1.0078250
 NucSpn=           0           1           0           0           0           1           0           0           1           1
 AtZEff=   0.0000000   0.0000000   0.0000000   0.0000000   0.0000000   0.0000000   0.0000000   0.0000000   0.0000000   0.0000000
 NQMom=    0.0000000   0.0000000   0.0000000   0.0000000   0.0000000   0.0000000   0.0000000   0.0000000   0.0000000   0.0000000
 NMagM=    0.0000000   2.7928460   0.0000000   0.0000000   0.0000000   2.7928460   0.0000000   0.0000000   2.7928460   2.7928460
 AtZNuc=   6.0000000   1.0000000   8.0000000   6.0000000   8.0000000   1.0000000   6.0000000   6.0000000   1.0000000   1.0000000

  Atom        61          62          63          64          65          66          67          68          69          70
 IAtWgt=           1           1          12           1          12          12          12           1          12           1
 AtmWgt=   1.0078250   1.0078250  12.0000000   1.0078250  12.0000000  12.0000000  12.0000000   1.0078250  12.0000000   1.0078250
 NucSpn=           1           1           0           1           0           0           0           1           0           1
 AtZEff=   0.0000000   0.0000000   0.0000000   0.0000000   0.0000000   0.0000000   0.0000000   0.0000000   0.0000000   0.0000000
 NQMom=    0.0000000   0.0000000   0.0000000   0.0000000   0.0000000   0.0000000   0.0000000   0.0000000   0.0000000   0.0000000
 NMagM=    2.7928460   2.7928460   0.0000000   2.7928460   0.0000000   0.0000000   0.0000000   2.7928460   0.0000000   2.7928460
 AtZNuc=   1.0000000   1.0000000   6.0000000   1.0000000   6.0000000   6.0000000   6.0000000   1.0000000   6.0000000   1.0000000

  Atom        71          72          73          74          75          76          77          78          79          80
 IAtWgt=           1          12           1          14          12          12           1           1           1           1
 AtmWgt=   1.0078250  12.0000000   1.0078250  14.0030740  12.0000000  12.0000000   1.0078250   1.0078250   1.0078250   1.0078250
 NucSpn=           1           0           1           2           0           0           1           1           1           1
 AtZEff=   0.0000000   0.0000000   0.0000000   0.0000000   0.0000000   0.0000000   0.0000000   0.0000000   0.0000000   0.0000000
 NQMom=    0.0000000   0.0000000   0.0000000   2.0440000   0.0000000   0.0000000   0.0000000   0.0000000   0.0000000   0.0000000
 NMagM=    2.7928460   0.0000000   2.7928460   0.4037610   0.0000000   0.0000000   2.7928460   2.7928460   2.7928460   2.7928460
 AtZNuc=   1.0000000   6.0000000   1.0000000   7.0000000   6.0000000   6.0000000   1.0000000   1.0000000   1.0000000   1.0000000

  Atom        81          82
 IAtWgt=           1           1
 AtmWgt=   1.0078250   1.0078250
 NucSpn=           1           1
 AtZEff=   0.0000000   0.0000000
 NQMom=    0.0000000   0.0000000
 NMagM=    2.7928460   2.7928460
 AtZNuc=   1.0000000   1.0000000
 Leave Link  101 at Fri Nov  3 19:24:12 2017, MaxMem=  3758096384 cpu:         0.4
 (Enter /share/apps/gaussian/g09_D01/g09/l202.exe)
 Symmetry turned off by external request.
 Stoichiometry    C36H38N2O6
 Framework group  CI[X(C36H38N2O6)]
 Deg. of freedom   120
 Full point group                 CI      NOp   2
                          Input orientation:                          
 ---------------------------------------------------------------------
 Center     Atomic      Atomic             Coordinates (Angstroms)
 Number     Number       Type             X           Y           Z
 ---------------------------------------------------------------------
      1          6           0       -3.085431   -3.546101  -18.689950
      2          6           0       -3.803236   -3.178364  -17.539139
      3          1           0       -3.558414   -3.542171  -19.669863
      4          6           0       -1.756731   -3.933599  -18.587806
      5          6           0       -3.159572   -3.183886  -16.307265
      6          8           0       -5.132139   -2.821035  -17.538551
      7          6           0       -1.101463   -3.956620  -17.350372
      8          1           0       -1.211966   -4.249670  -19.477640
      9          1           0       -3.741779   -2.893099  -15.435471
     10          6           0       -1.810542   -3.563913  -16.175530
     11          6           0       -5.845340   -2.997131  -18.771402
     12          8           0        0.190242   -4.344893  -17.295538
     13          6           0       -1.116053   -3.601804  -14.877891
     14          1           0       -5.699885   -4.016350  -19.163720
     15          1           0       -6.903456   -2.852205  -18.528593
     16          1           0       -5.520759   -2.257664  -19.518946
     17          1           0        0.409302   -4.284539  -16.284674
     18          6           0       -1.801113   -3.228043  -13.663599
     19          8           0        0.109940   -3.972397  -14.855443
     20          1           0       -2.796781   -2.798314  -13.742041
     21          6           0       -1.223295   -3.374099  -12.437663
     22          6           0       -1.751526   -3.000815  -11.161204
     23          1           0       -0.222266   -3.815979  -12.424026
     24          6           0       -3.028120   -2.428791  -10.955517
     25          6           0       -0.946318   -3.189744  -10.017136
     26          6           0       -3.450669   -2.042579   -9.703733
     27          1           0       -3.700091   -2.287654  -11.803292
     28          6           0       -1.339780   -2.786392   -8.759626
     29          1           0        0.024222   -3.669107  -10.135581
     30          6           0       -2.603820   -2.174831   -8.567571
     31          1           0       -4.451614   -1.636857   -9.584384
     32          1           0       -0.674120   -2.954344   -7.916723
     33          7           0       -2.990406   -1.725978   -7.339064
     34          6           0       -4.287887   -1.097580   -7.152439
     35          6           0       -2.089753   -1.851358   -6.205278
     36          1           0       -5.112373   -1.820376   -7.270690
     37          1           0       -4.334769   -0.674045   -6.145539
     38          1           0       -4.430849   -0.273741   -7.868291
     39          1           0       -1.131914   -1.344777   -6.404447
     40          1           0       -2.546339   -1.387393   -5.327513
     41          1           0       -1.884530   -2.909439   -5.972648
     42          6           0       -1.437250    1.737391   -5.090015
     43          6           0       -2.092518    1.760412   -6.327449
     44          1           0       -1.982015    2.053463   -4.200181
     45          6           0       -0.108550    1.349894   -4.987871
     46          6           0       -1.383439    1.367706   -7.502291
     47          8           0       -3.384223    2.148685   -6.382283
     48          6           0        0.609255    0.982157   -6.138682
     49          1           0        0.364433    1.345964   -4.007958
     50          6           0       -2.077928    1.405596   -8.799930
     51          6           0       -0.034409    0.987679   -7.370556
     52          1           0       -3.603283    2.088332   -7.393147
     53          8           0        1.938158    0.624828   -6.139270
     54          6           0       -1.392868    1.031835  -10.014222
     55          8           0       -3.303921    1.776190   -8.822378
     56          1           0        0.547798    0.696891   -8.242350
     57          6           0        2.651358    0.800924   -4.906419
     58          6           0       -1.970686    1.177892  -11.240158
     59          1           0       -0.397200    0.602107   -9.935780
     60          1           0        2.505904    1.820143   -4.514101
     61          1           0        3.709475    0.655998   -5.149228
     62          1           0        2.326778    0.061456   -4.158875
     63          6           0       -1.442455    0.804607  -12.516617
     64          1           0       -2.971715    1.619772  -11.253795
     65          6           0       -2.247663    0.993537  -13.660685
     66          6           0       -0.165861    0.232584  -12.722303
     67          6           0       -1.854201    0.590184  -14.918195
     68          1           0       -3.218203    1.472900  -13.542240
     69          6           0        0.256689   -0.153628  -13.974088
     70          1           0        0.506110    0.091446  -11.874529
     71          1           0       -2.519861    0.758137  -15.761098
     72          6           0       -0.590160   -0.021376  -15.110249
     73          1           0        1.257633   -0.559351  -14.093437
     74          7           0       -0.203575   -0.470229  -16.338756
     75          6           0        1.093907   -1.098627  -16.525381
     76          6           0       -1.104228   -0.344850  -17.472543
     77          1           0        1.236868   -1.922466  -15.809531
     78          1           0        1.918393   -0.375831  -16.407131
     79          1           0        1.140789   -1.522162  -17.532281
     80          1           0       -2.062067   -0.851431  -17.273374
     81          1           0       -0.647642   -0.808814  -18.350308
     82          1           0       -1.309451    0.713232  -17.705173
 ---------------------------------------------------------------------
 Rotational constants (GHZ):      0.1525624      0.0345504      0.0336078
 Leave Link  202 at Fri Nov  3 19:24:13 2017, MaxMem=  3758096384 cpu:         0.1
 (Enter /share/apps/gaussian/g09_D01/g09/l301.exe)
 Standard basis: 6-311++G(d,p) (5D, 7F)
 Ernie: Thresh=  0.10000D-02 Tol=  0.10000D-05 Strict=F.
  1234 basis functions,  1926 primitive gaussians,  1278 cartesian basis functions
   158 alpha electrons      158 beta electrons
       nuclear repulsion energy      5258.2383292852 Hartrees.
 IExCor= 4639 DFT=T Ex+Corr=wB97XD ExCW=0 ScaHFX=  1.000000
 ScaDFX=  1.000000  1.000000  1.000000  1.000000 ScalE2=  1.000000  1.000000
 IRadAn=      0 IRanWt=     -1 IRanGd=            0 ICorTp=0 IEmpDi=121
  HFx wShort=  0.000000 wLong=  0.200000 cFull=  0.222036 cShort=  0.000000 cLong=  0.777964
  DFx wShort=  0.000000 wLong=  0.200000 cFull=  0.000000 cShort=  0.000000 cLong=  1.000000
 NAtoms=   82 NActive=   82 NUniq=   82 SFac= 1.00D+00 NAtFMM=   60 NAOKFM=T Big=T
 Integral buffers will be    131072 words long.
 Raffenetti 1 integral format.
 Two-electron integral symmetry is turned off.
 R6Disp:  Grimme-D2 Dispersion energy=       -0.0804673434 Hartrees.
 Nuclear repulsion after empirical dispersion term =     5258.1578619418 Hartrees.
 Leave Link  301 at Fri Nov  3 19:24:13 2017, MaxMem=  3758096384 cpu:         0.1
 (Enter /share/apps/gaussian/g09_D01/g09/l302.exe)
 NPDir=0 NMtPBC=     1 NCelOv=     1 NCel=       1 NClECP=     1 NCelD=      1
         NCelK=      1 NCelE2=     1 NClLst=     1 CellRange=     0.0.
 One-electron integrals computed using PRISM.
 NBasis=  1234 RedAO= T EigKep=  1.07D-06  NBF=  1234
 NBsUse=  1215 1.00D-06 EigRej=  9.83D-07 NBFU=  1215
 Precomputing XC quadrature grid using
 IXCGrd= 4 IRadAn=           0 IRanWt=          -1 IRanGd=           0 AccXCQ= 0.00D+00.
 Generated NRdTot=       0 NPtTot=           0 NUsed=           0 NTot=          32
 NSgBfM=  1128  1129  1134  1134  1134 MxSgAt=    82 MxSgA2=    82.
 Leave Link  302 at Fri Nov  3 19:24:25 2017, MaxMem=  3758096384 cpu:        25.5
 (Enter /share/apps/gaussian/g09_D01/g09/l308.exe)
 Leave Link  308 at Fri Nov  3 19:24:26 2017, MaxMem=  3758096384 cpu:         2.0
 (Enter /share/apps/gaussian/g09_D01/g09/l303.exe)
 DipDrv:  MaxL=1.
 Leave Link  303 at Fri Nov  3 19:24:27 2017, MaxMem=  3758096384 cpu:         1.3
 (Enter /share/apps/gaussian/g09_D01/g09/l401.exe)
 ExpMin= 3.60D-02 ExpMax= 8.59D+03 ExpMxC= 1.30D+03 IAcc=3 IRadAn=         5 AccDes= 0.00D+00
 Harris functional with IExCor= 4639 and IRadAn=       5 diagonalized for initial guess.
 HarFok:  IExCor= 4639 AccDes= 0.00D+00 IRadAn=         5 IDoV= 1 UseB2=F ITyADJ=14
 ICtDFT=  3500011 ScaDFX=  1.000000  1.000000  1.000000  1.000000
 FoFCou: FMM=F IPFlag=           0 FMFlag=      100000 FMFlg1=        2001
         NFxFlg=           0 DoJE=T BraDBF=F KetDBF=T FulRan=T
         wScrn=  0.000000 ICntrl=     500 IOpCl=  0 I1Cent=   200000004 NGrid=           0
         NMat0=    1 NMatS0=      1 NMatT0=    0 NMatD0=    1 NMtDS0=    0 NMtDT0=    0
 Symmetry not used in FoFCou.
 Harris En= -1871.09465352330    
 JPrj=0 DoOrth=F DoCkMO=F.
 Leave Link  401 at Fri Nov  3 19:26:16 2017, MaxMem=  3758096384 cpu:       216.5
 (Enter /share/apps/gaussian/g09_D01/g09/l502.exe)
 Closed shell SCF:
 Using DIIS extrapolation, IDIIS=  1040.
 Two-electron integral symmetry not used.
 IVT=     4933902 IEndB=     4933902 NGot=  3758096384 MDV=  3754813685
 LenX=  3754813685 LenY=  3753179123
 Requested convergence on RMS density matrix=1.00D-08 within 128 cycles.
 Requested convergence on MAX density matrix=1.00D-06.
 Requested convergence on             energy=1.00D-06.
 No special actions if energy rises.
 Fock matrices will be formed incrementally for  20 cycles.

 Cycle   1  Pass 1  IDiag  1:
 FoFJK:  IHMeth= 1 ICntrl=       0 DoSepK=T KAlg= 0 I1Cent=   0 FoldK=F
 IRaf=         1 NMat=   1 IRICut=       1 DoRegI=T DoRafI=F ISym2E= 0.
 FoFCou: FMM=T IPFlag=           0 FMFlag=      100000 FMFlg1=        2001
         NFxFlg=           0 DoJE=T BraDBF=F KetDBF=F FulRan=T
         wScrn=  0.000000 ICntrl=     500 IOpCl=  0 I1Cent=           0 NGrid=           0
         NMat0=    1 NMatS0=      1 NMatT0=    0 NMatD0=    1 NMtDS0=    0 NMtDT0=    0
 Symmetry not used in FoFCou.
 FMM levels:  10  Number of levels for PrismC:   9
 E= -1954.71869415459    
 DIIS: error= 6.17D-02 at cycle   1 NSaved=   1.
 NSaved= 1 IEnMin= 1 EnMin= -1954.71869415459     IErMin= 1 ErrMin= 6.17D-02
 ErrMax= 6.17D-02  0.00D+00 EMaxC= 1.00D-01 BMatC= 4.31D+00 BMatP= 4.31D+00
 IDIUse=3 WtCom= 3.83D-01 WtEn= 6.17D-01
 Coeff-Com:  0.100D+01
 Coeff-En:   0.100D+01
 Coeff:      0.100D+01
 Gap=     0.259 Goal=   None    Shift=    0.000
 GapD=    0.259 DampG=1.000 DampE=0.500 DampFc=0.5000 IDamp=-1.
 Damping current iteration by 5.00D-01
 RMSDP=1.66D-02 MaxDP=3.56D+00              OVMax= 1.79D-01

 Cycle   2  Pass 1  IDiag  1:
 RMSU=  3.54D-03    CP:  8.42D-01
 E= -1955.01805824714     Delta-E=       -0.299364092546 Rises=F Damp=T
 DIIS: error= 2.80D-02 at cycle   2 NSaved=   2.
 NSaved= 2 IEnMin= 2 EnMin= -1955.01805824714     IErMin= 2 ErrMin= 2.80D-02
 ErrMax= 2.80D-02  0.00D+00 EMaxC= 1.00D-01 BMatC= 8.85D-01 BMatP= 4.31D+00
 IDIUse=3 WtCom= 7.20D-01 WtEn= 2.80D-01
 Coeff-Com: -0.521D+00 0.152D+01
 Coeff-En:   0.000D+00 0.100D+01
 Coeff:     -0.376D+00 0.138D+01
 Gap=     0.255 Goal=   None    Shift=    0.000
 RMSDP=1.09D-02 MaxDP=1.80D+00 DE=-2.99D-01 OVMax= 2.30D-01

 Cycle   3  Pass 1  IDiag  1:
 RMSU=  5.57D-03    CP:  6.47D-01  5.51D-01
 E= -1955.13338634382     Delta-E=       -0.115328096678 Rises=F Damp=F
 DIIS: error= 2.33D-02 at cycle   3 NSaved=   3.
 NSaved= 3 IEnMin= 3 EnMin= -1955.13338634382     IErMin= 3 ErrMin= 2.33D-02
 ErrMax= 2.33D-02  0.00D+00 EMaxC= 1.00D-01 BMatC= 3.21D-01 BMatP= 8.85D-01
 IDIUse=3 WtCom= 7.67D-01 WtEn= 2.33D-01
 Coeff-Com: -0.359D+00 0.776D+00 0.583D+00
 Coeff-En:   0.000D+00 0.243D+00 0.757D+00
 Coeff:     -0.275D+00 0.652D+00 0.624D+00
 Gap=     0.250 Goal=   None    Shift=    0.000
 RMSDP=3.99D-03 MaxDP=3.56D-01 DE=-1.15D-01 OVMax= 1.25D-01

 Cycle   4  Pass 1  IDiag  1:
 RMSU=  1.26D-03    CP:  6.16D-01  1.21D+00  5.33D-01
 E= -1955.37423041313     Delta-E=       -0.240844069309 Rises=F Damp=F
 DIIS: error= 5.78D-03 at cycle   4 NSaved=   4.
 NSaved= 4 IEnMin= 4 EnMin= -1955.37423041313     IErMin= 4 ErrMin= 5.78D-03
 ErrMax= 5.78D-03  0.00D+00 EMaxC= 1.00D-01 BMatC= 3.12D-02 BMatP= 3.21D-01
 IDIUse=3 WtCom= 9.42D-01 WtEn= 5.78D-02
 Coeff-Com: -0.141D+00 0.304D+00 0.360D+00 0.477D+00
 Coeff-En:   0.000D+00 0.000D+00 0.380D-01 0.962D+00
 Coeff:     -0.133D+00 0.286D+00 0.341D+00 0.505D+00
 Gap=     0.222 Goal=   None    Shift=    0.000
 RMSDP=9.86D-04 MaxDP=1.04D-01 DE=-2.41D-01 OVMax= 3.16D-02

 Cycle   5  Pass 1  IDiag  1:
 RMSU=  3.90D-04    CP:  6.16D-01  1.07D+00  6.62D-01  7.92D-01
 E= -1955.39987674434     Delta-E=       -0.025646331211 Rises=F Damp=F
 DIIS: error= 1.09D-03 at cycle   5 NSaved=   5.
 NSaved= 5 IEnMin= 5 EnMin= -1955.39987674434     IErMin= 5 ErrMin= 1.09D-03
 ErrMax= 1.09D-03  0.00D+00 EMaxC= 1.00D-01 BMatC= 4.56D-04 BMatP= 3.12D-02
 IDIUse=3 WtCom= 9.89D-01 WtEn= 1.09D-02
 Coeff-Com:  0.166D-01-0.358D-01 0.149D-01 0.157D+00 0.847D+00
 Coeff-En:   0.000D+00 0.000D+00 0.000D+00 0.000D+00 0.100D+01
 Coeff:      0.164D-01-0.354D-01 0.147D-01 0.155D+00 0.849D+00
 Gap=     0.222 Goal=   None    Shift=    0.000
 RMSDP=2.60D-04 MaxDP=2.34D-02 DE=-2.56D-02 OVMax= 1.13D-02

 Cycle   6  Pass 1  IDiag  1:
 RMSU=  2.41D-04    CP:  6.15D-01  1.08D+00  6.67D-01  8.55D-01  9.99D-01
 E= -1955.40050629676     Delta-E=       -0.000629552426 Rises=F Damp=F
 DIIS: error= 5.24D-04 at cycle   6 NSaved=   6.
 NSaved= 6 IEnMin= 6 EnMin= -1955.40050629676     IErMin= 6 ErrMin= 5.24D-04
 ErrMax= 5.24D-04  0.00D+00 EMaxC= 1.00D-01 BMatC= 1.19D-04 BMatP= 4.56D-04
 IDIUse=3 WtCom= 9.95D-01 WtEn= 5.24D-03
 Coeff-Com:  0.240D-01-0.518D-01-0.388D-01-0.314D-02 0.396D+00 0.674D+00
 Coeff-En:   0.000D+00 0.000D+00 0.000D+00 0.000D+00 0.000D+00 0.100D+01
 Coeff:      0.239D-01-0.515D-01-0.386D-01-0.312D-02 0.394D+00 0.675D+00
 Gap=     0.224 Goal=   None    Shift=    0.000
 RMSDP=9.64D-05 MaxDP=9.73D-03 DE=-6.30D-04 OVMax= 7.22D-03

 Cycle   7  Pass 1  IDiag  1:
 RMSU=  5.96D-05    CP:  6.14D-01  1.07D+00  6.67D-01  8.75D-01  1.08D+00
                    CP:  1.06D+00
 E= -1955.40068656592     Delta-E=       -0.000180269154 Rises=F Damp=F
 DIIS: error= 2.03D-04 at cycle   7 NSaved=   7.
 NSaved= 7 IEnMin= 7 EnMin= -1955.40068656592     IErMin= 7 ErrMin= 2.03D-04
 ErrMax= 2.03D-04  0.00D+00 EMaxC= 1.00D-01 BMatC= 1.18D-05 BMatP= 1.19D-04
 IDIUse=3 WtCom= 9.98D-01 WtEn= 2.03D-03
 Coeff-Com:  0.249D-02-0.529D-02-0.983D-02-0.235D-01-0.365D-01 0.181D+00
 Coeff-Com:  0.891D+00
 Coeff-En:   0.000D+00 0.000D+00 0.000D+00 0.000D+00 0.000D+00 0.000D+00
 Coeff-En:   0.100D+01
 Coeff:      0.248D-02-0.528D-02-0.981D-02-0.235D-01-0.364D-01 0.181D+00
 Coeff:      0.891D+00
 Gap=     0.224 Goal=   None    Shift=    0.000
 RMSDP=5.43D-05 MaxDP=5.36D-03 DE=-1.80D-04 OVMax= 4.62D-03

 Cycle   8  Pass 1  IDiag  1:
 RMSU=  3.15D-05    CP:  6.14D-01  1.07D+00  6.65D-01  8.85D-01  1.11D+00
                    CP:  1.20D+00  1.27D+00
 E= -1955.40072707651     Delta-E=       -0.000040510593 Rises=F Damp=F
 DIIS: error= 1.14D-04 at cycle   8 NSaved=   8.
 NSaved= 8 IEnMin= 8 EnMin= -1955.40072707651     IErMin= 8 ErrMin= 1.14D-04
 ErrMax= 1.14D-04  0.00D+00 EMaxC= 1.00D-01 BMatC= 3.61D-06 BMatP= 1.18D-05
 IDIUse=3 WtCom= 9.99D-01 WtEn= 1.14D-03
 Coeff-Com: -0.302D-02 0.654D-02 0.208D-02-0.123D-01-0.951D-01-0.263D-01
 Coeff-Com:  0.410D+00 0.718D+00
 Coeff-En:   0.000D+00 0.000D+00 0.000D+00 0.000D+00 0.000D+00 0.000D+00
 Coeff-En:   0.000D+00 0.100D+01
 Coeff:     -0.301D-02 0.654D-02 0.208D-02-0.123D-01-0.950D-01-0.263D-01
 Coeff:      0.410D+00 0.718D+00
 Gap=     0.224 Goal=   None    Shift=    0.000
 RMSDP=3.02D-05 MaxDP=2.70D-03 DE=-4.05D-05 OVMax= 2.52D-03

 Cycle   9  Pass 1  IDiag  1:
 RMSU=  1.68D-05    CP:  6.14D-01  1.07D+00  6.64D-01  8.84D-01  1.12D+00
                    CP:  1.29D+00  1.35D+00  1.00D+00
 E= -1955.40073873827     Delta-E=       -0.000011661758 Rises=F Damp=F
 DIIS: error= 4.66D-05 at cycle   9 NSaved=   9.
 NSaved= 9 IEnMin= 9 EnMin= -1955.40073873827     IErMin= 9 ErrMin= 4.66D-05
 ErrMax= 4.66D-05  0.00D+00 EMaxC= 1.00D-01 BMatC= 8.65D-07 BMatP= 3.61D-06
 IDIUse=1 WtCom= 1.00D+00 WtEn= 0.00D+00
 Coeff-Com: -0.228D-02 0.488D-02 0.441D-02 0.131D-02-0.353D-01-0.598D-01
 Coeff-Com: -0.923D-01 0.284D+00 0.895D+00
 Coeff:     -0.228D-02 0.488D-02 0.441D-02 0.131D-02-0.353D-01-0.598D-01
 Coeff:     -0.923D-01 0.284D+00 0.895D+00
 Gap=     0.224 Goal=   None    Shift=    0.000
 RMSDP=1.80D-05 MaxDP=1.19D-03 DE=-1.17D-05 OVMax= 1.75D-03

 Cycle  10  Pass 1  IDiag  1:
 RMSU=  8.91D-06    CP:  6.14D-01  1.07D+00  6.65D-01  8.84D-01  1.12D+00
                    CP:  1.33D+00  1.44D+00  1.24D+00  1.34D+00
 E= -1955.40074253276     Delta-E=       -0.000003794486 Rises=F Damp=F
 DIIS: error= 1.83D-05 at cycle  10 NSaved=  10.
 NSaved=10 IEnMin=10 EnMin= -1955.40074253276     IErMin=10 ErrMin= 1.83D-05
 ErrMax= 1.83D-05  0.00D+00 EMaxC= 1.00D-01 BMatC= 1.42D-07 BMatP= 8.65D-07
 IDIUse=1 WtCom= 1.00D+00 WtEn= 0.00D+00
 Coeff-Com:  0.118D-04-0.371D-04 0.916D-03 0.315D-02 0.922D-02-0.997D-02
 Coeff-Com: -0.122D+00-0.563D-01 0.310D+00 0.865D+00
 Coeff:      0.118D-04-0.371D-04 0.916D-03 0.315D-02 0.922D-02-0.997D-02
 Coeff:     -0.122D+00-0.563D-01 0.310D+00 0.865D+00
 Gap=     0.224 Goal=   None    Shift=    0.000
 RMSDP=8.27D-06 MaxDP=6.29D-04 DE=-3.79D-06 OVMax= 7.16D-04

 Cycle  11  Pass 1  IDiag  1:
 RMSU=  3.11D-06    CP:  6.14D-01  1.07D+00  6.64D-01  8.83D-01  1.12D+00
                    CP:  1.34D+00  1.45D+00  1.30D+00  1.62D+00  1.11D+00
 E= -1955.40074315385     Delta-E=       -0.000000621089 Rises=F Damp=F
 DIIS: error= 8.04D-06 at cycle  11 NSaved=  11.
 NSaved=11 IEnMin=11 EnMin= -1955.40074315385     IErMin=11 ErrMin= 8.04D-06
 ErrMax= 8.04D-06  0.00D+00 EMaxC= 1.00D-01 BMatC= 2.72D-08 BMatP= 1.42D-07
 IDIUse=1 WtCom= 1.00D+00 WtEn= 0.00D+00
 Coeff-Com:  0.426D-03-0.912D-03-0.505D-03 0.968D-03 0.953D-02 0.778D-02
 Coeff-Com: -0.215D-01-0.711D-01-0.833D-01 0.276D+00 0.883D+00
 Coeff:      0.426D-03-0.912D-03-0.505D-03 0.968D-03 0.953D-02 0.778D-02
 Coeff:     -0.215D-01-0.711D-01-0.833D-01 0.276D+00 0.883D+00
 Gap=     0.224 Goal=   None    Shift=    0.000
 RMSDP=3.38D-06 MaxDP=2.50D-04 DE=-6.21D-07 OVMax= 2.51D-04

 Cycle  12  Pass 1  IDiag  1:
 RMSU=  1.50D-06    CP:  6.14D-01  1.07D+00  6.64D-01  8.83D-01  1.12D+00
                    CP:  1.35D+00  1.45D+00  1.33D+00  1.73D+00  1.27D+00
                    CP:  1.10D+00
 E= -1955.40074324921     Delta-E=       -0.000000095364 Rises=F Damp=F
 DIIS: error= 2.57D-06 at cycle  12 NSaved=  12.
 NSaved=12 IEnMin=12 EnMin= -1955.40074324921     IErMin=12 ErrMin= 2.57D-06
 ErrMax= 2.57D-06  0.00D+00 EMaxC= 1.00D-01 BMatC= 4.53D-09 BMatP= 2.72D-08
 IDIUse=1 WtCom= 1.00D+00 WtEn= 0.00D+00
 Coeff-Com:  0.123D-03-0.260D-03-0.248D-03 0.123D-04 0.200D-02 0.349D-02
 Coeff-Com:  0.113D-01-0.151D-01-0.727D-01-0.369D-01 0.322D+00 0.786D+00
 Coeff:      0.123D-03-0.260D-03-0.248D-03 0.123D-04 0.200D-02 0.349D-02
 Coeff:      0.113D-01-0.151D-01-0.727D-01-0.369D-01 0.322D+00 0.786D+00
 Gap=     0.224 Goal=   None    Shift=    0.000
 RMSDP=9.42D-07 MaxDP=1.27D-04 DE=-9.54D-08 OVMax= 4.94D-05

 Cycle  13  Pass 1  IDiag  1:
 RMSU=  4.44D-07    CP:  6.14D-01  1.07D+00  6.64D-01  8.83D-01  1.13D+00
                    CP:  1.35D+00  1.45D+00  1.33D+00  1.76D+00  1.29D+00
                    CP:  1.21D+00  1.13D+00
 E= -1955.40074325960     Delta-E=       -0.000000010389 Rises=F Damp=F
 DIIS: error= 7.55D-07 at cycle  13 NSaved=  13.
 NSaved=13 IEnMin=13 EnMin= -1955.40074325960     IErMin=13 ErrMin= 7.55D-07
 ErrMax= 7.55D-07  0.00D+00 EMaxC= 1.00D-01 BMatC= 9.91D-10 BMatP= 4.53D-09
 IDIUse=1 WtCom= 1.00D+00 WtEn= 0.00D+00
 Coeff-Com: -0.124D-04 0.274D-04-0.403D-04-0.185D-03-0.781D-03 0.229D-03
 Coeff-Com:  0.981D-02 0.523D-02-0.188D-01-0.703D-01-0.116D-01 0.369D+00
 Coeff-Com:  0.717D+00
 Coeff:     -0.124D-04 0.274D-04-0.403D-04-0.185D-03-0.781D-03 0.229D-03
 Coeff:      0.981D-02 0.523D-02-0.188D-01-0.703D-01-0.116D-01 0.369D+00
 Coeff:      0.717D+00
 Gap=     0.224 Goal=   None    Shift=    0.000
 RMSDP=3.96D-07 MaxDP=3.95D-05 DE=-1.04D-08 OVMax= 1.86D-05

 Cycle  14  Pass 1  IDiag  1:
 RMSU=  2.28D-07    CP:  6.14D-01  1.07D+00  6.64D-01  8.83D-01  1.13D+00
                    CP:  1.35D+00  1.45D+00  1.33D+00  1.77D+00  1.30D+00
                    CP:  1.25D+00  1.24D+00  9.44D-01
 E= -1955.40074326102     Delta-E=       -0.000000001421 Rises=F Damp=F
 DIIS: error= 2.93D-07 at cycle  14 NSaved=  14.
 NSaved=14 IEnMin=14 EnMin= -1955.40074326102     IErMin=14 ErrMin= 2.93D-07
 ErrMax= 2.93D-07  0.00D+00 EMaxC= 1.00D-01 BMatC= 5.51D-11 BMatP= 9.91D-10
 IDIUse=1 WtCom= 1.00D+00 WtEn= 0.00D+00
 Coeff-Com: -0.117D-04 0.251D-04 0.892D-05-0.612D-04-0.395D-03-0.281D-03
 Coeff-Com:  0.110D-02 0.214D-02 0.365D-02-0.129D-01-0.358D-01 0.208D-01
 Coeff-Com:  0.137D+00 0.885D+00
 Coeff:     -0.117D-04 0.251D-04 0.892D-05-0.612D-04-0.395D-03-0.281D-03
 Coeff:      0.110D-02 0.214D-02 0.365D-02-0.129D-01-0.358D-01 0.208D-01
 Coeff:      0.137D+00 0.885D+00
 Gap=     0.224 Goal=   None    Shift=    0.000
 RMSDP=1.55D-07 MaxDP=1.19D-05 DE=-1.42D-09 OVMax= 7.51D-06

 Cycle  15  Pass 1  IDiag  1:
 RMSU=  7.31D-08    CP:  6.14D-01  1.07D+00  6.64D-01  8.83D-01  1.13D+00
                    CP:  1.35D+00  1.45D+00  1.33D+00  1.77D+00  1.31D+00
                    CP:  1.25D+00  1.28D+00  1.01D+00  1.22D+00
 E= -1955.40074326084     Delta-E=        0.000000000183 Rises=F Damp=F
 DIIS: error= 1.18D-07 at cycle  15 NSaved=  15.
 NSaved=15 IEnMin=14 EnMin= -1955.40074326102     IErMin=15 ErrMin= 1.18D-07
 ErrMax= 1.18D-07  0.00D+00 EMaxC= 1.00D-01 BMatC= 1.55D-11 BMatP= 5.51D-11
 IDIUse=1 WtCom= 1.00D+00 WtEn= 0.00D+00
 Coeff-Com: -0.406D-05 0.853D-05 0.106D-04-0.227D-05-0.575D-04-0.131D-03
 Coeff-Com: -0.774D-03 0.381D-04 0.405D-02 0.395D-02-0.130D-01-0.375D-01
 Coeff-Com: -0.593D-01 0.344D+00 0.759D+00
 Coeff:     -0.406D-05 0.853D-05 0.106D-04-0.227D-05-0.575D-04-0.131D-03
 Coeff:     -0.774D-03 0.381D-04 0.405D-02 0.395D-02-0.130D-01-0.375D-01
 Coeff:     -0.593D-01 0.344D+00 0.759D+00
 Gap=     0.224 Goal=   None    Shift=    0.000
 RMSDP=1.55D-07 MaxDP=9.82D-06 DE= 1.83D-10 OVMax= 3.40D-06

 Cycle  16  Pass 1  IDiag  1:
 RMSU=  1.27D-07    CP:  6.14D-01  1.07D+00  6.64D-01  8.83D-01  1.13D+00
                    CP:  1.35D+00  1.45D+00  1.33D+00  1.77D+00  1.31D+00
                    CP:  1.24D+00  1.29D+00  1.06D+00  1.43D+00  1.14D+00
 E= -1955.40074326203     Delta-E=       -0.000000001193 Rises=F Damp=F
 DIIS: error= 6.56D-08 at cycle  16 NSaved=  16.
 NSaved=16 IEnMin=16 EnMin= -1955.40074326203     IErMin=16 ErrMin= 6.56D-08
 ErrMax= 6.56D-08  0.00D+00 EMaxC= 1.00D-01 BMatC= 2.48D-12 BMatP= 1.55D-11
 IDIUse=1 WtCom= 1.00D+00 WtEn= 0.00D+00
 Coeff-Com:  0.149D-06-0.395D-06 0.207D-05 0.787D-05 0.430D-04-0.549D-05
 Coeff-Com: -0.375D-03-0.374D-03 0.671D-03 0.325D-02 0.155D-02-0.122D-01
 Coeff-Com: -0.481D-01-0.454D-01 0.229D+00 0.872D+00
 Coeff:      0.149D-06-0.395D-06 0.207D-05 0.787D-05 0.430D-04-0.549D-05
 Coeff:     -0.375D-03-0.374D-03 0.671D-03 0.325D-02 0.155D-02-0.122D-01
 Coeff:     -0.481D-01-0.454D-01 0.229D+00 0.872D+00
 Gap=     0.224 Goal=   None    Shift=    0.000
 RMSDP=2.57D-07 MaxDP=3.26D-05 DE=-1.19D-09 OVMax= 1.98D-06

 Cycle  17  Pass 1  IDiag  1:
 RMSU=  2.21D-07    CP:  6.14D-01  1.07D+00  6.64D-01  8.83D-01  1.13D+00
                    CP:  1.35D+00  1.45D+00  1.33D+00  1.77D+00  1.31D+00
                    CP:  1.23D+00  1.31D+00  1.02D+00  1.43D+00  2.46D+00
                    CP:  1.00D+00
 E= -1955.40074326167     Delta-E=        0.000000000361 Rises=F Damp=F
 DIIS: error= 1.04D-07 at cycle  17 NSaved=  17.
 NSaved=17 IEnMin=16 EnMin= -1955.40074326203     IErMin=16 ErrMin= 6.56D-08
 ErrMax= 1.04D-07  0.00D+00 EMaxC= 1.00D-01 BMatC= 8.23D-13 BMatP= 2.48D-12
 IDIUse=1 WtCom= 1.00D+00 WtEn= 0.00D+00
 Coeff-Com:  0.735D-06-0.156D-05-0.880D-06 0.432D-05 0.333D-04 0.221D-04
 Coeff-Com: -0.262D-04-0.204D-03-0.461D-03 0.974D-03 0.312D-02 0.208D-02
 Coeff-Com: -0.145D-01-0.816D-01-0.330D-01 0.408D+00 0.715D+00
 Coeff:      0.735D-06-0.156D-05-0.880D-06 0.432D-05 0.333D-04 0.221D-04
 Coeff:     -0.262D-04-0.204D-03-0.461D-03 0.974D-03 0.312D-02 0.208D-02
 Coeff:     -0.145D-01-0.816D-01-0.330D-01 0.408D+00 0.715D+00
 Gap=     0.224 Goal=   None    Shift=    0.000
 RMSDP=3.03D-07 MaxDP=2.31D-05 DE= 3.61D-10 OVMax= 7.97D-07

 Cycle  18  Pass 1  IDiag  1:
 RMSU=  1.11D-07    CP:  6.14D-01  1.07D+00  6.64D-01  8.83D-01  1.13D+00
                    CP:  1.35D+00  1.45D+00  1.33D+00  1.77D+00  1.32D+00
                    CP:  1.21D+00  1.29D+00  1.07D+00  1.61D+00  2.41D+00
                    CP:  2.79D+00  9.81D-01
 E= -1955.40074326230     Delta-E=       -0.000000000627 Rises=F Damp=F
 DIIS: error= 1.46D-07 at cycle  18 NSaved=  18.
 NSaved=18 IEnMin=18 EnMin= -1955.40074326230     IErMin=16 ErrMin= 6.56D-08
 ErrMax= 1.46D-07  0.00D+00 EMaxC= 1.00D-01 BMatC= 1.01D-12 BMatP= 8.23D-13
 IDIUse=1 WtCom= 1.00D+00 WtEn= 0.00D+00
 Coeff-Com:  0.548D-06-0.115D-05-0.103D-05 0.205D-05 0.194D-04 0.185D-04
 Coeff-Com:  0.413D-04-0.103D-03-0.477D-03 0.272D-03 0.210D-02 0.379D-02
 Coeff-Com: -0.403D-02-0.533D-01-0.636D-01 0.167D+00 0.616D+00 0.332D+00
 Coeff:      0.548D-06-0.115D-05-0.103D-05 0.205D-05 0.194D-04 0.185D-04
 Coeff:      0.413D-04-0.103D-03-0.477D-03 0.272D-03 0.210D-02 0.379D-02
 Coeff:     -0.403D-02-0.533D-01-0.636D-01 0.167D+00 0.616D+00 0.332D+00
 Gap=     0.224 Goal=   None    Shift=    0.000
 RMSDP=1.89D-07 MaxDP=2.36D-05 DE=-6.27D-10 OVMax= 2.31D-07

 Cycle  19  Pass 1  IDiag  1:
 RMSU=  4.30D-08    CP:  6.14D-01  1.07D+00  6.64D-01  8.83D-01  1.13D+00
                    CP:  1.35D+00  1.45D+00  1.33D+00  1.77D+00  1.33D+00
                    CP:  1.21D+00  1.30D+00  1.05D+00  1.58D+00  3.00D+00
                    CP:  2.85D+00  1.71D+00  1.26D+00
 E= -1955.40074326102     Delta-E=        0.000000001277 Rises=F Damp=F
 DIIS: error= 4.33D-08 at cycle  19 NSaved=  19.
 NSaved=19 IEnMin=18 EnMin= -1955.40074326230     IErMin=19 ErrMin= 4.33D-08
 ErrMax= 4.33D-08  0.00D+00 EMaxC= 1.00D-01 BMatC= 4.29D-13 BMatP= 8.23D-13
 IDIUse=1 WtCom= 1.00D+00 WtEn= 0.00D+00
 Coeff-Com:  0.444D-06-0.933D-06-0.836D-06 0.161D-05 0.156D-04 0.149D-04
 Coeff-Com:  0.334D-04-0.827D-04-0.385D-03 0.225D-03 0.164D-02 0.308D-02
 Coeff-Com: -0.331D-02-0.418D-01-0.516D-01 0.126D+00 0.517D+00 0.194D+00
 Coeff-Com:  0.256D+00
 Coeff:      0.444D-06-0.933D-06-0.836D-06 0.161D-05 0.156D-04 0.149D-04
 Coeff:      0.334D-04-0.827D-04-0.385D-03 0.225D-03 0.164D-02 0.308D-02
 Coeff:     -0.331D-02-0.418D-01-0.516D-01 0.126D+00 0.517D+00 0.194D+00
 Coeff:      0.256D+00
 Gap=     0.224 Goal=   None    Shift=    0.000
 RMSDP=1.07D-07 MaxDP=1.40D-05 DE= 1.28D-09 OVMax= 5.36D-08

 Cycle  20  Pass 1  IDiag  1:
 RMSU=  4.98D-08    CP:  6.14D-01  1.07D+00  6.64D-01  8.83D-01  1.13D+00
                    CP:  1.35D+00  1.45D+00  1.33D+00  1.77D+00  1.33D+00
                    CP:  1.20D+00  1.29D+00  1.06D+00  1.60D+00  3.00D+00
                    CP:  3.00D+00  1.91D+00  1.68D+00  1.58D+00
 E= -1955.40074326076     Delta-E=        0.000000000254 Rises=F Damp=F
 DIIS: error= 7.41D-08 at cycle  20 NSaved=  20.
 NSaved=20 IEnMin=18 EnMin= -1955.40074326230     IErMin=19 ErrMin= 4.33D-08
 ErrMax= 7.41D-08  0.00D+00 EMaxC= 1.00D-01 BMatC= 8.69D-13 BMatP= 4.29D-13
 IDIUse=1 WtCom= 1.00D+00 WtEn= 0.00D+00
 Coeff-Com:  0.387D-06-0.811D-06-0.812D-06 0.106D-05 0.120D-04 0.133D-04
 Coeff-Com:  0.418D-04-0.597D-04-0.360D-03 0.919D-04 0.130D-02 0.314D-02
 Coeff-Com: -0.132D-02-0.329D-01-0.532D-01 0.736D-01 0.438D+00 0.307D+00
 Coeff-Com:  0.740D+00-0.476D+00
 Coeff:      0.387D-06-0.811D-06-0.812D-06 0.106D-05 0.120D-04 0.133D-04
 Coeff:      0.418D-04-0.597D-04-0.360D-03 0.919D-04 0.130D-02 0.314D-02
 Coeff:     -0.132D-02-0.329D-01-0.532D-01 0.736D-01 0.438D+00 0.307D+00
 Coeff:      0.740D+00-0.476D+00
 Gap=     0.224 Goal=   None    Shift=    0.000
 RMSDP=1.05D-07 MaxDP=7.88D-06 DE= 2.54D-10 OVMax= 4.60D-08

 Cycle  21  Pass 1  IDiag  1:
 Restarting incremental Fock formation.
 E= -1955.40074326075     Delta-E=        0.000000000019 Rises=F Damp=F
 DIIS: error= 1.54D-07 at cycle  21 NSaved=  20.
 NSaved=20 IEnMin=17 EnMin= -1955.40074326230     IErMin=18 ErrMin= 4.33D-08
 ErrMax= 1.54D-07  0.00D+00 EMaxC= 1.00D-01 BMatC= 9.41D-12 BMatP= 4.29D-13
 IDIUse=1 WtCom= 1.00D+00 WtEn= 0.00D+00
 Coeff-Com:  0.190D-07-0.210D-06 0.671D-06 0.505D-05 0.633D-05 0.469D-04
 Coeff-Com: -0.222D-04-0.291D-03-0.199D-04 0.904D-03 0.298D-02-0.253D-03
 Coeff-Com: -0.272D-01-0.509D-01 0.492D-01 0.401D+00 0.283D+00 0.786D+00
 Coeff-Com: -0.496D+00 0.510D-01
 Coeff:      0.190D-07-0.210D-06 0.671D-06 0.505D-05 0.633D-05 0.469D-04
 Coeff:     -0.222D-04-0.291D-03-0.199D-04 0.904D-03 0.298D-02-0.253D-03
 Coeff:     -0.272D-01-0.509D-01 0.492D-01 0.401D+00 0.283D+00 0.786D+00
 Coeff:     -0.496D+00 0.510D-01
 Gap=     0.224 Goal=   None    Shift=    0.000
 RMSDP=1.94D-07 MaxDP=1.42D-05 DE= 1.91D-11 OVMax= 3.61D-08

 Cycle  22  Pass 1  IDiag  1:
 RMSU=  1.94D-07    CP:  1.00D+00
 E= -1955.40074326047     Delta-E=        0.000000000275 Rises=F Damp=F
 DIIS: error= 1.45D-07 at cycle  22 NSaved=  20.
 NSaved=20 IEnMin=16 EnMin= -1955.40074326230     IErMin=17 ErrMin= 4.33D-08
 ErrMax= 1.45D-07  0.00D+00 EMaxC= 1.00D-01 BMatC= 8.63D-12 BMatP= 4.29D-13
 IDIUse=1 WtCom= 1.00D+00 WtEn= 0.00D+00
 Coeff-Com: -0.216D-06 0.466D-06 0.429D-05 0.600D-05 0.442D-04-0.181D-04
 Coeff-Com: -0.264D-03-0.397D-04 0.767D-03 0.280D-02 0.922D-04-0.236D-01
 Coeff-Com: -0.475D-01 0.372D-01 0.346D+00 0.335D+00 0.776D+00-0.506D+00
 Coeff-Com: -0.648D+00 0.728D+00
 Coeff:     -0.216D-06 0.466D-06 0.429D-05 0.600D-05 0.442D-04-0.181D-04
 Coeff:     -0.264D-03-0.397D-04 0.767D-03 0.280D-02 0.922D-04-0.236D-01
 Coeff:     -0.475D-01 0.372D-01 0.346D+00 0.335D+00 0.776D+00-0.506D+00
 Coeff:     -0.648D+00 0.728D+00
 Gap=     0.224 Goal=   None    Shift=    0.000
 RMSDP=1.27D-07 MaxDP=1.28D-05 DE= 2.75D-10 OVMax= 3.24D-08

 Cycle  23  Pass 1  IDiag  1:
 RMSU=  7.51D-08    CP:  1.00D+00  1.53D+00
 E= -1955.40074326125     Delta-E=       -0.000000000778 Rises=F Damp=F
 DIIS: error= 1.44D-07 at cycle  23 NSaved=  20.
 NSaved=20 IEnMin=15 EnMin= -1955.40074326230     IErMin=16 ErrMin= 4.33D-08
 ErrMax= 1.44D-07  0.00D+00 EMaxC= 1.00D-01 BMatC= 8.58D-12 BMatP= 4.29D-13
 IDIUse=1 WtCom= 1.00D+00 WtEn= 0.00D+00
 Coeff-Com:  0.115D-05 0.637D-05 0.457D-05 0.207D-04-0.305D-04-0.216D-03
 Coeff-Com:  0.907D-04 0.775D-03 0.227D-02-0.924D-03-0.232D-01-0.438D-01
 Coeff-Com:  0.411D-01 0.337D+00 0.339D+00 0.757D+00-0.488D+00-0.601D+00
 Coeff-Com:  0.461D+00 0.218D+00
 Coeff:      0.115D-05 0.637D-05 0.457D-05 0.207D-04-0.305D-04-0.216D-03
 Coeff:      0.907D-04 0.775D-03 0.227D-02-0.924D-03-0.232D-01-0.438D-01
 Coeff:      0.411D-01 0.337D+00 0.339D+00 0.757D+00-0.488D+00-0.601D+00
 Coeff:      0.461D+00 0.218D+00
 Gap=     0.224 Goal=   None    Shift=    0.000
 RMSDP=3.46D-08 MaxDP=4.41D-06 DE=-7.78D-10 OVMax= 9.07D-09

 Cycle  24  Pass 1  IDiag  1:
 RMSU=  2.82D-08    CP:  1.00D+00  1.53D+00  1.27D+00
 E= -1955.40074326060     Delta-E=        0.000000000644 Rises=F Damp=F
 DIIS: error= 1.44D-07 at cycle  24 NSaved=  20.
 NSaved=20 IEnMin=14 EnMin= -1955.40074326230     IErMin=15 ErrMin= 4.33D-08
 ErrMax= 1.44D-07  0.00D+00 EMaxC= 1.00D-01 BMatC= 8.99D-12 BMatP= 4.29D-13
 IDIUse=1 WtCom= 1.00D+00 WtEn= 0.00D+00
 Coeff-Com:  0.112D-05 0.862D-06 0.543D-05 0.134D-05-0.371D-04 0.106D-03
 Coeff-Com: -0.767D-04 0.740D-03-0.104D-02-0.535D-02-0.262D-01 0.453D-02
 Coeff-Com:  0.279D+00 0.315D+00 0.818D+00-0.474D+00-0.770D+00 0.585D+00
 Coeff-Com:  0.458D+00-0.184D+00
 Coeff:      0.112D-05 0.862D-06 0.543D-05 0.134D-05-0.371D-04 0.106D-03
 Coeff:     -0.767D-04 0.740D-03-0.104D-02-0.535D-02-0.262D-01 0.453D-02
 Coeff:      0.279D+00 0.315D+00 0.818D+00-0.474D+00-0.770D+00 0.585D+00
 Coeff:      0.458D+00-0.184D+00
 Gap=     0.224 Goal=   None    Shift=    0.000
 RMSDP=5.78D-08 MaxDP=4.63D-06 DE= 6.44D-10 OVMax= 2.53D-08

 Cycle  25  Pass 1  IDiag  1:
 RMSU=  4.30D-08    CP:  1.00D+00  1.68D+00  1.55D+00  6.47D-01
 E= -1955.40074326044     Delta-E=        0.000000000169 Rises=F Damp=F
 DIIS: error= 1.42D-07 at cycle  25 NSaved=  20.
 NSaved=20 IEnMin=13 EnMin= -1955.40074326230     IErMin=14 ErrMin= 4.33D-08
 ErrMax= 1.42D-07  0.00D+00 EMaxC= 1.00D-01 BMatC= 8.65D-12 BMatP= 4.29D-13
 IDIUse=1 WtCom= 1.00D+00 WtEn= 0.00D+00
 Coeff-Com: -0.106D-06 0.103D-04 0.740D-05-0.462D-04 0.661D-04-0.760D-04
 Coeff-Com:  0.935D-03-0.527D-03-0.548D-02-0.289D-01-0.143D-02 0.272D+00
 Coeff-Com:  0.331D+00 0.857D+00-0.518D+00-0.755D+00 0.498D+00 0.525D+00
 Coeff-Com: -0.331D+00 0.155D+00
 Coeff:     -0.106D-06 0.103D-04 0.740D-05-0.462D-04 0.661D-04-0.760D-04
 Coeff:      0.935D-03-0.527D-03-0.548D-02-0.289D-01-0.143D-02 0.272D+00
 Coeff:      0.331D+00 0.857D+00-0.518D+00-0.755D+00 0.498D+00 0.525D+00
 Coeff:     -0.331D+00 0.155D+00
 Gap=     0.224 Goal=   None    Shift=    0.000
 RMSDP=3.93D-08 MaxDP=7.08D-06 DE= 1.69D-10 OVMax= 1.19D-08

 Cycle  26  Pass 1  IDiag  1:
 RMSU=  3.30D-08    CP:  1.00D+00  1.74D+00  1.58D+00  1.15D-01  1.18D+00
 E= -1955.40074326040     Delta-E=        0.000000000037 Rises=F Damp=F
 DIIS: error= 1.43D-07 at cycle  26 NSaved=  20.
 NSaved=20 IEnMin=12 EnMin= -1955.40074326230     IErMin=13 ErrMin= 4.33D-08
 ErrMax= 1.43D-07  0.00D+00 EMaxC= 1.00D-01 BMatC= 8.45D-12 BMatP= 4.29D-13
 IDIUse=1 WtCom= 1.00D+00 WtEn= 0.00D+00
 Coeff-Com:  0.103D-04 0.736D-05-0.483D-04 0.583D-04-0.742D-04 0.972D-03
 Coeff-Com: -0.288D-03-0.495D-02-0.296D-01-0.801D-02 0.259D+00 0.339D+00
 Coeff-Com:  0.891D+00-0.541D+00-0.771D+00 0.485D+00 0.781D+00-0.504D+00
 Coeff-Com:  0.443D+00-0.341D+00
 Coeff:      0.103D-04 0.736D-05-0.483D-04 0.583D-04-0.742D-04 0.972D-03
 Coeff:     -0.288D-03-0.495D-02-0.296D-01-0.801D-02 0.259D+00 0.339D+00
 Coeff:      0.891D+00-0.541D+00-0.771D+00 0.485D+00 0.781D+00-0.504D+00
 Coeff:      0.443D+00-0.341D+00
 Gap=     0.224 Goal=   None    Shift=    0.000
 RMSDP=5.30D-08 MaxDP=4.10D-06 DE= 3.73D-11 OVMax= 1.32D-08

 Cycle  27  Pass 1  IDiag  1:
 RMSU=  4.12D-08    CP:  1.00D+00  1.78D+00  1.23D+00  3.26D-02  8.43D-01
                    CP:  8.14D-01
 E= -1955.40074326074     Delta-E=       -0.000000000346 Rises=F Damp=F
 DIIS: error= 1.43D-07 at cycle  27 NSaved=  20.
 NSaved=20 IEnMin=11 EnMin= -1955.40074326230     IErMin=12 ErrMin= 4.33D-08
 ErrMax= 1.43D-07  0.00D+00 EMaxC= 1.00D-01 BMatC= 8.33D-12 BMatP= 4.29D-13
 IDIUse=1 WtCom= 1.00D+00 WtEn= 0.00D+00
 Coeff-Com:  0.312D-05-0.274D-04 0.120D-03-0.573D-04 0.676D-03-0.814D-03
 Coeff-Com: -0.518D-02-0.285D-01-0.649D-02 0.256D+00 0.322D+00 0.897D+00
 Coeff-Com: -0.532D+00-0.768D+00 0.378D+00 0.872D+00-0.618D+00 0.620D+00
 Coeff-Com: -0.674D+00 0.289D+00
 Coeff:      0.312D-05-0.274D-04 0.120D-03-0.573D-04 0.676D-03-0.814D-03
 Coeff:     -0.518D-02-0.285D-01-0.649D-02 0.256D+00 0.322D+00 0.897D+00
 Coeff:     -0.532D+00-0.768D+00 0.378D+00 0.872D+00-0.618D+00 0.620D+00
 Coeff:     -0.674D+00 0.289D+00
 Gap=     0.224 Goal=   None    Shift=    0.000
 RMSDP=5.01D-08 MaxDP=6.55D-06 DE=-3.46D-10 OVMax= 1.64D-08

 Cycle  28  Pass 1  IDiag  1:
 RMSU=  4.14D-08    CP:  1.00D+00  1.85D+00  1.36D+00  1.18D-01  8.27D-01
                    CP:  2.35D-01  1.25D+00
 E= -1955.40074326027     Delta-E=        0.000000000476 Rises=F Damp=F
 DIIS: error= 1.42D-07 at cycle  28 NSaved=  20.
 NSaved=20 IEnMin=10 EnMin= -1955.40074326230     IErMin=11 ErrMin= 4.33D-08
 ErrMax= 1.42D-07  0.00D+00 EMaxC= 1.00D-01 BMatC= 8.27D-12 BMatP= 4.29D-13
 IDIUse=1 WtCom= 1.00D+00 WtEn= 0.00D+00
 Coeff-Com: -0.291D-04 0.129D-03-0.412D-04 0.656D-03-0.885D-03-0.515D-02
 Coeff-Com: -0.282D-01-0.612D-02 0.256D+00 0.321D+00 0.898D+00-0.532D+00
 Coeff-Com: -0.771D+00 0.380D+00 0.886D+00-0.625D+00 0.640D+00-0.697D+00
 Coeff-Com:  0.324D+00-0.412D-01
 Coeff:     -0.291D-04 0.129D-03-0.412D-04 0.656D-03-0.885D-03-0.515D-02
 Coeff:     -0.282D-01-0.612D-02 0.256D+00 0.321D+00 0.898D+00-0.532D+00
 Coeff:     -0.771D+00 0.380D+00 0.886D+00-0.625D+00 0.640D+00-0.697D+00
 Coeff:      0.324D+00-0.412D-01
 Gap=     0.224 Goal=   None    Shift=    0.000
 RMSDP=5.31D-09 MaxDP=5.34D-07 DE= 4.76D-10 OVMax= 4.60D-09

 SCF Done:  E(RwB97XD) =  -1955.40074326     A.U. after   28 cycles
            NFock= 28  Conv=0.53D-08     -V/T= 2.0046
 KE= 1.946524280854D+03 PE=-1.507302658864D+04 EE= 5.912943702581D+03
 Leave Link  502 at Sat Nov  4 00:15:52 2017, MaxMem=  3758096384 cpu:     34709.5
 (Enter /share/apps/gaussian/g09_D01/g09/l801.exe)
 DoSCS=F DFT=T ScalE2(SS,OS)=  1.000000  1.000000
 ExpMin= 3.60D-02 ExpMax= 8.59D+03 ExpMxC= 1.30D+03 IAcc=3 IRadAn=         5 AccDes= 0.00D+00
 HarFok:  IExCor=  205 AccDes= 0.00D+00 IRadAn=         5 IDoV=-2 UseB2=F ITyADJ=14
 ICtDFT= 12500011 ScaDFX=  1.000000  1.000000  1.000000  1.000000
 Largest valence mixing into a core orbital is  5.74D-05
 Largest core mixing into a valence orbital is  1.53D-05
 Range of M.O.s used for correlation:    45  1215
 NBasis=  1234 NAE=   158 NBE=   158 NFC=    44 NFV=     0
 NROrb=   1171 NOA=   114 NOB=   114 NVA=  1057 NVB=  1057

 **** Warning!!: The largest alpha MO coefficient is  0.10711967D+03

 Leave Link  801 at Sat Nov  4 00:15:56 2017, MaxMem=  3758096384 cpu:         7.9
 (Enter /share/apps/gaussian/g09_D01/g09/l914.exe)
 RHF ground state
 MDV=  3758096384 DFT=T DoStab=F Mixed=T DoRPA=T DoScal=F NonHer=T
 Would need an additional       1739199500000 words for in-memory AO integral storage.
 Making orbital integer symmetry assigments:
    16 initial guesses have been made.
 Convergence on wavefunction:    0.001000000000000
 Davidson Disk Diagonalization:  ConvIn= 1.00D-03 SkipCon=T Conv= 1.00D-03.
 Max sub-space:   200 roots to seek:    16 dimension of matrix:       240996
 Iteration     1 Dimension    16 NMult     0 NNew     16
 CISAX will form    16 AO SS matrices at one time.
 NMat=    16 NSing=    16 JSym2X= 0.
 FoFJK:  IHMeth= 1 ICntrl=       0 DoSepK=T KAlg= 0 I1Cent=   0 FoldK=F
 IRaf=         1 NMat=  32 IRICut=       1 DoRegI=T DoRafI=F ISym2E= 0.
 FoFCou: FMM=T IPFlag=           0 FMFlag=      100000 FMFlg1=        2001
         NFxFlg=           0 DoJE=F BraDBF=F KetDBF=F FulRan=T
         wScrn=  0.000000 ICntrl=     500 IOpCl=  0 I1Cent=           0 NGrid=           0
         NMat0=   16 NMatS0=     16 NMatT0=    0 NMatD0=   16 NMtDS0=    0 NMtDT0=    0
 Symmetry not used in FoFCou.
 FMM levels:  10  Number of levels for PrismC:   9
 New state      3 was old state      4
 New state      4 was old state      3
 Excitation Energies [eV] at current iteration:
 Root      1 :     3.365741274407387
 Root      2 :     3.451343054805458
 Root      3 :     3.687597061828068
 Root      4 :     3.930896461530193
 Root      5 :     4.276660041345283
 Root      6 :     4.412159384830828
 Root      7 :     5.112754852637183
 Root      8 :     5.175301142187605
 Root      9 :     5.275209804513348
 Root     10 :     5.301301972610461
 Root     11 :     5.674377336288699
 Root     12 :     5.716130058332141
 Root     13 :     5.797100758400514
 Root     14 :     6.114177383001151
 Root     15 :     6.466112141492721
 Root     16 :     6.540817656798795
 Iteration     2 Dimension    24 NMult    16 NNew      8
 CISAX will form     8 AO SS matrices at one time.
 NMat=     8 NSing=     8 JSym2X= 0.
 Root      1 not converged, maximum delta is    0.382766068293642
 Root      2 not converged, maximum delta is    0.317324053744724
 Root      3 not converged, maximum delta is    0.362280470018313
 Root      4 not converged, maximum delta is    0.346136288526700
 Excitation Energies [eV] at current iteration:
 Root      1 :     2.975077198900024   Change is   -0.390664075507363
 Root      2 :     3.274135889275718   Change is   -0.177207165529741
 Root      3 :     3.458574067934209   Change is   -0.229022993893859
 Root      4 :     3.493653331576983   Change is   -0.437243129953211
 Iteration     3 Dimension    32 NMult    24 NNew      8
 CISAX will form     8 AO SS matrices at one time.
 NMat=     8 NSing=     8 JSym2X= 0.
 Root      1 not converged, maximum delta is    0.012694276109893
 Root      2 not converged, maximum delta is    0.087525536184554
 Root      3 not converged, maximum delta is    0.037890446181800
 Root      4 not converged, maximum delta is    0.077276023142233
 Excitation Energies [eV] at current iteration:
 Root      1 :     2.938827096971468   Change is   -0.036250101928556
 Root      2 :     3.234668808354599   Change is   -0.039467080921119
 Root      3 :     3.443620224379978   Change is   -0.014953843554231
 Root      4 :     3.458432380102159   Change is   -0.035220951474824
 Iteration     4 Dimension    40 NMult    32 NNew      8
 CISAX will form     8 AO SS matrices at one time.
 NMat=     8 NSing=     8 JSym2X= 0.
 Root      1 not converged, maximum delta is    0.004364985012194
 Root      2 not converged, maximum delta is    0.007330575681870
 Root      3 not converged, maximum delta is    0.032307003921162
 Root      4 not converged, maximum delta is    0.027458014751646
 Excitation Energies [eV] at current iteration:
 Root      1 :     2.933445180937202   Change is   -0.005381916034266
 Root      2 :     3.229108948190569   Change is   -0.005559860164029
 Root      3 :     3.438828469570804   Change is   -0.004791754809174
 Root      4 :     3.452454092138771   Change is   -0.005978287963388
 Iteration     5 Dimension    48 NMult    40 NNew      8
 CISAX will form     8 AO SS matrices at one time.
 NMat=     8 NSing=     8 JSym2X= 0.
 Root      1 not converged, maximum delta is    0.001387189692306
 Root      2 not converged, maximum delta is    0.002616459127203
 Root      3 not converged, maximum delta is    0.034657861018862
 Root      4 not converged, maximum delta is    0.015986785138049
 Excitation Energies [eV] at current iteration:
 Root      1 :     2.932787679200841   Change is   -0.000657501736361
 Root      2 :     3.228187542232281   Change is   -0.000921405958289
 Root      3 :     3.435279076734214   Change is   -0.003549392836590
 Root      4 :     3.450574724434184   Change is   -0.001879367704587
 Iteration     6 Dimension    56 NMult    48 NNew      8
 CISAX will form     8 AO SS matrices at one time.
 NMat=     8 NSing=     8 JSym2X= 0.
 Root      1 has converged.
 Root      2 not converged, maximum delta is    0.001028724681582
 Root      3 not converged, maximum delta is    0.009481047766827
 Root      4 not converged, maximum delta is    0.004902229913707
 Excitation Energies [eV] at current iteration:
 Root      1 :     2.932717805566066   Change is   -0.000069873634776
 Root      2 :     3.228051703396212   Change is   -0.000135838836069
 Root      3 :     3.434553195536262   Change is   -0.000725881197951
 Root      4 :     3.450202388638012   Change is   -0.000372335796171
 Iteration     7 Dimension    62 NMult    56 NNew      6
 CISAX will form     6 AO SS matrices at one time.
 NMat=     6 NSing=     6 JSym2X= 0.
 Root      1 has converged.
 Root      2 has converged.
 Root      3 not converged, maximum delta is    0.001468323806590
 Root      4 not converged, maximum delta is    0.001047593411931
 Excitation Energies [eV] at current iteration:
 Root      1 :     2.932717116580591   Change is   -0.000000688985474
 Root      2 :     3.228031344785932   Change is   -0.000020358610280
 Root      3 :     3.434426308584024   Change is   -0.000126886952238
 Root      4 :     3.450145220793968   Change is   -0.000057167844045
 Iteration     8 Dimension    66 NMult    62 NNew      4
 CISAX will form     4 AO SS matrices at one time.
 NMat=     4 NSing=     4 JSym2X= 0.
 Root      1 has converged.
 Root      2 has converged.
 Root      3 has converged.
 Root      4 has converged.
 Excitation Energies [eV] at current iteration:
 Root      1 :     2.932717093355304   Change is   -0.000000023225287
 Root      2 :     3.228030944371384   Change is   -0.000000400414548
 Root      3 :     3.434406294034270   Change is   -0.000020014549754
 Root      4 :     3.450134392885603   Change is   -0.000010827908365
 Convergence achieved on expansion vectors.
 ***********************************************************************
 Excited states from <AA,BB:AA,BB> singles matrix:
 ***********************************************************************
 
 1PDM for each excited state written to RWF  633
 Ground to excited state transition densities written to RWF  633
 Ground to excited state transition electric dipole moments (Au):
       state          X           Y           Z        Dip. S.      Osc.
         1         0.0000      0.0000      0.0000      0.0000      0.0000
         2         0.2460     -0.8456     -3.7136     14.5662      1.1520
         3         0.0000      0.0000      0.0000      0.0000      0.0000
         4         0.4075     -0.4455     -2.9590      9.1201      0.7709
 Ground to excited state transition velocity dipole moments (Au):
       state          X           Y           Z        Dip. S.      Osc.
         1         0.0000      0.0000      0.0000      0.0000      0.0000
         2        -0.0334      0.1002      0.4367      0.2019      1.1345
         3         0.0000      0.0000      0.0000      0.0000      0.0000
         4        -0.0513      0.0557      0.3713      0.1436      0.7552
 Ground to excited state transition magnetic dipole moments (Au):
       state          X           Y           Z
         1        -2.7660      0.1039     -0.3909
         2         1.3353      2.0649     -0.3716
         3        -1.4006     -0.3776     -0.2582
         4         0.4756      2.2688     -0.2746
 Ground to excited state transition velocity quadrupole moments (Au):
       state          XX          YY          ZZ          XY          XZ          YZ
         1         0.0714     -0.5958     -1.1809      0.1589     -0.5972     -1.7179
         2         0.2015     -0.4158    -19.5404     -0.2331     -0.5710     -3.1477
         3         0.0007     -0.1391      0.5985      0.0188     -0.2691     -0.2248
         4         0.3097     -0.2312    -16.6156     -0.0616      0.0275     -2.0168
 <0|del|b> * <b|rxdel|0> + <0|del|b> * <b|delr+rdel|0>
 Rotatory Strengths (R) in cgs (10**-40 erg-esu-cm/Gauss)
       state          XX          YY          ZZ    R(velocity)    E-M Angle
         1         0.0026      0.0089      0.0001      0.0038       90.00
         2         0.0140     -0.0048      0.0025      0.0039       90.00
         3        -0.0010      0.0026      0.0090      0.0035       90.00
         4        -0.0097      0.0119     -0.0076     -0.0018       90.00
 1/2[<0|r|b>*<b|rxdel|0> + (<0|rxdel|b>*<b|r|0>)*]
 Rotatory Strengths (R) in cgs (10**-40 erg-esu-cm/Gauss)
       state          XX          YY          ZZ     R(length)
         1        -0.0015      0.0000     -0.0003     -0.0006
         2      -232.2473   1234.7678   -975.9680      8.8508
         3         0.0035     -0.0002     -0.0030      0.0001
         4      -137.0663    714.8065   -574.5821      1.0527
  1/2[<0|del|b>*<b|r|0> + (<0|r|b>*<b|del|0>)*] (Au)
       state          X           Y           Z        Dip. S.   Osc.(frdel)
         1         0.0000      0.0000      0.0000      0.0000      0.0000
         2        -0.0082     -0.0847     -1.6218      1.7147      1.1431
         3         0.0000      0.0000      0.0000      0.0000      0.0000
         4        -0.0209     -0.0248     -1.0988      1.1445      0.7630

 Excitation energies and oscillator strengths:
 
 Excited state symmetry could not be determined.
 Excited State   1:      Singlet-?Sym    2.9327 eV  422.76 nm  f=0.0000  <S**2>=0.000
     156 -> 160        0.15096
     157 -> 160        0.23984
     158 -> 159        0.61123
 This state for optimization and/or second-order correction.
 Total Energy, E(TD-HF/TD-KS) =  -1955.29296789    
 Copying the excited state density for this state as the 1-particle RhoCI density.
 
 Excited state symmetry could not be determined.
 Excited State   2:      Singlet-?Sym    3.2280 eV  384.09 nm  f=1.1520  <S**2>=0.000
     155 -> 160       -0.12951
     156 -> 159        0.27974
     156 -> 161        0.11754
     158 -> 160        0.60231
 
 Excited state symmetry could not be determined.
 Excited State   3:      Singlet-?Sym    3.4344 eV  361.01 nm  f=0.0000  <S**2>=0.000
     156 -> 160       -0.11618
     157 -> 160        0.62630
     158 -> 159       -0.24844
 
 Excited state symmetry could not be determined.
 Excited State   4:      Singlet-?Sym    3.4501 eV  359.36 nm  f=0.7709  <S**2>=0.000
     155 -> 160       -0.10474
     157 -> 159        0.66730
     158 -> 160       -0.10956
 SavETr:  write IOETrn=   770 NScale= 10 NData=  16 NLR=1 NState=    4 LETran=      82.
 Leave Link  914 at Sat Nov  4 09:45:54 2017, MaxMem=  3758096384 cpu:     68385.3
 (Enter /share/apps/gaussian/g09_D01/g09/l601.exe)
 Copying SCF densities to generalized density rwf, IOpCl= 0 IROHF=0.

 **********************************************************************

            Population analysis using the SCF density.

 **********************************************************************

 Alpha  occ. eigenvalues --  -19.28355 -19.28355 -19.24937 -19.24937 -19.23731
 Alpha  occ. eigenvalues --  -19.23731 -14.46480 -14.46480 -10.38492 -10.38491
 Alpha  occ. eigenvalues --  -10.35695 -10.35694 -10.35347 -10.35347 -10.34660
 Alpha  occ. eigenvalues --  -10.34660 -10.34389 -10.34389 -10.31746 -10.31746
 Alpha  occ. eigenvalues --  -10.31349 -10.31349 -10.31338 -10.31338 -10.30698
 Alpha  occ. eigenvalues --  -10.30698 -10.30675 -10.30675 -10.30265 -10.30265
 Alpha  occ. eigenvalues --  -10.29984 -10.29984 -10.29952 -10.29952 -10.29424
 Alpha  occ. eigenvalues --  -10.29423 -10.29266 -10.29266 -10.28864 -10.28864
 Alpha  occ. eigenvalues --  -10.28729 -10.28728 -10.28474 -10.28474  -1.16999
 Alpha  occ. eigenvalues --   -1.16999  -1.15558  -1.15558  -1.11749  -1.11748
 Alpha  occ. eigenvalues --   -1.06526  -1.06525  -0.96510  -0.96485  -0.96351
 Alpha  occ. eigenvalues --   -0.96230  -0.90646  -0.90499  -0.87838  -0.87822
 Alpha  occ. eigenvalues --   -0.86052  -0.86048  -0.85836  -0.85834  -0.84308
 Alpha  occ. eigenvalues --   -0.84184  -0.82477  -0.82469  -0.79634  -0.79633
 Alpha  occ. eigenvalues --   -0.78547  -0.78407  -0.75014  -0.74927  -0.72124
 Alpha  occ. eigenvalues --   -0.72099  -0.70892  -0.70883  -0.69264  -0.69177
 Alpha  occ. eigenvalues --   -0.67266  -0.67179  -0.64469  -0.64435  -0.62633
 Alpha  occ. eigenvalues --   -0.62615  -0.62199  -0.62175  -0.61294  -0.61294
 Alpha  occ. eigenvalues --   -0.59029  -0.58932  -0.58504  -0.58407  -0.57620
 Alpha  occ. eigenvalues --   -0.57573  -0.56828  -0.56796  -0.56216  -0.56216
 Alpha  occ. eigenvalues --   -0.54784  -0.54771  -0.54224  -0.54193  -0.53634
 Alpha  occ. eigenvalues --   -0.53583  -0.52817  -0.52811  -0.51875  -0.51838
 Alpha  occ. eigenvalues --   -0.51634  -0.51625  -0.51388  -0.51334  -0.50685
 Alpha  occ. eigenvalues --   -0.50582  -0.49912  -0.49903  -0.49873  -0.49856
 Alpha  occ. eigenvalues --   -0.49007  -0.48804  -0.48214  -0.47615  -0.47610
 Alpha  occ. eigenvalues --   -0.47351  -0.46979  -0.46760  -0.46447  -0.46368
 Alpha  occ. eigenvalues --   -0.46298  -0.45966  -0.45335  -0.45305  -0.45162
 Alpha  occ. eigenvalues --   -0.45129  -0.44211  -0.44204  -0.42377  -0.42366
 Alpha  occ. eigenvalues --   -0.41745  -0.41710  -0.40498  -0.40438  -0.38808
 Alpha  occ. eigenvalues --   -0.38797  -0.35048  -0.34771  -0.34743  -0.34738
 Alpha  occ. eigenvalues --   -0.34541  -0.34224  -0.33891  -0.33399  -0.28607
 Alpha  occ. eigenvalues --   -0.28202  -0.26555  -0.25601
 Alpha virt. eigenvalues --   -0.03206  -0.02767   0.02665   0.03250   0.03343
 Alpha virt. eigenvalues --    0.03397   0.04283   0.04447   0.04733   0.04896
 Alpha virt. eigenvalues --    0.05090   0.05268   0.05518   0.05519   0.05996
 Alpha virt. eigenvalues --    0.06125   0.06522   0.06721   0.06995   0.07083
 Alpha virt. eigenvalues --    0.07184   0.07490   0.07551   0.07736   0.07938
 Alpha virt. eigenvalues --    0.08368   0.08607   0.08751   0.08908   0.09038
 Alpha virt. eigenvalues --    0.09459   0.09807   0.09872   0.10053   0.10259
 Alpha virt. eigenvalues --    0.10553   0.10697   0.11094   0.11254   0.11505
 Alpha virt. eigenvalues --    0.11647   0.11885   0.12076   0.12600   0.12762
 Alpha virt. eigenvalues --    0.12817   0.12956   0.13498   0.13697   0.14121
 Alpha virt. eigenvalues --    0.14263   0.14335   0.14385   0.14454   0.14635
 Alpha virt. eigenvalues --    0.14722   0.14844   0.14866   0.15106   0.15219
 Alpha virt. eigenvalues --    0.15642   0.16122   0.16160   0.16419   0.16526
 Alpha virt. eigenvalues --    0.16702   0.16724   0.16976   0.17025   0.17163
 Alpha virt. eigenvalues --    0.17473   0.17503   0.17687   0.17795   0.18096
 Alpha virt. eigenvalues --    0.18177   0.18360   0.18553   0.18583   0.18607
 Alpha virt. eigenvalues --    0.18758   0.18923   0.19067   0.19333   0.19388
 Alpha virt. eigenvalues --    0.19556   0.19777   0.19867   0.19933   0.20082
 Alpha virt. eigenvalues --    0.20387   0.20612   0.20639   0.20728   0.20782
 Alpha virt. eigenvalues --    0.20875   0.21082   0.21318   0.21391   0.21515
 Alpha virt. eigenvalues --    0.21965   0.22035   0.22071   0.22207   0.22370
 Alpha virt. eigenvalues --    0.22453   0.22705   0.22820   0.22858   0.22941
 Alpha virt. eigenvalues --    0.23183   0.23354   0.23503   0.23670   0.23678
 Alpha virt. eigenvalues --    0.23789   0.23926   0.24020   0.24229   0.24328
 Alpha virt. eigenvalues --    0.24569   0.24667   0.24776   0.25001   0.25074
 Alpha virt. eigenvalues --    0.25248   0.25551   0.25967   0.25989   0.26149
 Alpha virt. eigenvalues --    0.26456   0.26497   0.27076   0.27147   0.27325
 Alpha virt. eigenvalues --    0.27433   0.27534   0.27593   0.27725   0.27729
 Alpha virt. eigenvalues --    0.28065   0.28074   0.28150   0.28317   0.28376
 Alpha virt. eigenvalues --    0.28619   0.28755   0.29094   0.29109   0.29297
 Alpha virt. eigenvalues --    0.29305   0.29412   0.29628   0.29693   0.29890
 Alpha virt. eigenvalues --    0.30002   0.30382   0.30889   0.30929   0.31121
 Alpha virt. eigenvalues --    0.31167   0.31351   0.31704   0.31905   0.32000
 Alpha virt. eigenvalues --    0.32295   0.32418   0.32643   0.32747   0.32822
 Alpha virt. eigenvalues --    0.32889   0.33181   0.33184   0.33579   0.33798
 Alpha virt. eigenvalues --    0.33963   0.34128   0.34140   0.34254   0.34423
 Alpha virt. eigenvalues --    0.34503   0.34818   0.34843   0.35151   0.35479
 Alpha virt. eigenvalues --    0.35502   0.35552   0.35634   0.35778   0.35854
 Alpha virt. eigenvalues --    0.35875   0.36168   0.36622   0.36691   0.36896
 Alpha virt. eigenvalues --    0.37033   0.37157   0.37269   0.37492   0.37584
 Alpha virt. eigenvalues --    0.37849   0.37996   0.38309   0.38395   0.38477
 Alpha virt. eigenvalues --    0.38739   0.38952   0.38979   0.39104   0.39222
 Alpha virt. eigenvalues --    0.39281   0.39687   0.39796   0.39971   0.40147
 Alpha virt. eigenvalues --    0.40241   0.40314   0.40604   0.40742   0.41146
 Alpha virt. eigenvalues --    0.41292   0.41632   0.41742   0.42046   0.42217
 Alpha virt. eigenvalues --    0.42421   0.42641   0.42746   0.42823   0.42900
 Alpha virt. eigenvalues --    0.43168   0.43318   0.43498   0.43709   0.43871
 Alpha virt. eigenvalues --    0.44382   0.44424   0.44664   0.44833   0.44926
 Alpha virt. eigenvalues --    0.45270   0.45354   0.45626   0.46063   0.46172
 Alpha virt. eigenvalues --    0.46279   0.46470   0.46809   0.47227   0.47360
 Alpha virt. eigenvalues --    0.47461   0.47607   0.47671   0.47902   0.48136
 Alpha virt. eigenvalues --    0.48292   0.48392   0.49252   0.49342   0.49578
 Alpha virt. eigenvalues --    0.50123   0.51063   0.51150   0.51534   0.51706
 Alpha virt. eigenvalues --    0.51908   0.52072   0.52318   0.52937   0.52958
 Alpha virt. eigenvalues --    0.53525   0.53579   0.53768   0.53808   0.54225
 Alpha virt. eigenvalues --    0.54591   0.54669   0.55704   0.55839   0.56318
 Alpha virt. eigenvalues --    0.56660   0.57788   0.57832   0.58461   0.58668
 Alpha virt. eigenvalues --    0.59140   0.59457   0.59678   0.60128   0.61019
 Alpha virt. eigenvalues --    0.61306   0.62013   0.62561   0.62975   0.63403
 Alpha virt. eigenvalues --    0.63977   0.64223   0.64380   0.64399   0.64487
 Alpha virt. eigenvalues --    0.64947   0.64999   0.65507   0.65742   0.66288
 Alpha virt. eigenvalues --    0.66617   0.66901   0.66986   0.67362   0.67480
 Alpha virt. eigenvalues --    0.68060   0.68153   0.69022   0.69306   0.69335
 Alpha virt. eigenvalues --    0.69496   0.69554   0.70094   0.70241   0.70438
 Alpha virt. eigenvalues --    0.70975   0.71234   0.71411   0.71415   0.71672
 Alpha virt. eigenvalues --    0.71695   0.72308   0.72817   0.72888   0.73521
 Alpha virt. eigenvalues --    0.73824   0.73827   0.74078   0.74259   0.74425
 Alpha virt. eigenvalues --    0.75025   0.75207   0.75256   0.75561   0.75736
 Alpha virt. eigenvalues --    0.76021   0.76605   0.76768   0.76777   0.77031
 Alpha virt. eigenvalues --    0.77034   0.77124   0.77521   0.78112   0.78162
 Alpha virt. eigenvalues --    0.78350   0.78661   0.78810   0.79098   0.79250
 Alpha virt. eigenvalues --    0.79548   0.80040   0.80262   0.81066   0.81225
 Alpha virt. eigenvalues --    0.81391   0.81543   0.81822   0.82121   0.82235
 Alpha virt. eigenvalues --    0.82723   0.83014   0.83082   0.83449   0.83568
 Alpha virt. eigenvalues --    0.84179   0.84651   0.84897   0.84980   0.85075
 Alpha virt. eigenvalues --    0.85521   0.85856   0.85917   0.86288   0.86308
 Alpha virt. eigenvalues --    0.86755   0.86824   0.87253   0.87338   0.87373
 Alpha virt. eigenvalues --    0.87415   0.87679   0.88233   0.88494   0.88804
 Alpha virt. eigenvalues --    0.88860   0.89017   0.89392   0.89759   0.90039
 Alpha virt. eigenvalues --    0.90169   0.90818   0.91001   0.91427   0.91527
 Alpha virt. eigenvalues --    0.91652   0.91928   0.92203   0.92681   0.92785
 Alpha virt. eigenvalues --    0.93548   0.93913   0.94452   0.94489   0.95084
 Alpha virt. eigenvalues --    0.96097   0.96284   0.96945   0.97153   0.97202
 Alpha virt. eigenvalues --    0.97513   0.98078   0.98637   0.99135   0.99494
 Alpha virt. eigenvalues --    1.00035   1.00262   1.00669   1.00855   1.01688
 Alpha virt. eigenvalues --    1.01839   1.02040   1.02680   1.02921   1.03344
 Alpha virt. eigenvalues --    1.03466   1.03544   1.04110   1.04790   1.04903
 Alpha virt. eigenvalues --    1.05473   1.05851   1.06196   1.06505   1.07001
 Alpha virt. eigenvalues --    1.07039   1.07476   1.07756   1.07924   1.08329
 Alpha virt. eigenvalues --    1.08590   1.09286   1.09385   1.09846   1.09989
 Alpha virt. eigenvalues --    1.10152   1.10776   1.10975   1.11464   1.11550
 Alpha virt. eigenvalues --    1.11921   1.12348   1.12587   1.13865   1.13932
 Alpha virt. eigenvalues --    1.13937   1.14408   1.14591   1.14688   1.14847
 Alpha virt. eigenvalues --    1.15232   1.15655   1.15739   1.15772   1.16637
 Alpha virt. eigenvalues --    1.16776   1.16777   1.17441   1.17724   1.18162
 Alpha virt. eigenvalues --    1.18670   1.18951   1.19093   1.19422   1.19682
 Alpha virt. eigenvalues --    1.19875   1.20400   1.20902   1.21496   1.21893
 Alpha virt. eigenvalues --    1.21909   1.22023   1.22780   1.23574   1.23645
 Alpha virt. eigenvalues --    1.23902   1.24235   1.24433   1.24664   1.25416
 Alpha virt. eigenvalues --    1.26142   1.26649   1.26865   1.27135   1.28276
 Alpha virt. eigenvalues --    1.28449   1.28907   1.30060   1.30248   1.30435
 Alpha virt. eigenvalues --    1.31955   1.32277   1.32987   1.33537   1.35366
 Alpha virt. eigenvalues --    1.35375   1.36198   1.36374   1.37210   1.37706
 Alpha virt. eigenvalues --    1.38295   1.38656   1.39094   1.39351   1.39500
 Alpha virt. eigenvalues --    1.39954   1.40152   1.41112   1.41472   1.41902
 Alpha virt. eigenvalues --    1.43140   1.43171   1.44898   1.45070   1.47266
 Alpha virt. eigenvalues --    1.48237   1.48241   1.48677   1.49762   1.50847
 Alpha virt. eigenvalues --    1.51096   1.51397   1.51764   1.52155   1.52297
 Alpha virt. eigenvalues --    1.53638   1.54421   1.54490   1.54790   1.55549
 Alpha virt. eigenvalues --    1.55920   1.56029   1.56275   1.56515   1.56692
 Alpha virt. eigenvalues --    1.57873   1.58514   1.58718   1.59501   1.59982
 Alpha virt. eigenvalues --    1.60341   1.60706   1.61249   1.61472   1.61791
 Alpha virt. eigenvalues --    1.61931   1.61949   1.62517   1.62566   1.62961
 Alpha virt. eigenvalues --    1.63197   1.63656   1.64548   1.64865   1.65088
 Alpha virt. eigenvalues --    1.65473   1.66015   1.66146   1.66272   1.66539
 Alpha virt. eigenvalues --    1.66734   1.67240   1.67552   1.67890   1.68191
 Alpha virt. eigenvalues --    1.68408   1.68624   1.68646   1.69309   1.69681
 Alpha virt. eigenvalues --    1.70088   1.70387   1.70681   1.70837   1.71196
 Alpha virt. eigenvalues --    1.71615   1.72057   1.72064   1.72380   1.72677
 Alpha virt. eigenvalues --    1.73185   1.73575   1.74086   1.74752   1.74819
 Alpha virt. eigenvalues --    1.74865   1.75850   1.76064   1.77346   1.77409
 Alpha virt. eigenvalues --    1.77816   1.78005   1.78645   1.78947   1.79063
 Alpha virt. eigenvalues --    1.79332   1.80475   1.80571   1.81276   1.81651
 Alpha virt. eigenvalues --    1.81699   1.83127   1.83551   1.83686   1.84028
 Alpha virt. eigenvalues --    1.84397   1.84438   1.84905   1.84960   1.85109
 Alpha virt. eigenvalues --    1.85248   1.85452   1.86359   1.87220   1.87484
 Alpha virt. eigenvalues --    1.87833   1.88213   1.88401   1.88492   1.88719
 Alpha virt. eigenvalues --    1.89067   1.89119   1.90127   1.90444   1.91111
 Alpha virt. eigenvalues --    1.92030   1.92597   1.93686   1.94917   1.95088
 Alpha virt. eigenvalues --    1.95232   1.96037   1.96132   1.96527   1.97223
 Alpha virt. eigenvalues --    1.97900   1.98476   1.98821   1.99725   1.99779
 Alpha virt. eigenvalues --    2.00397   2.01126   2.02090   2.02247   2.02405
 Alpha virt. eigenvalues --    2.02601   2.02695   2.03291   2.03751   2.04208
 Alpha virt. eigenvalues --    2.04553   2.04697   2.04769   2.05080   2.05649
 Alpha virt. eigenvalues --    2.05749   2.05975   2.06656   2.07302   2.07478
 Alpha virt. eigenvalues --    2.08654   2.08720   2.09249   2.09542   2.10313
 Alpha virt. eigenvalues --    2.10738   2.10880   2.11066   2.11745   2.11837
 Alpha virt. eigenvalues --    2.12898   2.13607   2.13712   2.14862   2.15436
 Alpha virt. eigenvalues --    2.15698   2.16432   2.16466   2.17199   2.17225
 Alpha virt. eigenvalues --    2.17431   2.17663   2.18029   2.18144   2.18558
 Alpha virt. eigenvalues --    2.19504   2.19760   2.20359   2.20430   2.20495
 Alpha virt. eigenvalues --    2.21224   2.21350   2.22106   2.22499   2.23626
 Alpha virt. eigenvalues --    2.23943   2.24440   2.24757   2.25756   2.25999
 Alpha virt. eigenvalues --    2.26626   2.26921   2.28050   2.28242   2.28670
 Alpha virt. eigenvalues --    2.29003   2.30750   2.31250   2.32175   2.33212
 Alpha virt. eigenvalues --    2.33233   2.33311   2.35978   2.36146   2.36505
 Alpha virt. eigenvalues --    2.36744   2.37998   2.38195   2.39291   2.39439
 Alpha virt. eigenvalues --    2.41205   2.41240   2.41841   2.41979   2.43855
 Alpha virt. eigenvalues --    2.44391   2.44947   2.45772   2.46788   2.47136
 Alpha virt. eigenvalues --    2.48904   2.49272   2.50148   2.50184   2.53140
 Alpha virt. eigenvalues --    2.53704   2.53937   2.54098   2.54273   2.54302
 Alpha virt. eigenvalues --    2.55050   2.55155   2.57332   2.57628   2.57999
 Alpha virt. eigenvalues --    2.58109   2.59173   2.59526   2.59678   2.59885
 Alpha virt. eigenvalues --    2.60946   2.60958   2.61735   2.61900   2.63104
 Alpha virt. eigenvalues --    2.63400   2.64025   2.64387   2.65203   2.65489
 Alpha virt. eigenvalues --    2.67742   2.67766   2.68486   2.68857   2.69535
 Alpha virt. eigenvalues --    2.69892   2.70862   2.71342   2.72856   2.73158
 Alpha virt. eigenvalues --    2.73496   2.73535   2.74289   2.74384   2.76743
 Alpha virt. eigenvalues --    2.76961   2.77769   2.77773   2.80049   2.80198
 Alpha virt. eigenvalues --    2.81075   2.81608   2.82060   2.82343   2.82542
 Alpha virt. eigenvalues --    2.82948   2.83404   2.84034   2.84320   2.85034
 Alpha virt. eigenvalues --    2.85447   2.85797   2.86789   2.87291   2.87439
 Alpha virt. eigenvalues --    2.87998   2.88279   2.88441   2.88760   2.89065
 Alpha virt. eigenvalues --    2.90023   2.90024   2.90367   2.90505   2.91225
 Alpha virt. eigenvalues --    2.91458   2.91521   2.91813   2.92352   2.92605
 Alpha virt. eigenvalues --    2.93192   2.93315   2.94856   2.94923   2.95317
 Alpha virt. eigenvalues --    2.95455   2.95585   2.95607   2.95905   2.96423
 Alpha virt. eigenvalues --    2.97151   2.97225   2.98536   2.98839   2.99010
 Alpha virt. eigenvalues --    2.99117   2.99945   3.00264   3.01713   3.01752
 Alpha virt. eigenvalues --    3.02143   3.02358   3.03335   3.03879   3.04061
 Alpha virt. eigenvalues --    3.04926   3.05735   3.05961   3.07009   3.07255
 Alpha virt. eigenvalues --    3.08927   3.09260   3.10270   3.11084   3.11407
 Alpha virt. eigenvalues --    3.11410   3.12575   3.13652   3.14034   3.14440
 Alpha virt. eigenvalues --    3.14757   3.15128   3.15512   3.15730   3.16104
 Alpha virt. eigenvalues --    3.17375   3.19917   3.20395   3.20906   3.20966
 Alpha virt. eigenvalues --    3.21786   3.22112   3.22215   3.22547   3.22806
 Alpha virt. eigenvalues --    3.23186   3.23897   3.24065   3.24562   3.26531
 Alpha virt. eigenvalues --    3.27680   3.28087   3.29935   3.30258   3.31085
 Alpha virt. eigenvalues --    3.31361   3.31861   3.31876   3.33097   3.33161
 Alpha virt. eigenvalues --    3.34526   3.34739   3.35379   3.35487   3.37902
 Alpha virt. eigenvalues --    3.38317   3.39918   3.39936   3.40105   3.41129
 Alpha virt. eigenvalues --    3.43600   3.43845   3.44952   3.45009   3.49534
 Alpha virt. eigenvalues --    3.50092   3.50147   3.51746   3.51749   3.52309
 Alpha virt. eigenvalues --    3.54101   3.54438   3.59031   3.59702   3.62588
 Alpha virt. eigenvalues --    3.62825   3.63324   3.64227   3.65347   3.65459
 Alpha virt. eigenvalues --    3.66377   3.67137   3.67549   3.67859   3.70642
 Alpha virt. eigenvalues --    3.70646   3.75141   3.75309   3.78486   3.78813
 Alpha virt. eigenvalues --    3.79363   3.79538   3.80584   3.81201   3.81945
 Alpha virt. eigenvalues --    3.82203   3.83058   3.84166   3.85815   3.85823
 Alpha virt. eigenvalues --    3.87036   3.87441   3.90794   3.91006   3.91397
 Alpha virt. eigenvalues --    3.91618   3.91713   3.91797   3.93673   3.93920
 Alpha virt. eigenvalues --    3.96252   3.96569   4.02480   4.02662   4.07765
 Alpha virt. eigenvalues --    4.08686   4.11913   4.12009   4.14821   4.15161
 Alpha virt. eigenvalues --    4.17358   4.17547   4.17916   4.18054   4.19502
 Alpha virt. eigenvalues --    4.19604   4.26875   4.26889   4.28498   4.28845
 Alpha virt. eigenvalues --    4.29613   4.30109   4.32405   4.33030   4.33450
 Alpha virt. eigenvalues --    4.34101   4.39278   4.39803   4.54176   4.54316
 Alpha virt. eigenvalues --    4.78807   4.79787   4.93871   4.94128   4.94531
 Alpha virt. eigenvalues --    4.94708   5.02132   5.02159   5.17262   5.17318
 Alpha virt. eigenvalues --    5.20463   5.20513   5.21807   5.21864   5.26224
 Alpha virt. eigenvalues --    5.26757   5.40284   5.41116   5.54488   5.54646
 Alpha virt. eigenvalues --    5.67359   5.67366   5.84840   5.84889   5.92916
 Alpha virt. eigenvalues --    5.93018   5.97166   5.97375  23.76363  23.77698
 Alpha virt. eigenvalues --   23.85602  23.86937  23.98406  23.99861  24.03364
 Alpha virt. eigenvalues --   24.03625  24.03637  24.03914  24.05012  24.05836
 Alpha virt. eigenvalues --   24.07459  24.07641  24.07849  24.08020  24.10782
 Alpha virt. eigenvalues --   24.11203  24.12352  24.12380  24.12776  24.12965
 Alpha virt. eigenvalues --   24.13624  24.13714  24.16425  24.17738  24.21928
 Alpha virt. eigenvalues --   24.21973  24.26740  24.26954  24.29262  24.29357
 Alpha virt. eigenvalues --   24.31368  24.31550  24.32536  24.32943  35.76991
 Alpha virt. eigenvalues --   35.77080  50.10637  50.10642  50.15539  50.15545
 Alpha virt. eigenvalues --   50.21289  50.21394
          Condensed to atoms (all electrons):
 Mulliken charges:
               1
     1  C    0.237520
     2  C   -0.407216
     3  H    0.227816
     4  C   -0.435897
     5  C   -0.413398
     6  O   -0.079280
     7  C   -0.429983
     8  H    0.250306
     9  H    0.322700
    10  C    0.432155
    11  C   -0.368166
    12  O   -0.229964
    13  C   -0.081523
    14  H    0.160054
    15  H    0.203040
    16  H    0.161825
    17  H    0.350263
    18  C    0.050441
    19  O   -0.278551
    20  H   -0.114283
    21  C   -0.139908
    22  C    0.241577
    23  H    0.287151
    24  C   -0.385766
    25  C   -0.320820
    26  C   -0.310693
    27  H    0.206618
    28  C   -0.319741
    29  H    0.200487
    30  C    0.174301
    31  H    0.217710
    32  H    0.181544
    33  N    0.104531
    34  C   -0.432712
    35  C   -0.326406
    36  H    0.194764
    37  H    0.171276
    38  H    0.180545
    39  H    0.177354
    40  H    0.138649
    41  H    0.201678
    42  C   -0.435897
    43  C   -0.429982
    44  H    0.250306
    45  C    0.237521
    46  C    0.432156
    47  O   -0.229964
    48  C   -0.407214
    49  H    0.227817
    50  C   -0.081530
    51  C   -0.413389
    52  H    0.350263
    53  O   -0.079279
    54  C    0.050437
    55  O   -0.278551
    56  H    0.322700
    57  C   -0.368166
    58  C   -0.139906
    59  H   -0.114283
    60  H    0.160054
    61  H    0.203040
    62  H    0.161825
    63  C    0.241565
    64  H    0.287151
    65  C   -0.320826
    66  C   -0.385771
    67  C   -0.319735
    68  H    0.200486
    69  C   -0.310693
    70  H    0.206620
    71  H    0.181544
    72  C    0.174315
    73  H    0.217708
    74  N    0.104528
    75  C   -0.432712
    76  C   -0.326403
    77  H    0.180545
    78  H    0.194764
    79  H    0.171276
    80  H    0.177354
    81  H    0.138650
    82  H    0.201678
 Sum of Mulliken charges =   0.00000
 Mulliken charges with hydrogens summed into heavy atoms:
               1
     1  C    0.465337
     2  C   -0.407216
     4  C   -0.185591
     5  C   -0.090698
     6  O   -0.079280
     7  C   -0.429983
    10  C    0.432155
    11  C    0.156753
    12  O    0.120299
    13  C   -0.081523
    18  C   -0.063842
    19  O   -0.278551
    21  C    0.147243
    22  C    0.241577
    24  C   -0.179148
    25  C   -0.120333
    26  C   -0.092983
    28  C   -0.138197
    30  C    0.174301
    33  N    0.104531
    34  C    0.113873
    35  C    0.191275
    42  C   -0.185591
    43  C   -0.429982
    45  C    0.465338
    46  C    0.432156
    47  O    0.120299
    48  C   -0.407214
    50  C   -0.081530
    51  C   -0.090689
    53  O   -0.079279
    54  C   -0.063845
    55  O   -0.278551
    57  C    0.156752
    58  C    0.147245
    63  C    0.241565
    65  C   -0.120340
    66  C   -0.179152
    67  C   -0.138191
    69  C   -0.092985
    72  C    0.174315
    74  N    0.104528
    75  C    0.113873
    76  C    0.191278
 Electronic spatial extent (au):  <R**2>=         194880.4137
 Charge=              0.0000 electrons
 Dipole moment (field-independent basis, Debye):
    X=              0.0000    Y=              0.0000    Z=              0.0000  Tot=              0.0000
 Quadrupole moment (field-independent basis, Debye-Ang):
   XX=           -245.4380   YY=           -288.2765   ZZ=           -197.4608
   XY=             15.9730   XZ=             37.6143   YZ=            -16.0578
 Traceless Quadrupole moment (field-independent basis, Debye-Ang):
   XX=             -1.7129   YY=            -44.5514   ZZ=             46.2643
   XY=             15.9730   XZ=             37.6143   YZ=            -16.0578
 Octapole moment (field-independent basis, Debye-Ang**2):
  XXX=           1175.8863  YYY=            949.6725  ZZZ=           7013.1630  XYY=            425.2947
  XXY=            218.4988  XXZ=           2785.5789  XZZ=           -575.2817  YZZ=            597.0462
  YYZ=           3448.1458  XYZ=           -204.7636
 Hexadecapole moment (field-independent basis, Debye-Ang**3):
 XXXX=          -8575.6006 YYYY=          -9465.5097 ZZZZ=        -192610.8055 XXXY=          -1591.0470
 XXXZ=         -14332.3881 YYYX=          -1971.9235 YYYZ=         -15964.7814 ZZZX=           5527.3019
 ZZZY=         -18172.3940 XXYY=          -3020.4266 XXZZ=         -37301.9578 YYZZ=         -48228.4919
 XXYZ=          -3825.4463 YYXZ=          -5067.0453 ZZXY=           2897.7478
 N-N= 5.258157861942D+03 E-N=-1.507302658862D+04  KE= 1.946524280854D+03
 Leave Link  601 at Sat Nov  4 09:45:55 2017, MaxMem=  3758096384 cpu:         1.3
 (Enter /share/apps/gaussian/g09_D01/g09/l9999.exe)
 1\1\GINC-NXN32\SP\RwB97XD TD-FC\6-311++G(d,p)\C36H38N2O6\BTX008\04-Nov
 -2017\0\\#p wb97xd 6-311++G** td=(nstates=4) nosymm\\Title\\0,1\C,0,-3
 .085431,-3.546101,-18.68995\C,0,-3.803236,-3.178364,-17.539139\H,0,-3.
 558414,-3.542171,-19.669863\C,0,-1.756731,-3.933599,-18.587806\C,0,-3.
 159572,-3.183886,-16.307265\O,0,-5.132139,-2.821035,-17.538551\C,0,-1.
 101463,-3.95662,-17.350372\H,0,-1.211966,-4.24967,-19.47764\H,0,-3.741
 779,-2.893099,-15.435471\C,0,-1.810542,-3.563913,-16.17553\C,0,-5.8453
 4,-2.997131,-18.771402\O,0,0.190242,-4.344893,-17.295538\C,0,-1.116053
 ,-3.601804,-14.877891\H,0,-5.699885,-4.01635,-19.16372\H,0,-6.903456,-
 2.852205,-18.528593\H,0,-5.520759,-2.257664,-19.518946\H,0,0.409302,-4
 .284539,-16.284674\C,0,-1.801113,-3.228043,-13.663599\O,0,0.10994,-3.9
 72397,-14.855443\H,0,-2.796781,-2.798314,-13.742041\C,0,-1.223295,-3.3
 74099,-12.437663\C,0,-1.751526,-3.000815,-11.161204\H,0,-0.222266,-3.8
 15979,-12.424026\C,0,-3.02812,-2.428791,-10.955517\C,0,-0.946318,-3.18
 9744,-10.017136\C,0,-3.450669,-2.042579,-9.703733\H,0,-3.700091,-2.287
 654,-11.803292\C,0,-1.33978,-2.786392,-8.759626\H,0,0.024222,-3.669107
 ,-10.135581\C,0,-2.60382,-2.174831,-8.567571\H,0,-4.451614,-1.636857,-
 9.584384\H,0,-0.67412,-2.954344,-7.916723\N,0,-2.990406,-1.725978,-7.3
 39064\C,0,-4.287887,-1.09758,-7.152439\C,0,-2.089753,-1.851358,-6.2052
 78\H,0,-5.112373,-1.820376,-7.27069\H,0,-4.334769,-0.674045,-6.145539\
 H,0,-4.430849,-0.273741,-7.868291\H,0,-1.131914,-1.344777,-6.404447\H,
 0,-2.546339,-1.387393,-5.327513\H,0,-1.88453,-2.909439,-5.972648\C,0,-
 1.43725,1.737391,-5.090015\C,0,-2.092518,1.760412,-6.327449\H,0,-1.982
 015,2.053463,-4.200181\C,0,-0.10855,1.349894,-4.987871\C,0,-1.383439,1
 .367706,-7.502291\O,0,-3.384223,2.148685,-6.382283\C,0,0.609255,0.9821
 57,-6.138682\H,0,0.364433,1.345964,-4.007958\C,0,-2.077928,1.405596,-8
 .79993\C,0,-0.034409,0.987679,-7.370556\H,0,-3.603283,2.088332,-7.3931
 47\O,0,1.938158,0.624828,-6.13927\C,0,-1.392868,1.031835,-10.014222\O,
 0,-3.303921,1.77619,-8.822378\H,0,0.547798,0.696891,-8.24235\C,0,2.651
 358,0.800924,-4.906419\C,0,-1.970686,1.177892,-11.240158\H,0,-0.3972,0
 .602107,-9.93578\H,0,2.505904,1.820143,-4.514101\H,0,3.709475,0.655998
 ,-5.149228\H,0,2.326778,0.061456,-4.158875\C,0,-1.442455,0.804607,-12.
 516617\H,0,-2.971715,1.619772,-11.253795\C,0,-2.247663,0.993537,-13.66
 0685\C,0,-0.165861,0.232584,-12.722303\C,0,-1.854201,0.590184,-14.9181
 95\H,0,-3.218203,1.4729,-13.54224\C,0,0.256689,-0.153628,-13.974088\H,
 0,0.50611,0.091446,-11.874529\H,0,-2.519861,0.758137,-15.761098\C,0,-0
 .59016,-0.021376,-15.110249\H,0,1.257633,-0.559351,-14.093437\N,0,-0.2
 03575,-0.470229,-16.338756\C,0,1.093907,-1.098627,-16.525381\C,0,-1.10
 4228,-0.34485,-17.472543\H,0,1.236868,-1.922466,-15.809531\H,0,1.91839
 3,-0.375831,-16.407131\H,0,1.140789,-1.522162,-17.532281\H,0,-2.062067
 ,-0.851431,-17.273374\H,0,-0.647642,-0.808814,-18.350308\H,0,-1.309451
 ,0.713232,-17.705173\\Version=ES64L-G09RevD.01\HF=-1955.4007433\RMSD=5
 .314e-09\PG=CI [X(C36H38N2O6)]\\@


 IT IS UNWORTHY OF EXCELLENT MEN TO LOSE HOURS LIKE SLAVES IN THE LABOR
 OF CALCULATION WHICH COULD BE SAFELY RELEGATED TO ANYONE ELSE
 IF A MACHINE WERE USED.
    -- G.W. VON LEIBNIZ
 Job cpu time:       1 days  4 hours 42 minutes 32.0 seconds.
 File lengths (MBytes):  RWF=   2211 Int=      0 D2E=      0 Chk=    246 Scr=      1
 Normal termination of Gaussian 09 at Sat Nov  4 09:45:56 2017.
