 Entering Gaussian System, Link 0=g09
 Input=2hc_5_rel-mega_dimer_3_mon-0.com
 Output=2hc_5_rel-mega_dimer_3_mon-0.out
 Initial command:
 /share/apps/gaussian/g09_D01/g09/l1.exe "/tmp/160970.1.all.q/Gau-3998.inp" -scrdir="/tmp/160970.1.all.q/"
 Entering Link 1 = /share/apps/gaussian/g09_D01/g09/l1.exe PID=      3999.
  
 Copyright (c) 1988,1990,1992,1993,1995,1998,2003,2009,2013,
            Gaussian, Inc.  All Rights Reserved.
  
 This is part of the Gaussian(R) 09 program.  It is based on
 the Gaussian(R) 03 system (copyright 2003, Gaussian, Inc.),
 the Gaussian(R) 98 system (copyright 1998, Gaussian, Inc.),
 the Gaussian(R) 94 system (copyright 1995, Gaussian, Inc.),
 the Gaussian 92(TM) system (copyright 1992, Gaussian, Inc.),
 the Gaussian 90(TM) system (copyright 1990, Gaussian, Inc.),
 the Gaussian 88(TM) system (copyright 1988, Gaussian, Inc.),
 the Gaussian 86(TM) system (copyright 1986, Carnegie Mellon
 University), and the Gaussian 82(TM) system (copyright 1983,
 Carnegie Mellon University). Gaussian is a federally registered
 trademark of Gaussian, Inc.
  
 This software contains proprietary and confidential information,
 including trade secrets, belonging to Gaussian, Inc.
  
 This software is provided under written license and may be
 used, copied, transmitted, or stored only in accord with that
 written license.
  
 The following legend is applicable only to US Government
 contracts under FAR:
  
                    RESTRICTED RIGHTS LEGEND
  
 Use, reproduction and disclosure by the US Government is
 subject to restrictions as set forth in subparagraphs (a)
 and (c) of the Commercial Computer Software - Restricted
 Rights clause in FAR 52.227-19.
  
 Gaussian, Inc.
 340 Quinnipiac St., Bldg. 40, Wallingford CT 06492
  
  
 ---------------------------------------------------------------
 Warning -- This program may not be used in any manner that
 competes with the business of Gaussian, Inc. or will provide
 assistance to any competitor of Gaussian, Inc.  The licensee
 of this program is prohibited from giving any competitor of
 Gaussian, Inc. access to this program.  By using this program,
 the user acknowledges that Gaussian, Inc. is engaged in the
 business of creating and licensing software in the field of
 computational chemistry and represents and warrants to the
 licensee that it is not a competitor of Gaussian, Inc. and that
 it will not use this program in any manner prohibited above.
 ---------------------------------------------------------------
  

 Cite this work as:
 Gaussian 09, Revision D.01,
 M. J. Frisch, G. W. Trucks, H. B. Schlegel, G. E. Scuseria, 
 M. A. Robb, J. R. Cheeseman, G. Scalmani, V. Barone, B. Mennucci, 
 G. A. Petersson, H. Nakatsuji, M. Caricato, X. Li, H. P. Hratchian, 
 A. F. Izmaylov, J. Bloino, G. Zheng, J. L. Sonnenberg, M. Hada, 
 M. Ehara, K. Toyota, R. Fukuda, J. Hasegawa, M. Ishida, T. Nakajima, 
 Y. Honda, O. Kitao, H. Nakai, T. Vreven, J. A. Montgomery, Jr., 
 J. E. Peralta, F. Ogliaro, M. Bearpark, J. J. Heyd, E. Brothers, 
 K. N. Kudin, V. N. Staroverov, T. Keith, R. Kobayashi, J. Normand, 
 K. Raghavachari, A. Rendell, J. C. Burant, S. S. Iyengar, J. Tomasi, 
 M. Cossi, N. Rega, J. M. Millam, M. Klene, J. E. Knox, J. B. Cross, 
 V. Bakken, C. Adamo, J. Jaramillo, R. Gomperts, R. E. Stratmann, 
 O. Yazyev, A. J. Austin, R. Cammi, C. Pomelli, J. W. Ochterski, 
 R. L. Martin, K. Morokuma, V. G. Zakrzewski, G. A. Voth, 
 P. Salvador, J. J. Dannenberg, S. Dapprich, A. D. Daniels, 
 O. Farkas, J. B. Foresman, J. V. Ortiz, J. Cioslowski, 
 and D. J. Fox, Gaussian, Inc., Wallingford CT, 2013.
 
 ******************************************
 Gaussian 09:  ES64L-G09RevD.01 24-Apr-2013
                 6-Nov-2017 
 ******************************************
 %chk=2hc_5_rel-mega_dimer_3_mon-0.chk
 %nproc=4
 Will use up to    4 processors via shared memory.
 %mem=28GB
 ------------------------------------------
 #p wb97xd 6-311++G** td=(nstates=4) nosymm
 ------------------------------------------
 1/38=1/1;
 2/12=2,15=1,17=6,18=5,40=1/2;
 3/5=4,6=6,7=1111,11=9,16=1,25=1,30=1,74=-58/1,2,8,3;
 4//1;
 5/5=2,38=5/2;
 8/6=1,10=2,108=4/1;
 9/41=4,42=1,70=2/14;
 6/7=2,8=2,9=2,10=2/1;
 99/5=1,9=1/99;
 Leave Link    1 at Mon Nov  6 03:35:31 2017, MaxMem=  3758096384 cpu:         0.3
 (Enter /share/apps/gaussian/g09_D01/g09/l101.exe)
 -----
 Title
 -----
 Symbolic Z-matrix:
 Charge =  0 Multiplicity = 1
 C                    -5.70642  -6.01206  -16.45542 
 H                    -5.87011  -6.81802  -15.72165 
 H                    -6.66194  -5.71994  -16.90729 
 H                    -5.2476   -5.13956  -15.9604 
 O                    -4.87995  -6.46471  -17.53006 
 C                    -3.6199   -6.9158   -17.21033 
 C                    -3.09015  -6.96569  -15.92997 
 C                    -2.84709  -7.35136  -18.30179 
 H                    -3.68734  -6.63242  -15.08701 
 C                    -1.77423  -7.43928  -15.70582 
 C                    -1.56793  -7.83394  -18.10963 
 H                    -3.27165  -7.29431  -19.30297 
 C                    -1.00726  -7.87704  -16.82498 
 C                    -1.15175  -7.47686  -14.37571 
 H                    -0.97133  -8.16987  -18.95778 
 O                     0.25531  -8.34082  -16.67394 
 C                    -1.86585  -7.08765  -13.18695 
 O                     0.07143  -7.86573  -14.28592 
 H                     0.42631  -8.20116  -15.64705 
 C                    -1.2637   -7.14045  -11.96253 
 H                    -2.88963  -6.73413  -13.27918 
 C                    -1.77124  -6.74384  -10.68837 
 H                    -0.23858  -7.52542  -11.95177 
 C                    -3.04688  -6.16686  -10.48126 
 C                    -0.94137  -6.90304  -9.55501 
 C                    -3.45716  -5.76333  -9.23278 
 H                    -3.72049  -6.0284   -11.32714 
 C                    -1.33409  -6.50544  -8.29517 
 H                     0.04494  -7.34742  -9.69205 
 H                    -4.44474  -5.32253  -9.12009 
 C                    -2.60729  -5.90763  -8.09899 
 H                    -0.65625  -6.64853  -7.45654 
 N                    -3.00315  -5.47895  -6.86888 
 C                    -4.34534  -4.95363  -6.6648 
 C                    -2.15142  -5.70507  -5.71216 
 H                    -4.53368  -4.09231  -7.32232 
 H                    -4.44785  -4.62923  -5.62413 
 H                    -5.11191  -5.71854  -6.86976 
 H                    -2.62866  -5.28967  -4.8185 
 H                    -1.98321  -6.78263  -5.54597 
 H                    -1.16999  -5.21968  -5.84153 
 
 NAtoms=     41 NQM=       41 NQMF=       0 NMMI=      0 NMMIF=      0
                NMic=       0 NMicF=      0.
                    Isotopes and Nuclear Properties:
 (Nuclear quadrupole moments (NQMom) in fm**2, nuclear magnetic moments (NMagM)
  in nuclear magnetons)

  Atom         1           2           3           4           5           6           7           8           9          10
 IAtWgt=          12           1           1           1          16          12          12          12           1          12
 AtmWgt=  12.0000000   1.0078250   1.0078250   1.0078250  15.9949146  12.0000000  12.0000000  12.0000000   1.0078250  12.0000000
 NucSpn=           0           1           1           1           0           0           0           0           1           0
 AtZEff=   0.0000000   0.0000000   0.0000000   0.0000000   0.0000000   0.0000000   0.0000000   0.0000000   0.0000000   0.0000000
 NQMom=    0.0000000   0.0000000   0.0000000   0.0000000   0.0000000   0.0000000   0.0000000   0.0000000   0.0000000   0.0000000
 NMagM=    0.0000000   2.7928460   2.7928460   2.7928460   0.0000000   0.0000000   0.0000000   0.0000000   2.7928460   0.0000000
 AtZNuc=   6.0000000   1.0000000   1.0000000   1.0000000   8.0000000   6.0000000   6.0000000   6.0000000   1.0000000   6.0000000

  Atom        11          12          13          14          15          16          17          18          19          20
 IAtWgt=          12           1          12          12           1          16          12          16           1          12
 AtmWgt=  12.0000000   1.0078250  12.0000000  12.0000000   1.0078250  15.9949146  12.0000000  15.9949146   1.0078250  12.0000000
 NucSpn=           0           1           0           0           1           0           0           0           1           0
 AtZEff=   0.0000000   0.0000000   0.0000000   0.0000000   0.0000000   0.0000000   0.0000000   0.0000000   0.0000000   0.0000000
 NQMom=    0.0000000   0.0000000   0.0000000   0.0000000   0.0000000   0.0000000   0.0000000   0.0000000   0.0000000   0.0000000
 NMagM=    0.0000000   2.7928460   0.0000000   0.0000000   2.7928460   0.0000000   0.0000000   0.0000000   2.7928460   0.0000000
 AtZNuc=   6.0000000   1.0000000   6.0000000   6.0000000   1.0000000   8.0000000   6.0000000   8.0000000   1.0000000   6.0000000

  Atom        21          22          23          24          25          26          27          28          29          30
 IAtWgt=           1          12           1          12          12          12           1          12           1           1
 AtmWgt=   1.0078250  12.0000000   1.0078250  12.0000000  12.0000000  12.0000000   1.0078250  12.0000000   1.0078250   1.0078250
 NucSpn=           1           0           1           0           0           0           1           0           1           1
 AtZEff=   0.0000000   0.0000000   0.0000000   0.0000000   0.0000000   0.0000000   0.0000000   0.0000000   0.0000000   0.0000000
 NQMom=    0.0000000   0.0000000   0.0000000   0.0000000   0.0000000   0.0000000   0.0000000   0.0000000   0.0000000   0.0000000
 NMagM=    2.7928460   0.0000000   2.7928460   0.0000000   0.0000000   0.0000000   2.7928460   0.0000000   2.7928460   2.7928460
 AtZNuc=   1.0000000   6.0000000   1.0000000   6.0000000   6.0000000   6.0000000   1.0000000   6.0000000   1.0000000   1.0000000

  Atom        31          32          33          34          35          36          37          38          39          40
 IAtWgt=          12           1          14          12          12           1           1           1           1           1
 AtmWgt=  12.0000000   1.0078250  14.0030740  12.0000000  12.0000000   1.0078250   1.0078250   1.0078250   1.0078250   1.0078250
 NucSpn=           0           1           2           0           0           1           1           1           1           1
 AtZEff=   0.0000000   0.0000000   0.0000000   0.0000000   0.0000000   0.0000000   0.0000000   0.0000000   0.0000000   0.0000000
 NQMom=    0.0000000   0.0000000   2.0440000   0.0000000   0.0000000   0.0000000   0.0000000   0.0000000   0.0000000   0.0000000
 NMagM=    0.0000000   2.7928460   0.4037610   0.0000000   0.0000000   2.7928460   2.7928460   2.7928460   2.7928460   2.7928460
 AtZNuc=   6.0000000   1.0000000   7.0000000   6.0000000   6.0000000   1.0000000   1.0000000   1.0000000   1.0000000   1.0000000

  Atom        41
 IAtWgt=           1
 AtmWgt=   1.0078250
 NucSpn=           1
 AtZEff=   0.0000000
 NQMom=    0.0000000
 NMagM=    2.7928460
 AtZNuc=   1.0000000
 Leave Link  101 at Mon Nov  6 03:35:31 2017, MaxMem=  3758096384 cpu:         0.3
 (Enter /share/apps/gaussian/g09_D01/g09/l202.exe)
                          Input orientation:                          
 ---------------------------------------------------------------------
 Center     Atomic      Atomic             Coordinates (Angstroms)
 Number     Number       Type             X           Y           Z
 ---------------------------------------------------------------------
      1          6           0       -5.706418   -6.012055  -16.455422
      2          1           0       -5.870111   -6.818024  -15.721653
      3          1           0       -6.661943   -5.719940  -16.907289
      4          1           0       -5.247600   -5.139557  -15.960401
      5          8           0       -4.879954   -6.464712  -17.530061
      6          6           0       -3.619904   -6.915799  -17.210325
      7          6           0       -3.090146   -6.965685  -15.929966
      8          6           0       -2.847094   -7.351359  -18.301788
      9          1           0       -3.687335   -6.632421  -15.087013
     10          6           0       -1.774234   -7.439275  -15.705824
     11          6           0       -1.567932   -7.833938  -18.109629
     12          1           0       -3.271652   -7.294310  -19.302973
     13          6           0       -1.007261   -7.877037  -16.824975
     14          6           0       -1.151752   -7.476864  -14.375708
     15          1           0       -0.971334   -8.169870  -18.957781
     16          8           0        0.255306   -8.340820  -16.673941
     17          6           0       -1.865848   -7.087653  -13.186955
     18          8           0        0.071433   -7.865727  -14.285922
     19          1           0        0.426305   -8.201161  -15.647053
     20          6           0       -1.263696   -7.140447  -11.962534
     21          1           0       -2.889634   -6.734134  -13.279178
     22          6           0       -1.771238   -6.743836  -10.688372
     23          1           0       -0.238584   -7.525420  -11.951774
     24          6           0       -3.046875   -6.166860  -10.481261
     25          6           0       -0.941370   -6.903038   -9.555013
     26          6           0       -3.457163   -5.763330   -9.232779
     27          1           0       -3.720492   -6.028400  -11.327139
     28          6           0       -1.334086   -6.505437   -8.295168
     29          1           0        0.044942   -7.347420   -9.692045
     30          1           0       -4.444735   -5.322529   -9.120091
     31          6           0       -2.607293   -5.907632   -8.098989
     32          1           0       -0.656250   -6.648531   -7.456539
     33          7           0       -3.003151   -5.478954   -6.868880
     34          6           0       -4.345337   -4.953627   -6.664801
     35          6           0       -2.151420   -5.705067   -5.712160
     36          1           0       -4.533677   -4.092307   -7.322319
     37          1           0       -4.447846   -4.629229   -5.624133
     38          1           0       -5.111906   -5.718541   -6.869759
     39          1           0       -2.628662   -5.289666   -4.818500
     40          1           0       -1.983211   -6.782630   -5.545970
     41          1           0       -1.169985   -5.219682   -5.841528
 ---------------------------------------------------------------------
                    Distance matrix (angstroms):
                    1          2          3          4          5
     1  C    0.000000
     2  H    1.102179   0.000000
     3  H    1.096605   1.799589   0.000000
     4  H    1.103092   1.806038   1.798279   0.000000
     5  O    1.429262   2.091789   2.029289   2.086871   0.000000
     6  C    2.395866   2.699840   3.282668   2.714174   1.376022
     7  C    2.833795   2.791667   3.907016   2.826708   2.452487
     8  C    3.657668   4.010009   4.377126   4.017037   2.348239
     9  H    2.516762   2.280730   3.604763   2.329351   2.723775
    10  C    4.249815   4.142754   5.318771   4.173462   3.731368
    11  C    4.814844   5.024267   5.644781   5.041709   3.630450
    12  H    3.959900   4.450246   4.439822   4.440734   2.533394
    13  C    5.069201   5.097660   6.052708   5.120719   4.182052
    14  C    5.216882   4.950611   6.313310   4.974960   4.987373
    15  H    5.773992   6.024784   6.526079   6.037676   4.497028
    16  O    6.404143   6.383298   7.400797   6.406184   5.533861
    17  C    5.156526   4.746737   6.222062   4.787831   5.323106
    18  O    6.444097   6.201689   7.537527   6.207092   6.083051
    19  H    6.561702   6.446975   7.614979   6.454828   5.892144
    20  C    6.418496   5.954325   7.457179   5.988154   6.673177
    21  H    4.306297   3.854344   5.331238   3.910452   4.701486
    22  C    7.019972   6.491547   7.977612   6.515604   7.520022
    23  H    7.243640   6.813699   8.311223   6.844828   7.333805
    24  C    6.541233   5.988020   7.386629   5.993289   7.289340
    25  C    8.432982   7.894755   9.390455   7.917227   8.905390
    26  C    7.568856   7.002870   8.316887   6.989682   8.447553
    27  H    5.499405   4.955413   6.315485   4.958752   6.325422
    28  C    9.270947   8.707808  10.157347   8.714185   9.892325
    29  H    8.978007   8.463113   9.984525   8.495761   9.298832
    30  H    7.474916   6.917284   8.106442   6.889696   8.498329
    31  C    8.913218   8.341451   9.698534   8.328443   9.717018
    32  H   10.338723   9.773699  11.235983   9.781266  10.924711
    33  N    9.974650   9.401285  10.687118   9.370619  10.869907
    34  C    9.941281   9.371632  10.529124   9.341136  10.982853
    35  C   11.320333  10.735795  12.069629  10.720661  12.152561
    36  H    9.406079   8.931092   9.952404   8.730572  10.485524
    37  H   10.991498  10.429457  11.549956  10.379715  12.054329
    38  H    9.608565   8.952082  10.156507   9.110072  10.688901
    39  H   12.058706  11.477004  12.751130  11.446542  12.962748
    40  H   11.553017  10.892831  12.332859  11.037042  12.333314
    41  H   11.569867  11.057249  12.363775  10.909856  12.326223
                    6          7          8          9         10
     6  C    0.000000
     7  C    1.386525   0.000000
     8  C    1.406499   2.415235   0.000000
     9  H    2.143199   1.085481   3.399655   0.000000
    10  C    2.438042   1.416387   2.810300   2.166540   0.000000
    11  C    2.421222   2.796771   1.380602   3.882231   2.444708
    12  H    2.154931   3.393835   1.088979   4.287798   3.899071
    13  C    2.810405   2.443361   2.417085   3.428174   1.425616
    14  C    3.800213   2.536611   4.278322   2.765542   1.469049
    15  H    3.411923   3.886784   2.149131   4.972249   3.428358
    16  O    4.163610   3.692769   3.640578   4.580544   2.422616
    17  C    4.392465   3.006309   5.214777   2.671193   2.544942
    18  O    4.804213   3.675396   4.990947   4.036227   2.367376
    19  H    4.524133   3.737896   4.299410   4.438088   2.329441
    20  C    5.756865   4.371153   6.537413   3.986789   3.789745
    21  H    4.002526   2.668426   5.060572   1.978621   2.762237
    22  C    6.781077   5.409533   7.713018   4.799154   5.065419
    23  H    6.281506   4.926532   6.867117   4.745635   4.056912
    24  C    6.794820   5.507121   7.912243   4.673317   5.525822
    25  C    8.110395   6.727644   8.963194   6.181956   6.230063
    26  C    8.062004   6.814152   9.227185   5.922867   6.895024
    27  H    5.950586   4.739394   7.152536   3.808227   4.995135
    28  C    9.212675   7.847657  10.155650   7.189093   7.482219
    29  H    8.375078   6.991864   9.082487   6.599000   6.283580
    30  H    8.286781   7.135073   9.537933   6.155780   7.415124
    31  C    9.222702   7.916870  10.307229   7.108044   7.804092
    32  H   10.197599   8.821757  11.086622   8.210473   8.362169
    33  N   10.458986   9.182658  11.586269   8.326842   9.134806
    34  C   10.751021   9.563847  11.975530   8.613070   9.722608
    35  C   11.654618  10.337985  12.715855   9.544993  10.150028
    36  H   10.323747   9.188671  11.576473   8.213340   9.439273
    37  H   11.838654  10.654228  13.065042   9.702435  10.802086
    38  H   10.516026   9.366442  11.768040   8.389746   9.600887
    39  H   12.537312  11.246630  13.641750  10.409906  11.130350
    40  H   11.779375  10.444433  12.797681   9.693199  10.183196
    41  H   11.752807  10.416915  12.752052   9.685653  10.128971
                   11         12         13         14         15
    11  C    0.000000
    12  H    2.148937   0.000000
    13  C    1.402336   3.406980   0.000000
    14  C    3.773973   5.367052   2.485945   0.000000
    15  H    1.090019   2.485403   2.153115   4.637693   0.000000
    16  O    2.375358   4.521772   1.353507   2.829860   2.598037
    17  C    4.987827   6.278907   3.820404   1.440331   5.939173
    18  O    4.160440   6.055868   2.758713   1.286646   4.796471
    19  H    3.190002   5.278543   1.883525   2.152020   3.593785
    20  C    6.193567   7.611676   4.924597   2.439081   7.076628
    21  H    5.127350   6.061835   4.173995   2.185008   6.163420
    22  C    7.503647   8.761599   6.286947   3.810189   8.429504
    23  H    6.307260   7.955692   4.945967   2.590693   7.073639
    24  C    7.947227   8.896307   6.879494   4.524856   8.953843
    25  C    8.627897  10.030256   7.335214   4.859284   9.487771
    26  C    9.308871  10.187596   8.252952   5.890742  10.322134
    27  H    7.341366   8.088134   6.403537   4.241491   8.388710
    28  C    9.906727  11.204832   8.645560   6.160348  10.797835
    29  H    8.584508  10.167229   7.229545   4.835859   9.357516
    30  H    9.767035  10.438157   8.815156   6.565547  10.814435
    31  C   10.247138  11.309001   9.087436   6.631613  11.211933
    32  H   10.757541  12.148883   9.455159   6.986169  11.605702
    33  N   11.574119  12.568782  10.433514   7.985724  12.550332
    34  C   12.124119  12.897868  11.086849   8.719163  13.147071
    35  C   12.592450  13.729196  11.380739   8.899195  13.524583
    36  H   11.796673  12.465216  10.819439   8.523083  12.833580
    37  H   13.208016  13.985591  12.159142   9.775650  14.227032
    38  H   11.973693  12.667059  10.982420   8.666821  13.010520
    39  H   13.573967  14.636666  12.388659   9.914904  14.524516
    40  H   12.614406  13.826678  11.373925   8.895929  13.521280
    41  H   12.549860  13.781567  11.301510   8.827652  13.445414
                   16         17         18         19         20
    16  O    0.000000
    17  C    4.269519   0.000000
    18  O    2.441753   2.359276   0.000000
    19  H    1.050354   3.542026   1.446073   0.000000
    20  C    5.093684   1.365497   2.776100   4.190095   0.000000
    21  H    4.898623   1.087023   3.325952   4.330641   2.131271
    22  C    6.517996   2.523901   4.194811   5.616183   1.427721
    23  H    4.817434   2.089330   2.379110   3.814943   1.095068
    24  C    7.347094   3.092485   5.204367   6.548799   2.514313
    25  C    7.360597   3.752299   4.932954   6.377194   2.440577
    26  C    8.706134   4.463365   6.511937   7.884621   3.762886
    27  H    7.052840   2.832073   5.148676   6.370123   2.770600
    28  C    8.723453   4.954929   6.301984   7.747559   3.722602
    29  H    7.055350   3.991615   4.623100   6.027971   2.628781
    30  H    9.394739   5.128909   7.317748   8.637985   4.637167
    31  C    9.361874   5.275376   7.020531   8.451998   4.272244
    32  H    9.415693   5.873127   6.975067   8.406373   4.573288
    33  N   10.721336   6.618115   8.376292   9.809582   5.633079
    34  C   11.524837   7.296604   9.277374  10.676886   6.507278
    35  C   11.528233   7.606948   9.116958  10.563013   6.474222
    36  H   11.333007   7.105165   9.161741  10.525460   6.443254
    37  H   12.569559   8.361031  10.292006  11.703631   7.524650
    38  H   11.480649   7.233141   9.299295  10.671273   6.539640
    39  H   12.576895   8.593351  10.176379  11.621841   7.505048
    40  H   11.457341   7.647971   9.043308  10.480929   6.466686
    41  H   11.362840   7.611100   8.935909  10.372352   6.415983
                   21         22         23         24         25
    21  H    0.000000
    22  C    2.821911   0.000000
    23  H    3.068583   2.134499   0.000000
    24  C    2.859172   1.415290   3.448854   0.000000
    25  C    4.206384   1.413693   2.574049   2.415170   0.000000
    26  C    4.199749   2.433616   4.566962   1.374729   2.780644
    27  H    2.235809   2.172433   3.841213   1.090156   3.410123
    28  C    5.226125   2.444455   3.951108   2.797728   1.378231
    29  H    4.674974   2.157659   2.284392   3.402340   1.090442
    30  H    4.659289   3.409869   5.528369   2.125957   3.867911
    31  C    5.253302   2.846600   4.803329   2.436319   2.426137
    32  H    6.236863   3.420091   4.598969   3.885362   2.132993
    33  N    6.533015   4.207856   6.137317   3.677557   3.673454
    34  C    7.002804   5.100976   7.171584   4.209906   4.872424
    35  C    7.672268   5.097673   6.775353   4.874363   4.203198
    36  H    6.720588   5.098234   7.187902   4.061190   5.078366
    37  H    8.090634   6.105924   8.132948   5.283817   5.737369
    38  H    6.859342   5.176205   7.269178   4.184291   5.099705
    39  H    8.587064   6.107797   7.848227   5.745540   5.280576
    40  H    7.786300   5.146915   6.680553   5.086025   4.143954
    41  H    7.782634   5.116292   6.596896   5.093818   4.083616
                   26         27         28         29         30
    26  C    0.000000
    27  H    2.127428   0.000000
    28  C    2.436656   3.887846   0.000000
    29  H    3.871047   4.311826   2.135865   0.000000
    30  H    1.087337   2.427724   3.428689   4.958277   0.000000
    31  C    1.424283   3.416833   1.420181   3.412502   2.182015
    32  H    3.432743   4.975509   1.087767   2.444914   4.344917
    33  N    2.423843   4.548906   2.423581   4.555469   2.677795
    34  C    2.835310   4.825242   3.759500   5.845426   2.484838
    35  C    3.755412   5.839051   2.824988   4.833303   4.125485
    36  H    2.757002   4.521981   4.123956   6.097140   2.180216
    37  H    3.910238   5.917009   4.511107   6.642410   3.564042
    38  H    2.885142   4.679774   4.113748   6.100133   2.380323
    39  H    4.516263   6.640798   3.904004   5.927390   4.669356
    40  H    4.099276   6.083496   2.838360   4.649982   4.578792
    41  H    4.126417   6.103363   2.774967   4.563967   4.635034
                   31         32         33         34         35
    31  C    0.000000
    32  H    2.183630   0.000000
    33  N    1.361483   2.687229   0.000000
    34  C    2.447002   4.136292   1.455706   0.000000
    35  C    2.438402   2.483650   1.454157   2.507082   0.000000
    36  H    2.758546   4.646153   2.114452   1.099852   3.296780
    37  H    3.338692   4.670278   2.087719   1.094866   2.537469
    38  H    2.796399   4.589342   2.122322   1.102148   3.178788
    39  H    3.338255   3.563169   2.092876   2.543368   1.094964
    40  H    2.770019   2.330039   2.118948   3.190090   1.103202
    41  H    2.763197   2.216708   2.117350   3.291113   1.102520
                   36         37         38         39         40
    36  H    0.000000
    37  H    1.783112   0.000000
    38  H    1.784320   1.783020   0.000000
    39  H    3.366283   2.096343   3.249323   0.000000
    40  H    4.110734   3.273785   3.559977   1.781786   0.000000
    41  H    3.844235   3.337704   4.104249   1.783037   1.786476
                   41
    41  H    0.000000
 Symmetry turned off by external request.
 Stoichiometry    C18H19NO3
 Framework group  C1[X(C18H19NO3)]
 Deg. of freedom   117
 Full point group                 C1      NOp   1
 Rotational constants (GHZ):      0.5877798      0.0964844      0.0830327
 Leave Link  202 at Mon Nov  6 03:35:32 2017, MaxMem=  3758096384 cpu:         0.1
 (Enter /share/apps/gaussian/g09_D01/g09/l301.exe)
 Standard basis: 6-311++G(d,p) (5D, 7F)
 Ernie: Thresh=  0.10000D-02 Tol=  0.10000D-05 Strict=F.
   617 basis functions,   963 primitive gaussians,   639 cartesian basis functions
    79 alpha electrons       79 beta electrons
       nuclear repulsion energy      1612.1421988721 Hartrees.
 IExCor= 4639 DFT=T Ex+Corr=wB97XD ExCW=0 ScaHFX=  1.000000
 ScaDFX=  1.000000  1.000000  1.000000  1.000000 ScalE2=  1.000000  1.000000
 IRadAn=      0 IRanWt=     -1 IRanGd=            0 ICorTp=0 IEmpDi=121
  HFx wShort=  0.000000 wLong=  0.200000 cFull=  0.222036 cShort=  0.000000 cLong=  0.777964
  DFx wShort=  0.000000 wLong=  0.200000 cFull=  0.000000 cShort=  0.000000 cLong=  1.000000
 NAtoms=   41 NActive=   41 NUniq=   41 SFac= 1.00D+00 NAtFMM=   60 NAOKFM=F Big=F
 Integral buffers will be    131072 words long.
 Raffenetti 1 integral format.
 Two-electron integral symmetry is turned off.
 R6Disp:  Grimme-D2 Dispersion energy=       -0.0258930854 Hartrees.
 Nuclear repulsion after empirical dispersion term =     1612.1163057866 Hartrees.
 Leave Link  301 at Mon Nov  6 03:35:32 2017, MaxMem=  3758096384 cpu:         0.1
 (Enter /share/apps/gaussian/g09_D01/g09/l302.exe)
 NPDir=0 NMtPBC=     1 NCelOv=     1 NCel=       1 NClECP=     1 NCelD=      1
         NCelK=      1 NCelE2=     1 NClLst=     1 CellRange=     0.0.
 One-electron integrals computed using PRISM.
 NBasis=   617 RedAO= T EigKep=  1.01D-06  NBF=   617
 NBsUse=   610 1.00D-06 EigRej=  5.87D-07 NBFU=   610
 Precomputing XC quadrature grid using
 IXCGrd= 4 IRadAn=           0 IRanWt=          -1 IRanGd=           0 AccXCQ= 0.00D+00.
 Generated NRdTot=       0 NPtTot=           0 NUsed=           0 NTot=          32
 NSgBfM=   620   620   620   620   620 MxSgAt=    41 MxSgA2=    41.
 Leave Link  302 at Mon Nov  6 03:35:36 2017, MaxMem=  3758096384 cpu:         7.8
 (Enter /share/apps/gaussian/g09_D01/g09/l308.exe)
 Leave Link  308 at Mon Nov  6 03:35:36 2017, MaxMem=  3758096384 cpu:         0.9
 (Enter /share/apps/gaussian/g09_D01/g09/l303.exe)
 DipDrv:  MaxL=1.
 Leave Link  303 at Mon Nov  6 03:35:36 2017, MaxMem=  3758096384 cpu:         0.6
 (Enter /share/apps/gaussian/g09_D01/g09/l401.exe)
 ExpMin= 3.60D-02 ExpMax= 8.59D+03 ExpMxC= 1.30D+03 IAcc=3 IRadAn=         5 AccDes= 0.00D+00
 Harris functional with IExCor= 4639 and IRadAn=       5 diagonalized for initial guess.
 HarFok:  IExCor= 4639 AccDes= 0.00D+00 IRadAn=         5 IDoV= 1 UseB2=F ITyADJ=14
 ICtDFT=  3500011 ScaDFX=  1.000000  1.000000  1.000000  1.000000
 FoFCou: FMM=F IPFlag=           0 FMFlag=      100000 FMFlg1=           0
         NFxFlg=           0 DoJE=T BraDBF=F KetDBF=T FulRan=T
         wScrn=  0.000000 ICntrl=     500 IOpCl=  0 I1Cent=   200000004 NGrid=           0
         NMat0=    1 NMatS0=      1 NMatT0=    0 NMatD0=    1 NMtDS0=    0 NMtDT0=    0
 Symmetry not used in FoFCou.
 Harris En= -935.530204268651    
 JPrj=0 DoOrth=F DoCkMO=F.
 Leave Link  401 at Mon Nov  6 03:36:02 2017, MaxMem=  3758096384 cpu:        50.5
 (Enter /share/apps/gaussian/g09_D01/g09/l502.exe)
 Closed shell SCF:
 Using DIIS extrapolation, IDIIS=  1040.
 Two-electron integral symmetry not used.
 IVT=     1251263 IEndB=     1251263 NGot=  3758096384 MDV=  3757270722
 LenX=  3757270722 LenY=  3756861762
 Requested convergence on RMS density matrix=1.00D-08 within 128 cycles.
 Requested convergence on MAX density matrix=1.00D-06.
 Requested convergence on             energy=1.00D-06.
 No special actions if energy rises.
 Fock matrices will be formed incrementally for  20 cycles.

 Cycle   1  Pass 1  IDiag  1:
 FoFJK:  IHMeth= 1 ICntrl=       0 DoSepK=T KAlg= 0 I1Cent=   0 FoldK=F
 IRaf=         1 NMat=   1 IRICut=       1 DoRegI=T DoRafI=F ISym2E= 0.
 FoFCou: FMM=F IPFlag=           0 FMFlag=      100000 FMFlg1=           0
         NFxFlg=           0 DoJE=T BraDBF=F KetDBF=F FulRan=T
         wScrn=  0.000000 ICntrl=     500 IOpCl=  0 I1Cent=           0 NGrid=           0
         NMat0=    1 NMatS0=      1 NMatT0=    0 NMatD0=    1 NMtDS0=    0 NMtDT0=    0
 Symmetry not used in FoFCou.
 E= -977.339192105895    
 DIIS: error= 6.07D-02 at cycle   1 NSaved=   1.
 NSaved= 1 IEnMin= 1 EnMin= -977.339192105895     IErMin= 1 ErrMin= 6.07D-02
 ErrMax= 6.07D-02  0.00D+00 EMaxC= 1.00D-01 BMatC= 2.15D+00 BMatP= 2.15D+00
 IDIUse=3 WtCom= 3.93D-01 WtEn= 6.07D-01
 Coeff-Com:  0.100D+01
 Coeff-En:   0.100D+01
 Coeff:      0.100D+01
 Gap=     0.276 Goal=   None    Shift=    0.000
 GapD=    0.276 DampG=1.000 DampE=0.500 DampFc=0.5000 IDamp=-1.
 Damping current iteration by 5.00D-01
 RMSDP=2.90D-02 MaxDP=3.86D+00              OVMax= 1.93D-01

 Cycle   2  Pass 1  IDiag  1:
 RMSU=  5.21D-03    CP:  8.35D-01
 E= -977.490408948339     Delta-E=       -0.151216842443 Rises=F Damp=T
 DIIS: error= 2.72D-02 at cycle   2 NSaved=   2.
 NSaved= 2 IEnMin= 2 EnMin= -977.490408948339     IErMin= 2 ErrMin= 2.72D-02
 ErrMax= 2.72D-02  0.00D+00 EMaxC= 1.00D-01 BMatC= 4.42D-01 BMatP= 2.15D+00
 IDIUse=3 WtCom= 7.28D-01 WtEn= 2.72D-01
 Coeff-Com: -0.534D+00 0.153D+01
 Coeff-En:   0.000D+00 0.100D+01
 Coeff:     -0.389D+00 0.139D+01
 Gap=     0.271 Goal=   None    Shift=    0.000
 RMSDP=1.32D-02 MaxDP=9.84D-01 DE=-1.51D-01 OVMax= 2.13D-01

 Cycle   3  Pass 1  IDiag  1:
 RMSU=  5.24D-03    CP:  6.90D-01  1.49D+00
 E= -977.555286215594     Delta-E=       -0.064877267255 Rises=F Damp=F
 DIIS: error= 1.72D-02 at cycle   3 NSaved=   3.
 NSaved= 3 IEnMin= 3 EnMin= -977.555286215594     IErMin= 3 ErrMin= 1.72D-02
 ErrMax= 1.72D-02  0.00D+00 EMaxC= 1.00D-01 BMatC= 1.52D-01 BMatP= 4.42D-01
 IDIUse=3 WtCom= 8.28D-01 WtEn= 1.72D-01
 Coeff-Com: -0.360D+00 0.776D+00 0.584D+00
 Coeff-En:   0.000D+00 0.179D+00 0.821D+00
 Coeff:     -0.298D+00 0.673D+00 0.625D+00
 Gap=     0.264 Goal=   None    Shift=    0.000
 RMSDP=6.43D-03 MaxDP=9.82D-01 DE=-6.49D-02 OVMax= 9.66D-02

 Cycle   4  Pass 1  IDiag  1:
 RMSU=  1.89D-03    CP:  6.23D-01  1.65D+00  5.01D-01
 E= -977.669844060734     Delta-E=       -0.114557845141 Rises=F Damp=F
 DIIS: error= 4.33D-03 at cycle   4 NSaved=   4.
 NSaved= 4 IEnMin= 4 EnMin= -977.669844060734     IErMin= 4 ErrMin= 4.33D-03
 ErrMax= 4.33D-03  0.00D+00 EMaxC= 1.00D-01 BMatC= 1.11D-02 BMatP= 1.52D-01
 IDIUse=3 WtCom= 9.57D-01 WtEn= 4.33D-02
 Coeff-Com: -0.143D+00 0.308D+00 0.346D+00 0.489D+00
 Coeff-En:   0.000D+00 0.000D+00 0.000D+00 0.100D+01
 Coeff:     -0.137D+00 0.295D+00 0.331D+00 0.511D+00
 Gap=     0.235 Goal=   None    Shift=    0.000
 RMSDP=1.63D-03 MaxDP=1.70D-01 DE=-1.15D-01 OVMax= 1.96D-02

 Cycle   5  Pass 1  IDiag  1:
 RMSU=  4.53D-04    CP:  6.38D-01  1.71D+00  6.19D-01  6.71D-01
 E= -977.678663158537     Delta-E=       -0.008819097803 Rises=F Damp=F
 DIIS: error= 7.08D-04 at cycle   5 NSaved=   5.
 NSaved= 5 IEnMin= 5 EnMin= -977.678663158537     IErMin= 5 ErrMin= 7.08D-04
 ErrMax= 7.08D-04  0.00D+00 EMaxC= 1.00D-01 BMatC= 2.06D-04 BMatP= 1.11D-02
 IDIUse=3 WtCom= 9.93D-01 WtEn= 7.08D-03
 Coeff-Com:  0.119D-01-0.260D-01 0.215D-01 0.167D+00 0.825D+00
 Coeff-En:   0.000D+00 0.000D+00 0.000D+00 0.000D+00 0.100D+01
 Coeff:      0.118D-01-0.258D-01 0.213D-01 0.166D+00 0.827D+00
 Gap=     0.236 Goal=   None    Shift=    0.000
 RMSDP=3.97D-04 MaxDP=2.94D-02 DE=-8.82D-03 OVMax= 7.07D-03

 Cycle   6  Pass 1  IDiag  1:
 RMSU=  2.15D-04    CP:  6.35D-01  1.70D+00  6.28D-01  7.71D-01  9.66D-01
 E= -977.678925030219     Delta-E=       -0.000261871682 Rises=F Damp=F
 DIIS: error= 5.61D-04 at cycle   6 NSaved=   6.
 NSaved= 6 IEnMin= 6 EnMin= -977.678925030219     IErMin= 6 ErrMin= 5.61D-04
 ErrMax= 5.61D-04  0.00D+00 EMaxC= 1.00D-01 BMatC= 5.99D-05 BMatP= 2.06D-04
 IDIUse=3 WtCom= 9.94D-01 WtEn= 5.61D-03
 Coeff-Com:  0.259D-01-0.558D-01-0.394D-01-0.102D-02 0.409D+00 0.661D+00
 Coeff-En:   0.000D+00 0.000D+00 0.000D+00 0.000D+00 0.000D+00 0.100D+01
 Coeff:      0.258D-01-0.555D-01-0.392D-01-0.101D-02 0.407D+00 0.663D+00
 Gap=     0.238 Goal=   None    Shift=    0.000
 RMSDP=1.01D-04 MaxDP=1.48D-02 DE=-2.62D-04 OVMax= 4.80D-03

 Cycle   7  Pass 1  IDiag  1:
 RMSU=  6.37D-05    CP:  6.34D-01  1.71D+00  6.30D-01  7.83D-01  1.07D+00
                    CP:  1.05D+00
 E= -977.679002225515     Delta-E=       -0.000077195296 Rises=F Damp=F
 DIIS: error= 1.49D-04 at cycle   7 NSaved=   7.
 NSaved= 7 IEnMin= 7 EnMin= -977.679002225515     IErMin= 7 ErrMin= 1.49D-04
 ErrMax= 1.49D-04  0.00D+00 EMaxC= 1.00D-01 BMatC= 5.56D-06 BMatP= 5.99D-05
 IDIUse=3 WtCom= 9.99D-01 WtEn= 1.49D-03
 Coeff-Com:  0.430D-02-0.916D-02-0.116D-01-0.225D-01-0.945D-02 0.210D+00
 Coeff-Com:  0.839D+00
 Coeff-En:   0.000D+00 0.000D+00 0.000D+00 0.000D+00 0.000D+00 0.000D+00
 Coeff-En:   0.100D+01
 Coeff:      0.429D-02-0.914D-02-0.116D-01-0.225D-01-0.944D-02 0.210D+00
 Coeff:      0.839D+00
 Gap=     0.238 Goal=   None    Shift=    0.000
 RMSDP=4.96D-05 MaxDP=5.78D-03 DE=-7.72D-05 OVMax= 1.95D-03

 Cycle   8  Pass 1  IDiag  1:
 RMSU=  2.74D-05    CP:  6.34D-01  1.71D+00  6.29D-01  7.92D-01  1.11D+00
                    CP:  1.15D+00  9.91D-01
 E= -977.679014829700     Delta-E=       -0.000012604185 Rises=F Damp=F
 DIIS: error= 7.99D-05 at cycle   8 NSaved=   8.
 NSaved= 8 IEnMin= 8 EnMin= -977.679014829700     IErMin= 8 ErrMin= 7.99D-05
 ErrMax= 7.99D-05  0.00D+00 EMaxC= 1.00D-01 BMatC= 1.19D-06 BMatP= 5.56D-06
 IDIUse=1 WtCom= 1.00D+00 WtEn= 0.00D+00
 Coeff-Com: -0.221D-02 0.481D-02 0.105D-02-0.114D-01-0.781D-01-0.117D-01
 Coeff-Com:  0.360D+00 0.738D+00
 Coeff:     -0.221D-02 0.481D-02 0.105D-02-0.114D-01-0.781D-01-0.117D-01
 Coeff:      0.360D+00 0.738D+00
 Gap=     0.238 Goal=   None    Shift=    0.000
 RMSDP=1.59D-05 MaxDP=1.42D-03 DE=-1.26D-05 OVMax= 1.21D-03

 Cycle   9  Pass 1  IDiag  1:
 RMSU=  1.15D-05    CP:  6.34D-01  1.71D+00  6.29D-01  7.92D-01  1.12D+00
                    CP:  1.18D+00  1.05D+00  1.16D+00
 E= -977.679017786595     Delta-E=       -0.000002956895 Rises=F Damp=F
 DIIS: error= 3.14D-05 at cycle   9 NSaved=   9.
 NSaved= 9 IEnMin= 9 EnMin= -977.679017786595     IErMin= 9 ErrMin= 3.14D-05
 ErrMax= 3.14D-05  0.00D+00 EMaxC= 1.00D-01 BMatC= 1.68D-07 BMatP= 1.19D-06
 IDIUse=1 WtCom= 1.00D+00 WtEn= 0.00D+00
 Coeff-Com: -0.159D-02 0.340D-02 0.297D-02 0.935D-03-0.239D-01-0.406D-01
 Coeff-Com: -0.607D-01 0.200D+00 0.919D+00
 Coeff:     -0.159D-02 0.340D-02 0.297D-02 0.935D-03-0.239D-01-0.406D-01
 Coeff:     -0.607D-01 0.200D+00 0.919D+00
 Gap=     0.238 Goal=   None    Shift=    0.000
 RMSDP=1.13D-05 MaxDP=8.50D-04 DE=-2.96D-06 OVMax= 5.42D-04

 Cycle  10  Pass 1  IDiag  1:
 RMSU=  6.28D-06    CP:  6.34D-01  1.71D+00  6.29D-01  7.91D-01  1.13D+00
                    CP:  1.21D+00  1.06D+00  1.29D+00  1.23D+00
 E= -977.679018365416     Delta-E=       -0.000000578822 Rises=F Damp=F
 DIIS: error= 1.55D-05 at cycle  10 NSaved=  10.
 NSaved=10 IEnMin=10 EnMin= -977.679018365416     IErMin=10 ErrMin= 1.55D-05
 ErrMax= 1.55D-05  0.00D+00 EMaxC= 1.00D-01 BMatC= 2.33D-08 BMatP= 1.68D-07
 IDIUse=1 WtCom= 1.00D+00 WtEn= 0.00D+00
 Coeff-Com:  0.324D-04-0.786D-04 0.490D-03 0.195D-02 0.551D-02-0.625D-02
 Coeff-Com: -0.732D-01-0.554D-01 0.267D+00 0.860D+00
 Coeff:      0.324D-04-0.786D-04 0.490D-03 0.195D-02 0.551D-02-0.625D-02
 Coeff:     -0.732D-01-0.554D-01 0.267D+00 0.860D+00
 Gap=     0.238 Goal=   None    Shift=    0.000
 RMSDP=3.69D-06 MaxDP=2.83D-04 DE=-5.79D-07 OVMax= 2.22D-04

 Cycle  11  Pass 1  IDiag  1:
 RMSU=  1.93D-06    CP:  6.34D-01  1.71D+00  6.29D-01  7.91D-01  1.13D+00
                    CP:  1.21D+00  1.05D+00  1.35D+00  1.40D+00  1.13D+00
 E= -977.679018442370     Delta-E=       -0.000000076953 Rises=F Damp=F
 DIIS: error= 3.77D-06 at cycle  11 NSaved=  11.
 NSaved=11 IEnMin=11 EnMin= -977.679018442370     IErMin=11 ErrMin= 3.77D-06
 ErrMax= 3.77D-06  0.00D+00 EMaxC= 1.00D-01 BMatC= 4.47D-09 BMatP= 2.33D-08
 IDIUse=1 WtCom= 1.00D+00 WtEn= 0.00D+00
 Coeff-Com:  0.236D-03-0.506D-03-0.243D-03 0.673D-03 0.542D-02 0.360D-02
 Coeff-Com: -0.164D-01-0.472D-01-0.627D-01 0.277D+00 0.840D+00
 Coeff:      0.236D-03-0.506D-03-0.243D-03 0.673D-03 0.542D-02 0.360D-02
 Coeff:     -0.164D-01-0.472D-01-0.627D-01 0.277D+00 0.840D+00
 Gap=     0.238 Goal=   None    Shift=    0.000
 RMSDP=1.79D-06 MaxDP=1.99D-04 DE=-7.70D-08 OVMax= 8.69D-05

 Cycle  12  Pass 1  IDiag  1:
 RMSU=  9.27D-07    CP:  6.34D-01  1.71D+00  6.29D-01  7.90D-01  1.13D+00
                    CP:  1.21D+00  1.05D+00  1.38D+00  1.45D+00  1.25D+00
                    CP:  1.21D+00
 E= -977.679018455156     Delta-E=       -0.000000012786 Rises=F Damp=F
 DIIS: error= 1.59D-06 at cycle  12 NSaved=  12.
 NSaved=12 IEnMin=12 EnMin= -977.679018455156     IErMin=12 ErrMin= 1.59D-06
 ErrMax= 1.59D-06  0.00D+00 EMaxC= 1.00D-01 BMatC= 7.43D-10 BMatP= 4.47D-09
 IDIUse=1 WtCom= 1.00D+00 WtEn= 0.00D+00
 Coeff-Com:  0.565D-04-0.120D-03-0.127D-03-0.281D-04 0.878D-03 0.189D-02
 Coeff-Com:  0.797D-02-0.424D-02-0.662D-01-0.625D-01 0.268D+00 0.854D+00
 Coeff:      0.565D-04-0.120D-03-0.127D-03-0.281D-04 0.878D-03 0.189D-02
 Coeff:      0.797D-02-0.424D-02-0.662D-01-0.625D-01 0.268D+00 0.854D+00
 Gap=     0.238 Goal=   None    Shift=    0.000
 RMSDP=7.65D-07 MaxDP=7.39D-05 DE=-1.28D-08 OVMax= 3.30D-05

 Cycle  13  Pass 1  IDiag  1:
 RMSU=  2.55D-07    CP:  6.34D-01  1.71D+00  6.29D-01  7.90D-01  1.13D+00
                    CP:  1.21D+00  1.05D+00  1.38D+00  1.46D+00  1.29D+00
                    CP:  1.38D+00  1.11D+00
 E= -977.679018456983     Delta-E=       -0.000000001827 Rises=F Damp=F
 DIIS: error= 7.04D-07 at cycle  13 NSaved=  13.
 NSaved=13 IEnMin=13 EnMin= -977.679018456983     IErMin=13 ErrMin= 7.04D-07
 ErrMax= 7.04D-07  0.00D+00 EMaxC= 1.00D-01 BMatC= 1.62D-10 BMatP= 7.43D-10
 IDIUse=1 WtCom= 1.00D+00 WtEn= 0.00D+00
 Coeff-Com: -0.106D-04 0.235D-04-0.224D-04-0.130D-03-0.532D-03 0.138D-03
 Coeff-Com:  0.651D-02 0.603D-02-0.170D-01-0.768D-01-0.186D-01 0.383D+00
 Coeff-Com:  0.718D+00
 Coeff:     -0.106D-04 0.235D-04-0.224D-04-0.130D-03-0.532D-03 0.138D-03
 Coeff:      0.651D-02 0.603D-02-0.170D-01-0.768D-01-0.186D-01 0.383D+00
 Coeff:      0.718D+00
 Gap=     0.238 Goal=   None    Shift=    0.000
 RMSDP=2.32D-07 MaxDP=1.74D-05 DE=-1.83D-09 OVMax= 1.21D-05

 Cycle  14  Pass 1  IDiag  1:
 RMSU=  1.10D-07    CP:  6.34D-01  1.71D+00  6.29D-01  7.90D-01  1.13D+00
                    CP:  1.21D+00  1.05D+00  1.37D+00  1.46D+00  1.30D+00
                    CP:  1.42D+00  1.20D+00  1.11D+00
 E= -977.679018457221     Delta-E=       -0.000000000239 Rises=F Damp=F
 DIIS: error= 2.77D-07 at cycle  14 NSaved=  14.
 NSaved=14 IEnMin=14 EnMin= -977.679018457221     IErMin=14 ErrMin= 2.77D-07
 ErrMax= 2.77D-07  0.00D+00 EMaxC= 1.00D-01 BMatC= 1.16D-11 BMatP= 1.62D-10
 IDIUse=1 WtCom= 1.00D+00 WtEn= 0.00D+00
 Coeff-Com: -0.647D-05 0.139D-04 0.917D-05-0.247D-04-0.206D-03-0.211D-03
 Coeff-Com:  0.206D-03 0.917D-03 0.592D-02-0.867D-02-0.323D-01-0.344D-01
 Coeff-Com:  0.119D+00 0.949D+00
 Coeff:     -0.647D-05 0.139D-04 0.917D-05-0.247D-04-0.206D-03-0.211D-03
 Coeff:      0.206D-03 0.917D-03 0.592D-02-0.867D-02-0.323D-01-0.344D-01
 Coeff:      0.119D+00 0.949D+00
 Gap=     0.238 Goal=   None    Shift=    0.000
 RMSDP=1.22D-07 MaxDP=1.07D-05 DE=-2.39D-10 OVMax= 5.50D-06

 Cycle  15  Pass 1  IDiag  1:
 RMSU=  4.72D-08    CP:  6.34D-01  1.71D+00  6.29D-01  7.90D-01  1.13D+00
                    CP:  1.21D+00  1.05D+00  1.38D+00  1.46D+00  1.30D+00
                    CP:  1.43D+00  1.23D+00  1.26D+00  1.24D+00
 E= -977.679018457205     Delta-E=        0.000000000016 Rises=F Damp=F
 DIIS: error= 1.04D-07 at cycle  15 NSaved=  15.
 NSaved=15 IEnMin=14 EnMin= -977.679018457221     IErMin=15 ErrMin= 1.04D-07
 ErrMax= 1.04D-07  0.00D+00 EMaxC= 1.00D-01 BMatC= 2.38D-12 BMatP= 1.16D-11
 IDIUse=1 WtCom= 1.00D+00 WtEn= 0.00D+00
 Coeff-Com: -0.211D-05 0.441D-05 0.750D-05 0.554D-05-0.242D-04-0.105D-03
 Coeff-Com: -0.603D-03-0.374D-03 0.459D-02 0.484D-02-0.917D-02-0.553D-01
 Coeff-Com: -0.497D-01 0.317D+00 0.789D+00
 Coeff:     -0.211D-05 0.441D-05 0.750D-05 0.554D-05-0.242D-04-0.105D-03
 Coeff:     -0.603D-03-0.374D-03 0.459D-02 0.484D-02-0.917D-02-0.553D-01
 Coeff:     -0.497D-01 0.317D+00 0.789D+00
 Gap=     0.238 Goal=   None    Shift=    0.000
 RMSDP=4.01D-08 MaxDP=4.52D-06 DE= 1.59D-11 OVMax= 1.70D-06

 Cycle  16  Pass 1  IDiag  1:
 RMSU=  1.98D-08    CP:  6.34D-01  1.71D+00  6.29D-01  7.90D-01  1.13D+00
                    CP:  1.21D+00  1.05D+00  1.38D+00  1.46D+00  1.30D+00
                    CP:  1.43D+00  1.24D+00  1.29D+00  1.37D+00  1.07D+00
 E= -977.679018457200     Delta-E=        0.000000000005 Rises=F Damp=F
 DIIS: error= 4.87D-08 at cycle  16 NSaved=  16.
 NSaved=16 IEnMin=14 EnMin= -977.679018457221     IErMin=16 ErrMin= 4.87D-08
 ErrMax= 4.87D-08  0.00D+00 EMaxC= 1.00D-01 BMatC= 3.84D-13 BMatP= 2.38D-12
 IDIUse=1 WtCom= 1.00D+00 WtEn= 0.00D+00
 Coeff-Com:  0.443D-06-0.975D-06 0.234D-06 0.672D-05 0.346D-04 0.817D-05
 Coeff-Com: -0.150D-03-0.332D-03-0.985D-04 0.237D-02 0.466D-02-0.381D-02
 Coeff-Com: -0.380D-01-0.134D+00 0.169D+00 0.100D+01
 Coeff:      0.443D-06-0.975D-06 0.234D-06 0.672D-05 0.346D-04 0.817D-05
 Coeff:     -0.150D-03-0.332D-03-0.985D-04 0.237D-02 0.466D-02-0.381D-02
 Coeff:     -0.380D-01-0.134D+00 0.169D+00 0.100D+01
 Gap=     0.238 Goal=   None    Shift=    0.000
 RMSDP=1.98D-08 MaxDP=1.21D-06 DE= 5.46D-12 OVMax= 1.09D-06

 Cycle  17  Pass 1  IDiag  1:
 RMSU=  6.51D-09    CP:  6.34D-01  1.71D+00  6.29D-01  7.90D-01  1.13D+00
                    CP:  1.21D+00  1.05D+00  1.38D+00  1.47D+00  1.29D+00
                    CP:  1.43D+00  1.24D+00  1.30D+00  1.43D+00  1.25D+00
                    CP:  1.20D+00
 E= -977.679018457117     Delta-E=        0.000000000083 Rises=F Damp=F
 DIIS: error= 1.91D-08 at cycle  17 NSaved=  17.
 NSaved=17 IEnMin=14 EnMin= -977.679018457221     IErMin=17 ErrMin= 1.91D-08
 ErrMax= 1.91D-08  0.00D+00 EMaxC= 1.00D-01 BMatC= 5.92D-14 BMatP= 3.84D-13
 IDIUse=1 WtCom= 1.00D+00 WtEn= 0.00D+00
 Coeff-Com:  0.371D-06-0.773D-06-0.849D-06 0.145D-05 0.125D-04 0.151D-04
 Coeff-Com:  0.461D-04-0.502D-04-0.553D-03-0.341D-04 0.242D-02 0.712D-02
 Coeff-Com: -0.184D-02-0.718D-01-0.673D-01 0.254D+00 0.878D+00
 Coeff:      0.371D-06-0.773D-06-0.849D-06 0.145D-05 0.125D-04 0.151D-04
 Coeff:      0.461D-04-0.502D-04-0.553D-03-0.341D-04 0.242D-02 0.712D-02
 Coeff:     -0.184D-02-0.718D-01-0.673D-01 0.254D+00 0.878D+00
 Gap=     0.238 Goal=   None    Shift=    0.000
 RMSDP=9.95D-09 MaxDP=7.21D-07 DE= 8.32D-11 OVMax= 3.57D-07

 SCF Done:  E(RwB97XD) =  -977.679018457     A.U. after   17 cycles
            NFock= 17  Conv=0.10D-07     -V/T= 2.0045
 KE= 9.732509558164D+02 PE=-5.502164570306D+03 EE= 1.939118290246D+03
 Leave Link  502 at Mon Nov  6 04:02:15 2017, MaxMem=  3758096384 cpu:      3145.3
 (Enter /share/apps/gaussian/g09_D01/g09/l801.exe)
 DoSCS=F DFT=T ScalE2(SS,OS)=  1.000000  1.000000
 ExpMin= 3.60D-02 ExpMax= 8.59D+03 ExpMxC= 1.30D+03 IAcc=3 IRadAn=         5 AccDes= 0.00D+00
 HarFok:  IExCor=  205 AccDes= 0.00D+00 IRadAn=         5 IDoV=-2 UseB2=F ITyADJ=14
 ICtDFT= 12500011 ScaDFX=  1.000000  1.000000  1.000000  1.000000
 Largest valence mixing into a core orbital is  5.69D-05
 Largest core mixing into a valence orbital is  1.60D-05
 Range of M.O.s used for correlation:    23   610
 NBasis=   617 NAE=    79 NBE=    79 NFC=    22 NFV=     0
 NROrb=    588 NOA=    57 NOB=    57 NVA=   531 NVB=   531

 **** Warning!!: The largest alpha MO coefficient is  0.11867211D+03

 Leave Link  801 at Mon Nov  6 04:02:16 2017, MaxMem=  3758096384 cpu:         3.6
 (Enter /share/apps/gaussian/g09_D01/g09/l914.exe)
 RHF ground state
 MDV=  3758096384 DFT=T DoStab=F Mixed=T DoRPA=T DoScal=F NonHer=T
 Would need an additional        105423900000 words for in-memory AO integral storage.
 Making orbital integer symmetry assigments:
    16 initial guesses have been made.
 Convergence on wavefunction:    0.001000000000000
 Davidson Disk Diagonalization:  ConvIn= 1.00D-03 SkipCon=T Conv= 1.00D-03.
 Max sub-space:   200 roots to seek:    16 dimension of matrix:        60534
 Iteration     1 Dimension    16 NMult     0 NNew     16
 CISAX will form    16 AO SS matrices at one time.
 NMat=    16 NSing=    16 JSym2X= 0.
 FoFJK:  IHMeth= 1 ICntrl=       0 DoSepK=T KAlg= 0 I1Cent=   0 FoldK=F
 IRaf=         1 NMat=  32 IRICut=       1 DoRegI=T DoRafI=F ISym2E= 0.
 FoFCou: FMM=F IPFlag=           0 FMFlag=      100000 FMFlg1=           0
         NFxFlg=           0 DoJE=F BraDBF=F KetDBF=F FulRan=T
         wScrn=  0.000000 ICntrl=     500 IOpCl=  0 I1Cent=           0 NGrid=           0
         NMat0=   16 NMatS0=     16 NMatT0=    0 NMatD0=   16 NMtDS0=    0 NMtDT0=    0
 Symmetry not used in FoFCou.
 New state      2 was old state     10
 New state      3 was old state      2
 New state      4 was old state      9
 Excitation Energies [eV] at current iteration:
 Root      1 :     3.677679521003615
 Root      2 :     4.254853238470215
 Root      3 :     4.323239328367763
 Root      4 :     5.321413771688049
 Root      5 :     5.456413091231299
 Root      6 :     5.545806607573510
 Root      7 :     5.789500865238340
 Root      8 :     5.879092235469108
 Root      9 :     6.005266063920007
 Root     10 :     6.018210144921434
 Root     11 :     6.180604053444847
 Root     12 :     6.320884418610692
 Root     13 :     6.358657022022028
 Root     14 :     6.753620310709837
 Root     15 :     7.111667616801867
 Root     16 :     7.248828533711157
 Iteration     2 Dimension    24 NMult    16 NNew      8
 CISAX will form     8 AO SS matrices at one time.
 NMat=     8 NSing=     8 JSym2X= 0.
 Root      1 not converged, maximum delta is    0.071369632528669
 New state      2 was old state      3
 Root      2 not converged, maximum delta is    0.283645161085910
 New state      3 was old state      2
 Root      3 not converged, maximum delta is    0.255753426794953
 Root      4 not converged, maximum delta is    0.265924301125306
 Excitation Energies [eV] at current iteration:
 Root      1 :     3.249996519074554   Change is   -0.427683001929061
 Root      2 :     3.731699949486181   Change is   -0.591539378881583
 Root      3 :     3.819201350555584   Change is   -0.435651887914631
 Root      4 :     4.594810210443490   Change is   -0.726603561244559
 Iteration     3 Dimension    32 NMult    24 NNew      8
 CISAX will form     8 AO SS matrices at one time.
 NMat=     8 NSing=     8 JSym2X= 0.
 Root      1 not converged, maximum delta is    0.016650915795592
 Root      2 not converged, maximum delta is    0.027394268385695
 Root      3 not converged, maximum delta is    0.025969489244724
 Root      4 not converged, maximum delta is    0.040241963335297
 Excitation Energies [eV] at current iteration:
 Root      1 :     3.217833869610174   Change is   -0.032162649464381
 Root      2 :     3.685212029469863   Change is   -0.046487920016318
 Root      3 :     3.792901326466474   Change is   -0.026300024089110
 Root      4 :     4.505024679721449   Change is   -0.089785530722042
 Iteration     4 Dimension    40 NMult    32 NNew      8
 CISAX will form     8 AO SS matrices at one time.
 NMat=     8 NSing=     8 JSym2X= 0.
 Root      1 not converged, maximum delta is    0.007580424826363
 Root      2 not converged, maximum delta is    0.011263311225798
 Root      3 not converged, maximum delta is    0.009395964926467
 Root      4 not converged, maximum delta is    0.017707810638689
 Excitation Energies [eV] at current iteration:
 Root      1 :     3.212407507704831   Change is   -0.005426361905343
 Root      2 :     3.675276651113582   Change is   -0.009935378356281
 Root      3 :     3.790976531931796   Change is   -0.001924794534678
 Root      4 :     4.493773762945679   Change is   -0.011250916775770
 Iteration     5 Dimension    48 NMult    40 NNew      8
 CISAX will form     8 AO SS matrices at one time.
 NMat=     8 NSing=     8 JSym2X= 0.
 Root      1 not converged, maximum delta is    0.001782044176243
 Root      2 not converged, maximum delta is    0.003735850855420
 Root      3 not converged, maximum delta is    0.001448373529653
 Root      4 not converged, maximum delta is    0.010101665387431
 Excitation Energies [eV] at current iteration:
 Root      1 :     3.211859976594521   Change is   -0.000547531110310
 Root      2 :     3.673908141671217   Change is   -0.001368509442365
 Root      3 :     3.790823268897856   Change is   -0.000153263033940
 Root      4 :     4.491604677396611   Change is   -0.002169085549067
 Iteration     6 Dimension    56 NMult    48 NNew      8
 CISAX will form     8 AO SS matrices at one time.
 NMat=     8 NSing=     8 JSym2X= 0.
 Root      1 has converged.
 Root      2 not converged, maximum delta is    0.001091923454924
 Root      3 has converged.
 Root      4 not converged, maximum delta is    0.007757144196619
 Excitation Energies [eV] at current iteration:
 Root      1 :     3.211809568765045   Change is   -0.000050407829476
 Root      2 :     3.673753679521687   Change is   -0.000154462149530
 Root      3 :     3.790807495188822   Change is   -0.000015773709034
 Root      4 :     4.490802499322347   Change is   -0.000802178074265
 Iteration     7 Dimension    60 NMult    56 NNew      4
 CISAX will form     4 AO SS matrices at one time.
 NMat=     4 NSing=     4 JSym2X= 0.
 Root      1 has converged.
 Root      2 has converged.
 Root      3 has converged.
 Root      4 not converged, maximum delta is    0.005181751448297
 Excitation Energies [eV] at current iteration:
 Root      1 :     3.211809137298101   Change is   -0.000000431466944
 Root      2 :     3.673740710034157   Change is   -0.000012969487530
 Root      3 :     3.790807127548479   Change is   -0.000000367640343
 Root      4 :     4.490533373488941   Change is   -0.000269125833405
 Iteration     8 Dimension    62 NMult    60 NNew      2
 CISAX will form     2 AO SS matrices at one time.
 NMat=     2 NSing=     2 JSym2X= 0.
 Root      1 has converged.
 Root      2 has converged.
 Root      3 has converged.
 Root      4 not converged, maximum delta is    0.001757655690447
 Excitation Energies [eV] at current iteration:
 Root      1 :     3.211808990346847   Change is   -0.000000146951253
 Root      2 :     3.673740572920365   Change is   -0.000000137113792
 Root      3 :     3.790807117863894   Change is   -0.000000009684585
 Root      4 :     4.490463287599069   Change is   -0.000070085889873
 Iteration     9 Dimension    64 NMult    62 NNew      2
 CISAX will form     2 AO SS matrices at one time.
 NMat=     2 NSing=     2 JSym2X= 0.
 Root      1 has converged.
 Root      2 has converged.
 Root      3 has converged.
 Root      4 has converged.
 Excitation Energies [eV] at current iteration:
 Root      1 :     3.211808725073920   Change is   -0.000000265272927
 Root      2 :     3.673740563766492   Change is   -0.000000009153873
 Root      3 :     3.790807108457410   Change is   -0.000000009406484
 Root      4 :     4.490450470423627   Change is   -0.000012817175442
 Convergence achieved on expansion vectors.
 ***********************************************************************
 Excited states from <AA,BB:AA,BB> singles matrix:
 ***********************************************************************
 
 1PDM for each excited state written to RWF  633
 Ground to excited state transition densities written to RWF  633
 Ground to excited state transition electric dipole moments (Au):
       state          X           Y           Z        Dip. S.      Osc.
         1         0.3513     -0.6252     -3.2930     11.3580      0.8937
         2         0.3317     -0.4199     -1.8530      3.7199      0.3348
         3        -0.0374      0.0748      0.2387      0.0640      0.0059
         4         0.3646     -0.0792      0.5260      0.4159      0.0458
 Ground to excited state transition velocity dipole moments (Au):
       state          X           Y           Z        Dip. S.      Osc.
         1        -0.0462      0.0748      0.3852      0.1561      0.8816
         2        -0.0412      0.0542      0.2438      0.0641      0.3165
         3         0.0041     -0.0117     -0.0320      0.0012      0.0056
         4        -0.0670      0.0162     -0.0854      0.0120      0.0486
 Ground to excited state transition magnetic dipole moments (Au):
       state          X           Y           Z
         1        -3.3681      2.3314     -0.8379
         2        -2.2654      0.8703     -0.5908
         3         0.6075     -0.2182      0.0613
         4         1.5065      1.2633     -0.9645
 Ground to excited state transition velocity quadrupole moments (Au):
       state          XX          YY          ZZ          XY          XZ          YZ
         1         0.2771     -1.9165    -18.5652      0.3294     -0.4762     -6.7458
         2         0.2830     -1.2706     -9.2379      0.2286     -0.5890     -3.8386
         3        -0.0522      0.3095      1.2173     -0.0212      0.1157      0.6160
         4         0.6819     -0.3572      3.5800      0.6543      1.4204      0.8666
 <0|del|b> * <b|rxdel|0> + <0|del|b> * <b|delr+rdel|0>
 Rotatory Strengths (R) in cgs (10**-40 erg-esu-cm/Gauss)
       state          XX          YY          ZZ    R(velocity)    E-M Angle
         1        42.2664     53.4819    -51.9768     14.5905       89.75
         2       -24.1722    136.1396   -130.0151     -6.0159       90.31
         3         6.6602      6.1265      2.9559      5.2475       81.99
         4        51.2874    -44.4782      1.1490      2.6527       89.56
 1/2[<0|r|b>*<b|rxdel|0> + (<0|rxdel|b>*<b|r|0>)*]
 Rotatory Strengths (R) in cgs (10**-40 erg-esu-cm/Gauss)
       state          XX          YY          ZZ     R(length)
         1       836.7605   1030.7559  -1951.3020    -27.9285
         2       531.3186    258.4578   -774.1931      5.1944
         3        16.0544     11.5423    -10.3532      5.7478
         4      -388.4054     70.7842    358.7870     13.7219
  1/2[<0|del|b>*<b|r|0> + (<0|r|b>*<b|del|0>)*] (Au)
       state          X           Y           Z        Dip. S.   Osc.(frdel)
         1        -0.0162     -0.0468     -1.2684      1.3314      0.8876
         2        -0.0137     -0.0228     -0.4518      0.4883      0.3255
         3        -0.0002     -0.0009     -0.0076      0.0087      0.0058
         4        -0.0244     -0.0013     -0.0449      0.0706      0.0471

 Excitation energies and oscillator strengths:
 
 Excited state symmetry could not be determined.
 Excited State   1:      Singlet-?Sym    3.2118 eV  386.03 nm  f=0.8937  <S**2>=0.000
      78 -> 80        -0.11633
      78 -> 82        -0.16517
      79 -> 80         0.66118
 This state for optimization and/or second-order correction.
 Total Energy, E(TD-HF/TD-KS) =  -977.560986653    
 Copying the excited state density for this state as the 1-particle RhoCI density.
 
 Excited state symmetry could not be determined.
 Excited State   2:      Singlet-?Sym    3.6737 eV  337.49 nm  f=0.3348  <S**2>=0.000
      78 -> 80         0.64460
      79 -> 80         0.12455
      79 -> 82        -0.17607
 
 Excited state symmetry could not be determined.
 Excited State   3:      Singlet-?Sym    3.7908 eV  327.07 nm  f=0.0059  <S**2>=0.000
      76 -> 80         0.66106
      76 -> 82         0.13657
 
 Excited state symmetry could not be determined.
 Excited State   4:      Singlet-?Sym    4.4905 eV  276.11 nm  f=0.0458  <S**2>=0.000
      74 -> 80        -0.19133
      75 -> 80         0.17279
      78 -> 82        -0.14364
      78 -> 84        -0.11262
      78 -> 85         0.32595
      79 -> 82        -0.23139
      79 -> 84        -0.14518
      79 -> 85         0.41885
 SavETr:  write IOETrn=   770 NScale= 10 NData=  16 NLR=1 NState=    4 LETran=      82.
 Leave Link  914 at Mon Nov  6 05:10:45 2017, MaxMem=  3758096384 cpu:      8216.6
 (Enter /share/apps/gaussian/g09_D01/g09/l601.exe)
 Copying SCF densities to generalized density rwf, IOpCl= 0 IROHF=0.

 **********************************************************************

            Population analysis using the SCF density.

 **********************************************************************

 Alpha  occ. eigenvalues --  -19.27785 -19.23798 -19.23181 -14.47900 -10.38106
 Alpha  occ. eigenvalues --  -10.35593 -10.35025 -10.34594 -10.34232 -10.33787
 Alpha  occ. eigenvalues --  -10.33718 -10.31536 -10.30993 -10.30804 -10.30124
 Alpha  occ. eigenvalues --  -10.30112 -10.29891 -10.29845 -10.29821 -10.29609
 Alpha  occ. eigenvalues --  -10.29010 -10.28535  -1.16515  -1.14613  -1.10690
 Alpha  occ. eigenvalues --   -1.08137  -0.97316  -0.95626  -0.91102  -0.87728
 Alpha  occ. eigenvalues --   -0.87291  -0.85121  -0.84531  -0.84245  -0.80035
 Alpha  occ. eigenvalues --   -0.78892  -0.74839  -0.72421  -0.71669  -0.68828
 Alpha  occ. eigenvalues --   -0.67556  -0.64811  -0.63417  -0.62439  -0.60467
 Alpha  occ. eigenvalues --   -0.59485  -0.58391  -0.58043  -0.57871  -0.55974
 Alpha  occ. eigenvalues --   -0.55708  -0.54783  -0.53682  -0.52923  -0.52238
 Alpha  occ. eigenvalues --   -0.51908  -0.51529  -0.51212  -0.51130  -0.50283
 Alpha  occ. eigenvalues --   -0.48791  -0.48660  -0.48384  -0.47391  -0.46472
 Alpha  occ. eigenvalues --   -0.46362  -0.45790  -0.44336  -0.43175  -0.42624
 Alpha  occ. eigenvalues --   -0.42300  -0.41378  -0.38066  -0.35167  -0.35122
 Alpha  occ. eigenvalues --   -0.34083  -0.33726  -0.28074  -0.26770
 Alpha virt. eigenvalues --   -0.02983   0.02484   0.03062   0.03421   0.04221
 Alpha virt. eigenvalues --    0.04313   0.04912   0.05683   0.06073   0.06264
 Alpha virt. eigenvalues --    0.06446   0.07339   0.07749   0.07931   0.08062
 Alpha virt. eigenvalues --    0.08085   0.08136   0.08800   0.09679   0.09980
 Alpha virt. eigenvalues --    0.10175   0.10817   0.11241   0.11682   0.12021
 Alpha virt. eigenvalues --    0.12511   0.12681   0.13393   0.13444   0.13906
 Alpha virt. eigenvalues --    0.14066   0.14544   0.14985   0.15153   0.15424
 Alpha virt. eigenvalues --    0.15734   0.15990   0.16402   0.16745   0.17022
 Alpha virt. eigenvalues --    0.17108   0.17299   0.17350   0.17658   0.17955
 Alpha virt. eigenvalues --    0.18209   0.18365   0.19257   0.19517   0.19585
 Alpha virt. eigenvalues --    0.19660   0.20043   0.20190   0.20526   0.20685
 Alpha virt. eigenvalues --    0.20828   0.21015   0.21191   0.21577   0.21775
 Alpha virt. eigenvalues --    0.22002   0.22164   0.22492   0.22950   0.23122
 Alpha virt. eigenvalues --    0.23569   0.23927   0.24029   0.24056   0.24517
 Alpha virt. eigenvalues --    0.24877   0.25226   0.25446   0.25660   0.26113
 Alpha virt. eigenvalues --    0.26230   0.26557   0.27041   0.27511   0.27735
 Alpha virt. eigenvalues --    0.28096   0.28636   0.28842   0.29330   0.29840
 Alpha virt. eigenvalues --    0.29945   0.29999   0.30274   0.30452   0.30547
 Alpha virt. eigenvalues --    0.31280   0.31686   0.31855   0.32059   0.32398
 Alpha virt. eigenvalues --    0.32814   0.33228   0.33582   0.33856   0.34165
 Alpha virt. eigenvalues --    0.34572   0.34627   0.35101   0.35447   0.35745
 Alpha virt. eigenvalues --    0.35994   0.36686   0.37233   0.37635   0.37851
 Alpha virt. eigenvalues --    0.38015   0.38363   0.38691   0.39171   0.39225
 Alpha virt. eigenvalues --    0.39462   0.39682   0.40100   0.40617   0.40800
 Alpha virt. eigenvalues --    0.41390   0.42092   0.42143   0.42325   0.42459
 Alpha virt. eigenvalues --    0.43813   0.44402   0.44817   0.45472   0.45855
 Alpha virt. eigenvalues --    0.46315   0.46716   0.47161   0.48200   0.48414
 Alpha virt. eigenvalues --    0.48819   0.49603   0.50203   0.50722   0.51602
 Alpha virt. eigenvalues --    0.51825   0.51955   0.52407   0.53308   0.54477
 Alpha virt. eigenvalues --    0.55709   0.56411   0.57441   0.58900   0.60249
 Alpha virt. eigenvalues --    0.60816   0.61045   0.62064   0.62258   0.62641
 Alpha virt. eigenvalues --    0.63371   0.63458   0.64282   0.64311   0.65011
 Alpha virt. eigenvalues --    0.65505   0.66349   0.66472   0.66858   0.67291
 Alpha virt. eigenvalues --    0.67991   0.68638   0.69091   0.69136   0.69446
 Alpha virt. eigenvalues --    0.70006   0.70986   0.71568   0.71963   0.72492
 Alpha virt. eigenvalues --    0.72978   0.73499   0.73617   0.74086   0.74187
 Alpha virt. eigenvalues --    0.74734   0.74773   0.75578   0.75760   0.76049
 Alpha virt. eigenvalues --    0.76691   0.77072   0.78122   0.78688   0.78986
 Alpha virt. eigenvalues --    0.79149   0.79735   0.80343   0.80733   0.80876
 Alpha virt. eigenvalues --    0.82180   0.83449   0.83852   0.84561   0.85106
 Alpha virt. eigenvalues --    0.85601   0.86850   0.87693   0.88775   0.89325
 Alpha virt. eigenvalues --    0.90170   0.91153   0.92559   0.93208   0.94316
 Alpha virt. eigenvalues --    0.94694   0.95177   0.96003   0.96863   0.96930
 Alpha virt. eigenvalues --    0.97820   0.98497   0.99085   0.99491   1.00124
 Alpha virt. eigenvalues --    1.00707   1.01784   1.03395   1.03996   1.04396
 Alpha virt. eigenvalues --    1.04763   1.05513   1.06380   1.06472   1.07027
 Alpha virt. eigenvalues --    1.07758   1.08004   1.08074   1.08829   1.09897
 Alpha virt. eigenvalues --    1.10702   1.10882   1.12216   1.13296   1.13627
 Alpha virt. eigenvalues --    1.13996   1.14361   1.14618   1.15026   1.16335
 Alpha virt. eigenvalues --    1.16490   1.18370   1.19058   1.19376   1.19896
 Alpha virt. eigenvalues --    1.20329   1.21262   1.21945   1.22786   1.23465
 Alpha virt. eigenvalues --    1.25095   1.29700   1.30864   1.32158   1.32595
 Alpha virt. eigenvalues --    1.34658   1.35079   1.36046   1.37512   1.37656
 Alpha virt. eigenvalues --    1.38342   1.40926   1.42104   1.42558   1.47533
 Alpha virt. eigenvalues --    1.47991   1.49005   1.50691   1.50897   1.51373
 Alpha virt. eigenvalues --    1.52504   1.53796   1.54243   1.55319   1.56563
 Alpha virt. eigenvalues --    1.56999   1.58680   1.59040   1.60210   1.60932
 Alpha virt. eigenvalues --    1.61567   1.62136   1.62268   1.62852   1.63075
 Alpha virt. eigenvalues --    1.63371   1.63833   1.64408   1.64814   1.65763
 Alpha virt. eigenvalues --    1.66460   1.67915   1.68354   1.68660   1.69408
 Alpha virt. eigenvalues --    1.69929   1.70271   1.70761   1.74743   1.75246
 Alpha virt. eigenvalues --    1.76170   1.76816   1.77644   1.78049   1.79175
 Alpha virt. eigenvalues --    1.79743   1.80295   1.80523   1.81486   1.81888
 Alpha virt. eigenvalues --    1.82229   1.82774   1.84006   1.84772   1.84926
 Alpha virt. eigenvalues --    1.86997   1.87377   1.88404   1.88677   1.92600
 Alpha virt. eigenvalues --    1.93280   1.93450   1.93647   1.94914   1.95436
 Alpha virt. eigenvalues --    1.96635   1.98074   1.99302   1.99546   2.00942
 Alpha virt. eigenvalues --    2.01444   2.01927   2.02197   2.03469   2.05125
 Alpha virt. eigenvalues --    2.05392   2.06806   2.07402   2.08005   2.08859
 Alpha virt. eigenvalues --    2.10398   2.10490   2.12371   2.14286   2.14412
 Alpha virt. eigenvalues --    2.15013   2.16370   2.17132   2.17580   2.18076
 Alpha virt. eigenvalues --    2.18526   2.19952   2.20231   2.22034   2.23582
 Alpha virt. eigenvalues --    2.24352   2.25065   2.25342   2.27327   2.28077
 Alpha virt. eigenvalues --    2.29751   2.31474   2.35602   2.36386   2.37565
 Alpha virt. eigenvalues --    2.39720   2.41032   2.42269   2.42696   2.45939
 Alpha virt. eigenvalues --    2.47672   2.47883   2.49412   2.50210   2.52627
 Alpha virt. eigenvalues --    2.54284   2.54614   2.55268   2.55528   2.56029
 Alpha virt. eigenvalues --    2.56665   2.56845   2.57755   2.61081   2.62024
 Alpha virt. eigenvalues --    2.63393   2.64926   2.67740   2.68465   2.69279
 Alpha virt. eigenvalues --    2.69922   2.73012   2.73704   2.74285   2.74792
 Alpha virt. eigenvalues --    2.76585   2.77148   2.78071   2.78422   2.78765
 Alpha virt. eigenvalues --    2.79249   2.80577   2.81743   2.82128   2.82904
 Alpha virt. eigenvalues --    2.83803   2.84310   2.85692   2.86537   2.86887
 Alpha virt. eigenvalues --    2.88446   2.88611   2.90823   2.91011   2.92188
 Alpha virt. eigenvalues --    2.92766   2.93179   2.94104   2.95743   2.96469
 Alpha virt. eigenvalues --    2.97493   2.98240   3.00182   3.00889   3.01509
 Alpha virt. eigenvalues --    3.02855   3.03722   3.04858   3.06918   3.07313
 Alpha virt. eigenvalues --    3.08690   3.13680   3.14255   3.16045   3.17862
 Alpha virt. eigenvalues --    3.18843   3.19377   3.21677   3.22605   3.22850
 Alpha virt. eigenvalues --    3.25313   3.27025   3.30006   3.30402   3.31730
 Alpha virt. eigenvalues --    3.32501   3.34182   3.35103   3.38134   3.39164
 Alpha virt. eigenvalues --    3.41805   3.43619   3.45590   3.47422   3.50057
 Alpha virt. eigenvalues --    3.53015   3.58266   3.60281   3.60960   3.62675
 Alpha virt. eigenvalues --    3.63748   3.66059   3.66971   3.73769   3.76015
 Alpha virt. eigenvalues --    3.76608   3.76973   3.77708   3.78009   3.80152
 Alpha virt. eigenvalues --    3.85855   3.85979   3.88356   3.89622   3.92288
 Alpha virt. eigenvalues --    3.92382   4.03003   4.05410   4.07350   4.10364
 Alpha virt. eigenvalues --    4.12928   4.16928   4.19624   4.25918   4.26740
 Alpha virt. eigenvalues --    4.29770   4.30130   4.33800   4.37826   4.54120
 Alpha virt. eigenvalues --    4.78178   4.93082   4.94808   4.99845   5.15079
 Alpha virt. eigenvalues --    5.16212   5.17646   5.18738   5.38552   5.51298
 Alpha virt. eigenvalues --    5.66105   5.82741   5.89342   5.97916  23.72286
 Alpha virt. eigenvalues --   23.79724  23.94101  24.01710  24.02943  24.03612
 Alpha virt. eigenvalues --   24.03747  24.04782  24.07724  24.07925  24.08918
 Alpha virt. eigenvalues --   24.13154  24.14032  24.22396  24.25442  24.30085
 Alpha virt. eigenvalues --   24.30840  24.31136  35.73801  50.10683  50.14561
 Alpha virt. eigenvalues --   50.18639
          Condensed to atoms (all electrons):
               1          2          3          4          5          6
     1  C    5.275583   0.403145   0.395981   0.411375   0.207166   0.278961
     2  H    0.403145   0.596094  -0.018182  -0.069143  -0.034833   0.046422
     3  H    0.395981  -0.018182   0.455967  -0.018254  -0.067533   0.055221
     4  H    0.411375  -0.069143  -0.018254   0.587152  -0.035137   0.010324
     5  O    0.207166  -0.034833  -0.067533  -0.035137   8.193829   0.277782
     6  C    0.278961   0.046422   0.055221   0.010324   0.277782  17.622130
     7  C   -0.339075  -0.036614  -0.033399  -0.008453   0.411878  -5.890131
     8  C    0.036069  -0.036539   0.035451  -0.034244  -0.879415  -1.553732
     9  H   -0.066307  -0.011870  -0.004665  -0.015515  -0.022818  -0.302427
    10  C   -0.207507  -0.027354  -0.006789  -0.016291   0.012228  -5.175182
    11  C   -0.005056   0.002729  -0.004327   0.002909   0.040244  -0.273439
    12  H    0.002508  -0.000886   0.001469  -0.001321  -0.029603  -0.173622
    13  C    0.146901   0.000092   0.001628   0.005239   0.071055   0.705798
    14  C   -0.087726   0.003162  -0.005263   0.004413   0.019711  -0.328881
    15  H   -0.000521   0.000009  -0.000175  -0.000002   0.001127   0.039994
    16  O   -0.001094   0.000139  -0.000042   0.000088   0.000301  -0.047448
    17  C   -0.060671   0.006526  -0.000223   0.000697  -0.012491   0.801131
    18  O   -0.000626   0.000044  -0.000016   0.000025   0.000034   0.012745
    19  H    0.000254  -0.000029  -0.000012   0.000033   0.000538   0.017243
    20  C   -0.005197   0.007503   0.000568   0.001592  -0.003368   0.924991
    21  H    0.031840   0.000622   0.001391   0.003864   0.000095  -0.041124
    22  C    0.002223  -0.000862   0.000334   0.000046  -0.000759   0.025016
    23  H   -0.001358   0.000003  -0.000058  -0.000074  -0.000004   0.000273
    24  C   -0.008447   0.002103  -0.000052   0.000130  -0.000280   0.029930
    25  C    0.001922   0.000021   0.000154  -0.000091  -0.000129   0.094831
    26  C   -0.002249  -0.000989  -0.000278  -0.000959   0.000216  -0.067650
    27  H   -0.003161  -0.000691   0.000019  -0.001385  -0.000234   0.020249
    28  C    0.000295  -0.000039   0.000020  -0.000019  -0.000010   0.015083
    29  H    0.000089  -0.000001   0.000005   0.000005  -0.000002   0.000404
    30  H    0.000257  -0.000016   0.000000   0.000095   0.000012  -0.001646
    31  C   -0.000262   0.000009   0.000011  -0.000134  -0.000008   0.002600
    32  H   -0.000008  -0.000003  -0.000001  -0.000003   0.000000  -0.000135
    33  N   -0.000002   0.000000   0.000000   0.000000   0.000000  -0.000004
    34  C    0.000005  -0.000011  -0.000001  -0.000001   0.000000  -0.000163
    35  C    0.000000   0.000000   0.000000   0.000001   0.000000   0.000026
    36  H   -0.000006   0.000001   0.000000  -0.000005   0.000000   0.000052
    37  H    0.000001  -0.000001   0.000000   0.000000   0.000000  -0.000012
    38  H   -0.000002   0.000002   0.000000   0.000000   0.000000   0.000025
    39  H    0.000000   0.000000   0.000000   0.000000   0.000000   0.000003
    40  H    0.000000   0.000000   0.000000   0.000000   0.000000   0.000000
    41  H    0.000000   0.000000   0.000000   0.000000   0.000000  -0.000001
               7          8          9         10         11         12
     1  C   -0.339075   0.036069  -0.066307  -0.207507  -0.005056   0.002508
     2  H   -0.036614  -0.036539  -0.011870  -0.027354   0.002729  -0.000886
     3  H   -0.033399   0.035451  -0.004665  -0.006789  -0.004327   0.001469
     4  H   -0.008453  -0.034244  -0.015515  -0.016291   0.002909  -0.001321
     5  O    0.411878  -0.879415  -0.022818   0.012228   0.040244  -0.029603
     6  C   -5.890131  -1.553732  -0.302427  -5.175182  -0.273439  -0.173622
     7  C   14.327207  -4.416785   0.619759   1.935718   0.499013  -0.196966
     8  C   -4.416785  17.086594  -0.144399   1.992989  -1.641841   0.763459
     9  H    0.619759  -0.144399   0.877409   0.122307   0.086127  -0.003735
    10  C    1.935718   1.992989   0.122307  20.881847  -2.877517   0.091254
    11  C    0.499013  -1.641841   0.086127  -2.877517   9.338430  -0.110536
    12  H   -0.196966   0.763459  -0.003735   0.091254  -0.110536   0.476448
    13  C    1.402336  -1.665771   0.148175  -0.584987   0.808632   0.004758
    14  C   -0.955156  -2.113999  -0.022455   3.217813  -0.050303  -0.033798
    15  H    0.089228  -0.210945   0.004061  -0.114858   0.635011  -0.020781
    16  O   -0.009422   0.056024  -0.000647   0.220325  -0.330940   0.001769
    17  C   -1.440115  -0.744610  -0.117073  -7.333594   0.201213  -0.014111
    18  O    0.011080  -0.017450   0.007704  -0.025827  -0.055504  -0.000096
    19  H    0.009182  -0.001825   0.002994  -0.104354  -0.000585   0.000090
    20  C   -0.457136  -0.316406  -0.041554  -5.562647   0.052230  -0.004091
    21  H    0.108472   0.022278  -0.193878   0.033721  -0.014873   0.000249
    22  C   -0.030501   0.055141  -0.052754  -0.027656  -0.036626   0.000561
    23  H   -0.024394  -0.005946   0.009453  -0.157427   0.003998  -0.000076
    24  C   -0.206193  -0.038809   0.038534  -1.069050   0.056379  -0.000648
    25  C    0.161362   0.002077  -0.004520  -0.402132  -0.026074   0.000094
    26  C   -0.095392  -0.004860   0.040937   0.226475   0.007521  -0.000070
    27  H   -0.030177   0.002164   0.021220  -0.048125   0.001500   0.000010
    28  C    0.053772   0.000646  -0.003884  -0.151605  -0.004861   0.000014
    29  H    0.001425   0.000130  -0.000775   0.013876   0.000114   0.000002
    30  H    0.001524   0.000119  -0.002243   0.009196  -0.000182   0.000003
    31  C   -0.001602  -0.000826   0.002965  -0.123524   0.000935  -0.000015
    32  H   -0.000419   0.000004   0.000213  -0.000168  -0.000017   0.000000
    33  N   -0.000039   0.000001   0.000079   0.000537  -0.000001   0.000000
    34  C   -0.000369   0.000004   0.000135   0.002015  -0.000003   0.000000
    35  C    0.000128   0.000001  -0.000054  -0.000968  -0.000002   0.000000
    36  H    0.000023   0.000000   0.000079  -0.000340   0.000001   0.000000
    37  H   -0.000030   0.000000   0.000004   0.000138   0.000000   0.000000
    38  H    0.000026  -0.000002   0.000016  -0.000218   0.000001   0.000000
    39  H    0.000013   0.000000  -0.000004  -0.000062   0.000000   0.000000
    40  H    0.000001   0.000000  -0.000003   0.000017   0.000000   0.000000
    41  H   -0.000003   0.000000  -0.000005   0.000060   0.000000   0.000000
              13         14         15         16         17         18
     1  C    0.146901  -0.087726  -0.000521  -0.001094  -0.060671  -0.000626
     2  H    0.000092   0.003162   0.000009   0.000139   0.006526   0.000044
     3  H    0.001628  -0.005263  -0.000175  -0.000042  -0.000223  -0.000016
     4  H    0.005239   0.004413  -0.000002   0.000088   0.000697   0.000025
     5  O    0.071055   0.019711   0.001127   0.000301  -0.012491   0.000034
     6  C    0.705798  -0.328881   0.039994  -0.047448   0.801131   0.012745
     7  C    1.402336  -0.955156   0.089228  -0.009422  -1.440115   0.011080
     8  C   -1.665771  -2.113999  -0.210945   0.056024  -0.744610  -0.017450
     9  H    0.148175  -0.022455   0.004061  -0.000647  -0.117073   0.007704
    10  C   -0.584987   3.217813  -0.114858   0.220325  -7.333594  -0.025827
    11  C    0.808632  -0.050303   0.635011  -0.330940   0.201213  -0.055504
    12  H    0.004758  -0.033798  -0.020781   0.001769  -0.014111  -0.000096
    13  C   18.981628  -5.175824  -0.161737   0.144735  -5.443249  -0.380391
    14  C   -5.175824  18.090960   0.036331  -0.069901   0.217512   0.899520
    15  H   -0.161737   0.036331   0.472657  -0.025207   0.008916   0.000531
    16  O    0.144735  -0.069901  -0.025207   8.200235  -0.027653   0.030994
    17  C   -5.443249   0.217512   0.008916  -0.027653  15.892827  -0.316273
    18  O   -0.380391   0.899520   0.000531   0.030994  -0.316273   8.115120
    19  H    0.016953   0.081396  -0.000180   0.210117   0.010655   0.092957
    20  C   -2.186144  -5.005438   0.003871   0.022068   5.051199  -0.022463
    21  H    0.070693   0.157300  -0.000571  -0.003194   0.595967  -0.025009
    22  C   -0.144811   1.161422  -0.001014   0.001172   0.030097   0.031851
    23  H   -0.075520  -0.081226   0.000023  -0.000330   0.068085   0.006060
    24  C   -0.057947  -2.449749   0.000713   0.000197  -1.153493   0.020001
    25  C   -0.147493  -0.783848  -0.000187  -0.001874   0.352824  -0.032147
    26  C    0.052966   0.433429   0.000078   0.000089  -0.293850   0.001584
    27  H   -0.009220  -0.080028  -0.000012   0.000176  -0.133495   0.003802
    28  C   -0.042297  -0.405930  -0.000037  -0.000241   0.324689  -0.003367
    29  H    0.005640   0.026431   0.000008  -0.000036   0.048734  -0.000869
    30  H    0.000463   0.024381  -0.000001   0.000000   0.058257  -0.000080
    31  C   -0.006933  -0.482998   0.000010  -0.000065  -0.642600   0.000735
    32  H   -0.000224   0.004666   0.000000   0.000004  -0.011727   0.000086
    33  N    0.000022   0.003848   0.000000   0.000000   0.006825  -0.000005
    34  C    0.000074   0.007683   0.000000   0.000000   0.021050   0.000000
    35  C   -0.000050  -0.003080   0.000000   0.000000  -0.012525   0.000008
    36  H   -0.000020  -0.001142   0.000000   0.000000  -0.003223   0.000001
    37  H    0.000005   0.000600   0.000000   0.000000   0.001940   0.000000
    38  H   -0.000009  -0.000941   0.000000   0.000000  -0.002320   0.000001
    39  H   -0.000004  -0.000271   0.000000   0.000000  -0.000727   0.000001
    40  H    0.000005  -0.000121   0.000000   0.000000   0.000203  -0.000001
    41  H    0.000009   0.000159   0.000000   0.000000   0.000614  -0.000002
              19         20         21         22         23         24
     1  C    0.000254  -0.005197   0.031840   0.002223  -0.001358  -0.008447
     2  H   -0.000029   0.007503   0.000622  -0.000862   0.000003   0.002103
     3  H   -0.000012   0.000568   0.001391   0.000334  -0.000058  -0.000052
     4  H    0.000033   0.001592   0.003864   0.000046  -0.000074   0.000130
     5  O    0.000538  -0.003368   0.000095  -0.000759  -0.000004  -0.000280
     6  C    0.017243   0.924991  -0.041124   0.025016   0.000273   0.029930
     7  C    0.009182  -0.457136   0.108472  -0.030501  -0.024394  -0.206193
     8  C   -0.001825  -0.316406   0.022278   0.055141  -0.005946  -0.038809
     9  H    0.002994  -0.041554  -0.193878  -0.052754   0.009453   0.038534
    10  C   -0.104354  -5.562647   0.033721  -0.027656  -0.157427  -1.069050
    11  C   -0.000585   0.052230  -0.014873  -0.036626   0.003998   0.056379
    12  H    0.000090  -0.004091   0.000249   0.000561  -0.000076  -0.000648
    13  C    0.016953  -2.186144   0.070693  -0.144811  -0.075520  -0.057947
    14  C    0.081396  -5.005438   0.157300   1.161422  -0.081226  -2.449749
    15  H   -0.000180   0.003871  -0.000571  -0.001014   0.000023   0.000713
    16  O    0.210117   0.022068  -0.003194   0.001172  -0.000330   0.000197
    17  C    0.010655   5.051199   0.595967   0.030097   0.068085  -1.153493
    18  O    0.092957  -0.022463  -0.025009   0.031851   0.006060   0.020001
    19  H    0.266318  -0.014977  -0.000340  -0.003011  -0.001194  -0.009288
    20  C   -0.014977  11.905692  -0.190645  -0.497498   0.442006   1.633180
    21  H   -0.000340  -0.190645   1.053705   0.145605  -0.022551  -0.314821
    22  C   -0.003011  -0.497498   0.145605  11.608360  -0.119363  -0.288009
    23  H   -0.001194   0.442006  -0.022551  -0.119363   0.470906   0.118731
    24  C   -0.009288   1.633180  -0.314821  -0.288009   0.118731  11.628350
    25  C    0.001898   0.108105   0.063428   0.206366   0.064905  -0.923590
    26  C    0.000376  -0.375843  -0.202274  -1.021235   0.008732   1.106688
    27  H   -0.000078   0.022494  -0.094969  -0.192159   0.010227   0.488116
    28  C   -0.000272   0.359847   0.060031  -2.977534   0.006623  -1.556987
    29  H    0.000202   0.043705   0.009178  -0.115276  -0.008761  -0.083469
    30  H    0.000024   0.008011   0.020607   0.167784  -0.002377   0.006080
    31  C   -0.000845  -0.121176  -0.073588  -2.586329   0.038016  -0.425288
    32  H    0.000010  -0.008613  -0.002160  -0.010057   0.002457  -0.011916
    33  N    0.000003   0.001331  -0.001024  -0.023477  -0.000944  -0.041289
    34  C    0.000006  -0.000235  -0.000537   0.009324  -0.000112  -0.020129
    35  C   -0.000004   0.010825   0.000170  -0.157658  -0.000971  -0.031765
    36  H   -0.000001  -0.001293  -0.000831  -0.014536   0.000152  -0.001147
    37  H    0.000000   0.000077   0.000033   0.009339  -0.000029   0.000351
    38  H   -0.000001  -0.000475  -0.000394  -0.010480   0.000129  -0.011432
    39  H    0.000000   0.001054   0.000044  -0.008500  -0.000035   0.004538
    40  H    0.000000  -0.000300   0.000059   0.002826  -0.000053  -0.004222
    41  H    0.000000  -0.000980   0.000074   0.004890  -0.000136  -0.002750
              25         26         27         28         29         30
     1  C    0.001922  -0.002249  -0.003161   0.000295   0.000089   0.000257
     2  H    0.000021  -0.000989  -0.000691  -0.000039  -0.000001  -0.000016
     3  H    0.000154  -0.000278   0.000019   0.000020   0.000005   0.000000
     4  H   -0.000091  -0.000959  -0.001385  -0.000019   0.000005   0.000095
     5  O   -0.000129   0.000216  -0.000234  -0.000010  -0.000002   0.000012
     6  C    0.094831  -0.067650   0.020249   0.015083   0.000404  -0.001646
     7  C    0.161362  -0.095392  -0.030177   0.053772   0.001425   0.001524
     8  C    0.002077  -0.004860   0.002164   0.000646   0.000130   0.000119
     9  H   -0.004520   0.040937   0.021220  -0.003884  -0.000775  -0.002243
    10  C   -0.402132   0.226475  -0.048125  -0.151605   0.013876   0.009196
    11  C   -0.026074   0.007521   0.001500  -0.004861   0.000114  -0.000182
    12  H    0.000094  -0.000070   0.000010   0.000014   0.000002   0.000003
    13  C   -0.147493   0.052966  -0.009220  -0.042297   0.005640   0.000463
    14  C   -0.783848   0.433429  -0.080028  -0.405930   0.026431   0.024381
    15  H   -0.000187   0.000078  -0.000012  -0.000037   0.000008  -0.000001
    16  O   -0.001874   0.000089   0.000176  -0.000241  -0.000036   0.000000
    17  C    0.352824  -0.293850  -0.133495   0.324689   0.048734   0.058257
    18  O   -0.032147   0.001584   0.003802  -0.003367  -0.000869  -0.000080
    19  H    0.001898   0.000376  -0.000078  -0.000272   0.000202   0.000024
    20  C    0.108105  -0.375843   0.022494   0.359847   0.043705   0.008011
    21  H    0.063428  -0.202274  -0.094969   0.060031   0.009178   0.020607
    22  C    0.206366  -1.021235  -0.192159  -2.977534  -0.115276   0.167784
    23  H    0.064905   0.008732   0.010227   0.006623  -0.008761  -0.002377
    24  C   -0.923590   1.106688   0.488116  -1.556987  -0.083469   0.006080
    25  C   10.751224  -1.503505   0.028980   0.729289   0.262626  -0.037408
    26  C   -1.503505   9.290305   0.088973  -1.804351   0.010986   0.375348
    27  H    0.028980   0.088973   0.588388  -0.025258  -0.008198  -0.048314
    28  C    0.729289  -1.804351  -0.025258  10.837714   0.054987  -0.018641
    29  H    0.262626   0.010986  -0.008198   0.054987   0.491862   0.002977
    30  H   -0.037408   0.375348  -0.048314  -0.018641   0.002977   0.549662
    31  C   -2.691961   0.225991   0.214428   0.580429   0.039352  -0.302161
    32  H    0.054490  -0.029404   0.003522   0.458945  -0.014905  -0.001532
    33  N    0.055678  -0.271283  -0.000674  -0.266073  -0.001071  -0.035006
    34  C   -0.040960   0.168335   0.001698  -0.168290  -0.000054   0.020739
    35  C   -0.092926  -0.140242   0.000858   0.208365   0.004806  -0.006645
    36  H   -0.005382   0.034279   0.003277  -0.020490  -0.000130  -0.010156
    37  H    0.010020   0.031937  -0.000539   0.003635  -0.000175   0.008791
    38  H   -0.001463   0.013223   0.002608   0.003106  -0.000280  -0.017444
    39  H   -0.012048  -0.001166  -0.000288   0.037283   0.000094   0.001545
    40  H   -0.004135  -0.004399  -0.000230   0.021854   0.000504  -0.000419
    41  H   -0.013008  -0.004792  -0.000234   0.013365   0.000896  -0.000104
              31         32         33         34         35         36
     1  C   -0.000262  -0.000008  -0.000002   0.000005   0.000000  -0.000006
     2  H    0.000009  -0.000003   0.000000  -0.000011   0.000000   0.000001
     3  H    0.000011  -0.000001   0.000000  -0.000001   0.000000   0.000000
     4  H   -0.000134  -0.000003   0.000000  -0.000001   0.000001  -0.000005
     5  O   -0.000008   0.000000   0.000000   0.000000   0.000000   0.000000
     6  C    0.002600  -0.000135  -0.000004  -0.000163   0.000026   0.000052
     7  C   -0.001602  -0.000419  -0.000039  -0.000369   0.000128   0.000023
     8  C   -0.000826   0.000004   0.000001   0.000004   0.000001   0.000000
     9  H    0.002965   0.000213   0.000079   0.000135  -0.000054   0.000079
    10  C   -0.123524  -0.000168   0.000537   0.002015  -0.000968  -0.000340
    11  C    0.000935  -0.000017  -0.000001  -0.000003  -0.000002   0.000001
    12  H   -0.000015   0.000000   0.000000   0.000000   0.000000   0.000000
    13  C   -0.006933  -0.000224   0.000022   0.000074  -0.000050  -0.000020
    14  C   -0.482998   0.004666   0.003848   0.007683  -0.003080  -0.001142
    15  H    0.000010   0.000000   0.000000   0.000000   0.000000   0.000000
    16  O   -0.000065   0.000004   0.000000   0.000000   0.000000   0.000000
    17  C   -0.642600  -0.011727   0.006825   0.021050  -0.012525  -0.003223
    18  O    0.000735   0.000086  -0.000005   0.000000   0.000008   0.000001
    19  H   -0.000845   0.000010   0.000003   0.000006  -0.000004  -0.000001
    20  C   -0.121176  -0.008613   0.001331  -0.000235   0.010825  -0.001293
    21  H   -0.073588  -0.002160  -0.001024  -0.000537   0.000170  -0.000831
    22  C   -2.586329  -0.010057  -0.023477   0.009324  -0.157658  -0.014536
    23  H    0.038016   0.002457  -0.000944  -0.000112  -0.000971   0.000152
    24  C   -0.425288  -0.011916  -0.041289  -0.020129  -0.031765  -0.001147
    25  C   -2.691961   0.054490   0.055678  -0.040960  -0.092926  -0.005382
    26  C    0.225991  -0.029404  -0.271283   0.168335  -0.140242   0.034279
    27  H    0.214428   0.003522  -0.000674   0.001698   0.000858   0.003277
    28  C    0.580429   0.458945  -0.266073  -0.168290   0.208365  -0.020490
    29  H    0.039352  -0.014905  -0.001071  -0.000054   0.004806  -0.000130
    30  H   -0.302161  -0.001532  -0.035006   0.020739  -0.006645  -0.010156
    31  C   13.264224  -0.099068   0.250937  -0.265022  -0.083206   0.020702
    32  H   -0.099068   0.510588  -0.033350  -0.004069   0.011618  -0.000625
    33  N    0.250937  -0.033350   6.980349   0.305234   0.308980  -0.051633
    34  C   -0.265022  -0.004069   0.305234   5.259240  -0.126659   0.395635
    35  C   -0.083206   0.011618   0.308980  -0.126659   5.288139   0.004569
    36  H    0.020702  -0.000625  -0.051633   0.395635   0.004569   0.576112
    37  H   -0.040429   0.001835  -0.047912   0.404347  -0.016580  -0.026100
    38  H    0.004097  -0.000043  -0.055774   0.432248  -0.003796  -0.059958
    39  H   -0.005433   0.006163  -0.044520  -0.013730   0.403105   0.000469
    40  H   -0.022418  -0.011042  -0.055302  -0.005697   0.433017   0.001833
    41  H    0.003546  -0.007912  -0.054372   0.005417   0.402878  -0.004447
              37         38         39         40         41
     1  C    0.000001  -0.000002   0.000000   0.000000   0.000000
     2  H   -0.000001   0.000002   0.000000   0.000000   0.000000
     3  H    0.000000   0.000000   0.000000   0.000000   0.000000
     4  H    0.000000   0.000000   0.000000   0.000000   0.000000
     5  O    0.000000   0.000000   0.000000   0.000000   0.000000
     6  C   -0.000012   0.000025   0.000003   0.000000  -0.000001
     7  C   -0.000030   0.000026   0.000013   0.000001  -0.000003
     8  C    0.000000  -0.000002   0.000000   0.000000   0.000000
     9  H    0.000004   0.000016  -0.000004  -0.000003  -0.000005
    10  C    0.000138  -0.000218  -0.000062   0.000017   0.000060
    11  C    0.000000   0.000001   0.000000   0.000000   0.000000
    12  H    0.000000   0.000000   0.000000   0.000000   0.000000
    13  C    0.000005  -0.000009  -0.000004   0.000005   0.000009
    14  C    0.000600  -0.000941  -0.000271  -0.000121   0.000159
    15  H    0.000000   0.000000   0.000000   0.000000   0.000000
    16  O    0.000000   0.000000   0.000000   0.000000   0.000000
    17  C    0.001940  -0.002320  -0.000727   0.000203   0.000614
    18  O    0.000000   0.000001   0.000001  -0.000001  -0.000002
    19  H    0.000000  -0.000001   0.000000   0.000000   0.000000
    20  C    0.000077  -0.000475   0.001054  -0.000300  -0.000980
    21  H    0.000033  -0.000394   0.000044   0.000059   0.000074
    22  C    0.009339  -0.010480  -0.008500   0.002826   0.004890
    23  H   -0.000029   0.000129  -0.000035  -0.000053  -0.000136
    24  C    0.000351  -0.011432   0.004538  -0.004222  -0.002750
    25  C    0.010020  -0.001463  -0.012048  -0.004135  -0.013008
    26  C    0.031937   0.013223  -0.001166  -0.004399  -0.004792
    27  H   -0.000539   0.002608  -0.000288  -0.000230  -0.000234
    28  C    0.003635   0.003106   0.037283   0.021854   0.013365
    29  H   -0.000175  -0.000280   0.000094   0.000504   0.000896
    30  H    0.008791  -0.017444   0.001545  -0.000419  -0.000104
    31  C   -0.040429   0.004097  -0.005433  -0.022418   0.003546
    32  H    0.001835  -0.000043   0.006163  -0.011042  -0.007912
    33  N   -0.047912  -0.055774  -0.044520  -0.055302  -0.054372
    34  C    0.404347   0.432248  -0.013730  -0.005697   0.005417
    35  C   -0.016580  -0.003796   0.403105   0.433017   0.402878
    36  H   -0.026100  -0.059958   0.000469   0.001833  -0.004447
    37  H    0.510269  -0.019956   0.015647  -0.004175  -0.000060
    38  H   -0.019956   0.544683  -0.004507   0.001009   0.001682
    39  H    0.015647  -0.004507   0.503355  -0.019978  -0.022097
    40  H   -0.004175   0.001009  -0.019978   0.550344  -0.061531
    41  H   -0.000060   0.001682  -0.022097  -0.061531   0.566286
 Mulliken charges:
               1
     1  C   -0.405299
     2  H    0.169435
     3  H    0.211051
     4  H    0.173040
     5  O   -0.149590
     6  C   -1.125635
     7  C    0.540223
     8  C   -0.224749
     9  H    0.029419
    10  C    1.257667
    11  C   -0.304304
    12  H    0.247668
    13  C   -0.485175
    14  C   -0.252657
    15  H    0.243664
    16  O   -0.370338
    17  C    0.064062
    18  O   -0.354754
    19  H    0.425744
    20  C    0.216133
    21  H   -0.196640
    22  C    0.857750
    23  H    0.252160
    24  C   -0.423249
    25  C   -0.225411
    26  C   -0.293673
    27  H    0.174760
    28  C   -0.319807
    29  H    0.214962
    30  H    0.228501
    31  C   -0.673094
    32  H    0.192800
    33  N    0.069928
    34  C   -0.387145
    35  C   -0.400363
    36  H    0.164282
    37  H    0.157027
    38  H    0.186638
    39  H    0.160058
    40  H    0.182353
    41  H    0.172556
 Sum of Mulliken charges =   0.00000
 Mulliken charges with hydrogens summed into heavy atoms:
               1
     1  C    0.148227
     5  O   -0.149590
     6  C   -1.125635
     7  C    0.569642
     8  C    0.022918
    10  C    1.257667
    11  C   -0.060640
    13  C   -0.485175
    14  C   -0.252657
    16  O    0.055406
    17  C   -0.132578
    18  O   -0.354754
    20  C    0.468293
    22  C    0.857750
    24  C   -0.248489
    25  C   -0.010449
    26  C   -0.065172
    28  C   -0.127006
    31  C   -0.673094
    33  N    0.069928
    34  C    0.120803
    35  C    0.114605
 Electronic spatial extent (au):  <R**2>=         132716.4013
 Charge=              0.0000 electrons
 Dipole moment (field-independent basis, Debye):
    X=             -5.1049    Y=              3.2661    Z=              8.5225  Tot=             10.4575
 Quadrupole moment (field-independent basis, Debye-Ang):
   XX=           -105.8570   YY=           -179.6708   ZZ=           -316.0119
   XY=             24.7143   XZ=             51.6453   YZ=            -95.8087
 Traceless Quadrupole moment (field-independent basis, Debye-Ang):
   XX=             94.6562   YY=             20.8424   ZZ=           -115.4987
   XY=             24.7143   XZ=             51.6453   YZ=            -95.8087
 Octapole moment (field-independent basis, Debye-Ang**2):
  XXX=            786.7680  YYY=           3194.1983  ZZZ=           8240.8347  XYY=            204.5343
  XXY=            768.3252  XXZ=           1414.6927  XZZ=           -292.8937  YZZ=           2646.3757
  YYZ=           2650.6993  XYZ=           -261.9662
 Hexadecapole moment (field-independent basis, Debye-Ang**3):
 XXXX=          -5616.7055 YYYY=         -41962.4045 ZZZZ=        -193974.8929 XXXY=          -5200.0626
 XXXZ=         -10183.8863 YYYX=          -5568.2721 YYYZ=         -44312.7623 ZZZX=          -4288.9797
 ZZZY=         -63902.4498 XXYY=          -6720.1453 XXZZ=         -21853.2722 YYZZ=         -46213.1832
 XXYZ=         -10482.7392 YYXZ=          -2741.5933 ZZXY=           1239.3935
 N-N= 1.612116305787D+03 E-N=-5.502164568969D+03  KE= 9.732509558164D+02
 Leave Link  601 at Mon Nov  6 05:10:45 2017, MaxMem=  3758096384 cpu:         0.5
 (Enter /share/apps/gaussian/g09_D01/g09/l9999.exe)
 1\1\GINC-NXN32\SP\RwB97XD TD-FC\6-311++G(d,p)\C18H19N1O3\BTX008\06-Nov
 -2017\0\\#p wb97xd 6-311++G** td=(nstates=4) nosymm\\Title\\0,1\C,0,-5
 .706418,-6.012055,-16.455422\H,0,-5.870111,-6.818024,-15.721653\H,0,-6
 .661943,-5.71994,-16.907289\H,0,-5.2476,-5.139557,-15.960401\O,0,-4.87
 9954,-6.464712,-17.530061\C,0,-3.619904,-6.915799,-17.210325\C,0,-3.09
 0146,-6.965685,-15.929966\C,0,-2.847094,-7.351359,-18.301788\H,0,-3.68
 7335,-6.632421,-15.087013\C,0,-1.774234,-7.439275,-15.705824\C,0,-1.56
 7932,-7.833938,-18.109629\H,0,-3.271652,-7.29431,-19.302973\C,0,-1.007
 261,-7.877037,-16.824975\C,0,-1.151752,-7.476864,-14.375708\H,0,-0.971
 334,-8.16987,-18.957781\O,0,0.255306,-8.34082,-16.673941\C,0,-1.865848
 ,-7.087653,-13.186955\O,0,0.071433,-7.865727,-14.285922\H,0,0.426305,-
 8.201161,-15.647053\C,0,-1.263696,-7.140447,-11.962534\H,0,-2.889634,-
 6.734134,-13.279178\C,0,-1.771238,-6.743836,-10.688372\H,0,-0.238584,-
 7.52542,-11.951774\C,0,-3.046875,-6.16686,-10.481261\C,0,-0.94137,-6.9
 03038,-9.555013\C,0,-3.457163,-5.76333,-9.232779\H,0,-3.720492,-6.0284
 ,-11.327139\C,0,-1.334086,-6.505437,-8.295168\H,0,0.044942,-7.34742,-9
 .692045\H,0,-4.444735,-5.322529,-9.120091\C,0,-2.607293,-5.907632,-8.0
 98989\H,0,-0.65625,-6.648531,-7.456539\N,0,-3.003151,-5.478954,-6.8688
 8\C,0,-4.345337,-4.953627,-6.664801\C,0,-2.15142,-5.705067,-5.71216\H,
 0,-4.533677,-4.092307,-7.322319\H,0,-4.447846,-4.629229,-5.624133\H,0,
 -5.111906,-5.718541,-6.869759\H,0,-2.628662,-5.289666,-4.8185\H,0,-1.9
 83211,-6.78263,-5.54597\H,0,-1.169985,-5.219682,-5.841528\\Version=ES6
 4L-G09RevD.01\HF=-977.6790185\RMSD=9.950e-09\PG=C01 [X(C18H19N1O3)]\\@


 ALL MEN WHO EXPLORE
 DEPLORE
 THAT FRUSTRATING HURDLE
 THE GIRDLE.

         -- COLIN FLETCHER
 Job cpu time:       0 days  3 hours 10 minutes 27.8 seconds.
 File lengths (MBytes):  RWF=    560 Int=      0 D2E=      0 Chk=     63 Scr=      1
 Normal termination of Gaussian 09 at Mon Nov  6 05:10:45 2017.
