 Entering Gaussian System, Link 0=g09
 Input=mon-2.com
 Output=mon-2.out
 Initial command:
 /share/apps/gaussian/g09_D01/g09/l1.exe "/tmp/163003.1.all.q/Gau-1885.inp" -scrdir="/tmp/163003.1.all.q/"
 Entering Link 1 = /share/apps/gaussian/g09_D01/g09/l1.exe PID=      1886.
  
 Copyright (c) 1988,1990,1992,1993,1995,1998,2003,2009,2013,
            Gaussian, Inc.  All Rights Reserved.
  
 This is part of the Gaussian(R) 09 program.  It is based on
 the Gaussian(R) 03 system (copyright 2003, Gaussian, Inc.),
 the Gaussian(R) 98 system (copyright 1998, Gaussian, Inc.),
 the Gaussian(R) 94 system (copyright 1995, Gaussian, Inc.),
 the Gaussian 92(TM) system (copyright 1992, Gaussian, Inc.),
 the Gaussian 90(TM) system (copyright 1990, Gaussian, Inc.),
 the Gaussian 88(TM) system (copyright 1988, Gaussian, Inc.),
 the Gaussian 86(TM) system (copyright 1986, Carnegie Mellon
 University), and the Gaussian 82(TM) system (copyright 1983,
 Carnegie Mellon University). Gaussian is a federally registered
 trademark of Gaussian, Inc.
  
 This software contains proprietary and confidential information,
 including trade secrets, belonging to Gaussian, Inc.
  
 This software is provided under written license and may be
 used, copied, transmitted, or stored only in accord with that
 written license.
  
 The following legend is applicable only to US Government
 contracts under FAR:
  
                    RESTRICTED RIGHTS LEGEND
  
 Use, reproduction and disclosure by the US Government is
 subject to restrictions as set forth in subparagraphs (a)
 and (c) of the Commercial Computer Software - Restricted
 Rights clause in FAR 52.227-19.
  
 Gaussian, Inc.
 340 Quinnipiac St., Bldg. 40, Wallingford CT 06492
  
  
 ---------------------------------------------------------------
 Warning -- This program may not be used in any manner that
 competes with the business of Gaussian, Inc. or will provide
 assistance to any competitor of Gaussian, Inc.  The licensee
 of this program is prohibited from giving any competitor of
 Gaussian, Inc. access to this program.  By using this program,
 the user acknowledges that Gaussian, Inc. is engaged in the
 business of creating and licensing software in the field of
 computational chemistry and represents and warrants to the
 licensee that it is not a competitor of Gaussian, Inc. and that
 it will not use this program in any manner prohibited above.
 ---------------------------------------------------------------
  

 Cite this work as:
 Gaussian 09, Revision D.01,
 M. J. Frisch, G. W. Trucks, H. B. Schlegel, G. E. Scuseria, 
 M. A. Robb, J. R. Cheeseman, G. Scalmani, V. Barone, B. Mennucci, 
 G. A. Petersson, H. Nakatsuji, M. Caricato, X. Li, H. P. Hratchian, 
 A. F. Izmaylov, J. Bloino, G. Zheng, J. L. Sonnenberg, M. Hada, 
 M. Ehara, K. Toyota, R. Fukuda, J. Hasegawa, M. Ishida, T. Nakajima, 
 Y. Honda, O. Kitao, H. Nakai, T. Vreven, J. A. Montgomery, Jr., 
 J. E. Peralta, F. Ogliaro, M. Bearpark, J. J. Heyd, E. Brothers, 
 K. N. Kudin, V. N. Staroverov, T. Keith, R. Kobayashi, J. Normand, 
 K. Raghavachari, A. Rendell, J. C. Burant, S. S. Iyengar, J. Tomasi, 
 M. Cossi, N. Rega, J. M. Millam, M. Klene, J. E. Knox, J. B. Cross, 
 V. Bakken, C. Adamo, J. Jaramillo, R. Gomperts, R. E. Stratmann, 
 O. Yazyev, A. J. Austin, R. Cammi, C. Pomelli, J. W. Ochterski, 
 R. L. Martin, K. Morokuma, V. G. Zakrzewski, G. A. Voth, 
 P. Salvador, J. J. Dannenberg, S. Dapprich, A. D. Daniels, 
 O. Farkas, J. B. Foresman, J. V. Ortiz, J. Cioslowski, 
 and D. J. Fox, Gaussian, Inc., Wallingford CT, 2013.
 
 ******************************************
 Gaussian 09:  ES64L-G09RevD.01 24-Apr-2013
                 6-Nov-2017 
 ******************************************
 %chk=mon-2.chk
 %nproc=4
 Will use up to    4 processors via shared memory.
 %mem=28GB
 ------------------------------------------
 #p wb97xd 6-311++G** td=(nstates=4) nosymm
 ------------------------------------------
 1/38=1/1;
 2/12=2,15=1,17=6,18=5,40=1/2;
 3/5=4,6=6,7=1111,11=9,16=1,25=1,30=1,74=-58/1,2,8,3;
 4//1;
 5/5=2,38=5/2;
 8/6=1,10=2,108=4/1;
 9/41=4,42=1,70=2/14;
 6/7=2,8=2,9=2,10=2/1;
 99/5=1,9=1/99;
 Leave Link    1 at Mon Nov  6 16:46:12 2017, MaxMem=  3758096384 cpu:         0.3
 (Enter /share/apps/gaussian/g09_D01/g09/l101.exe)
 -----
 mon-2
 -----
 Symbolic Z-matrix:
 Charge =  0 Multiplicity = 1
 H                     4.58656  -0.25743  -2.30297 
 C                     5.36906  -0.10649  -3.03645 
 C                     6.58724  -0.72423  -2.82659 
 C                     5.12976   0.68592  -4.17209 
 C                     7.61296  -0.56463  -3.76237 
 H                     6.73985  -1.32017  -1.93703 
 C                     6.17972   0.83406  -5.11117 
 C                     3.83443   1.36697  -4.413 
 C                     7.41132   0.20325  -4.8951 
 H                     8.57307  -1.04209  -3.59248 
 O                     6.04227   1.56854  -6.22392 
 C                     2.714     1.1472   -3.50688 
 O                     3.71134   2.1185   -5.40343 
 H                     8.19044   0.34684  -5.63481 
 H                     5.12866   1.95548  -6.16569 
 C                     1.55318   1.81683  -3.68791 
 H                     2.81627   0.42317  -2.70782 
 C                     0.32854   1.6657   -2.93403 
 H                     1.52605   2.5349   -4.50778 
 C                     0.16283   0.72462  -1.90255 
 C                    -0.78363   2.45623  -3.26071 
 C                    -1.03434   0.57982  -1.23935 
 H                     0.98653   0.08354  -1.60425 
 C                    -1.98821   2.34102  -2.59716 
 H                    -0.6947    3.18537  -4.05929 
 C                    -2.14634   1.39958  -1.55736 
 H                    -1.10406  -0.17146  -0.46382 
 H                    -2.81212   2.97646  -2.89181 
 N                    -3.32456   1.27871  -0.87648 
 C                    -3.42095   0.31093   0.19569 
 C                    -4.42836   2.17386  -1.15564 
 H                    -3.29309  -0.71345  -0.17224 
 H                    -4.39665   0.38042   0.66715 
 H                    -2.66934   0.4867    0.97224 
 H                    -4.15983   3.22322  -0.98015 
 H                    -5.2633    1.92675  -0.49893 
 H                    -4.776     2.0825   -2.19153 
 
 NAtoms=     37 NQM=       37 NQMF=       0 NMMI=      0 NMMIF=      0
                NMic=       0 NMicF=      0.
                    Isotopes and Nuclear Properties:
 (Nuclear quadrupole moments (NQMom) in fm**2, nuclear magnetic moments (NMagM)
  in nuclear magnetons)

  Atom         1           2           3           4           5           6           7           8           9          10
 IAtWgt=           1          12          12          12          12           1          12          12          12           1
 AtmWgt=   1.0078250  12.0000000  12.0000000  12.0000000  12.0000000   1.0078250  12.0000000  12.0000000  12.0000000   1.0078250
 NucSpn=           1           0           0           0           0           1           0           0           0           1
 AtZEff=   0.0000000   0.0000000   0.0000000   0.0000000   0.0000000   0.0000000   0.0000000   0.0000000   0.0000000   0.0000000
 NQMom=    0.0000000   0.0000000   0.0000000   0.0000000   0.0000000   0.0000000   0.0000000   0.0000000   0.0000000   0.0000000
 NMagM=    2.7928460   0.0000000   0.0000000   0.0000000   0.0000000   2.7928460   0.0000000   0.0000000   0.0000000   2.7928460
 AtZNuc=   1.0000000   6.0000000   6.0000000   6.0000000   6.0000000   1.0000000   6.0000000   6.0000000   6.0000000   1.0000000

  Atom        11          12          13          14          15          16          17          18          19          20
 IAtWgt=          16          12          16           1           1          12           1          12           1          12
 AtmWgt=  15.9949146  12.0000000  15.9949146   1.0078250   1.0078250  12.0000000   1.0078250  12.0000000   1.0078250  12.0000000
 NucSpn=           0           0           0           1           1           0           1           0           1           0
 AtZEff=   0.0000000   0.0000000   0.0000000   0.0000000   0.0000000   0.0000000   0.0000000   0.0000000   0.0000000   0.0000000
 NQMom=    0.0000000   0.0000000   0.0000000   0.0000000   0.0000000   0.0000000   0.0000000   0.0000000   0.0000000   0.0000000
 NMagM=    0.0000000   0.0000000   0.0000000   2.7928460   2.7928460   0.0000000   2.7928460   0.0000000   2.7928460   0.0000000
 AtZNuc=   8.0000000   6.0000000   8.0000000   1.0000000   1.0000000   6.0000000   1.0000000   6.0000000   1.0000000   6.0000000

  Atom        21          22          23          24          25          26          27          28          29          30
 IAtWgt=          12          12           1          12           1          12           1           1          14          12
 AtmWgt=  12.0000000  12.0000000   1.0078250  12.0000000   1.0078250  12.0000000   1.0078250   1.0078250  14.0030740  12.0000000
 NucSpn=           0           0           1           0           1           0           1           1           2           0
 AtZEff=   0.0000000   0.0000000   0.0000000   0.0000000   0.0000000   0.0000000   0.0000000   0.0000000   0.0000000   0.0000000
 NQMom=    0.0000000   0.0000000   0.0000000   0.0000000   0.0000000   0.0000000   0.0000000   0.0000000   2.0440000   0.0000000
 NMagM=    0.0000000   0.0000000   2.7928460   0.0000000   2.7928460   0.0000000   2.7928460   2.7928460   0.4037610   0.0000000
 AtZNuc=   6.0000000   6.0000000   1.0000000   6.0000000   1.0000000   6.0000000   1.0000000   1.0000000   7.0000000   6.0000000

  Atom        31          32          33          34          35          36          37
 IAtWgt=          12           1           1           1           1           1           1
 AtmWgt=  12.0000000   1.0078250   1.0078250   1.0078250   1.0078250   1.0078250   1.0078250
 NucSpn=           0           1           1           1           1           1           1
 AtZEff=   0.0000000   0.0000000   0.0000000   0.0000000   0.0000000   0.0000000   0.0000000
 NQMom=    0.0000000   0.0000000   0.0000000   0.0000000   0.0000000   0.0000000   0.0000000
 NMagM=    0.0000000   2.7928460   2.7928460   2.7928460   2.7928460   2.7928460   2.7928460
 AtZNuc=   6.0000000   1.0000000   1.0000000   1.0000000   1.0000000   1.0000000   1.0000000
 Leave Link  101 at Mon Nov  6 16:46:13 2017, MaxMem=  3758096384 cpu:         0.7
 (Enter /share/apps/gaussian/g09_D01/g09/l202.exe)
                          Input orientation:                          
 ---------------------------------------------------------------------
 Center     Atomic      Atomic             Coordinates (Angstroms)
 Number     Number       Type             X           Y           Z
 ---------------------------------------------------------------------
      1          1           0        4.586562   -0.257428   -2.302973
      2          6           0        5.369065   -0.106492   -3.036445
      3          6           0        6.587239   -0.724225   -2.826585
      4          6           0        5.129762    0.685921   -4.172085
      5          6           0        7.612955   -0.564627   -3.762370
      6          1           0        6.739848   -1.320168   -1.937033
      7          6           0        6.179721    0.834057   -5.111168
      8          6           0        3.834426    1.366965   -4.413002
      9          6           0        7.411315    0.203251   -4.895100
     10          1           0        8.573074   -1.042087   -3.592484
     11          8           0        6.042273    1.568535   -6.223921
     12          6           0        2.713999    1.147196   -3.506876
     13          8           0        3.711335    2.118505   -5.403431
     14          1           0        8.190439    0.346837   -5.634811
     15          1           0        5.128658    1.955482   -6.165692
     16          6           0        1.553180    1.816832   -3.687907
     17          1           0        2.816266    0.423167   -2.707822
     18          6           0        0.328537    1.665698   -2.934030
     19          1           0        1.526054    2.534904   -4.507779
     20          6           0        0.162830    0.724619   -1.902547
     21          6           0       -0.783628    2.456231   -3.260710
     22          6           0       -1.034337    0.579822   -1.239351
     23          1           0        0.986531    0.083543   -1.604250
     24          6           0       -1.988207    2.341016   -2.597160
     25          1           0       -0.694703    3.185366   -4.059292
     26          6           0       -2.146340    1.399583   -1.557364
     27          1           0       -1.104064   -0.171463   -0.463821
     28          1           0       -2.812123    2.976462   -2.891809
     29          7           0       -3.324563    1.278708   -0.876482
     30          6           0       -3.420947    0.310926    0.195687
     31          6           0       -4.428357    2.173857   -1.155642
     32          1           0       -3.293094   -0.713452   -0.172237
     33          1           0       -4.396650    0.380419    0.667154
     34          1           0       -2.669344    0.486702    0.972238
     35          1           0       -4.159833    3.223223   -0.980153
     36          1           0       -5.263302    1.926751   -0.498926
     37          1           0       -4.775999    2.082495   -2.191528
 ---------------------------------------------------------------------
                    Distance matrix (angstroms):
                    1          2          3          4          5
     1  H    0.000000
     2  C    1.083085   0.000000
     3  C    2.120089   1.381877   0.000000
     4  C    2.162996   1.405298   2.433746   0.000000
     5  C    3.373910   2.402477   1.397590   2.810335   0.000000
     6  H    2.428985   2.135594   1.081545   3.407672   2.159864
     7  C    3.408145   2.417906   2.795288   1.416416   2.414484
     8  C    2.767053   2.533989   3.803653   1.483158   4.293210
     9  C    3.861422   2.778727   2.412067   2.441558   1.383247
    10  H    4.262723   3.383813   2.152017   3.895940   1.085660
    11  O    4.563668   3.663185   4.134686   2.412823   3.616166
    12  C    2.632270   2.973620   4.355112   2.547781   5.195708
    13  O    4.002989   3.647095   4.795005   2.362297   5.011479
    14  H    4.945120   3.862274   3.406399   3.409148   2.161085
    15  H    4.484578   3.755226   4.523044   2.363526   4.277691
    16  C    3.927086   4.322564   5.704437   3.782238   6.511357
    17  H    1.939345   2.627797   3.943457   2.750522   5.009594
    18  C    4.714597   5.343975   6.700345   5.054157   7.663109
    19  H    4.693080   4.889839   6.250114   4.064251   6.871178
    20  C    4.549084   5.392713   6.650265   5.461018   7.786235
    21  C    6.092630   6.668844   8.039493   6.239614   8.937553
    22  C    5.781590   6.686115   7.893559   6.827027   9.080256
    23  H    3.683028   4.614531   5.789173   4.911517   6.999079
    24  C    7.075736   7.766126   9.109699   7.475641  10.098653
    25  H    6.544406   6.975086   8.356503   6.339112   9.119638
    26  C    6.973779   7.806232   9.077273   7.764518  10.196274
    27  H    5.981061   6.965918   8.065007   7.303897   9.328527
    28  H    8.096006   8.743990  10.101849   8.364163  11.044430
    29  N    8.184161   9.064402  10.298469   9.093295  11.461044
    30  C    8.407528   9.374712  10.505687   9.608989  11.754990
    31  C    9.407246  10.233616  11.512354  10.132646  12.620916
    32  H    8.175388   9.143582  10.230672   9.428761  11.482731
    33  H    9.482964  10.455760  11.578958  10.689438  12.835280
    34  H    7.995556   9.002080  10.078776   9.345042  11.368706
    35  H    9.506009  10.301225  11.597035  10.145093  12.676241
    36  H   10.249148  11.118467  12.364505  11.092679  13.514993
    37  H    9.651177  10.412871  11.721952  10.197898  12.765617
                    6          7          8          9         10
     6  H    0.000000
     7  C    3.876798   0.000000
     8  C    4.668253   2.504363   0.000000
     9  C    3.394383   1.400509   3.792200   0.000000
    10  H    2.485672   3.399185   5.378807   2.144145   0.000000
    11  O    5.216189   1.340362   2.862629   2.346069   4.488292
    12  C    4.975917   3.831845   1.457642   4.988284   6.255322
    13  O    5.745631   2.797884   1.249365   4.197196   6.074980
    14  H    4.307747   2.134144   4.637707   1.083893   2.499324
    15  H    5.586356   1.863960   2.256836   3.145670   5.241261
    16  C    6.309347   4.939271   2.435616   6.195055   7.580332
    17  H    4.362090   4.154243   2.198873   5.093822   6.005867
    18  C    7.142430   6.298247   3.816786   7.493350   8.702761
    19  H    6.975239   4.991350   2.588754   6.342154   7.955697
    20  C    6.887634   6.819839   4.493953   7.859245   8.758387
    21  C    8.521502   7.385382   4.882694   8.654724   9.994807
    22  C    8.033348   8.191351   5.864854   9.210610  10.023481
    23  H    5.931425   6.311178   4.200805   7.219548   7.923115
    24  C    9.487833   8.677915   6.176497   9.909671  11.134483
    25  H    8.948540   7.341172   4.893332   8.677506  10.197105
    26  C    9.300835   9.070426   6.627616  10.194139  11.180756
    27  H    8.063302   8.698415   6.507801   9.606681  10.207523
    28  H   10.517261   9.506246   7.005792  10.780657  12.093899
    29  N   10.448507  10.414494   7.985355  11.513686  12.422420
    30  C   10.509554  10.982222   8.660004  11.969361  12.650590
    31  C   11.728068  11.400551   8.918243  12.571582  13.613144
    32  H   10.205025  10.794538   8.550659  11.735849  12.353624
    33  H   11.562672  12.060448   9.722750  13.053662  13.725224
    34  H   10.013068  10.744042   8.489682  11.667291  12.229712
    35  H   11.847408  11.387703   8.895972  12.583263  13.680061
    36  H   12.517438  12.385860   9.919779  13.525632  14.485489
    37  H   12.010729  11.406608   8.921118  12.624242  13.781271
                   11         12         13         14         15
    11  O    0.000000
    12  C    4.317090   0.000000
    13  O    2.531589   2.352667   0.000000
    14  H    2.540514   5.929593   4.822314   0.000000
    15  H    0.993887   3.681468   1.617536   3.499154   0.000000
    16  C    5.161877   1.352289   2.773385   7.071388   4.352320
    17  H    4.907335   1.083127   3.307813   6.120035   4.433059
    18  C    6.593906   2.507474   4.212635   8.416835   5.793857
    19  H    4.926992   2.082968   2.398131   7.104355   4.007887
    20  C    7.345360   3.043174   5.176002   8.860870   6.659495
    21  C    7.494101   3.742668   4.990992   9.519442   6.606421
    22  C    8.712170   4.417421   6.498347  10.221098   8.008981
    23  H    7.007645   2.781275   5.098961   8.258997   6.439575
    24  C    8.845266   4.935943   6.356843  10.807817   7.970748
    25  H    7.258554   4.009807   4.728432   9.459665   6.313562
    26  C    9.426488   5.242823   7.044248  11.161669   8.629676
    27  H    9.342188   5.057336   7.268546  10.648735   8.711030
    28  H    9.564808   5.853422   7.042715  11.640247   8.649665
    29  N   10.789658   6.587906   8.408471  12.494213   9.994534
    30  C   11.504151   7.214283   9.245913  12.993086  10.782739
    31  C   11.648517   7.589175   9.181577  13.514251  10.792814
    32  H   11.356911   7.118075   9.189526  12.760700  10.675702
    33  H   12.564619   8.280809  10.276788  14.076601  11.827937
    34  H   11.351094   7.034138   9.166515  12.712496  10.673153
    35  H   11.589567   7.612081   9.096212  13.508096  10.713218
    36  H   12.677536   8.561121  10.229127  14.487118  11.836634
    37  H   11.556788   7.661918   9.074825  13.527647  10.672973
                   16         17         18         19         20
    16  C    0.000000
    17  H    2.120909   0.000000
    18  C    1.446002   2.789955   0.000000
    19  H    1.090208   3.060053   2.160151   0.000000
    20  C    2.512670   2.789277   1.406075   3.452933   0.000000
    21  C    2.460081   4.171123   1.403059   2.626024   2.395594
    22  C    3.771056   4.124087   2.430738   4.589180   1.376228
    23  H    2.768936   2.163596   2.168983   3.838064   1.085561
    24  C    3.742448   5.174297   2.436563   4.004758   2.778882
    25  H    2.657779   4.667239   2.150029   2.357118   3.382630
    26  C    4.289494   5.186945   2.844476   4.845656   2.430431
    27  H    4.626985   4.556107   3.395503   5.531323   2.116109
    28  H    4.586326   6.183197   3.403473   4.650388   3.860024
    29  N    5.655622   6.464947   4.210511   6.188120   3.677191
    30  C    6.487834   6.880828   5.068448   7.179240   4.173390
    31  C    6.505276   7.613064   5.103815   6.842674   4.872079
    32  H    6.499896   6.711585   5.138489   7.250719   4.123764
    33  H    7.512011   7.963570   6.078475   8.154763   5.245064
    34  H    6.427745   6.605967   5.063225   7.199103   4.042549
    35  H    6.476757   7.713048   5.137021   6.726607   5.077327
    36  H    7.526361   8.509959   6.104633   7.907977   5.732206
    37  H    6.509089   7.788608   5.175067   6.729455   5.130241
                   21         22         23         24         25
    21  C    0.000000
    22  C    2.769415   0.000000
    23  H    3.392193   2.112665   0.000000
    24  C    1.380067   2.419776   3.864081   0.000000
    25  H    1.085025   3.854384   4.298265   2.126948   0.000000
    26  C    2.423814   1.417636   3.398388   1.411552   3.399399
    27  H    3.850979   1.082006   2.395035   3.412535   4.935918
    28  H    2.126387   3.411015   4.945357   1.081410   2.426958
    29  N    3.677969   2.421828   4.532505   2.423856   4.547723
    30  C    4.848140   2.797775   4.766271   3.738182   5.813747
    31  C    4.218423   3.750643   5.821656   2.839058   4.836787
    32  H    5.087531   2.813054   4.582691   4.112512   6.087825
    33  H    5.726346   3.870358   5.850303   4.505584   6.626570
    34  H    5.035158   2.751917   4.490685   4.079587   6.041381
    35  H    4.145839   4.101643   6.060705   2.847624   4.635694
    36  H    5.289166   4.499621   6.609052   3.911579   5.927260
    37  H    4.149922   4.143030   6.127598   2.828985   4.621887
                   26         27         28         29         30
    26  C    0.000000
    27  H    2.179532   0.000000
    28  H    2.170382   4.326895   0.000000
    29  N    1.366170   2.684008   2.684494   0.000000
    30  C    2.425487   2.456745   4.124122   1.447563   0.000000
    31  C    2.443048   4.126750   2.504129   1.448304   2.512265
    32  H    2.774624   2.273901   4.608999   2.113209   1.095931
    33  H    3.324315   3.524883   4.681494   2.083052   1.085867
    34  H    2.739666   2.223859   4.598929   2.115266   1.094914
    35  H    2.777227   4.596544   2.351944   2.118859   3.226457
    36  H    3.333714   4.658647   3.582745   2.078754   2.547086
    37  H    2.789917   4.642026   2.268563   2.117094   3.267020
                   31         32         33         34         35
    31  C    0.000000
    32  H    3.254606   0.000000
    33  H    2.557344   1.766060   0.000000
    34  H    3.235505   1.771795   1.757259   0.000000
    35  H    1.097301   4.111128   3.294122   3.677218   0.000000
    36  H    1.090628   3.310456   2.121785   3.311598   1.769198
    37  H    1.096477   3.754179   3.348586   4.122374   1.774359
                   36         37
    36  H    0.000000
    37  H    1.768226   0.000000
 Symmetry turned off by external request.
 Stoichiometry    C17H17NO2
 Framework group  C1[X(C17H17NO2)]
 Deg. of freedom   105
 Full point group                 C1      NOp   1
 Rotational constants (GHZ):      1.0992233      0.1076448      0.0983327
 Leave Link  202 at Mon Nov  6 16:46:13 2017, MaxMem=  3758096384 cpu:         0.0
 (Enter /share/apps/gaussian/g09_D01/g09/l301.exe)
 Standard basis: 6-311++G(d,p) (5D, 7F)
 Ernie: Thresh=  0.10000D-02 Tol=  0.10000D-05 Strict=F.
   559 basis functions,   873 primitive gaussians,   579 cartesian basis functions
    71 alpha electrons       71 beta electrons
       nuclear repulsion energy      1362.0151950836 Hartrees.
 IExCor= 4639 DFT=T Ex+Corr=wB97XD ExCW=0 ScaHFX=  1.000000
 ScaDFX=  1.000000  1.000000  1.000000  1.000000 ScalE2=  1.000000  1.000000
 IRadAn=      0 IRanWt=     -1 IRanGd=            0 ICorTp=0 IEmpDi=121
  HFx wShort=  0.000000 wLong=  0.200000 cFull=  0.222036 cShort=  0.000000 cLong=  0.777964
  DFx wShort=  0.000000 wLong=  0.200000 cFull=  0.000000 cShort=  0.000000 cLong=  1.000000
 NAtoms=   37 NActive=   37 NUniq=   37 SFac= 1.00D+00 NAtFMM=   60 NAOKFM=F Big=F
 Integral buffers will be    131072 words long.
 Raffenetti 1 integral format.
 Two-electron integral symmetry is turned off.
 R6Disp:  Grimme-D2 Dispersion energy=       -0.0228842950 Hartrees.
 Nuclear repulsion after empirical dispersion term =     1361.9923107886 Hartrees.
 Leave Link  301 at Mon Nov  6 16:46:14 2017, MaxMem=  3758096384 cpu:         0.2
 (Enter /share/apps/gaussian/g09_D01/g09/l302.exe)
 NPDir=0 NMtPBC=     1 NCelOv=     1 NCel=       1 NClECP=     1 NCelD=      1
         NCelK=      1 NCelE2=     1 NClLst=     1 CellRange=     0.0.
 One-electron integrals computed using PRISM.
 NBasis=   559 RedAO= T EigKep=  1.12D-06  NBF=   559
 NBsUse=   553 1.00D-06 EigRej=  5.85D-07 NBFU=   553
 Precomputing XC quadrature grid using
 IXCGrd= 4 IRadAn=           0 IRanWt=          -1 IRanGd=           0 AccXCQ= 0.00D+00.
 Generated NRdTot=       0 NPtTot=           0 NUsed=           0 NTot=          32
 NSgBfM=   560   565   565   565   565 MxSgAt=    37 MxSgA2=    37.
 Leave Link  302 at Mon Nov  6 16:46:15 2017, MaxMem=  3758096384 cpu:         6.6
 (Enter /share/apps/gaussian/g09_D01/g09/l308.exe)
 Leave Link  308 at Mon Nov  6 16:46:17 2017, MaxMem=  3758096384 cpu:         0.7
 (Enter /share/apps/gaussian/g09_D01/g09/l303.exe)
 DipDrv:  MaxL=1.
 Leave Link  303 at Mon Nov  6 16:46:19 2017, MaxMem=  3758096384 cpu:         4.4
 (Enter /share/apps/gaussian/g09_D01/g09/l401.exe)
 ExpMin= 3.60D-02 ExpMax= 8.59D+03 ExpMxC= 1.30D+03 IAcc=3 IRadAn=         5 AccDes= 0.00D+00
 Harris functional with IExCor= 4639 and IRadAn=       5 diagonalized for initial guess.
 HarFok:  IExCor= 4639 AccDes= 0.00D+00 IRadAn=         5 IDoV= 1 UseB2=F ITyADJ=14
 ICtDFT=  3500011 ScaDFX=  1.000000  1.000000  1.000000  1.000000
 FoFCou: FMM=F IPFlag=           0 FMFlag=      100000 FMFlg1=           0
         NFxFlg=           0 DoJE=T BraDBF=F KetDBF=T FulRan=T
         wScrn=  0.000000 ICntrl=     500 IOpCl=  0 I1Cent=   200000004 NGrid=           0
         NMat0=    1 NMatS0=      1 NMatT0=    0 NMatD0=    1 NMtDS0=    0 NMtDT0=    0
 Symmetry not used in FoFCou.
 Harris En= -825.460386499611    
 JPrj=0 DoOrth=F DoCkMO=F.
 Leave Link  401 at Mon Nov  6 16:46:43 2017, MaxMem=  3758096384 cpu:        94.4
 (Enter /share/apps/gaussian/g09_D01/g09/l502.exe)
 Closed shell SCF:
 Using DIIS extrapolation, IDIIS=  1040.
 Two-electron integral symmetry not used.
 IVT=     1031295 IEndB=     1031295 NGot=  3758096384 MDV=  3757417550
 LenX=  3757417550 LenY=  3757081730
 Requested convergence on RMS density matrix=1.00D-08 within 128 cycles.
 Requested convergence on MAX density matrix=1.00D-06.
 Requested convergence on             energy=1.00D-06.
 No special actions if energy rises.
 Fock matrices will be formed incrementally for  20 cycles.

 Cycle   1  Pass 1  IDiag  1:
 FoFJK:  IHMeth= 1 ICntrl=       0 DoSepK=T KAlg= 0 I1Cent=   0 FoldK=F
 IRaf=         1 NMat=   1 IRICut=       1 DoRegI=T DoRafI=F ISym2E= 0.
 FoFCou: FMM=F IPFlag=           0 FMFlag=      100000 FMFlg1=           0
         NFxFlg=           0 DoJE=T BraDBF=F KetDBF=F FulRan=T
         wScrn=  0.000000 ICntrl=     500 IOpCl=  0 I1Cent=           0 NGrid=           0
         NMat0=    1 NMatS0=      1 NMatT0=    0 NMatD0=    1 NMtDS0=    0 NMtDT0=    0
 Symmetry not used in FoFCou.
 E= -862.888586663342    
 DIIS: error= 4.76D-02 at cycle   1 NSaved=   1.
 NSaved= 1 IEnMin= 1 EnMin= -862.888586663342     IErMin= 1 ErrMin= 4.76D-02
 ErrMax= 4.76D-02  0.00D+00 EMaxC= 1.00D-01 BMatC= 1.86D+00 BMatP= 1.86D+00
 IDIUse=3 WtCom= 5.24D-01 WtEn= 4.76D-01
 Coeff-Com:  0.100D+01
 Coeff-En:   0.100D+01
 Coeff:      0.100D+01
 Gap=     0.291 Goal=   None    Shift=    0.000
 GapD=    0.291 DampG=1.000 DampE=0.500 DampFc=0.5000 IDamp=-1.
 Damping current iteration by 5.00D-01
 RMSDP=2.74D-02 MaxDP=3.40D+00              OVMax= 1.87D-01

 Cycle   2  Pass 1  IDiag  1:
 RMSU=  5.72D-03    CP:  8.52D-01
 E= -863.015212077364     Delta-E=       -0.126625414022 Rises=F Damp=T
 DIIS: error= 2.22D-02 at cycle   2 NSaved=   2.
 NSaved= 2 IEnMin= 2 EnMin= -863.015212077364     IErMin= 2 ErrMin= 2.22D-02
 ErrMax= 2.22D-02  0.00D+00 EMaxC= 1.00D-01 BMatC= 3.93D-01 BMatP= 1.86D+00
 IDIUse=3 WtCom= 7.78D-01 WtEn= 2.22D-01
 Coeff-Com: -0.595D+00 0.160D+01
 Coeff-En:   0.000D+00 0.100D+01
 Coeff:     -0.463D+00 0.146D+01
 Gap=     0.286 Goal=   None    Shift=    0.000
 RMSDP=1.62D-02 MaxDP=1.87D+00 DE=-1.27D-01 OVMax= 2.11D-01

 Cycle   3  Pass 1  IDiag  1:
 RMSU=  5.15D-03    CP:  6.69D-01  1.18D+00
 E= -863.057926247628     Delta-E=       -0.042714170264 Rises=F Damp=F
 DIIS: error= 2.17D-02 at cycle   3 NSaved=   3.
 NSaved= 3 IEnMin= 3 EnMin= -863.057926247628     IErMin= 3 ErrMin= 2.17D-02
 ErrMax= 2.17D-02  0.00D+00 EMaxC= 1.00D-01 BMatC= 1.29D-01 BMatP= 3.93D-01
 IDIUse=3 WtCom= 7.83D-01 WtEn= 2.17D-01
 Coeff-Com: -0.385D+00 0.825D+00 0.560D+00
 Coeff-En:   0.000D+00 0.252D+00 0.748D+00
 Coeff:     -0.302D+00 0.700D+00 0.601D+00
 Gap=     0.280 Goal=   None    Shift=    0.000
 RMSDP=4.00D-03 MaxDP=2.51D-01 DE=-4.27D-02 OVMax= 1.07D-01

 Cycle   4  Pass 1  IDiag  1:
 RMSU=  1.54D-03    CP:  6.45D-01  1.49D+00  5.08D-01
 E= -863.160744392736     Delta-E=       -0.102818145107 Rises=F Damp=F
 DIIS: error= 4.53D-03 at cycle   4 NSaved=   4.
 NSaved= 4 IEnMin= 4 EnMin= -863.160744392736     IErMin= 4 ErrMin= 4.53D-03
 ErrMax= 4.53D-03  0.00D+00 EMaxC= 1.00D-01 BMatC= 9.95D-03 BMatP= 1.29D-01
 IDIUse=3 WtCom= 9.55D-01 WtEn= 4.53D-02
 Coeff-Com: -0.149D+00 0.319D+00 0.338D+00 0.492D+00
 Coeff-En:   0.000D+00 0.000D+00 0.000D+00 0.100D+01
 Coeff:     -0.142D+00 0.305D+00 0.323D+00 0.515D+00
 Gap=     0.247 Goal=   None    Shift=    0.000
 RMSDP=1.03D-03 MaxDP=7.25D-02 DE=-1.03D-01 OVMax= 2.22D-02

 Cycle   5  Pass 1  IDiag  1:
 RMSU=  4.94D-04    CP:  6.53D-01  1.51D+00  6.12D-01  7.76D-01
 E= -863.168754348525     Delta-E=       -0.008009955789 Rises=F Damp=F
 DIIS: error= 6.50D-04 at cycle   5 NSaved=   5.
 NSaved= 5 IEnMin= 5 EnMin= -863.168754348525     IErMin= 5 ErrMin= 6.50D-04
 ErrMax= 6.50D-04  0.00D+00 EMaxC= 1.00D-01 BMatC= 1.52D-04 BMatP= 9.95D-03
 IDIUse=3 WtCom= 9.93D-01 WtEn= 6.50D-03
 Coeff-Com:  0.213D-01-0.455D-01 0.551D-02 0.151D+00 0.868D+00
 Coeff-En:   0.000D+00 0.000D+00 0.000D+00 0.000D+00 0.100D+01
 Coeff:      0.211D-01-0.452D-01 0.547D-02 0.150D+00 0.869D+00
 Gap=     0.247 Goal=   None    Shift=    0.000
 RMSDP=3.94D-04 MaxDP=3.61D-02 DE=-8.01D-03 OVMax= 8.64D-03

 Cycle   6  Pass 1  IDiag  1:
 RMSU=  2.31D-04    CP:  6.50D-01  1.50D+00  6.14D-01  9.32D-01  1.06D+00
 E= -863.168967393840     Delta-E=       -0.000213045315 Rises=F Damp=F
 DIIS: error= 5.19D-04 at cycle   6 NSaved=   6.
 NSaved= 6 IEnMin= 6 EnMin= -863.168967393840     IErMin= 6 ErrMin= 5.19D-04
 ErrMax= 5.19D-04  0.00D+00 EMaxC= 1.00D-01 BMatC= 5.04D-05 BMatP= 1.52D-04
 IDIUse=3 WtCom= 9.95D-01 WtEn= 5.19D-03
 Coeff-Com:  0.286D-01-0.612D-01-0.407D-01-0.112D-02 0.438D+00 0.637D+00
 Coeff-En:   0.000D+00 0.000D+00 0.000D+00 0.000D+00 0.000D+00 0.100D+01
 Coeff:      0.284D-01-0.609D-01-0.405D-01-0.112D-02 0.436D+00 0.638D+00
 Gap=     0.248 Goal=   None    Shift=    0.000
 RMSDP=9.09D-05 MaxDP=6.20D-03 DE=-2.13D-04 OVMax= 4.44D-03

 Cycle   7  Pass 1  IDiag  1:
 RMSU=  5.91D-05    CP:  6.50D-01  1.50D+00  6.15D-01  9.50D-01  1.17D+00
                    CP:  1.00D+00
 E= -863.169031177829     Delta-E=       -0.000063783988 Rises=F Damp=F
 DIIS: error= 1.35D-04 at cycle   7 NSaved=   7.
 NSaved= 7 IEnMin= 7 EnMin= -863.169031177829     IErMin= 7 ErrMin= 1.35D-04
 ErrMax= 1.35D-04  0.00D+00 EMaxC= 1.00D-01 BMatC= 3.89D-06 BMatP= 5.04D-05
 IDIUse=3 WtCom= 9.99D-01 WtEn= 1.35D-03
 Coeff-Com:  0.254D-02-0.540D-02-0.787D-02-0.189D-01-0.331D-01 0.165D+00
 Coeff-Com:  0.898D+00
 Coeff-En:   0.000D+00 0.000D+00 0.000D+00 0.000D+00 0.000D+00 0.000D+00
 Coeff-En:   0.100D+01
 Coeff:      0.253D-02-0.539D-02-0.786D-02-0.188D-01-0.330D-01 0.165D+00
 Coeff:      0.898D+00
 Gap=     0.248 Goal=   None    Shift=    0.000
 RMSDP=5.77D-05 MaxDP=4.60D-03 DE=-6.38D-05 OVMax= 2.46D-03

 Cycle   8  Pass 1  IDiag  1:
 RMSU=  3.87D-05    CP:  6.51D-01  1.50D+00  6.15D-01  9.66D-01  1.21D+00
                    CP:  1.11D+00  1.01D+00
 E= -863.169041222114     Delta-E=       -0.000010044285 Rises=F Damp=F
 DIIS: error= 7.02D-05 at cycle   8 NSaved=   8.
 NSaved= 8 IEnMin= 8 EnMin= -863.169041222114     IErMin= 8 ErrMin= 7.02D-05
 ErrMax= 7.02D-05  0.00D+00 EMaxC= 1.00D-01 BMatC= 1.09D-06 BMatP= 3.89D-06
 IDIUse=1 WtCom= 1.00D+00 WtEn= 0.00D+00
 Coeff-Com: -0.313D-02 0.674D-02 0.240D-02-0.102D-01-0.935D-01-0.188D-01
 Coeff-Com:  0.425D+00 0.691D+00
 Coeff:     -0.313D-02 0.674D-02 0.240D-02-0.102D-01-0.935D-01-0.188D-01
 Coeff:      0.425D+00 0.691D+00
 Gap=     0.248 Goal=   None    Shift=    0.000
 RMSDP=2.47D-05 MaxDP=3.35D-03 DE=-1.00D-05 OVMax= 1.28D-03

 Cycle   9  Pass 1  IDiag  1:
 RMSU=  1.07D-05    CP:  6.51D-01  1.50D+00  6.14D-01  9.72D-01  1.23D+00
                    CP:  1.15D+00  1.10D+00  1.11D+00
 E= -863.169043686413     Delta-E=       -0.000002464300 Rises=F Damp=F
 DIIS: error= 2.72D-05 at cycle   9 NSaved=   9.
 NSaved= 9 IEnMin= 9 EnMin= -863.169043686413     IErMin= 9 ErrMin= 2.72D-05
 ErrMax= 2.72D-05  0.00D+00 EMaxC= 1.00D-01 BMatC= 1.21D-07 BMatP= 1.09D-06
 IDIUse=1 WtCom= 1.00D+00 WtEn= 0.00D+00
 Coeff-Com: -0.134D-02 0.285D-02 0.247D-02 0.101D-02-0.202D-01-0.326D-01
 Coeff-Com: -0.704D-01 0.157D+00 0.962D+00
 Coeff:     -0.134D-02 0.285D-02 0.247D-02 0.101D-02-0.202D-01-0.326D-01
 Coeff:     -0.704D-01 0.157D+00 0.962D+00
 Gap=     0.248 Goal=   None    Shift=    0.000
 RMSDP=1.09D-05 MaxDP=9.73D-04 DE=-2.46D-06 OVMax= 6.36D-04

 Cycle  10  Pass 1  IDiag  1:
 RMSU=  7.81D-06    CP:  6.51D-01  1.50D+00  6.14D-01  9.74D-01  1.23D+00
                    CP:  1.16D+00  1.16D+00  1.18D+00  1.05D+00
 E= -863.169044137247     Delta-E=       -0.000000450834 Rises=F Damp=F
 DIIS: error= 8.77D-06 at cycle  10 NSaved=  10.
 NSaved=10 IEnMin=10 EnMin= -863.169044137247     IErMin=10 ErrMin= 8.77D-06
 ErrMax= 8.77D-06  0.00D+00 EMaxC= 1.00D-01 BMatC= 1.88D-08 BMatP= 1.21D-07
 IDIUse=1 WtCom= 1.00D+00 WtEn= 0.00D+00
 Coeff-Com:  0.123D-03-0.272D-03 0.362D-03 0.195D-02 0.740D-02-0.673D-02
 Coeff-Com: -0.883D-01-0.473D-01 0.314D+00 0.819D+00
 Coeff:      0.123D-03-0.272D-03 0.362D-03 0.195D-02 0.740D-02-0.673D-02
 Coeff:     -0.883D-01-0.473D-01 0.314D+00 0.819D+00
 Gap=     0.248 Goal=   None    Shift=    0.000
 RMSDP=4.96D-06 MaxDP=4.27D-04 DE=-4.51D-07 OVMax= 2.20D-04

 Cycle  11  Pass 1  IDiag  1:
 RMSU=  1.70D-06    CP:  6.51D-01  1.50D+00  6.14D-01  9.74D-01  1.24D+00
                    CP:  1.16D+00  1.17D+00  1.22D+00  1.18D+00  1.13D+00
 E= -863.169044192955     Delta-E=       -0.000000055707 Rises=F Damp=F
 DIIS: error= 3.55D-06 at cycle  11 NSaved=  11.
 NSaved=11 IEnMin=11 EnMin= -863.169044192955     IErMin=11 ErrMin= 3.55D-06
 ErrMax= 3.55D-06  0.00D+00 EMaxC= 1.00D-01 BMatC= 3.80D-09 BMatP= 1.88D-08
 IDIUse=1 WtCom= 1.00D+00 WtEn= 0.00D+00
 Coeff-Com:  0.245D-03-0.522D-03-0.238D-03 0.689D-03 0.558D-02 0.254D-02
 Coeff-Com: -0.162D-01-0.364D-01-0.648D-01 0.280D+00 0.829D+00
 Coeff:      0.245D-03-0.522D-03-0.238D-03 0.689D-03 0.558D-02 0.254D-02
 Coeff:     -0.162D-01-0.364D-01-0.648D-01 0.280D+00 0.829D+00
 Gap=     0.248 Goal=   None    Shift=    0.000
 RMSDP=1.70D-06 MaxDP=9.13D-05 DE=-5.57D-08 OVMax= 6.38D-05

 Cycle  12  Pass 1  IDiag  1:
 RMSU=  1.05D-06    CP:  6.51D-01  1.50D+00  6.14D-01  9.74D-01  1.24D+00
                    CP:  1.16D+00  1.18D+00  1.24D+00  1.21D+00  1.18D+00
                    CP:  1.27D+00
 E= -863.169044201849     Delta-E=       -0.000000008894 Rises=F Damp=F
 DIIS: error= 2.17D-06 at cycle  12 NSaved=  12.
 NSaved=12 IEnMin=12 EnMin= -863.169044201849     IErMin=12 ErrMin= 2.17D-06
 ErrMax= 2.17D-06  0.00D+00 EMaxC= 1.00D-01 BMatC= 5.79D-10 BMatP= 3.80D-09
 IDIUse=1 WtCom= 1.00D+00 WtEn= 0.00D+00
 Coeff-Com:  0.711D-04-0.149D-03-0.134D-03 0.147D-04 0.102D-02 0.160D-02
 Coeff-Com:  0.876D-02-0.550D-02-0.755D-01-0.315D-01 0.286D+00 0.815D+00
 Coeff:      0.711D-04-0.149D-03-0.134D-03 0.147D-04 0.102D-02 0.160D-02
 Coeff:      0.876D-02-0.550D-02-0.755D-01-0.315D-01 0.286D+00 0.815D+00
 Gap=     0.248 Goal=   None    Shift=    0.000
 RMSDP=8.29D-07 MaxDP=5.40D-05 DE=-8.89D-09 OVMax= 2.26D-05

 Cycle  13  Pass 1  IDiag  1:
 RMSU=  3.46D-07    CP:  6.51D-01  1.50D+00  6.14D-01  9.74D-01  1.24D+00
                    CP:  1.16D+00  1.18D+00  1.23D+00  1.20D+00  1.24D+00
                    CP:  1.44D+00  1.18D+00
 E= -863.169044203066     Delta-E=       -0.000000001218 Rises=F Damp=F
 DIIS: error= 6.23D-07 at cycle  13 NSaved=  13.
 NSaved=13 IEnMin=13 EnMin= -863.169044203066     IErMin=13 ErrMin= 6.23D-07
 ErrMax= 6.23D-07  0.00D+00 EMaxC= 1.00D-01 BMatC= 1.16D-10 BMatP= 5.79D-10
 IDIUse=1 WtCom= 1.00D+00 WtEn= 0.00D+00
 Coeff-Com: -0.110D-04 0.241D-04-0.172D-04-0.115D-03-0.535D-03 0.105D-03
 Coeff-Com:  0.666D-02 0.367D-02-0.194D-01-0.595D-01-0.267D-01 0.354D+00
 Coeff-Com:  0.742D+00
 Coeff:     -0.110D-04 0.241D-04-0.172D-04-0.115D-03-0.535D-03 0.105D-03
 Coeff:      0.666D-02 0.367D-02-0.194D-01-0.595D-01-0.267D-01 0.354D+00
 Coeff:      0.742D+00
 Gap=     0.248 Goal=   None    Shift=    0.000
 RMSDP=2.96D-07 MaxDP=1.28D-05 DE=-1.22D-09 OVMax= 7.14D-06

 Cycle  14  Pass 1  IDiag  1:
 RMSU=  1.46D-07    CP:  6.51D-01  1.50D+00  6.14D-01  9.74D-01  1.24D+00
                    CP:  1.16D+00  1.19D+00  1.23D+00  1.20D+00  1.25D+00
                    CP:  1.47D+00  1.28D+00  9.37D-01
 E= -863.169044203268     Delta-E=       -0.000000000202 Rises=F Damp=F
 DIIS: error= 2.73D-07 at cycle  14 NSaved=  14.
 NSaved=14 IEnMin=14 EnMin= -863.169044203268     IErMin=14 ErrMin= 2.73D-07
 ErrMax= 2.73D-07  0.00D+00 EMaxC= 1.00D-01 BMatC= 7.11D-12 BMatP= 1.16D-10
 IDIUse=1 WtCom= 1.00D+00 WtEn= 0.00D+00
 Coeff-Com: -0.895D-05 0.189D-04 0.842D-05-0.368D-04-0.224D-03-0.151D-03
 Coeff-Com:  0.461D-03 0.971D-03 0.455D-02-0.825D-02-0.399D-01-0.598D-02
 Coeff-Com:  0.132D+00 0.917D+00
 Coeff:     -0.895D-05 0.189D-04 0.842D-05-0.368D-04-0.224D-03-0.151D-03
 Coeff:      0.461D-03 0.971D-03 0.455D-02-0.825D-02-0.399D-01-0.598D-02
 Coeff:      0.132D+00 0.917D+00
 Gap=     0.248 Goal=   None    Shift=    0.000
 RMSDP=1.19D-07 MaxDP=7.87D-06 DE=-2.02D-10 OVMax= 3.69D-06

 Cycle  15  Pass 1  IDiag  1:
 RMSU=  3.95D-08    CP:  6.51D-01  1.50D+00  6.14D-01  9.74D-01  1.24D+00
                    CP:  1.16D+00  1.19D+00  1.23D+00  1.20D+00  1.24D+00
                    CP:  1.47D+00  1.33D+00  1.02D+00  1.22D+00
 E= -863.169044203314     Delta-E=       -0.000000000045 Rises=F Damp=F
 DIIS: error= 1.03D-07 at cycle  15 NSaved=  15.
 NSaved=15 IEnMin=15 EnMin= -863.169044203314     IErMin=15 ErrMin= 1.03D-07
 ErrMax= 1.03D-07  0.00D+00 EMaxC= 1.00D-01 BMatC= 1.35D-12 BMatP= 7.11D-12
 IDIUse=1 WtCom= 1.00D+00 WtEn= 0.00D+00
 Coeff-Com: -0.196D-05 0.406D-05 0.513D-05 0.903D-06-0.317D-05-0.588D-04
 Coeff-Com: -0.633D-03-0.261D-03 0.380D-02 0.511D-02-0.102D-01-0.411D-01
 Coeff-Com: -0.642D-01 0.258D+00 0.849D+00
 Coeff:     -0.196D-05 0.406D-05 0.513D-05 0.903D-06-0.317D-05-0.588D-04
 Coeff:     -0.633D-03-0.261D-03 0.380D-02 0.511D-02-0.102D-01-0.411D-01
 Coeff:     -0.642D-01 0.258D+00 0.849D+00
 Gap=     0.248 Goal=   None    Shift=    0.000
 RMSDP=4.77D-08 MaxDP=3.38D-06 DE=-4.55D-11 OVMax= 1.65D-06

 Cycle  16  Pass 1  IDiag  1:
 RMSU=  1.72D-08    CP:  6.51D-01  1.50D+00  6.14D-01  9.74D-01  1.24D+00
                    CP:  1.16D+00  1.19D+00  1.23D+00  1.20D+00  1.24D+00
                    CP:  1.47D+00  1.35D+00  1.06D+00  1.34D+00  1.14D+00
 E= -863.169044203294     Delta-E=        0.000000000020 Rises=F Damp=F
 DIIS: error= 4.20D-08 at cycle  16 NSaved=  16.
 NSaved=16 IEnMin=15 EnMin= -863.169044203314     IErMin=16 ErrMin= 4.20D-08
 ErrMax= 4.20D-08  0.00D+00 EMaxC= 1.00D-01 BMatC= 2.21D-13 BMatP= 1.35D-12
 IDIUse=1 WtCom= 1.00D+00 WtEn= 0.00D+00
 Coeff-Com:  0.783D-06-0.167D-05-0.435D-06 0.551D-05 0.352D-04 0.932D-05
 Coeff-Com: -0.142D-03-0.231D-03-0.204D-03 0.232D-02 0.419D-02-0.179D-02
 Coeff-Com: -0.376D-01-0.130D+00 0.150D+00 0.101D+01
 Coeff:      0.783D-06-0.167D-05-0.435D-06 0.551D-05 0.352D-04 0.932D-05
 Coeff:     -0.142D-03-0.231D-03-0.204D-03 0.232D-02 0.419D-02-0.179D-02
 Coeff:     -0.376D-01-0.130D+00 0.150D+00 0.101D+01
 Gap=     0.248 Goal=   None    Shift=    0.000
 RMSDP=2.04D-08 MaxDP=9.28D-07 DE= 2.00D-11 OVMax= 8.16D-07

 Cycle  17  Pass 1  IDiag  1:
 RMSU=  6.13D-09    CP:  6.51D-01  1.50D+00  6.14D-01  9.74D-01  1.24D+00
                    CP:  1.16D+00  1.19D+00  1.23D+00  1.20D+00  1.24D+00
                    CP:  1.47D+00  1.36D+00  1.07D+00  1.41D+00  1.32D+00
                    CP:  1.34D+00
 E= -863.169044203320     Delta-E=       -0.000000000026 Rises=F Damp=F
 DIIS: error= 1.40D-08 at cycle  17 NSaved=  17.
 NSaved=17 IEnMin=17 EnMin= -863.169044203320     IErMin=17 ErrMin= 1.40D-08
 ErrMax= 1.40D-08  0.00D+00 EMaxC= 1.00D-01 BMatC= 2.67D-14 BMatP= 2.21D-13
 IDIUse=1 WtCom= 1.00D+00 WtEn= 0.00D+00
 Coeff-Com:  0.256D-06-0.534D-06-0.458D-06 0.132D-05 0.825D-05 0.775D-05
 Coeff-Com:  0.446D-04-0.212D-04-0.470D-03 0.192D-04 0.180D-02 0.544D-02
 Coeff-Com: -0.100D-02-0.590D-01-0.578D-01 0.228D+00 0.883D+00
 Coeff:      0.256D-06-0.534D-06-0.458D-06 0.132D-05 0.825D-05 0.775D-05
 Coeff:      0.446D-04-0.212D-04-0.470D-03 0.192D-04 0.180D-02 0.544D-02
 Coeff:     -0.100D-02-0.590D-01-0.578D-01 0.228D+00 0.883D+00
 Gap=     0.248 Goal=   None    Shift=    0.000
 RMSDP=7.04D-09 MaxDP=5.86D-07 DE=-2.59D-11 OVMax= 2.49D-07

 SCF Done:  E(RwB97XD) =  -863.169044203     A.U. after   17 cycles
            NFock= 17  Conv=0.70D-08     -V/T= 2.0042
 KE= 8.595829348388D+02 PE=-4.733399945191D+03 EE= 1.648655655360D+03
 Leave Link  502 at Mon Nov  6 17:09:52 2017, MaxMem=  3758096384 cpu:      5547.6
 (Enter /share/apps/gaussian/g09_D01/g09/l801.exe)
 DoSCS=F DFT=T ScalE2(SS,OS)=  1.000000  1.000000
 ExpMin= 3.60D-02 ExpMax= 8.59D+03 ExpMxC= 1.30D+03 IAcc=3 IRadAn=         5 AccDes= 0.00D+00
 HarFok:  IExCor=  205 AccDes= 0.00D+00 IRadAn=         5 IDoV=-2 UseB2=F ITyADJ=14
 ICtDFT= 12500011 ScaDFX=  1.000000  1.000000  1.000000  1.000000
 Largest valence mixing into a core orbital is  5.63D-05
 Largest core mixing into a valence orbital is  1.54D-05
 Range of M.O.s used for correlation:    21   553
 NBasis=   559 NAE=    71 NBE=    71 NFC=    20 NFV=     0
 NROrb=    533 NOA=    51 NOB=    51 NVA=   482 NVB=   482

 **** Warning!!: The largest alpha MO coefficient is  0.12400044D+03

 Leave Link  801 at Mon Nov  6 17:09:53 2017, MaxMem=  3758096384 cpu:         2.9
 (Enter /share/apps/gaussian/g09_D01/g09/l914.exe)
 RHF ground state
 MDV=  3758096384 DFT=T DoStab=F Mixed=T DoRPA=T DoScal=F NonHer=T
 Would need an additional         69850200000 words for in-memory AO integral storage.
 Making orbital integer symmetry assigments:
    16 initial guesses have been made.
 Convergence on wavefunction:    0.001000000000000
 Davidson Disk Diagonalization:  ConvIn= 1.00D-03 SkipCon=T Conv= 1.00D-03.
 Max sub-space:   200 roots to seek:    16 dimension of matrix:        49164
 Iteration     1 Dimension    16 NMult     0 NNew     16
 CISAX will form    16 AO SS matrices at one time.
 NMat=    16 NSing=    16 JSym2X= 0.
 FoFJK:  IHMeth= 1 ICntrl=       0 DoSepK=T KAlg= 0 I1Cent=   0 FoldK=F
 IRaf=         1 NMat=  32 IRICut=       1 DoRegI=T DoRafI=F ISym2E= 0.
 FoFCou: FMM=F IPFlag=           0 FMFlag=      100000 FMFlg1=           0
         NFxFlg=           0 DoJE=F BraDBF=F KetDBF=F FulRan=T
         wScrn=  0.000000 ICntrl=     500 IOpCl=  0 I1Cent=           0 NGrid=           0
         NMat0=   16 NMatS0=     16 NMatT0=    0 NMatD0=   16 NMtDS0=    0 NMtDT0=    0
 Symmetry not used in FoFCou.
 New state      2 was old state     10
 New state      3 was old state      2
 New state      4 was old state      8
 Excitation Energies [eV] at current iteration:
 Root      1 :     4.036367840207796
 Root      2 :     4.371669253896325
 Root      3 :     4.721783122960742
 Root      4 :     5.113378579793189
 Root      5 :     5.423384147826163
 Root      6 :     5.823274950832747
 Root      7 :     5.916174319152987
 Root      8 :     5.985493653874200
 Root      9 :     6.114817810259318
 Root     10 :     6.233573129037850
 Root     11 :     6.378098620432204
 Root     12 :     6.540033355308006
 Root     13 :     6.560869105982569
 Root     14 :     6.661151609966235
 Root     15 :     7.330928653655184
 Root     16 :     7.586794793650098
 Iteration     2 Dimension    24 NMult    16 NNew      8
 CISAX will form     8 AO SS matrices at one time.
 NMat=     8 NSing=     8 JSym2X= 0.
 Root      1 not converged, maximum delta is    0.059121924432847
 Root      2 not converged, maximum delta is    0.108804567365045
 Root      3 not converged, maximum delta is    0.116177023487975
 Root      4 not converged, maximum delta is    0.125247046061625
 Excitation Energies [eV] at current iteration:
 Root      1 :     3.595966762993569   Change is   -0.440401077214226
 Root      2 :     3.933641698051755   Change is   -0.438027555844570
 Root      3 :     4.167500477855454   Change is   -0.554282645105287
 Root      4 :     4.588265501305863   Change is   -0.525113078487326
 Iteration     3 Dimension    32 NMult    24 NNew      8
 CISAX will form     8 AO SS matrices at one time.
 NMat=     8 NSing=     8 JSym2X= 0.
 Root      1 not converged, maximum delta is    0.012497200049684
 Root      2 not converged, maximum delta is    0.015957868614426
 Root      3 not converged, maximum delta is    0.041567238777774
 Root      4 not converged, maximum delta is    0.038515579762794
 Excitation Energies [eV] at current iteration:
 Root      1 :     3.563636108671325   Change is   -0.032330654322245
 Root      2 :     3.907769781312673   Change is   -0.025871916739083
 Root      3 :     4.114718565860334   Change is   -0.052781911995121
 Root      4 :     4.541143813877464   Change is   -0.047121687428399
 Iteration     4 Dimension    40 NMult    32 NNew      8
 CISAX will form     8 AO SS matrices at one time.
 NMat=     8 NSing=     8 JSym2X= 0.
 Root      1 not converged, maximum delta is    0.009718151713987
 Root      2 not converged, maximum delta is    0.005865467876610
 Root      3 not converged, maximum delta is    0.018462963293413
 Root      4 not converged, maximum delta is    0.012502202832943
 Excitation Energies [eV] at current iteration:
 Root      1 :     3.558998820032825   Change is   -0.004637288638500
 Root      2 :     3.905933051594441   Change is   -0.001836729718232
 Root      3 :     4.101277794015787   Change is   -0.013440771844546
 Root      4 :     4.534080811780224   Change is   -0.007063002097240
 Iteration     5 Dimension    48 NMult    40 NNew      8
 CISAX will form     8 AO SS matrices at one time.
 NMat=     8 NSing=     8 JSym2X= 0.
 Root      1 not converged, maximum delta is    0.003061198831458
 Root      2 not converged, maximum delta is    0.001830264326160
 Root      3 not converged, maximum delta is    0.005272690163618
 Root      4 not converged, maximum delta is    0.002549789200273
 Excitation Energies [eV] at current iteration:
 Root      1 :     3.558472537522148   Change is   -0.000526282510677
 Root      2 :     3.905799367886101   Change is   -0.000133683708340
 Root      3 :     4.099459536211127   Change is   -0.001818257804660
 Root      4 :     4.533535996628690   Change is   -0.000544815151534
 Iteration     6 Dimension    56 NMult    48 NNew      8
 CISAX will form     8 AO SS matrices at one time.
 NMat=     8 NSing=     8 JSym2X= 0.
 Root      1 has converged.
 Root      2 has converged.
 Root      3 not converged, maximum delta is    0.001512082342906
 Root      4 not converged, maximum delta is    0.001490634820948
 Excitation Energies [eV] at current iteration:
 Root      1 :     3.558415545769392   Change is   -0.000056991752755
 Root      2 :     3.905785544282117   Change is   -0.000013823603984
 Root      3 :     4.099198907988561   Change is   -0.000260628222566
 Root      4 :     4.533454199129269   Change is   -0.000081797499421
 Iteration     7 Dimension    60 NMult    56 NNew      4
 CISAX will form     4 AO SS matrices at one time.
 NMat=     4 NSing=     4 JSym2X= 0.
 Root      1 has converged.
 Root      2 has converged.
 Root      3 has converged.
 Root      4 has converged.
 Excitation Energies [eV] at current iteration:
 Root      1 :     3.558415429620419   Change is   -0.000000116148973
 Root      2 :     3.905785501024091   Change is   -0.000000043258026
 Root      3 :     4.099177208690301   Change is   -0.000021699298261
 Root      4 :     4.533444157104464   Change is   -0.000010042024806
 Convergence achieved on expansion vectors.
 ***********************************************************************
 Excited states from <AA,BB:AA,BB> singles matrix:
 ***********************************************************************
 
 1PDM for each excited state written to RWF  633
 Ground to excited state transition densities written to RWF  633
 Ground to excited state transition electric dipole moments (Au):
       state          X           Y           Z        Dip. S.      Osc.
         1        -3.3819      0.2651      1.3431     13.3114      1.1605
         2        -0.2409      0.0136      0.0732      0.0636      0.0061
         3         0.0530      0.1388     -0.0891      0.0300      0.0030
         4        -0.5249      0.3766     -0.1447      0.4382      0.0487
 Ground to excited state transition velocity dipole moments (Au):
       state          X           Y           Z        Dip. S.      Osc.
         1         0.4363     -0.0325     -0.1758      0.2223      1.1335
         2         0.0340     -0.0005     -0.0097      0.0013      0.0058
         3        -0.0049     -0.0187      0.0085      0.0004      0.0020
         4         0.0861     -0.0678      0.0302      0.0129      0.0517
 Ground to excited state transition magnetic dipole moments (Au):
       state          X           Y           Z
         1        -0.7492     -2.4034     -1.4918
         2        -0.0678      0.0779     -0.5865
         3         0.2498      0.8971      0.5213
         4        -0.3500     -0.6920     -0.4637
 Ground to excited state transition velocity quadrupole moments (Au):
       state          XX          YY          ZZ          XY          XZ          YZ
         1         2.6923     -0.1242      1.9205      0.6075     -2.8070     -0.1569
         2         0.2601      0.0299      0.0717      0.0442     -0.2270     -0.0170
         3         2.0045     -0.1157      0.3186     -0.1588     -0.9645      0.2222
         4         0.0735     -0.3602     -0.1232      0.3719     -0.5746      0.3039
 <0|del|b> * <b|rxdel|0> + <0|del|b> * <b|delr+rdel|0>
 Rotatory Strengths (R) in cgs (10**-40 erg-esu-cm/Gauss)
       state          XX          YY          ZZ    R(velocity)    E-M Angle
         1       384.9086    -70.9253   -240.4502     24.5110       89.44
         2        12.6427      8.0291     -4.0750      5.5323       80.80
         3       -74.6091      8.1287      2.6458    -21.2782      127.08
         4        10.9979    -62.0007     62.7396      3.9123       88.46
 1/2[<0|r|b>*<b|rxdel|0> + (<0|rxdel|b>*<b|r|0>)*]
 Rotatory Strengths (R) in cgs (10**-40 erg-esu-cm/Gauss)
       state          XX          YY          ZZ     R(length)
         1     -1791.6645    450.5312   1416.8592     25.2420
         2       -11.5473     -0.7480     30.3507      6.0185
         3        -9.3557    -88.0459     32.8542    -21.5158
         4      -129.9032    184.2841    -47.4370      2.3146
  1/2[<0|del|b>*<b|r|0> + (<0|r|b>*<b|del|0>)*] (Au)
       state          X           Y           Z        Dip. S.   Osc.(frdel)
         1        -1.4756     -0.0086     -0.2362      1.7203      1.1469
         2        -0.0082      0.0000     -0.0007      0.0089      0.0059
         3        -0.0003     -0.0026     -0.0008      0.0036      0.0024
         4        -0.0452     -0.0255     -0.0044      0.0751      0.0500

 Excitation energies and oscillator strengths:
 
 Excited state symmetry could not be determined.
 Excited State   1:      Singlet-?Sym    3.5584 eV  348.43 nm  f=1.1605  <S**2>=0.000
      66 -> 72        -0.10968
      70 -> 72         0.14262
      70 -> 74        -0.10083
      71 -> 72         0.65144
      71 -> 74         0.10550
 This state for optimization and/or second-order correction.
 Total Energy, E(TD-HF/TD-KS) =  -863.038274837    
 Copying the excited state density for this state as the 1-particle RhoCI density.
 
 Excited state symmetry could not be determined.
 Excited State   2:      Singlet-?Sym    3.9058 eV  317.44 nm  f=0.0061  <S**2>=0.000
      68 -> 72         0.66067
      68 -> 74        -0.12027
      68 -> 89        -0.10564
 
 Excited state symmetry could not be determined.
 Excited State   3:      Singlet-?Sym    4.0992 eV  302.46 nm  f=0.0030  <S**2>=0.000
      69 -> 83         0.10033
      70 -> 72         0.62696
      70 -> 74        -0.21411
      71 -> 72        -0.13822
      71 -> 74        -0.12350
 
 Excited state symmetry could not be determined.
 Excited State   4:      Singlet-?Sym    4.5334 eV  273.49 nm  f=0.0487  <S**2>=0.000
      67 -> 72        -0.24982
      67 -> 74        -0.12980
      71 -> 74        -0.25496
      71 -> 77         0.56423
 SavETr:  write IOETrn=   770 NScale= 10 NData=  16 NLR=1 NState=    4 LETran=      82.
 Leave Link  914 at Mon Nov  6 18:08:25 2017, MaxMem=  3758096384 cpu:     13976.5
 (Enter /share/apps/gaussian/g09_D01/g09/l601.exe)
 Copying SCF densities to generalized density rwf, IOpCl= 0 IROHF=0.

 **********************************************************************

            Population analysis using the SCF density.

 **********************************************************************

 Alpha  occ. eigenvalues --  -19.25526 -19.23338 -14.47295 -10.38084 -10.35645
 Alpha  occ. eigenvalues --  -10.34887 -10.33174 -10.33047 -10.31170 -10.30332
 Alpha  occ. eigenvalues --  -10.30226 -10.30042 -10.29835 -10.29748 -10.29742
 Alpha  occ. eigenvalues --  -10.29513 -10.29292 -10.28692 -10.28417 -10.28307
 Alpha  occ. eigenvalues --   -1.16428  -1.13046  -1.07740  -0.97107  -0.96146
 Alpha  occ. eigenvalues --   -0.90909  -0.87379  -0.86955  -0.84914  -0.84145
 Alpha  occ. eigenvalues --   -0.84053  -0.78933  -0.74802  -0.72249  -0.71521
 Alpha  occ. eigenvalues --   -0.69661  -0.68041  -0.64724  -0.63298  -0.61588
 Alpha  occ. eigenvalues --   -0.60597  -0.58900  -0.57840  -0.57530  -0.55842
 Alpha  occ. eigenvalues --   -0.55309  -0.54418  -0.52884  -0.52511  -0.51966
 Alpha  occ. eigenvalues --   -0.51789  -0.51376  -0.51196  -0.49850  -0.48363
 Alpha  occ. eigenvalues --   -0.48245  -0.47323  -0.47143  -0.46890  -0.45908
 Alpha  occ. eigenvalues --   -0.45542  -0.42966  -0.42617  -0.42414  -0.41122
 Alpha  occ. eigenvalues --   -0.35092  -0.34650  -0.34436  -0.33807  -0.29958
 Alpha  occ. eigenvalues --   -0.27084
 Alpha virt. eigenvalues --   -0.02277   0.02749   0.03427   0.03896   0.04418
 Alpha virt. eigenvalues --    0.04692   0.04917   0.05682   0.06361   0.06436
 Alpha virt. eigenvalues --    0.06727   0.06803   0.07950   0.08015   0.08203
 Alpha virt. eigenvalues --    0.08735   0.09372   0.09474   0.10297   0.10588
 Alpha virt. eigenvalues --    0.11029   0.11596   0.12102   0.12406   0.13189
 Alpha virt. eigenvalues --    0.13241   0.13496   0.13895   0.14390   0.14873
 Alpha virt. eigenvalues --    0.15265   0.15429   0.15961   0.16045   0.16161
 Alpha virt. eigenvalues --    0.16210   0.16626   0.16936   0.17146   0.17396
 Alpha virt. eigenvalues --    0.17525   0.17675   0.18431   0.18586   0.18947
 Alpha virt. eigenvalues --    0.19643   0.19721   0.20118   0.20297   0.20568
 Alpha virt. eigenvalues --    0.20725   0.20999   0.21356   0.21861   0.22001
 Alpha virt. eigenvalues --    0.22216   0.22416   0.22617   0.22996   0.23224
 Alpha virt. eigenvalues --    0.23673   0.23815   0.24138   0.24265   0.24819
 Alpha virt. eigenvalues --    0.25178   0.25532   0.25737   0.26026   0.26316
 Alpha virt. eigenvalues --    0.26760   0.26900   0.27178   0.27759   0.28111
 Alpha virt. eigenvalues --    0.28387   0.28692   0.29407   0.29518   0.30183
 Alpha virt. eigenvalues --    0.30576   0.30633   0.30709   0.30900   0.31491
 Alpha virt. eigenvalues --    0.31781   0.31830   0.32425   0.32881   0.33136
 Alpha virt. eigenvalues --    0.33739   0.34069   0.34466   0.34579   0.35048
 Alpha virt. eigenvalues --    0.35605   0.35824   0.36028   0.36665   0.37122
 Alpha virt. eigenvalues --    0.37406   0.37901   0.38178   0.38221   0.38883
 Alpha virt. eigenvalues --    0.39323   0.39352   0.39691   0.40353   0.40738
 Alpha virt. eigenvalues --    0.40848   0.41474   0.41780   0.42271   0.43179
 Alpha virt. eigenvalues --    0.43756   0.43967   0.44395   0.45371   0.46325
 Alpha virt. eigenvalues --    0.46500   0.46914   0.48651   0.49242   0.49361
 Alpha virt. eigenvalues --    0.49785   0.50510   0.51195   0.52255   0.53155
 Alpha virt. eigenvalues --    0.54297   0.54578   0.56110   0.57650   0.58730
 Alpha virt. eigenvalues --    0.60464   0.61047   0.61170   0.61598   0.61959
 Alpha virt. eigenvalues --    0.62526   0.62629   0.63279   0.63846   0.64196
 Alpha virt. eigenvalues --    0.64367   0.65003   0.65791   0.66294   0.66917
 Alpha virt. eigenvalues --    0.67055   0.67505   0.67856   0.68480   0.69296
 Alpha virt. eigenvalues --    0.69649   0.70037   0.71735   0.71909   0.72071
 Alpha virt. eigenvalues --    0.72579   0.72976   0.73738   0.73880   0.74747
 Alpha virt. eigenvalues --    0.75399   0.75630   0.76053   0.76462   0.76884
 Alpha virt. eigenvalues --    0.77408   0.78205   0.78717   0.79016   0.79630
 Alpha virt. eigenvalues --    0.80304   0.80779   0.81030   0.82764   0.83481
 Alpha virt. eigenvalues --    0.84037   0.85032   0.85352   0.86205   0.86957
 Alpha virt. eigenvalues --    0.87960   0.89253   0.89840   0.91237   0.91621
 Alpha virt. eigenvalues --    0.92200   0.94028   0.94528   0.94807   0.95289
 Alpha virt. eigenvalues --    0.95720   0.96896   0.97288   0.97533   0.97964
 Alpha virt. eigenvalues --    0.99015   0.99567   0.99860   1.00737   1.01248
 Alpha virt. eigenvalues --    1.02323   1.03413   1.04011   1.04189   1.05344
 Alpha virt. eigenvalues --    1.05697   1.06811   1.07073   1.07686   1.08302
 Alpha virt. eigenvalues --    1.08672   1.09548   1.10534   1.11102   1.12399
 Alpha virt. eigenvalues --    1.13437   1.14031   1.14659   1.15619   1.16039
 Alpha virt. eigenvalues --    1.17119   1.17791   1.18879   1.19548   1.20426
 Alpha virt. eigenvalues --    1.20834   1.21468   1.22096   1.22369   1.24136
 Alpha virt. eigenvalues --    1.25518   1.30224   1.31865   1.32043   1.33701
 Alpha virt. eigenvalues --    1.34756   1.36696   1.37728   1.40013   1.40497
 Alpha virt. eigenvalues --    1.42214   1.47267   1.48594   1.49388   1.51122
 Alpha virt. eigenvalues --    1.52164   1.52488   1.53248   1.55770   1.56511
 Alpha virt. eigenvalues --    1.56796   1.58657   1.59058   1.59868   1.60292
 Alpha virt. eigenvalues --    1.61954   1.62290   1.63175   1.63335   1.63431
 Alpha virt. eigenvalues --    1.63645   1.65078   1.65337   1.65359   1.65621
 Alpha virt. eigenvalues --    1.66096   1.67504   1.68812   1.69289   1.69693
 Alpha virt. eigenvalues --    1.70605   1.73366   1.74572   1.75004   1.75680
 Alpha virt. eigenvalues --    1.77836   1.79071   1.79278   1.80587   1.81307
 Alpha virt. eigenvalues --    1.81502   1.81673   1.82683   1.83086   1.84281
 Alpha virt. eigenvalues --    1.85185   1.85574   1.87052   1.87892   1.89030
 Alpha virt. eigenvalues --    1.90336   1.91316   1.94054   1.94251   1.96598
 Alpha virt. eigenvalues --    1.97234   1.98014   1.98580   2.00733   2.01167
 Alpha virt. eigenvalues --    2.01607   2.02074   2.02119   2.03886   2.04183
 Alpha virt. eigenvalues --    2.04892   2.05552   2.05931   2.07183   2.07698
 Alpha virt. eigenvalues --    2.08408   2.09519   2.11889   2.12592   2.13376
 Alpha virt. eigenvalues --    2.15014   2.15291   2.16312   2.17876   2.18186
 Alpha virt. eigenvalues --    2.19535   2.20443   2.21483   2.23495   2.25645
 Alpha virt. eigenvalues --    2.26910   2.29075   2.30099   2.32322   2.34169
 Alpha virt. eigenvalues --    2.36605   2.37181   2.38287   2.40623   2.42310
 Alpha virt. eigenvalues --    2.43424   2.43776   2.46561   2.48117   2.48598
 Alpha virt. eigenvalues --    2.51070   2.53571   2.55654   2.55749   2.56086
 Alpha virt. eigenvalues --    2.56455   2.57700   2.57788   2.58348   2.61500
 Alpha virt. eigenvalues --    2.63458   2.65066   2.68442   2.69529   2.70628
 Alpha virt. eigenvalues --    2.71007   2.73204   2.74421   2.74877   2.77935
 Alpha virt. eigenvalues --    2.78468   2.79107   2.79827   2.80151   2.80311
 Alpha virt. eigenvalues --    2.81745   2.82744   2.83244   2.83694   2.84173
 Alpha virt. eigenvalues --    2.84539   2.85189   2.86082   2.86366   2.87568
 Alpha virt. eigenvalues --    2.88496   2.90228   2.90902   2.91435   2.92073
 Alpha virt. eigenvalues --    2.92239   2.93331   2.93530   2.95030   2.96201
 Alpha virt. eigenvalues --    2.97995   2.98610   3.01681   3.02108   3.03548
 Alpha virt. eigenvalues --    3.04713   3.05908   3.06941   3.08422   3.09555
 Alpha virt. eigenvalues --    3.15966   3.18594   3.19347   3.20367   3.22227
 Alpha virt. eigenvalues --    3.22733   3.24781   3.25875   3.28617   3.30116
 Alpha virt. eigenvalues --    3.30739   3.31690   3.35674   3.37872   3.40376
 Alpha virt. eigenvalues --    3.42144   3.46610   3.47305   3.48348   3.50963
 Alpha virt. eigenvalues --    3.59631   3.61179   3.61702   3.63580   3.65310
 Alpha virt. eigenvalues --    3.65705   3.69165   3.70334   3.74616   3.77695
 Alpha virt. eigenvalues --    3.78914   3.79860   3.80558   3.81092   3.87337
 Alpha virt. eigenvalues --    3.90053   3.90133   3.94115   4.02960   4.05724
 Alpha virt. eigenvalues --    4.08422   4.10551   4.13759   4.14653   4.16808
 Alpha virt. eigenvalues --    4.27526   4.28808   4.29966   4.31262   4.37204
 Alpha virt. eigenvalues --    4.53373   4.76387   4.94294   4.94817   5.02828
 Alpha virt. eigenvalues --    5.14183   5.18425   5.18485   5.42492   5.63127
 Alpha virt. eigenvalues --    5.89068   5.93512  23.72220  23.79994  23.95451
 Alpha virt. eigenvalues --   24.02547  24.04196  24.06186  24.06560  24.08819
 Alpha virt. eigenvalues --   24.10099  24.10365  24.16001  24.16604  24.24339
 Alpha virt. eigenvalues --   24.26489  24.32394  24.33095  24.33368  35.74785
 Alpha virt. eigenvalues --   50.13509  50.19005
          Condensed to atoms (all electrons):
               1          2          3          4          5          6
     1  H    0.602987   0.963737  -0.328159  -0.077970   0.074693  -0.025286
     2  C    0.963737  19.481766  -4.247610  -2.182428   1.841963  -0.164617
     3  C   -0.328159  -4.247610  10.693390  -2.336180  -0.680657   0.444143
     4  C   -0.077970  -2.182428  -2.336180  21.746821   0.107508   0.042402
     5  C    0.074693   1.841963  -0.680657   0.107508   7.357627  -0.102443
     6  H   -0.025286  -0.164617   0.444143   0.042402  -0.102443   0.484297
     7  C   -0.028596  -4.392000   0.791457   2.163090  -0.689172   0.052615
     8  C    0.004671  -1.406297   1.536080  -1.553377  -1.614045   0.016914
     9  C    0.098996   2.709174  -1.030482  -2.080216   0.707507   0.006572
    10  H    0.002743  -0.033786  -0.056081   0.092023   0.439260  -0.011454
    11  O   -0.003043  -0.055382   0.001936   0.043382   0.014977   0.000304
    12  C   -0.212491  -3.049189   1.126420  -7.350891  -0.747500   0.019332
    13  O   -0.007949  -0.299734   0.009702   0.011750  -0.023053   0.001008
    14  H   -0.000066   0.023122  -0.003737  -0.087246  -0.031597   0.001455
    15  H    0.001590   0.038336   0.005107  -0.134469  -0.002574   0.000276
    16  C   -0.170725  -1.866244   0.558750  -3.611960  -0.239773   0.010981
    17  H   -0.041681  -0.215448   0.037820   0.095825  -0.021268   0.006202
    18  C    0.049053   0.290829  -0.225782   0.686340   0.043234  -0.004372
    19  H    0.000389   0.021033   0.013104  -0.171465  -0.004598  -0.000101
    20  C   -0.032355  -0.223647   0.090041  -0.933925  -0.024033   0.001054
    21  C   -0.001762   0.029747   0.035558  -0.029770  -0.000311   0.000309
    22  C    0.019005   0.020614  -0.033598   0.044468   0.000880  -0.001225
    23  H   -0.005445  -0.020231  -0.003436  -0.026352  -0.001092  -0.000169
    24  C   -0.003020   0.034473   0.012389  -0.138586  -0.000161   0.000057
    25  H    0.000281  -0.003552  -0.001004   0.025218   0.000179  -0.000003
    26  C    0.001581  -0.003461  -0.000207  -0.076624  -0.000470  -0.000182
    27  H    0.000218   0.002584  -0.000528   0.005834   0.000179  -0.000003
    28  H    0.000007   0.000529  -0.000011  -0.002306   0.000004  -0.000001
    29  N    0.000028  -0.000024  -0.000001   0.000411   0.000001   0.000000
    30  C    0.000164  -0.000414  -0.000212   0.001991   0.000005  -0.000003
    31  C    0.000004   0.000128   0.000022  -0.000911   0.000000   0.000000
    32  H   -0.000016   0.000045   0.000038  -0.000227   0.000000   0.000000
    33  H    0.000007  -0.000028  -0.000012   0.000115   0.000000   0.000000
    34  H    0.000021  -0.000035   0.000012  -0.000163  -0.000003   0.000000
    35  H    0.000000   0.000002   0.000001   0.000046   0.000000   0.000000
    36  H   -0.000002   0.000015   0.000003  -0.000061   0.000000   0.000000
    37  H    0.000002  -0.000028  -0.000004   0.000087   0.000000   0.000000
               7          8          9         10         11         12
     1  H   -0.028596   0.004671   0.098996   0.002743  -0.003043  -0.212491
     2  C   -4.392000  -1.406297   2.709174  -0.033786  -0.055382  -3.049189
     3  C    0.791457   1.536080  -1.030482  -0.056081   0.001936   1.126420
     4  C    2.163090  -1.553377  -2.080216   0.092023   0.043382  -7.350891
     5  C   -0.689172  -1.614045   0.707507   0.439260   0.014977  -0.747500
     6  H    0.052615   0.016914   0.006572  -0.011454   0.000304   0.019332
     7  C   18.415868  -4.805806  -1.710008   0.006792   0.369978  -3.281056
     8  C   -4.805806  19.044153  -1.932878  -0.010061  -0.017980  -0.057291
     9  C   -1.710008  -1.932878  10.284316  -0.088927  -0.396384  -0.508751
    10  H    0.006792  -0.010061  -0.088927   0.478553   0.000849  -0.009594
    11  O    0.369978  -0.017980  -0.396384   0.000849   8.089236  -0.020389
    12  C   -3.281056  -0.057291  -0.508751  -0.009594  -0.020389  16.822957
    13  O    0.041179   0.814327  -0.101284  -0.000262   0.011938  -0.332259
    14  H   -0.149119  -0.004557   0.584263  -0.011999  -0.026183   0.004478
    15  H    0.007771   0.065469   0.049413  -0.000325   0.251587  -0.004737
    16  C   -0.962424  -4.217686  -0.154029  -0.002947   0.037787   5.477484
    17  H    0.024599  -0.173751  -0.053232  -0.001080  -0.000243   0.811056
    18  C    0.116425   2.202023   0.046171   0.000613   0.000311  -2.206299
    19  H   -0.072232   0.060251  -0.001069  -0.000030  -0.000731   0.080217
    20  C   -0.017312  -1.590777   0.036765  -0.000397   0.001005  -0.360967
    21  C   -0.026818  -0.012367  -0.017826   0.000026  -0.000981   0.100671
    22  C    0.029486   0.463179   0.008897   0.000029   0.000130  -0.746164
    23  H    0.009153  -0.017012   0.004722  -0.000016   0.000151  -0.127700
    24  C   -0.028933  -0.384853  -0.004537   0.000001  -0.000196   0.615600
    25  H    0.008379   0.032647   0.000500   0.000001  -0.000001   0.023795
    26  C    0.003647  -0.152005   0.001225  -0.000006  -0.000030  -0.348838
    27  H   -0.000631   0.010387  -0.000217   0.000004  -0.000002   0.041922
    28  H   -0.000509  -0.000232  -0.000017   0.000000   0.000001  -0.017876
    29  N    0.000011   0.002224  -0.000001   0.000000   0.000000   0.004207
    30  C    0.000077   0.006983   0.000004   0.000000   0.000000   0.012745
    31  C   -0.000024  -0.002053  -0.000002   0.000000   0.000000  -0.008193
    32  H   -0.000001  -0.000548   0.000000   0.000000   0.000000  -0.001481
    33  H    0.000003   0.000444   0.000000   0.000000   0.000000   0.000881
    34  H    0.000000  -0.000594   0.000002   0.000000   0.000000  -0.001280
    35  H    0.000005  -0.000001   0.000000   0.000000   0.000000   0.000647
    36  H   -0.000003  -0.000258   0.000000   0.000000   0.000000  -0.000244
    37  H    0.000009   0.000231   0.000001   0.000000   0.000000   0.000217
              13         14         15         16         17         18
     1  H   -0.007949  -0.000066   0.001590  -0.170725  -0.041681   0.049053
     2  C   -0.299734   0.023122   0.038336  -1.866244  -0.215448   0.290829
     3  C    0.009702  -0.003737   0.005107   0.558750   0.037820  -0.225782
     4  C    0.011750  -0.087246  -0.134469  -3.611960   0.095825   0.686340
     5  C   -0.023053  -0.031597  -0.002574  -0.239773  -0.021268   0.043234
     6  H    0.001008   0.001455   0.000276   0.010981   0.006202  -0.004372
     7  C    0.041179  -0.149119   0.007771  -0.962424   0.024599   0.116425
     8  C    0.814327  -0.004557   0.065469  -4.217686  -0.173751   2.202023
     9  C   -0.101284   0.584263   0.049413  -0.154029  -0.053232   0.046171
    10  H   -0.000262  -0.011999  -0.000325  -0.002947  -0.001080   0.000613
    11  O    0.011938  -0.026183   0.251587   0.037787  -0.000243   0.000311
    12  C   -0.332259   0.004478  -0.004737   5.477484   0.811056  -2.206299
    13  O    8.089911   0.001164   0.072968   0.009128   0.010407   0.017990
    14  H    0.001164   0.458718   0.002042   0.002796   0.000280  -0.000867
    15  H    0.072968   0.002042   0.298786  -0.020902   0.000985   0.001453
    16  C    0.009128   0.002796  -0.020902  11.536046   0.133215  -2.035641
    17  H    0.010407   0.000280   0.000985   0.133215   0.884409  -0.044216
    18  C    0.017990  -0.000867   0.001453  -2.035641  -0.044216  12.188940
    19  H   -0.009850  -0.000115  -0.000231   0.385984   0.001240  -0.141856
    20  C   -0.009268   0.000321  -0.007341   1.526861  -0.107043  -0.523420
    21  C   -0.008100  -0.000001   0.002336  -0.659784   0.037923   0.186948
    22  C   -0.001915  -0.000011   0.000315  -0.597220  -0.172852  -0.633451
    23  H    0.000464  -0.000003  -0.000317  -0.024141  -0.050435  -0.140104
    24  C   -0.000230  -0.000007  -0.000351   0.698010   0.043093  -2.729097
    25  H    0.000929   0.000009   0.000161   0.014417   0.003350  -0.068666
    26  C   -0.000746   0.000006  -0.000468  -0.038829  -0.054126  -1.972050
    27  H    0.000057  -0.000001   0.000030   0.010190   0.012193   0.155943
    28  H    0.000027  -0.000001   0.000002  -0.002618  -0.000915  -0.013574
    29  N   -0.000002   0.000000   0.000002  -0.003088  -0.000876  -0.024019
    30  C   -0.000005   0.000000   0.000003  -0.015109  -0.001021   0.016155
    31  C    0.000003   0.000000  -0.000004   0.016802  -0.000226  -0.146426
    32  H    0.000000   0.000000  -0.000001   0.000772  -0.000294  -0.009309
    33  H    0.000000   0.000000   0.000000  -0.001625  -0.000003   0.008220
    34  H    0.000000   0.000000  -0.000001  -0.000285  -0.000392  -0.016167
    35  H   -0.000001   0.000000   0.000000  -0.000848  -0.000016   0.000477
    36  H    0.000000   0.000000   0.000000   0.002047   0.000026  -0.007168
    37  H   -0.000001   0.000000   0.000000  -0.000863   0.000081   0.009549
              19         20         21         22         23         24
     1  H    0.000389  -0.032355  -0.001762   0.019005  -0.005445  -0.003020
     2  C    0.021033  -0.223647   0.029747   0.020614  -0.020231   0.034473
     3  C    0.013104   0.090041   0.035558  -0.033598  -0.003436   0.012389
     4  C   -0.171465  -0.933925  -0.029770   0.044468  -0.026352  -0.138586
     5  C   -0.004598  -0.024033  -0.000311   0.000880  -0.001092  -0.000161
     6  H   -0.000101   0.001054   0.000309  -0.001225  -0.000169   0.000057
     7  C   -0.072232  -0.017312  -0.026818   0.029486   0.009153  -0.028933
     8  C    0.060251  -1.590777  -0.012367   0.463179  -0.017012  -0.384853
     9  C   -0.001069   0.036765  -0.017826   0.008897   0.004722  -0.004537
    10  H   -0.000030  -0.000397   0.000026   0.000029  -0.000016   0.000001
    11  O   -0.000731   0.001005  -0.000981   0.000130   0.000151  -0.000196
    12  C    0.080217  -0.360967   0.100671  -0.746164  -0.127700   0.615600
    13  O   -0.009850  -0.009268  -0.008100  -0.001915   0.000464  -0.000230
    14  H   -0.000115   0.000321  -0.000001  -0.000011  -0.000003  -0.000007
    15  H   -0.000231  -0.007341   0.002336   0.000315  -0.000317  -0.000351
    16  C    0.385984   1.526861  -0.659784  -0.597220  -0.024141   0.698010
    17  H    0.001240  -0.107043   0.037923  -0.172852  -0.050435   0.043093
    18  C   -0.141856  -0.523420   0.186948  -0.633451  -0.140104  -2.729097
    19  H    0.467870   0.046680   0.034162   0.006581   0.002083   0.035768
    20  C    0.046680  10.707785  -1.235913   1.185830   0.427493  -1.127130
    21  C    0.034162  -1.235913  10.410796  -1.057482   0.040359   0.591438
    22  C    0.006581   1.185830  -1.057482   8.954693   0.065049  -1.747659
    23  H    0.002083   0.427493   0.040359   0.065049   0.575956  -0.014498
    24  C    0.035768  -1.127130   0.591438  -1.747659  -0.014498   9.962218
    25  H   -0.008403  -0.058767   0.289653   0.011170  -0.004468  -0.002048
    26  C    0.016148  -1.055511  -2.411217   0.407132   0.182570   0.185308
    27  H   -0.000521   0.013745  -0.021661   0.352253  -0.040742  -0.011694
    28  H    0.002415  -0.009664   0.053357  -0.030462   0.001816   0.489082
    29  N   -0.000698  -0.028928   0.053129  -0.273395  -0.001106  -0.260286
    30  C   -0.000158  -0.035997  -0.008283   0.121205   0.004238  -0.176027
    31  C   -0.000534  -0.050252  -0.061438  -0.161336   0.001319   0.220086
    32  H    0.000067   0.004931  -0.009103   0.041996   0.002447  -0.011236
    33  H   -0.000029   0.002224   0.011855   0.027826  -0.000369   0.000339
    34  H    0.000090  -0.024557  -0.001824   0.007948   0.002272  -0.005105
    35  H   -0.000057  -0.004751  -0.015193  -0.004450  -0.000006   0.007406
    36  H    0.000002   0.003284  -0.016382   0.006671  -0.000261   0.025217
    37  H   -0.000160  -0.002827   0.005979  -0.006067  -0.000326   0.022850
              25         26         27         28         29         30
     1  H    0.000281   0.001581   0.000218   0.000007   0.000028   0.000164
     2  C   -0.003552  -0.003461   0.002584   0.000529  -0.000024  -0.000414
     3  C   -0.001004  -0.000207  -0.000528  -0.000011  -0.000001  -0.000212
     4  C    0.025218  -0.076624   0.005834  -0.002306   0.000411   0.001991
     5  C    0.000179  -0.000470   0.000179   0.000004   0.000001   0.000005
     6  H   -0.000003  -0.000182  -0.000003  -0.000001   0.000000  -0.000003
     7  C    0.008379   0.003647  -0.000631  -0.000509   0.000011   0.000077
     8  C    0.032647  -0.152005   0.010387  -0.000232   0.002224   0.006983
     9  C    0.000500   0.001225  -0.000217  -0.000017  -0.000001   0.000004
    10  H    0.000001  -0.000006   0.000004   0.000000   0.000000   0.000000
    11  O   -0.000001  -0.000030  -0.000002   0.000001   0.000000   0.000000
    12  C    0.023795  -0.348838   0.041922  -0.017876   0.004207   0.012745
    13  O    0.000929  -0.000746   0.000057   0.000027  -0.000002  -0.000005
    14  H    0.000009   0.000006  -0.000001  -0.000001   0.000000   0.000000
    15  H    0.000161  -0.000468   0.000030   0.000002   0.000002   0.000003
    16  C    0.014417  -0.038829   0.010190  -0.002618  -0.003088  -0.015109
    17  H    0.003350  -0.054126   0.012193  -0.000915  -0.000876  -0.001021
    18  C   -0.068666  -1.972050   0.155943  -0.013574  -0.024019   0.016155
    19  H   -0.008403   0.016148  -0.000521   0.002415  -0.000698  -0.000158
    20  C   -0.058767  -1.055511   0.013745  -0.009664  -0.028928  -0.035997
    21  C    0.289653  -2.411217  -0.021661   0.053357   0.053129  -0.008283
    22  C    0.011170   0.407132   0.352253  -0.030462  -0.273395   0.121205
    23  H   -0.004468   0.182570  -0.040742   0.001816  -0.001106   0.004238
    24  C   -0.002048   0.185308  -0.011694   0.489082  -0.260286  -0.176027
    25  H    0.496185   0.040388   0.001397  -0.015148  -0.001316   0.000022
    26  C    0.040388  12.310467  -0.254194  -0.115765   0.248939  -0.200207
    27  H    0.001397  -0.254194   0.539939   0.000111  -0.036934   0.016589
    28  H   -0.015148  -0.115765   0.000111   0.512291  -0.032119  -0.005031
    29  N   -0.001316   0.248939  -0.036934  -0.032119   6.995986   0.306322
    30  C    0.000022  -0.200207   0.016589  -0.005031   0.306322   5.243870
    31  C    0.003904  -0.097868  -0.007948   0.009413   0.309203  -0.121905
    32  H   -0.000118  -0.018260  -0.013912  -0.000258  -0.051800   0.417441
    33  H   -0.000135  -0.029521   0.009272   0.001611  -0.045944   0.402702
    34  H   -0.000132   0.038918  -0.014139  -0.000692  -0.059759   0.421875
    35  H    0.000679   0.004958  -0.000674  -0.011846  -0.059125  -0.001923
    36  H    0.000067   0.003735   0.001409   0.004633  -0.045834  -0.013343
    37  H    0.000583  -0.026044   0.000092  -0.005189  -0.054110   0.000514
              31         32         33         34         35         36
     1  H    0.000004  -0.000016   0.000007   0.000021   0.000000  -0.000002
     2  C    0.000128   0.000045  -0.000028  -0.000035   0.000002   0.000015
     3  C    0.000022   0.000038  -0.000012   0.000012   0.000001   0.000003
     4  C   -0.000911  -0.000227   0.000115  -0.000163   0.000046  -0.000061
     5  C    0.000000   0.000000   0.000000  -0.000003   0.000000   0.000000
     6  H    0.000000   0.000000   0.000000   0.000000   0.000000   0.000000
     7  C   -0.000024  -0.000001   0.000003   0.000000   0.000005  -0.000003
     8  C   -0.002053  -0.000548   0.000444  -0.000594  -0.000001  -0.000258
     9  C   -0.000002   0.000000   0.000000   0.000002   0.000000   0.000000
    10  H    0.000000   0.000000   0.000000   0.000000   0.000000   0.000000
    11  O    0.000000   0.000000   0.000000   0.000000   0.000000   0.000000
    12  C   -0.008193  -0.001481   0.000881  -0.001280   0.000647  -0.000244
    13  O    0.000003   0.000000   0.000000   0.000000  -0.000001   0.000000
    14  H    0.000000   0.000000   0.000000   0.000000   0.000000   0.000000
    15  H   -0.000004  -0.000001   0.000000  -0.000001   0.000000   0.000000
    16  C    0.016802   0.000772  -0.001625  -0.000285  -0.000848   0.002047
    17  H   -0.000226  -0.000294  -0.000003  -0.000392  -0.000016   0.000026
    18  C   -0.146426  -0.009309   0.008220  -0.016167   0.000477  -0.007168
    19  H   -0.000534   0.000067  -0.000029   0.000090  -0.000057   0.000002
    20  C   -0.050252   0.004931   0.002224  -0.024557  -0.004751   0.003284
    21  C   -0.061438  -0.009103   0.011855  -0.001824  -0.015193  -0.016382
    22  C   -0.161336   0.041996   0.027826   0.007948  -0.004450   0.006671
    23  H    0.001319   0.002447  -0.000369   0.002272  -0.000006  -0.000261
    24  C    0.220086  -0.011236   0.000339  -0.005105   0.007406   0.025217
    25  H    0.003904  -0.000118  -0.000135  -0.000132   0.000679   0.000067
    26  C   -0.097868  -0.018260  -0.029521   0.038918   0.004958   0.003735
    27  H   -0.007948  -0.013912   0.009272  -0.014139  -0.000674   0.001409
    28  H    0.009413  -0.000258   0.001611  -0.000692  -0.011846   0.004633
    29  N    0.309203  -0.051800  -0.045944  -0.059759  -0.059125  -0.045834
    30  C   -0.121905   0.417441   0.402702   0.421875  -0.001923  -0.013343
    31  C    5.256656   0.001966  -0.015950  -0.000244   0.434751   0.402058
    32  H    0.001966   0.560118  -0.022735  -0.066051   0.002252  -0.001136
    33  H   -0.015950  -0.022735   0.505648  -0.021816  -0.003040   0.013277
    34  H   -0.000244  -0.066051  -0.021816   0.574471  -0.001524  -0.002143
    35  H    0.434751   0.002252  -0.003040  -0.001524   0.553313  -0.016905
    36  H    0.402058  -0.001136   0.013277  -0.002143  -0.016905   0.511277
    37  H    0.407364  -0.003135  -0.001316   0.002178  -0.064466  -0.024989
              37
     1  H    0.000002
     2  C   -0.000028
     3  C   -0.000004
     4  C    0.000087
     5  C    0.000000
     6  H    0.000000
     7  C    0.000009
     8  C    0.000231
     9  C    0.000001
    10  H    0.000000
    11  O    0.000000
    12  C    0.000217
    13  O   -0.000001
    14  H    0.000000
    15  H    0.000000
    16  C   -0.000863
    17  H    0.000081
    18  C    0.009549
    19  H   -0.000160
    20  C   -0.002827
    21  C    0.005979
    22  C   -0.006067
    23  H   -0.000326
    24  C    0.022850
    25  H    0.000583
    26  C   -0.026044
    27  H    0.000092
    28  H   -0.005189
    29  N   -0.054110
    30  C    0.000514
    31  C    0.407364
    32  H   -0.003135
    33  H   -0.001316
    34  H    0.002178
    35  H   -0.064466
    36  H   -0.024989
    37  H    0.567313
 Mulliken charges:
               1
     1  H    0.118387
     2  C   -1.293940
     3  C   -0.408274
     4  C    1.727819
     5  C   -0.405267
     6  H    0.221939
     7  C    0.124099
     8  C   -0.305556
     9  C   -0.458666
    10  H    0.206069
    11  O   -0.302025
    12  C    0.250563
    13  O   -0.298296
    14  H    0.236855
    15  H    0.373088
    16  C    0.205471
    17  H   -0.163588
    18  C    0.921810
    19  H    0.238751
    20  C   -0.583241
    21  C   -0.288030
    22  C   -0.308071
    23  H    0.158138
    24  C   -0.297683
    25  H    0.209848
    26  C   -0.588392
    27  H    0.229454
    28  H    0.188937
    29  N    0.058902
    30  C   -0.393267
    31  C   -0.388367
    32  H    0.177546
    33  H    0.158099
    34  H    0.169118
    35  H    0.180285
    36  H    0.155008
    37  H    0.172476
 Sum of Mulliken charges =   0.00000
 Mulliken charges with hydrogens summed into heavy atoms:
               1
     2  C   -1.175553
     3  C   -0.186335
     4  C    1.727819
     5  C   -0.199198
     7  C    0.124099
     8  C   -0.305556
     9  C   -0.221811
    11  O    0.071063
    12  C    0.086976
    13  O   -0.298296
    16  C    0.444222
    18  C    0.921810
    20  C   -0.425103
    21  C   -0.078182
    22  C   -0.078617
    24  C   -0.108746
    26  C   -0.588392
    29  N    0.058902
    30  C    0.111496
    31  C    0.119403
 Electronic spatial extent (au):  <R**2>=          17477.3412
 Charge=              0.0000 electrons
 Dipole moment (field-independent basis, Debye):
    X=             -6.1496    Y=             -1.5054    Z=              5.4139  Tot=              8.3303
 Quadrupole moment (field-independent basis, Debye-Ang):
   XX=           -111.9382   YY=           -120.6392   ZZ=           -154.0814
   XY=            -20.2034   XZ=             25.7543   YZ=              6.7542
 Traceless Quadrupole moment (field-independent basis, Debye-Ang):
   XX=             16.9481   YY=              8.2471   ZZ=            -25.1952
   XY=            -20.2034   XZ=             25.7543   YZ=              6.7542
 Octapole moment (field-independent basis, Debye-Ang**2):
  XXX=           -727.2918  YYY=           -371.9131  ZZZ=           1316.2025  XYY=           -265.5193
  XXY=           -182.6086  XXZ=            460.7611  XZZ=           -401.2232  YZZ=           -172.3090
  YYZ=            373.9742  XYZ=             75.9734
 Hexadecapole moment (field-independent basis, Debye-Ang**3):
 XXXX=         -12674.0950 YYYY=          -1591.1899 ZZZZ=         -10294.1128 XXXY=           -735.1819
 XXXZ=           4204.1028 YYYX=            -80.2549 YYYZ=           1194.0838 ZZZX=           5091.6901
 ZZZY=           1545.7245 XXYY=          -2627.2555 XXZZ=          -4557.8054 YYZZ=          -1826.2705
 XXYZ=            743.7385 YYXZ=           1497.5498 ZZXY=           -395.8534
 N-N= 1.361992310789D+03 E-N=-4.733399946090D+03  KE= 8.595829348388D+02
 Leave Link  601 at Mon Nov  6 18:08:26 2017, MaxMem=  3758096384 cpu:         1.3
 (Enter /share/apps/gaussian/g09_D01/g09/l9999.exe)
 1\1\GINC-SM10\SP\RwB97XD TD-FC\6-311++G(d,p)\C17H17N1O2\BTX008\06-Nov-
 2017\0\\#p wb97xd 6-311++G** td=(nstates=4) nosymm\\mon-2\\0,1\H,0,4.5
 86562,-0.257428,-2.302973\C,0,5.369065,-0.106492,-3.036445\C,0,6.58723
 9,-0.724225,-2.826585\C,0,5.129762,0.685921,-4.172085\C,0,7.612955,-0.
 564627,-3.76237\H,0,6.739848,-1.320168,-1.937033\C,0,6.179721,0.834057
 ,-5.111168\C,0,3.834426,1.366965,-4.413002\C,0,7.411315,0.203251,-4.89
 51\H,0,8.573074,-1.042087,-3.592484\O,0,6.042273,1.568535,-6.223921\C,
 0,2.713999,1.147196,-3.506876\O,0,3.711335,2.118505,-5.403431\H,0,8.19
 0439,0.346837,-5.634811\H,0,5.128658,1.955482,-6.165692\C,0,1.55318,1.
 816832,-3.687907\H,0,2.816266,0.423167,-2.707822\C,0,0.328537,1.665698
 ,-2.93403\H,0,1.526054,2.534904,-4.507779\C,0,0.16283,0.724619,-1.9025
 47\C,0,-0.783628,2.456231,-3.26071\C,0,-1.034337,0.579822,-1.239351\H,
 0,0.986531,0.083543,-1.60425\C,0,-1.988207,2.341016,-2.59716\H,0,-0.69
 4703,3.185366,-4.059292\C,0,-2.14634,1.399583,-1.557364\H,0,-1.104064,
 -0.171463,-0.463821\H,0,-2.812123,2.976462,-2.891809\N,0,-3.324563,1.2
 78708,-0.876482\C,0,-3.420947,0.310926,0.195687\C,0,-4.428357,2.173857
 ,-1.155642\H,0,-3.293094,-0.713452,-0.172237\H,0,-4.39665,0.380419,0.6
 67154\H,0,-2.669344,0.486702,0.972238\H,0,-4.159833,3.223223,-0.980153
 \H,0,-5.263302,1.926751,-0.498926\H,0,-4.775999,2.082495,-2.191528\\Ve
 rsion=ES64L-G09RevD.01\HF=-863.1690442\RMSD=7.039e-09\PG=C01 [X(C17H17
 N1O2)]\\@


 IF YOU GIVE EVERYONE A PIECE OF YOUR MIND,
 PRETTY SOON IT WILL BE ALL GONE.
 Job cpu time:       0 days  5 hours 27 minutes 20.6 seconds.
 File lengths (MBytes):  RWF=    454 Int=      0 D2E=      0 Chk=     52 Scr=      1
 Normal termination of Gaussian 09 at Mon Nov  6 18:08:28 2017.
