 Entering Gaussian System, Link 0=g09
 Input=mon-1.com
 Output=mon-1.out
 Initial command:
 /share/apps/gaussian/g09_D01/g09/l1.exe "/tmp/163005.1.all.q/Gau-19504.inp" -scrdir="/tmp/163005.1.all.q/"
 Entering Link 1 = /share/apps/gaussian/g09_D01/g09/l1.exe PID=     19505.
  
 Copyright (c) 1988,1990,1992,1993,1995,1998,2003,2009,2013,
            Gaussian, Inc.  All Rights Reserved.
  
 This is part of the Gaussian(R) 09 program.  It is based on
 the Gaussian(R) 03 system (copyright 2003, Gaussian, Inc.),
 the Gaussian(R) 98 system (copyright 1998, Gaussian, Inc.),
 the Gaussian(R) 94 system (copyright 1995, Gaussian, Inc.),
 the Gaussian 92(TM) system (copyright 1992, Gaussian, Inc.),
 the Gaussian 90(TM) system (copyright 1990, Gaussian, Inc.),
 the Gaussian 88(TM) system (copyright 1988, Gaussian, Inc.),
 the Gaussian 86(TM) system (copyright 1986, Carnegie Mellon
 University), and the Gaussian 82(TM) system (copyright 1983,
 Carnegie Mellon University). Gaussian is a federally registered
 trademark of Gaussian, Inc.
  
 This software contains proprietary and confidential information,
 including trade secrets, belonging to Gaussian, Inc.
  
 This software is provided under written license and may be
 used, copied, transmitted, or stored only in accord with that
 written license.
  
 The following legend is applicable only to US Government
 contracts under FAR:
  
                    RESTRICTED RIGHTS LEGEND
  
 Use, reproduction and disclosure by the US Government is
 subject to restrictions as set forth in subparagraphs (a)
 and (c) of the Commercial Computer Software - Restricted
 Rights clause in FAR 52.227-19.
  
 Gaussian, Inc.
 340 Quinnipiac St., Bldg. 40, Wallingford CT 06492
  
  
 ---------------------------------------------------------------
 Warning -- This program may not be used in any manner that
 competes with the business of Gaussian, Inc. or will provide
 assistance to any competitor of Gaussian, Inc.  The licensee
 of this program is prohibited from giving any competitor of
 Gaussian, Inc. access to this program.  By using this program,
 the user acknowledges that Gaussian, Inc. is engaged in the
 business of creating and licensing software in the field of
 computational chemistry and represents and warrants to the
 licensee that it is not a competitor of Gaussian, Inc. and that
 it will not use this program in any manner prohibited above.
 ---------------------------------------------------------------
  

 Cite this work as:
 Gaussian 09, Revision D.01,
 M. J. Frisch, G. W. Trucks, H. B. Schlegel, G. E. Scuseria, 
 M. A. Robb, J. R. Cheeseman, G. Scalmani, V. Barone, B. Mennucci, 
 G. A. Petersson, H. Nakatsuji, M. Caricato, X. Li, H. P. Hratchian, 
 A. F. Izmaylov, J. Bloino, G. Zheng, J. L. Sonnenberg, M. Hada, 
 M. Ehara, K. Toyota, R. Fukuda, J. Hasegawa, M. Ishida, T. Nakajima, 
 Y. Honda, O. Kitao, H. Nakai, T. Vreven, J. A. Montgomery, Jr., 
 J. E. Peralta, F. Ogliaro, M. Bearpark, J. J. Heyd, E. Brothers, 
 K. N. Kudin, V. N. Staroverov, T. Keith, R. Kobayashi, J. Normand, 
 K. Raghavachari, A. Rendell, J. C. Burant, S. S. Iyengar, J. Tomasi, 
 M. Cossi, N. Rega, J. M. Millam, M. Klene, J. E. Knox, J. B. Cross, 
 V. Bakken, C. Adamo, J. Jaramillo, R. Gomperts, R. E. Stratmann, 
 O. Yazyev, A. J. Austin, R. Cammi, C. Pomelli, J. W. Ochterski, 
 R. L. Martin, K. Morokuma, V. G. Zakrzewski, G. A. Voth, 
 P. Salvador, J. J. Dannenberg, S. Dapprich, A. D. Daniels, 
 O. Farkas, J. B. Foresman, J. V. Ortiz, J. Cioslowski, 
 and D. J. Fox, Gaussian, Inc., Wallingford CT, 2013.
 
 ******************************************
 Gaussian 09:  ES64L-G09RevD.01 24-Apr-2013
                 6-Nov-2017 
 ******************************************
 %chk=mon-1.chk
 %nproc=4
 Will use up to    4 processors via shared memory.
 %mem=28GB
 ------------------------------------------
 #p wb97xd 6-311++G** td=(nstates=4) nosymm
 ------------------------------------------
 1/38=1/1;
 2/12=2,15=1,17=6,18=5,40=1/2;
 3/5=4,6=6,7=1111,11=9,16=1,25=1,30=1,74=-58/1,2,8,3;
 4//1;
 5/5=2,38=5/2;
 8/6=1,10=2,108=4/1;
 9/41=4,42=1,70=2/14;
 6/7=2,8=2,9=2,10=2/1;
 99/5=1,9=1/99;
 Leave Link    1 at Mon Nov  6 16:46:55 2017, MaxMem=  3758096384 cpu:         0.1
 (Enter /share/apps/gaussian/g09_D01/g09/l101.exe)
 -----
 mon-1
 -----
 Symbolic Z-matrix:
 Charge =  0 Multiplicity = 1
 C                     3.46964  -0.76214   0.4261 
 C                     4.69485  -0.12317   0.63983 
 C                     2.43566  -0.67023   1.38924 
 O                     3.31284  -1.44232  -0.72254 
 C                     4.90431   0.60537   1.79681 
 H                     5.4611   -0.22464  -0.12003 
 C                     2.6899    0.07205   2.55547 
 C                     1.14155  -1.34494   1.13827 
 H                     2.42156  -1.87445  -0.64407 
 C                     3.89872   0.70837   2.76097 
 H                     5.85715   1.09684   1.96622 
 H                     1.92512   0.15598   3.31556 
 C                     0.01917  -1.15268   2.05354 
 O                     1.00751  -2.06225   0.12369 
 H                     4.06591   1.27432   3.66663 
 C                    -1.13054  -1.83978   1.87322 
 H                     0.112    -0.42846   2.85319 
 C                    -2.36194  -1.70592   2.62344 
 H                    -1.14874  -2.55418   1.04973 
 C                    -2.54713  -0.77289   3.65722 
 C                    -3.46767  -2.49362   2.27394 
 C                    -3.75792  -0.63135   4.29794 
 H                    -1.72705  -0.13761   3.97409 
 C                    -4.68534  -2.38142   2.91386 
 H                    -3.36305  -3.21747   1.47431 
 C                    -4.86438  -1.44594   3.95458 
 H                    -3.84633   0.11953   5.07026 
 H                    -5.50196  -3.01507   2.59904 
 N                    -6.05803  -1.32895   4.6113 
 C                    -6.17552  -0.39239   5.70751 
 C                    -7.14932  -2.23276   4.31158 
 H                    -6.05718   0.64332   5.36907 
 H                    -7.15699  -0.49391   6.162 
 H                    -5.43095  -0.58962   6.48664 
 H                    -6.88603  -3.27762   4.51965 
 H                    -8.01137  -1.97221   4.92681 
 H                    -7.45593  -2.15998   3.26224 
 
 NAtoms=     37 NQM=       37 NQMF=       0 NMMI=      0 NMMIF=      0
                NMic=       0 NMicF=      0.
                    Isotopes and Nuclear Properties:
 (Nuclear quadrupole moments (NQMom) in fm**2, nuclear magnetic moments (NMagM)
  in nuclear magnetons)

  Atom         1           2           3           4           5           6           7           8           9          10
 IAtWgt=          12          12          12          16          12           1          12          12           1          12
 AtmWgt=  12.0000000  12.0000000  12.0000000  15.9949146  12.0000000   1.0078250  12.0000000  12.0000000   1.0078250  12.0000000
 NucSpn=           0           0           0           0           0           1           0           0           1           0
 AtZEff=   0.0000000   0.0000000   0.0000000   0.0000000   0.0000000   0.0000000   0.0000000   0.0000000   0.0000000   0.0000000
 NQMom=    0.0000000   0.0000000   0.0000000   0.0000000   0.0000000   0.0000000   0.0000000   0.0000000   0.0000000   0.0000000
 NMagM=    0.0000000   0.0000000   0.0000000   0.0000000   0.0000000   2.7928460   0.0000000   0.0000000   2.7928460   0.0000000
 AtZNuc=   6.0000000   6.0000000   6.0000000   8.0000000   6.0000000   1.0000000   6.0000000   6.0000000   1.0000000   6.0000000

  Atom        11          12          13          14          15          16          17          18          19          20
 IAtWgt=           1           1          12          16           1          12           1          12           1          12
 AtmWgt=   1.0078250   1.0078250  12.0000000  15.9949146   1.0078250  12.0000000   1.0078250  12.0000000   1.0078250  12.0000000
 NucSpn=           1           1           0           0           1           0           1           0           1           0
 AtZEff=   0.0000000   0.0000000   0.0000000   0.0000000   0.0000000   0.0000000   0.0000000   0.0000000   0.0000000   0.0000000
 NQMom=    0.0000000   0.0000000   0.0000000   0.0000000   0.0000000   0.0000000   0.0000000   0.0000000   0.0000000   0.0000000
 NMagM=    2.7928460   2.7928460   0.0000000   0.0000000   2.7928460   0.0000000   2.7928460   0.0000000   2.7928460   0.0000000
 AtZNuc=   1.0000000   1.0000000   6.0000000   8.0000000   1.0000000   6.0000000   1.0000000   6.0000000   1.0000000   6.0000000

  Atom        21          22          23          24          25          26          27          28          29          30
 IAtWgt=          12          12           1          12           1          12           1           1          14          12
 AtmWgt=  12.0000000  12.0000000   1.0078250  12.0000000   1.0078250  12.0000000   1.0078250   1.0078250  14.0030740  12.0000000
 NucSpn=           0           0           1           0           1           0           1           1           2           0
 AtZEff=   0.0000000   0.0000000   0.0000000   0.0000000   0.0000000   0.0000000   0.0000000   0.0000000   0.0000000   0.0000000
 NQMom=    0.0000000   0.0000000   0.0000000   0.0000000   0.0000000   0.0000000   0.0000000   0.0000000   2.0440000   0.0000000
 NMagM=    0.0000000   0.0000000   2.7928460   0.0000000   2.7928460   0.0000000   2.7928460   2.7928460   0.4037610   0.0000000
 AtZNuc=   6.0000000   6.0000000   1.0000000   6.0000000   1.0000000   6.0000000   1.0000000   1.0000000   7.0000000   6.0000000

  Atom        31          32          33          34          35          36          37
 IAtWgt=          12           1           1           1           1           1           1
 AtmWgt=  12.0000000   1.0078250   1.0078250   1.0078250   1.0078250   1.0078250   1.0078250
 NucSpn=           0           1           1           1           1           1           1
 AtZEff=   0.0000000   0.0000000   0.0000000   0.0000000   0.0000000   0.0000000   0.0000000
 NQMom=    0.0000000   0.0000000   0.0000000   0.0000000   0.0000000   0.0000000   0.0000000
 NMagM=    0.0000000   2.7928460   2.7928460   2.7928460   2.7928460   2.7928460   2.7928460
 AtZNuc=   6.0000000   1.0000000   1.0000000   1.0000000   1.0000000   1.0000000   1.0000000
 Leave Link  101 at Mon Nov  6 16:46:55 2017, MaxMem=  3758096384 cpu:         0.3
 (Enter /share/apps/gaussian/g09_D01/g09/l202.exe)
                          Input orientation:                          
 ---------------------------------------------------------------------
 Center     Atomic      Atomic             Coordinates (Angstroms)
 Number     Number       Type             X           Y           Z
 ---------------------------------------------------------------------
      1          6           0        3.469637   -0.762135    0.426097
      2          6           0        4.694846   -0.123167    0.639832
      3          6           0        2.435655   -0.670227    1.389238
      4          8           0        3.312841   -1.442316   -0.722541
      5          6           0        4.904305    0.605365    1.796811
      6          1           0        5.461105   -0.224636   -0.120030
      7          6           0        2.689903    0.072047    2.555468
      8          6           0        1.141554   -1.344944    1.138267
      9          1           0        2.421564   -1.874450   -0.644066
     10          6           0        3.898719    0.708372    2.760969
     11          1           0        5.857150    1.096835    1.966215
     12          1           0        1.925122    0.155975    3.315560
     13          6           0        0.019172   -1.152682    2.053535
     14          8           0        1.007505   -2.062253    0.123686
     15          1           0        4.065909    1.274317    3.666625
     16          6           0       -1.130542   -1.839782    1.873217
     17          1           0        0.112004   -0.428463    2.853188
     18          6           0       -2.361938   -1.705922    2.623443
     19          1           0       -1.148735   -2.554182    1.049733
     20          6           0       -2.547126   -0.772889    3.657215
     21          6           0       -3.467667   -2.493615    2.273935
     22          6           0       -3.757917   -0.631349    4.297941
     23          1           0       -1.727048   -0.137611    3.974085
     24          6           0       -4.685337   -2.381422    2.913860
     25          1           0       -3.363046   -3.217472    1.474305
     26          6           0       -4.864384   -1.445940    3.954581
     27          1           0       -3.846333    0.119529    5.070263
     28          1           0       -5.501955   -3.015075    2.599042
     29          7           0       -6.058026   -1.328952    4.611296
     30          6           0       -6.175522   -0.392391    5.707507
     31          6           0       -7.149324   -2.232755    4.311584
     32          1           0       -6.057178    0.643319    5.369066
     33          1           0       -7.156988   -0.493911    6.162005
     34          1           0       -5.430953   -0.589622    6.486644
     35          1           0       -6.886034   -3.277620    4.519652
     36          1           0       -8.011369   -1.972206    4.926811
     37          1           0       -7.455926   -2.159977    3.262240
 ---------------------------------------------------------------------
                    Distance matrix (angstroms):
                    1          2          3          4          5
     1  C    0.000000
     2  C    1.398249   0.000000
     3  C    1.416053   2.442300   0.000000
     4  O    1.344098   2.346519   2.413542   0.000000
     5  C    2.409810   1.383196   2.808466   3.615645   0.000000
     6  H    2.133801   1.083900   3.410248   2.541811   2.161760
     7  C    2.416209   2.779850   1.405598   3.664245   2.400743
     8  C    2.503362   3.790391   1.480853   2.861219   4.289019
     9  H    1.865731   3.143755   2.363192   0.993616   4.274502
    10  C    2.792513   2.413400   2.433667   4.135644   1.396930
    11  H    3.395284   2.144446   3.893846   4.488898   1.085428
    12  H    3.402565   3.861193   2.157306   4.559228   3.374030
    13  C    3.834943   4.992032   2.552145   4.317261   5.198188
    14  O    2.800688   4.197969   2.361984   2.532784   5.010048
    15  H    3.873461   3.392639   3.409614   5.216511   2.155599
    16  C    4.941369   6.197028   3.784159   5.161356   6.511832
    17  H    4.156418   5.098489   2.756983   4.905007   5.015065
    18  C    6.302883   7.499202   5.060911   6.593043   7.669658
    19  H    4.992966   6.342341   4.063545   4.927764   6.868781
    20  C    6.829471   7.872287   5.475616   7.346401   7.802853
    21  C    7.385033   8.655399   6.241526   7.487282   8.939868
    22  C    8.200355   9.224381   6.842689   8.709680   9.100506
    23  H    6.323273   7.235895   4.928814   7.011493   7.019072
    24  C    8.678402   9.912555   7.480721   8.836073  10.105935
    25  H    7.335733   8.671833   6.334085   7.248778   9.114120
    26  C    9.075996  10.203733   7.776457   9.420323  10.212302
    27  H    8.710283   9.624934   7.323731   9.340755   9.355490
    28  H    9.501941  10.778515   8.364663   9.550242  11.047235
    29  N   10.421782  11.526088   9.108139  10.783126  11.481969
    30  C   11.002686  11.996613   9.637272  11.509861  11.792015
    31  C   11.402722  12.578414  10.141668  11.637186  12.636019
    32  H   10.824438  11.771116   9.470620  11.369028  11.528944
    33  H   12.078814  13.080436  10.715838  12.566374  12.873932
    34  H   10.769424  11.701906   9.374090  11.364566  11.412278
    35  H   11.415988  12.614292  10.173096  11.613181  12.708404
    36  H   12.390892  13.536803  11.106299  12.666242  13.537186
    37  H   11.373900  12.596304  10.176977  11.504776  12.750291
                    6          7          8          9         10
     6  H    0.000000
     7  C    3.863401   0.000000
     8  C    4.636477   2.532530   0.000000
     9  H    3.497901   3.754714   2.257324   0.000000
    10  C    3.407596   1.381440   3.801477   4.521860   0.000000
    11  H    2.501111   3.380660   5.374442   5.238831   2.148951
    12  H    4.944828   1.081515   2.758141   4.477468   2.123158
    13  C    5.932983   2.980722   1.460966   3.683679   4.360604
    14  O    4.823980   3.646815   1.249750   1.619962   4.794866
    15  H    4.304903   2.138578   4.669580   5.585755   1.080953
    16  C    7.073298   4.326240   2.438737   4.353777   5.707421
    17  H    6.123271   2.642860   2.200197   4.433478   3.954758
    18  C    8.421452   5.356015   3.822370   5.795421   6.711450
    19  H    7.105288   4.888707   2.591432   4.009741   6.248950
    20  C    8.871298   5.417955   4.503188   6.663508   6.674302
    21  C    9.518524   6.676642   4.884066   6.601601   8.046960
    22  C   10.231043   6.716052   5.873464   8.009664   7.923459
    23  H    8.272780   4.643909   4.210510   6.446310   5.816923
    24  C   10.807706   7.780882   6.178970   7.963912   9.124485
    25  H    9.453286   6.973381   4.889857   6.304991   8.354698
    26  C   11.167352   7.831287   6.634238   8.626483   9.102623
    27  H   10.662363   7.003487   6.517997   8.712981   8.103419
    28  H   11.634801   8.754357   7.004242   8.637183  10.112515
    29  N   12.501813   9.094806   7.993506   9.990988  10.330110
    30  C   13.015353   9.420553   8.678993  10.791148  10.553866
    31  C   13.516459  10.257019   8.921704  10.783726  11.537499
    32  H   12.788837   9.206200   8.583390  10.695138  10.292050
    33  H   14.097969  10.501842   9.737967  11.831194  11.629324
    34  H   12.744343   9.046560   8.507261  10.684560  10.129572
    35  H   13.538804  10.333289   8.922509  10.736119  11.631509
    36  H   14.492486  11.149864   9.925851  11.827524  12.398652
    37  H   13.492034  10.412459   8.893380  10.625703  11.722059
                   11         12         13         14         15
    11  H    0.000000
    12  H    4.262252   0.000000
    13  C    6.256991   2.633996   0.000000
    14  O    6.074027   3.993822   2.351263   0.000000
    15  H    2.476174   2.440677   4.986829   5.747952   0.000000
    16  C    7.580251   3.924345   1.351467   2.771569   6.317992
    17  H    6.009988   1.960294   1.082846   3.304750   4.381153
    18  C    8.708663   4.724888   2.510091   4.210570   7.161513
    19  H    7.953131   4.682683   2.082265   2.397692   6.978398
    20  C    8.774235   4.580450   3.049905   5.175296   6.922671
    21  C    9.996911   6.098154   3.742289   4.983654   8.537662
    22  C   10.043559   5.820815   4.424426   6.494701   8.077275
    23  H    7.942006   3.722659   2.787143   5.099765   5.970463
    24  C   11.141828   7.092102   4.937850   6.347865   9.513958
    25  H   10.191528   6.537208   4.004780   4.718095   8.953871
    26  C   11.196901   7.005132   5.248723   7.038088   9.339853
    27  H   10.234638   6.032413   5.065698   7.265572   8.118332
    28  H   12.097005   8.107430   5.852258   7.029106  10.539575
    29  N   12.443967   8.222809   6.595874   8.402268  10.495879
    30  C   12.688588   8.464192   7.232136   9.250047  10.574972
    31  C   13.629207   9.436295   7.592936   9.170683  11.768474
    32  H   12.399044   8.256604   7.151251   9.205644  10.284617
    33  H   13.766006   9.539881   8.295226  10.275210  11.632152
    34  H   12.275980   8.045093   7.047933   9.171130  10.080534
    35  H   13.712937   9.532884   7.634066   9.116446  11.890872
    36  H   14.509306  10.288787   8.568368  10.218523  12.569353
    37  H   13.766790   9.662843   7.638894   9.027167  12.029571
                   16         17         18         19         20
    16  C    0.000000
    17  H    2.120397   0.000000
    18  C    1.448135   2.793756   0.000000
    19  H    1.090332   3.059509   2.160548   0.000000
    20  C    2.515476   2.799297   1.404824   3.453616   0.000000
    21  C    2.459721   4.173060   1.401875   2.622934   2.392019
    22  C    3.773950   4.135790   2.430516   4.588679   1.377163
    23  H    2.768908   2.173273   2.164929   3.837460   1.084672
    24  C    3.743378   5.179982   2.436970   4.001546   2.777031
    25  H    2.653532   4.664318   2.146513   2.350189   3.377397
    26  C    4.292874   5.197380   2.846358   4.844831   2.431277
    27  H    4.629851   4.569918   3.394500   5.530861   2.116850
    28  H    4.584472   6.186412   3.402085   4.643631   3.857220
    29  N    5.660223   6.478510   4.213636   6.187654   3.680475
    30  C    6.499888   6.905174   5.077424   7.185874   4.184941
    31  C    6.505828   7.622944   5.103571   6.837401   4.872334
    32  H    6.531347   6.748123   5.168382   7.278287   4.154100
    33  H    7.518186   7.986914   6.081356   8.153474   5.253820
    34  H    6.429630   6.629657   5.058587   7.194226   4.044220
    35  H    6.495898   7.737398   5.151047   6.743908   5.083660
    36  H    7.529127   8.524802   6.106757   7.903555   5.736566
    37  H    6.484011   7.774254   5.153925   6.695614   5.116281
                   21         22         23         24         25
    21  C    0.000000
    22  C    2.765661   0.000000
    23  H    3.386889   2.114968   0.000000
    24  C    1.380149   2.416308   3.861378   0.000000
    25  H    1.083662   3.849269   4.290796   2.125971   0.000000
    26  C    2.423430   1.416236   3.399262   1.410774   3.397662
    27  H    3.845954   1.080794   2.399812   3.407163   4.929509
    28  H    2.125075   3.407356   4.941707   1.080505   2.425063
    29  N    3.678268   2.423911   4.536816   2.423480   4.546442
    30  C    4.851498   2.808699   4.781065   3.739166   5.814732
    31  C    4.216000   3.750510   5.822767   2.836718   4.832776
    32  H    5.111336   2.838783   4.615826   4.130259   6.110091
    33  H    5.720751   3.879086   5.864997   4.496910   6.617123
    34  H    5.022609   2.755215   4.498464   4.065867   6.025394
    35  H    4.164510   4.103294   6.064028   2.867892   4.657167
    36  H    5.287234   4.503913   6.615596   3.909209   5.922617
    37  H    4.122411   4.133358   6.116922   2.801173   4.589845
                   26         27         28         29         30
    26  C    0.000000
    27  H    2.175286   0.000000
    28  H    2.169370   4.321315   0.000000
    29  N    1.367385   2.683344   2.683541   0.000000
    30  C    2.429362   2.468454   4.122465   1.446593   0.000000
    31  C    2.442843   4.125359   2.501729   1.448316   2.506757
    32  H    2.790794   2.291610   4.622245   2.112834   1.096012
    33  H    3.321914   3.539583   4.667988   2.075984   1.086347
    34  H    2.732329   2.240547   4.582719   2.111104   1.095599
    35  H    2.785934   4.591686   2.381879   2.119269   3.200058
    36  H    3.335521   4.662988   3.578162   2.080595   2.544727
    37  H    2.775838   4.636190   2.233613   2.112979   3.277671
                   31         32         33         34         35
    31  C    0.000000
    32  H    3.253130   0.000000
    33  H    2.539231   1.769640   0.000000
    34  H    3.222355   1.777999   1.758905   0.000000
    35  H    1.097432   4.096617   3.243420   3.634784   0.000000
    36  H    1.090647   3.294757   2.107374   3.317102   1.770950
    37  H    1.095639   3.775405   3.357645   4.118654   1.776229
                   36         37
    36  H    0.000000
    37  H    1.764815   0.000000
 Symmetry turned off by external request.
 Stoichiometry    C17H17NO2
 Framework group  C1[X(C17H17NO2)]
 Deg. of freedom   105
 Full point group                 C1      NOp   1
 Rotational constants (GHZ):      1.1036607      0.1073078      0.0981716
 Leave Link  202 at Mon Nov  6 16:46:55 2017, MaxMem=  3758096384 cpu:         0.0
 (Enter /share/apps/gaussian/g09_D01/g09/l301.exe)
 Standard basis: 6-311++G(d,p) (5D, 7F)
 Ernie: Thresh=  0.10000D-02 Tol=  0.10000D-05 Strict=F.
   559 basis functions,   873 primitive gaussians,   579 cartesian basis functions
    71 alpha electrons       71 beta electrons
       nuclear repulsion energy      1361.5864904900 Hartrees.
 IExCor= 4639 DFT=T Ex+Corr=wB97XD ExCW=0 ScaHFX=  1.000000
 ScaDFX=  1.000000  1.000000  1.000000  1.000000 ScalE2=  1.000000  1.000000
 IRadAn=      0 IRanWt=     -1 IRanGd=            0 ICorTp=0 IEmpDi=121
  HFx wShort=  0.000000 wLong=  0.200000 cFull=  0.222036 cShort=  0.000000 cLong=  0.777964
  DFx wShort=  0.000000 wLong=  0.200000 cFull=  0.000000 cShort=  0.000000 cLong=  1.000000
 NAtoms=   37 NActive=   37 NUniq=   37 SFac= 1.00D+00 NAtFMM=   60 NAOKFM=F Big=F
 Integral buffers will be    131072 words long.
 Raffenetti 1 integral format.
 Two-electron integral symmetry is turned off.
 R6Disp:  Grimme-D2 Dispersion energy=       -0.0228850443 Hartrees.
 Nuclear repulsion after empirical dispersion term =     1361.5636054457 Hartrees.
 Leave Link  301 at Mon Nov  6 16:46:55 2017, MaxMem=  3758096384 cpu:         0.1
 (Enter /share/apps/gaussian/g09_D01/g09/l302.exe)
 NPDir=0 NMtPBC=     1 NCelOv=     1 NCel=       1 NClECP=     1 NCelD=      1
         NCelK=      1 NCelE2=     1 NClLst=     1 CellRange=     0.0.
 One-electron integrals computed using PRISM.
 NBasis=   559 RedAO= T EigKep=  1.14D-06  NBF=   559
 NBsUse=   553 1.00D-06 EigRej=  7.16D-07 NBFU=   553
 Precomputing XC quadrature grid using
 IXCGrd= 4 IRadAn=           0 IRanWt=          -1 IRanGd=           0 AccXCQ= 0.00D+00.
 Generated NRdTot=       0 NPtTot=           0 NUsed=           0 NTot=          32
 NSgBfM=   560   562   565   565   565 MxSgAt=    37 MxSgA2=    37.
 Leave Link  302 at Mon Nov  6 16:46:56 2017, MaxMem=  3758096384 cpu:         3.0
 (Enter /share/apps/gaussian/g09_D01/g09/l308.exe)
 Leave Link  308 at Mon Nov  6 16:46:56 2017, MaxMem=  3758096384 cpu:         0.4
 (Enter /share/apps/gaussian/g09_D01/g09/l303.exe)
 DipDrv:  MaxL=1.
 Leave Link  303 at Mon Nov  6 16:46:56 2017, MaxMem=  3758096384 cpu:         0.2
 (Enter /share/apps/gaussian/g09_D01/g09/l401.exe)
 ExpMin= 3.60D-02 ExpMax= 8.59D+03 ExpMxC= 1.30D+03 IAcc=3 IRadAn=         5 AccDes= 0.00D+00
 Harris functional with IExCor= 4639 and IRadAn=       5 diagonalized for initial guess.
 HarFok:  IExCor= 4639 AccDes= 0.00D+00 IRadAn=         5 IDoV= 1 UseB2=F ITyADJ=14
 ICtDFT=  3500011 ScaDFX=  1.000000  1.000000  1.000000  1.000000
 FoFCou: FMM=F IPFlag=           0 FMFlag=      100000 FMFlg1=           0
         NFxFlg=           0 DoJE=T BraDBF=F KetDBF=T FulRan=T
         wScrn=  0.000000 ICntrl=     500 IOpCl=  0 I1Cent=   200000004 NGrid=           0
         NMat0=    1 NMatS0=      1 NMatT0=    0 NMatD0=    1 NMtDS0=    0 NMtDT0=    0
 Symmetry not used in FoFCou.
 Harris En= -825.459960967302    
 JPrj=0 DoOrth=F DoCkMO=F.
 Leave Link  401 at Mon Nov  6 16:47:07 2017, MaxMem=  3758096384 cpu:        42.7
 (Enter /share/apps/gaussian/g09_D01/g09/l502.exe)
 Closed shell SCF:
 Using DIIS extrapolation, IDIIS=  1040.
 Two-electron integral symmetry not used.
 IVT=     1031295 IEndB=     1031295 NGot=  3758096384 MDV=  3757417550
 LenX=  3757417550 LenY=  3757081730
 Requested convergence on RMS density matrix=1.00D-08 within 128 cycles.
 Requested convergence on MAX density matrix=1.00D-06.
 Requested convergence on             energy=1.00D-06.
 No special actions if energy rises.
 Fock matrices will be formed incrementally for  20 cycles.

 Cycle   1  Pass 1  IDiag  1:
 FoFJK:  IHMeth= 1 ICntrl=       0 DoSepK=T KAlg= 0 I1Cent=   0 FoldK=F
 IRaf=         1 NMat=   1 IRICut=       1 DoRegI=T DoRafI=F ISym2E= 0.
 FoFCou: FMM=F IPFlag=           0 FMFlag=      100000 FMFlg1=           0
         NFxFlg=           0 DoJE=T BraDBF=F KetDBF=F FulRan=T
         wScrn=  0.000000 ICntrl=     500 IOpCl=  0 I1Cent=           0 NGrid=           0
         NMat0=    1 NMatS0=      1 NMatT0=    0 NMatD0=    1 NMtDS0=    0 NMtDT0=    0
 Symmetry not used in FoFCou.
 E= -862.889314465437    
 DIIS: error= 4.73D-02 at cycle   1 NSaved=   1.
 NSaved= 1 IEnMin= 1 EnMin= -862.889314465437     IErMin= 1 ErrMin= 4.73D-02
 ErrMax= 4.73D-02  0.00D+00 EMaxC= 1.00D-01 BMatC= 1.86D+00 BMatP= 1.86D+00
 IDIUse=3 WtCom= 5.27D-01 WtEn= 4.73D-01
 Coeff-Com:  0.100D+01
 Coeff-En:   0.100D+01
 Coeff:      0.100D+01
 Gap=     0.292 Goal=   None    Shift=    0.000
 GapD=    0.292 DampG=1.000 DampE=0.500 DampFc=0.5000 IDamp=-1.
 Damping current iteration by 5.00D-01
 RMSDP=2.82D-02 MaxDP=3.47D+00              OVMax= 1.86D-01

 Cycle   2  Pass 1  IDiag  1:
 RMSU=  5.97D-03    CP:  8.51D-01
 E= -863.015728403591     Delta-E=       -0.126413938154 Rises=F Damp=T
 DIIS: error= 2.18D-02 at cycle   2 NSaved=   2.
 NSaved= 2 IEnMin= 2 EnMin= -863.015728403591     IErMin= 2 ErrMin= 2.18D-02
 ErrMax= 2.18D-02  0.00D+00 EMaxC= 1.00D-01 BMatC= 3.93D-01 BMatP= 1.86D+00
 IDIUse=3 WtCom= 7.82D-01 WtEn= 2.18D-01
 Coeff-Com: -0.597D+00 0.160D+01
 Coeff-En:   0.000D+00 0.100D+01
 Coeff:     -0.467D+00 0.147D+01
 Gap=     0.287 Goal=   None    Shift=    0.000
 RMSDP=1.66D-02 MaxDP=1.77D+00 DE=-1.26D-01 OVMax= 2.09D-01

 Cycle   3  Pass 1  IDiag  1:
 RMSU=  5.55D-03    CP:  6.68D-01  1.14D+00
 E= -863.057825306987     Delta-E=       -0.042096903395 Rises=F Damp=F
 DIIS: error= 2.13D-02 at cycle   3 NSaved=   3.
 NSaved= 3 IEnMin= 3 EnMin= -863.057825306987     IErMin= 3 ErrMin= 2.13D-02
 ErrMax= 2.13D-02  0.00D+00 EMaxC= 1.00D-01 BMatC= 1.29D-01 BMatP= 3.93D-01
 IDIUse=3 WtCom= 7.87D-01 WtEn= 2.13D-01
 Coeff-Com: -0.386D+00 0.827D+00 0.559D+00
 Coeff-En:   0.000D+00 0.255D+00 0.745D+00
 Coeff:     -0.304D+00 0.705D+00 0.599D+00
 Gap=     0.280 Goal=   None    Shift=    0.000
 RMSDP=4.27D-03 MaxDP=3.08D-01 DE=-4.21D-02 OVMax= 1.06D-01

 Cycle   4  Pass 1  IDiag  1:
 RMSU=  1.74D-03    CP:  6.42D-01  1.47D+00  5.39D-01
 E= -863.160951068890     Delta-E=       -0.103125761904 Rises=F Damp=F
 DIIS: error= 4.64D-03 at cycle   4 NSaved=   4.
 NSaved= 4 IEnMin= 4 EnMin= -863.160951068890     IErMin= 4 ErrMin= 4.64D-03
 ErrMax= 4.64D-03  0.00D+00 EMaxC= 1.00D-01 BMatC= 9.63D-03 BMatP= 1.29D-01
 IDIUse=3 WtCom= 9.54D-01 WtEn= 4.64D-02
 Coeff-Com: -0.150D+00 0.322D+00 0.336D+00 0.492D+00
 Coeff-En:   0.000D+00 0.000D+00 0.000D+00 0.100D+01
 Coeff:     -0.143D+00 0.307D+00 0.321D+00 0.516D+00
 Gap=     0.247 Goal=   None    Shift=    0.000
 RMSDP=1.11D-03 MaxDP=6.66D-02 DE=-1.03D-01 OVMax= 2.17D-02

 Cycle   5  Pass 1  IDiag  1:
 RMSU=  5.77D-04    CP:  6.50D-01  1.48D+00  6.46D-01  8.25D-01
 E= -863.168687710090     Delta-E=       -0.007736641199 Rises=F Damp=F
 DIIS: error= 6.24D-04 at cycle   5 NSaved=   5.
 NSaved= 5 IEnMin= 5 EnMin= -863.168687710090     IErMin= 5 ErrMin= 6.24D-04
 ErrMax= 6.24D-04  0.00D+00 EMaxC= 1.00D-01 BMatC= 1.53D-04 BMatP= 9.63D-03
 IDIUse=3 WtCom= 9.94D-01 WtEn= 6.24D-03
 Coeff-Com:  0.203D-01-0.433D-01 0.677D-02 0.153D+00 0.863D+00
 Coeff-En:   0.000D+00 0.000D+00 0.000D+00 0.000D+00 0.100D+01
 Coeff:      0.201D-01-0.430D-01 0.673D-02 0.152D+00 0.864D+00
 Gap=     0.247 Goal=   None    Shift=    0.000
 RMSDP=4.19D-04 MaxDP=4.14D-02 DE=-7.74D-03 OVMax= 8.52D-03

 Cycle   6  Pass 1  IDiag  1:
 RMSU=  2.40D-04    CP:  6.48D-01  1.47D+00  6.59D-01  9.69D-01  1.03D+00
 E= -863.168898980384     Delta-E=       -0.000211270294 Rises=F Damp=F
 DIIS: error= 5.15D-04 at cycle   6 NSaved=   6.
 NSaved= 6 IEnMin= 6 EnMin= -863.168898980384     IErMin= 6 ErrMin= 5.15D-04
 ErrMax= 5.15D-04  0.00D+00 EMaxC= 1.00D-01 BMatC= 5.02D-05 BMatP= 1.53D-04
 IDIUse=3 WtCom= 9.95D-01 WtEn= 5.15D-03
 Coeff-Com:  0.286D-01-0.612D-01-0.404D-01-0.704D-03 0.436D+00 0.638D+00
 Coeff-En:   0.000D+00 0.000D+00 0.000D+00 0.000D+00 0.000D+00 0.100D+01
 Coeff:      0.284D-01-0.609D-01-0.402D-01-0.700D-03 0.434D+00 0.640D+00
 Gap=     0.248 Goal=   None    Shift=    0.000
 RMSDP=1.04D-04 MaxDP=9.47D-03 DE=-2.11D-04 OVMax= 4.45D-03

 Cycle   7  Pass 1  IDiag  1:
 RMSU=  6.03D-05    CP:  6.48D-01  1.47D+00  6.62D-01  9.97D-01  1.14D+00
                    CP:  1.01D+00
 E= -863.168962537618     Delta-E=       -0.000063557234 Rises=F Damp=F
 DIIS: error= 1.25D-04 at cycle   7 NSaved=   7.
 NSaved= 7 IEnMin= 7 EnMin= -863.168962537618     IErMin= 7 ErrMin= 1.25D-04
 ErrMax= 1.25D-04  0.00D+00 EMaxC= 1.00D-01 BMatC= 3.84D-06 BMatP= 5.02D-05
 IDIUse=3 WtCom= 9.99D-01 WtEn= 1.25D-03
 Coeff-Com:  0.269D-02-0.572D-02-0.797D-02-0.189D-01-0.317D-01 0.165D+00
 Coeff-Com:  0.897D+00
 Coeff-En:   0.000D+00 0.000D+00 0.000D+00 0.000D+00 0.000D+00 0.000D+00
 Coeff-En:   0.100D+01
 Coeff:      0.268D-02-0.571D-02-0.796D-02-0.188D-01-0.317D-01 0.165D+00
 Coeff:      0.897D+00
 Gap=     0.248 Goal=   None    Shift=    0.000
 RMSDP=6.43D-05 MaxDP=5.45D-03 DE=-6.36D-05 OVMax= 2.44D-03

 Cycle   8  Pass 1  IDiag  1:
 RMSU=  3.94D-05    CP:  6.48D-01  1.47D+00  6.65D-01  1.02D+00  1.17D+00
                    CP:  1.13D+00  1.08D+00
 E= -863.168972429356     Delta-E=       -0.000009891738 Rises=F Damp=F
 DIIS: error= 6.62D-05 at cycle   8 NSaved=   8.
 NSaved= 8 IEnMin= 8 EnMin= -863.168972429356     IErMin= 8 ErrMin= 6.62D-05
 ErrMax= 6.62D-05  0.00D+00 EMaxC= 1.00D-01 BMatC= 1.08D-06 BMatP= 3.84D-06
 IDIUse=1 WtCom= 1.00D+00 WtEn= 0.00D+00
 Coeff-Com: -0.310D-02 0.669D-02 0.238D-02-0.103D-01-0.932D-01-0.196D-01
 Coeff-Com:  0.425D+00 0.692D+00
 Coeff:     -0.310D-02 0.669D-02 0.238D-02-0.103D-01-0.932D-01-0.196D-01
 Coeff:      0.425D+00 0.692D+00
 Gap=     0.248 Goal=   None    Shift=    0.000
 RMSDP=2.69D-05 MaxDP=3.86D-03 DE=-9.89D-06 OVMax= 1.28D-03

 Cycle   9  Pass 1  IDiag  1:
 RMSU=  1.08D-05    CP:  6.48D-01  1.47D+00  6.65D-01  1.02D+00  1.18D+00
                    CP:  1.17D+00  1.21D+00  1.13D+00
 E= -863.168974869736     Delta-E=       -0.000002440380 Rises=F Damp=F
 DIIS: error= 2.74D-05 at cycle   9 NSaved=   9.
 NSaved= 9 IEnMin= 9 EnMin= -863.168974869736     IErMin= 9 ErrMin= 2.74D-05
 ErrMax= 2.74D-05  0.00D+00 EMaxC= 1.00D-01 BMatC= 1.18D-07 BMatP= 1.08D-06
 IDIUse=1 WtCom= 1.00D+00 WtEn= 0.00D+00
 Coeff-Com: -0.135D-02 0.289D-02 0.247D-02 0.953D-03-0.202D-01-0.324D-01
 Coeff-Com: -0.688D-01 0.155D+00 0.961D+00
 Coeff:     -0.135D-02 0.289D-02 0.247D-02 0.953D-03-0.202D-01-0.324D-01
 Coeff:     -0.688D-01 0.155D+00 0.961D+00
 Gap=     0.248 Goal=   None    Shift=    0.000
 RMSDP=1.03D-05 MaxDP=9.97D-04 DE=-2.44D-06 OVMax= 6.27D-04

 Cycle  10  Pass 1  IDiag  1:
 RMSU=  7.26D-06    CP:  6.48D-01  1.47D+00  6.65D-01  1.02D+00  1.18D+00
                    CP:  1.18D+00  1.26D+00  1.21D+00  1.05D+00
 E= -863.168975310140     Delta-E=       -0.000000440404 Rises=F Damp=F
 DIIS: error= 8.52D-06 at cycle  10 NSaved=  10.
 NSaved=10 IEnMin=10 EnMin= -863.168975310140     IErMin=10 ErrMin= 8.52D-06
 ErrMax= 8.52D-06  0.00D+00 EMaxC= 1.00D-01 BMatC= 1.85D-08 BMatP= 1.18D-07
 IDIUse=1 WtCom= 1.00D+00 WtEn= 0.00D+00
 Coeff-Com:  0.114D-03-0.253D-03 0.359D-03 0.194D-02 0.734D-02-0.646D-02
 Coeff-Com: -0.878D-01-0.487D-01 0.314D+00 0.819D+00
 Coeff:      0.114D-03-0.253D-03 0.359D-03 0.194D-02 0.734D-02-0.646D-02
 Coeff:     -0.878D-01-0.487D-01 0.314D+00 0.819D+00
 Gap=     0.248 Goal=   None    Shift=    0.000
 RMSDP=5.25D-06 MaxDP=4.80D-04 DE=-4.40D-07 OVMax= 2.18D-04

 Cycle  11  Pass 1  IDiag  1:
 RMSU=  1.76D-06    CP:  6.48D-01  1.47D+00  6.65D-01  1.02D+00  1.19D+00
                    CP:  1.19D+00  1.28D+00  1.25D+00  1.18D+00  1.14D+00
 E= -863.168975364998     Delta-E=       -0.000000054858 Rises=F Damp=F
 DIIS: error= 3.35D-06 at cycle  11 NSaved=  11.
 NSaved=11 IEnMin=11 EnMin= -863.168975364998     IErMin=11 ErrMin= 3.35D-06
 ErrMax= 3.35D-06  0.00D+00 EMaxC= 1.00D-01 BMatC= 3.73D-09 BMatP= 1.85D-08
 IDIUse=1 WtCom= 1.00D+00 WtEn= 0.00D+00
 Coeff-Com:  0.243D-03-0.519D-03-0.236D-03 0.696D-03 0.556D-02 0.260D-02
 Coeff-Com: -0.164D-01-0.367D-01-0.637D-01 0.281D+00 0.827D+00
 Coeff:      0.243D-03-0.519D-03-0.236D-03 0.696D-03 0.556D-02 0.260D-02
 Coeff:     -0.164D-01-0.367D-01-0.637D-01 0.281D+00 0.827D+00
 Gap=     0.248 Goal=   None    Shift=    0.000
 RMSDP=2.06D-06 MaxDP=1.13D-04 DE=-5.49D-08 OVMax= 6.26D-05

 Cycle  12  Pass 1  IDiag  1:
 RMSU=  1.20D-06    CP:  6.48D-01  1.47D+00  6.64D-01  1.02D+00  1.19D+00
                    CP:  1.18D+00  1.29D+00  1.26D+00  1.21D+00  1.22D+00
                    CP:  1.29D+00
 E= -863.168975373550     Delta-E=       -0.000000008552 Rises=F Damp=F
 DIIS: error= 2.10D-06 at cycle  12 NSaved=  12.
 NSaved=12 IEnMin=12 EnMin= -863.168975373550     IErMin=12 ErrMin= 2.10D-06
 ErrMax= 2.10D-06  0.00D+00 EMaxC= 1.00D-01 BMatC= 5.66D-10 BMatP= 3.73D-09
 IDIUse=1 WtCom= 1.00D+00 WtEn= 0.00D+00
 Coeff-Com:  0.721D-04-0.152D-03-0.134D-03 0.195D-04 0.102D-02 0.159D-02
 Coeff-Com:  0.855D-02-0.543D-02-0.748D-01-0.309D-01 0.284D+00 0.816D+00
 Coeff:      0.721D-04-0.152D-03-0.134D-03 0.195D-04 0.102D-02 0.159D-02
 Coeff:      0.855D-02-0.543D-02-0.748D-01-0.309D-01 0.284D+00 0.816D+00
 Gap=     0.248 Goal=   None    Shift=    0.000
 RMSDP=9.16D-07 MaxDP=4.77D-05 DE=-8.55D-09 OVMax= 2.24D-05

 Cycle  13  Pass 1  IDiag  1:
 RMSU=  3.44D-07    CP:  6.48D-01  1.47D+00  6.64D-01  1.02D+00  1.19D+00
                    CP:  1.18D+00  1.29D+00  1.26D+00  1.20D+00  1.29D+00
                    CP:  1.47D+00  1.19D+00
 E= -863.168975374759     Delta-E=       -0.000000001210 Rises=F Damp=F
 DIIS: error= 5.78D-07 at cycle  13 NSaved=  13.
 NSaved=13 IEnMin=13 EnMin= -863.168975374759     IErMin=13 ErrMin= 5.78D-07
 ErrMax= 5.78D-07  0.00D+00 EMaxC= 1.00D-01 BMatC= 1.15D-10 BMatP= 5.66D-10
 IDIUse=1 WtCom= 1.00D+00 WtEn= 0.00D+00
 Coeff-Com: -0.106D-04 0.234D-04-0.168D-04-0.115D-03-0.537D-03 0.859D-04
 Coeff-Com:  0.663D-02 0.379D-02-0.193D-01-0.598D-01-0.281D-01 0.354D+00
 Coeff-Com:  0.743D+00
 Coeff:     -0.106D-04 0.234D-04-0.168D-04-0.115D-03-0.537D-03 0.859D-04
 Coeff:      0.663D-02 0.379D-02-0.193D-01-0.598D-01-0.281D-01 0.354D+00
 Coeff:      0.743D+00
 Gap=     0.248 Goal=   None    Shift=    0.000
 RMSDP=3.65D-07 MaxDP=1.96D-05 DE=-1.21D-09 OVMax= 7.14D-06

 Cycle  14  Pass 1  IDiag  1:
 RMSU=  1.46D-07    CP:  6.48D-01  1.47D+00  6.64D-01  1.02D+00  1.19D+00
                    CP:  1.18D+00  1.29D+00  1.25D+00  1.19D+00  1.30D+00
                    CP:  1.50D+00  1.31D+00  9.40D-01
 E= -863.168975374940     Delta-E=       -0.000000000181 Rises=F Damp=F
 DIIS: error= 2.65D-07 at cycle  14 NSaved=  14.
 NSaved=14 IEnMin=14 EnMin= -863.168975374940     IErMin=14 ErrMin= 2.65D-07
 ErrMax= 2.65D-07  0.00D+00 EMaxC= 1.00D-01 BMatC= 7.06D-12 BMatP= 1.15D-10
 IDIUse=1 WtCom= 1.00D+00 WtEn= 0.00D+00
 Coeff-Com: -0.895D-05 0.189D-04 0.846D-05-0.372D-04-0.224D-03-0.153D-03
 Coeff-Com:  0.484D-03 0.992D-03 0.450D-02-0.846D-02-0.401D-01-0.554D-02
 Coeff-Com:  0.133D+00 0.916D+00
 Coeff:     -0.895D-05 0.189D-04 0.846D-05-0.372D-04-0.224D-03-0.153D-03
 Coeff:      0.484D-03 0.992D-03 0.450D-02-0.846D-02-0.401D-01-0.554D-02
 Coeff:      0.133D+00 0.916D+00
 Gap=     0.248 Goal=   None    Shift=    0.000
 RMSDP=1.45D-07 MaxDP=9.28D-06 DE=-1.81D-10 OVMax= 3.67D-06

 Cycle  15  Pass 1  IDiag  1:
 RMSU=  3.96D-08    CP:  6.48D-01  1.47D+00  6.64D-01  1.02D+00  1.19D+00
                    CP:  1.18D+00  1.29D+00  1.25D+00  1.19D+00  1.29D+00
                    CP:  1.50D+00  1.37D+00  1.03D+00  1.23D+00
 E= -863.168975375007     Delta-E=       -0.000000000067 Rises=F Damp=F
 DIIS: error= 1.01D-07 at cycle  15 NSaved=  15.
 NSaved=15 IEnMin=15 EnMin= -863.168975375007     IErMin=15 ErrMin= 1.01D-07
 ErrMax= 1.01D-07  0.00D+00 EMaxC= 1.00D-01 BMatC= 1.33D-12 BMatP= 7.06D-12
 IDIUse=1 WtCom= 1.00D+00 WtEn= 0.00D+00
 Coeff-Com: -0.195D-05 0.403D-05 0.508D-05 0.937D-06-0.157D-05-0.566D-04
 Coeff-Com: -0.633D-03-0.280D-03 0.378D-02 0.518D-02-0.990D-02-0.414D-01
 Coeff-Com: -0.651D-01 0.255D+00 0.853D+00
 Coeff:     -0.195D-05 0.403D-05 0.508D-05 0.937D-06-0.157D-05-0.566D-04
 Coeff:     -0.633D-03-0.280D-03 0.378D-02 0.518D-02-0.990D-02-0.414D-01
 Coeff:     -0.651D-01 0.255D+00 0.853D+00
 Gap=     0.248 Goal=   None    Shift=    0.000
 RMSDP=6.09D-08 MaxDP=4.30D-06 DE=-6.73D-11 OVMax= 1.65D-06

 Cycle  16  Pass 1  IDiag  1:
 RMSU=  1.82D-08    CP:  6.48D-01  1.47D+00  6.64D-01  1.02D+00  1.19D+00
                    CP:  1.18D+00  1.29D+00  1.25D+00  1.19D+00  1.29D+00
                    CP:  1.50D+00  1.39D+00  1.08D+00  1.36D+00  1.18D+00
 E= -863.168975375028     Delta-E=       -0.000000000021 Rises=F Damp=F
 DIIS: error= 4.00D-08 at cycle  16 NSaved=  16.
 NSaved=16 IEnMin=16 EnMin= -863.168975375028     IErMin=16 ErrMin= 4.00D-08
 ErrMax= 4.00D-08  0.00D+00 EMaxC= 1.00D-01 BMatC= 2.19D-13 BMatP= 1.33D-12
 IDIUse=1 WtCom= 1.00D+00 WtEn= 0.00D+00
 Coeff-Com:  0.775D-06-0.165D-05-0.435D-06 0.554D-05 0.352D-04 0.993D-05
 Coeff-Com: -0.144D-03-0.234D-03-0.198D-03 0.234D-02 0.425D-02-0.185D-02
 Coeff-Com: -0.377D-01-0.130D+00 0.149D+00 0.101D+01
 Coeff:      0.775D-06-0.165D-05-0.435D-06 0.554D-05 0.352D-04 0.993D-05
 Coeff:     -0.144D-03-0.234D-03-0.198D-03 0.234D-02 0.425D-02-0.185D-02
 Coeff:     -0.377D-01-0.130D+00 0.149D+00 0.101D+01
 Gap=     0.248 Goal=   None    Shift=    0.000
 RMSDP=2.53D-08 MaxDP=1.45D-06 DE=-2.09D-11 OVMax= 8.07D-07

 Cycle  17  Pass 1  IDiag  1:
 RMSU=  6.40D-09    CP:  6.48D-01  1.47D+00  6.64D-01  1.02D+00  1.19D+00
                    CP:  1.18D+00  1.29D+00  1.25D+00  1.19D+00  1.29D+00
                    CP:  1.50D+00  1.40D+00  1.08D+00  1.44D+00  1.37D+00
                    CP:  1.37D+00
 E= -863.168975375079     Delta-E=       -0.000000000051 Rises=F Damp=F
 DIIS: error= 1.35D-08 at cycle  17 NSaved=  17.
 NSaved=17 IEnMin=17 EnMin= -863.168975375079     IErMin=17 ErrMin= 1.35D-08
 ErrMax= 1.35D-08  0.00D+00 EMaxC= 1.00D-01 BMatC= 2.60D-14 BMatP= 2.19D-13
 IDIUse=1 WtCom= 1.00D+00 WtEn= 0.00D+00
 Coeff-Com:  0.259D-06-0.542D-06-0.469D-06 0.131D-05 0.805D-05 0.772D-05
 Coeff-Com:  0.447D-04-0.195D-04-0.469D-03 0.442D-05 0.178D-02 0.549D-02
 Coeff-Com: -0.727D-03-0.585D-01-0.595D-01 0.224D+00 0.888D+00
 Coeff:      0.259D-06-0.542D-06-0.469D-06 0.131D-05 0.805D-05 0.772D-05
 Coeff:      0.447D-04-0.195D-04-0.469D-03 0.442D-05 0.178D-02 0.549D-02
 Coeff:     -0.727D-03-0.585D-01-0.595D-01 0.224D+00 0.888D+00
 Gap=     0.248 Goal=   None    Shift=    0.000
 RMSDP=7.34D-09 MaxDP=5.19D-07 DE=-5.09D-11 OVMax= 2.47D-07

 SCF Done:  E(RwB97XD) =  -863.168975375     A.U. after   17 cycles
            NFock= 17  Conv=0.73D-08     -V/T= 2.0042
 KE= 8.595948211946D+02 PE=-4.732555996529D+03 EE= 1.648228594514D+03
 Leave Link  502 at Mon Nov  6 16:57:28 2017, MaxMem=  3758096384 cpu:      2482.9
 (Enter /share/apps/gaussian/g09_D01/g09/l801.exe)
 DoSCS=F DFT=T ScalE2(SS,OS)=  1.000000  1.000000
 ExpMin= 3.60D-02 ExpMax= 8.59D+03 ExpMxC= 1.30D+03 IAcc=3 IRadAn=         5 AccDes= 0.00D+00
 HarFok:  IExCor=  205 AccDes= 0.00D+00 IRadAn=         5 IDoV=-2 UseB2=F ITyADJ=14
 ICtDFT= 12500011 ScaDFX=  1.000000  1.000000  1.000000  1.000000
 Largest valence mixing into a core orbital is  5.63D-05
 Largest core mixing into a valence orbital is  1.54D-05
 Range of M.O.s used for correlation:    21   553
 NBasis=   559 NAE=    71 NBE=    71 NFC=    20 NFV=     0
 NROrb=    533 NOA=    51 NOB=    51 NVA=   482 NVB=   482

 **** Warning!!: The largest alpha MO coefficient is  0.12767155D+03

 Leave Link  801 at Mon Nov  6 16:57:28 2017, MaxMem=  3758096384 cpu:         1.3
 (Enter /share/apps/gaussian/g09_D01/g09/l914.exe)
 RHF ground state
 MDV=  3758096384 DFT=T DoStab=F Mixed=T DoRPA=T DoScal=F NonHer=T
 Would need an additional         69850200000 words for in-memory AO integral storage.
 Making orbital integer symmetry assigments:
    16 initial guesses have been made.
 Convergence on wavefunction:    0.001000000000000
 Davidson Disk Diagonalization:  ConvIn= 1.00D-03 SkipCon=T Conv= 1.00D-03.
 Max sub-space:   200 roots to seek:    16 dimension of matrix:        49164
 Iteration     1 Dimension    16 NMult     0 NNew     16
 CISAX will form    16 AO SS matrices at one time.
 NMat=    16 NSing=    16 JSym2X= 0.
 FoFJK:  IHMeth= 1 ICntrl=       0 DoSepK=T KAlg= 0 I1Cent=   0 FoldK=F
 IRaf=         1 NMat=  32 IRICut=       1 DoRegI=T DoRafI=F ISym2E= 0.
 FoFCou: FMM=F IPFlag=           0 FMFlag=      100000 FMFlg1=           0
         NFxFlg=           0 DoJE=F BraDBF=F KetDBF=F FulRan=T
         wScrn=  0.000000 ICntrl=     500 IOpCl=  0 I1Cent=           0 NGrid=           0
         NMat0=   16 NMatS0=     16 NMatT0=    0 NMatD0=   16 NMtDS0=    0 NMtDT0=    0
 Symmetry not used in FoFCou.
 New state      2 was old state     10
 New state      3 was old state      2
 New state      4 was old state      8
 Excitation Energies [eV] at current iteration:
 Root      1 :     4.042188657243924
 Root      2 :     4.367132454714385
 Root      3 :     4.733218204595814
 Root      4 :     5.119907741784469
 Root      5 :     5.428767461409460
 Root      6 :     5.830968143246976
 Root      7 :     5.922586226358057
 Root      8 :     5.981291268329408
 Root      9 :     6.119511430419606
 Root     10 :     6.231579245414190
 Root     11 :     6.382177117114153
 Root     12 :     6.520128954354184
 Root     13 :     6.557564365797249
 Root     14 :     6.641096072452307
 Root     15 :     7.323837236439790
 Root     16 :     7.619285171057973
 Iteration     2 Dimension    24 NMult    16 NNew      8
 CISAX will form     8 AO SS matrices at one time.
 NMat=     8 NSing=     8 JSym2X= 0.
 Root      1 not converged, maximum delta is    0.060117873140284
 Root      2 not converged, maximum delta is    0.095826921714532
 Root      3 not converged, maximum delta is    0.115803616701648
 Root      4 not converged, maximum delta is    0.126016483834967
 Excitation Energies [eV] at current iteration:
 Root      1 :     3.605227711096262   Change is   -0.436960946147661
 Root      2 :     3.931796375171667   Change is   -0.435336079542718
 Root      3 :     4.175414953873236   Change is   -0.557803250722578
 Root      4 :     4.592682085928903   Change is   -0.527225655855566
 Iteration     3 Dimension    32 NMult    24 NNew      8
 CISAX will form     8 AO SS matrices at one time.
 NMat=     8 NSing=     8 JSym2X= 0.
 Root      1 not converged, maximum delta is    0.012634350096704
 Root      2 not converged, maximum delta is    0.014785073440737
 Root      3 not converged, maximum delta is    0.035922425066957
 Root      4 not converged, maximum delta is    0.034439870908715
 Excitation Energies [eV] at current iteration:
 Root      1 :     3.573272526284559   Change is   -0.031955184811703
 Root      2 :     3.905856426095225   Change is   -0.025939949076442
 Root      3 :     4.122173048651147   Change is   -0.053241905222089
 Root      4 :     4.544994699322395   Change is   -0.047687386606508
 Iteration     4 Dimension    40 NMult    32 NNew      8
 CISAX will form     8 AO SS matrices at one time.
 NMat=     8 NSing=     8 JSym2X= 0.
 Root      1 not converged, maximum delta is    0.009695915874491
 Root      2 not converged, maximum delta is    0.005786096320959
 Root      3 not converged, maximum delta is    0.016444246757745
 Root      4 not converged, maximum delta is    0.012863709369304
 Excitation Energies [eV] at current iteration:
 Root      1 :     3.568702485351753   Change is   -0.004570040932806
 Root      2 :     3.903783037978972   Change is   -0.002073388116253
 Root      3 :     4.109015195911232   Change is   -0.013157852739915
 Root      4 :     4.537795522830404   Change is   -0.007199176491991
 Iteration     5 Dimension    48 NMult    40 NNew      8
 CISAX will form     8 AO SS matrices at one time.
 NMat=     8 NSing=     8 JSym2X= 0.
 Root      1 not converged, maximum delta is    0.003091415107275
 Root      2 not converged, maximum delta is    0.001921933696269
 Root      3 not converged, maximum delta is    0.004732471576993
 Root      4 not converged, maximum delta is    0.002566068121405
 Excitation Energies [eV] at current iteration:
 Root      1 :     3.568174141638426   Change is   -0.000528343713327
 Root      2 :     3.903627386665438   Change is   -0.000155651313534
 Root      3 :     4.107187901936747   Change is   -0.001827293974484
 Root      4 :     4.537214520925614   Change is   -0.000581001904789
 Iteration     6 Dimension    56 NMult    48 NNew      8
 CISAX will form     8 AO SS matrices at one time.
 NMat=     8 NSing=     8 JSym2X= 0.
 Root      1 has converged.
 Root      2 has converged.
 Root      3 not converged, maximum delta is    0.001432171115549
 Root      4 not converged, maximum delta is    0.001468229722325
 Excitation Energies [eV] at current iteration:
 Root      1 :     3.568116557121622   Change is   -0.000057584516805
 Root      2 :     3.903608381522095   Change is   -0.000019005143343
 Root      3 :     4.106931241393107   Change is   -0.000256660543641
 Root      4 :     4.537144312917794   Change is   -0.000070208007820
 Iteration     7 Dimension    60 NMult    56 NNew      4
 CISAX will form     4 AO SS matrices at one time.
 NMat=     4 NSing=     4 JSym2X= 0.
 Root      1 has converged.
 Root      2 has converged.
 Root      3 has converged.
 Root      4 has converged.
 Excitation Energies [eV] at current iteration:
 Root      1 :     3.568116395402635   Change is   -0.000000161718986
 Root      2 :     3.903608093881607   Change is   -0.000000287640488
 Root      3 :     4.106909836002206   Change is   -0.000021405390901
 Root      4 :     4.537136382712966   Change is   -0.000007930204829
 Convergence achieved on expansion vectors.
 ***********************************************************************
 Excited states from <AA,BB:AA,BB> singles matrix:
 ***********************************************************************
 
 1PDM for each excited state written to RWF  633
 Ground to excited state transition densities written to RWF  633
 Ground to excited state transition electric dipole moments (Au):
       state          X           Y           Z        Dip. S.      Osc.
         1        -3.3674     -0.3065      1.3237     13.1856      1.1526
         2        -0.2719     -0.0242      0.0799      0.0809      0.0077
         3        -0.0592      0.1519      0.0726      0.0319      0.0032
         4        -0.5186     -0.3747     -0.1535      0.4330      0.0481
 Ground to excited state transition velocity dipole moments (Au):
       state          X           Y           Z        Dip. S.      Osc.
         1         0.4357      0.0382     -0.1739      0.2215      1.1262
         2         0.0382      0.0018     -0.0108      0.0016      0.0073
         3         0.0059     -0.0209     -0.0061      0.0005      0.0023
         4         0.0850      0.0673      0.0318      0.0128      0.0510
 Ground to excited state transition magnetic dipole moments (Au):
       state          X           Y           Z
         1         0.3773      1.3016      1.3348
         2         0.0697      0.3834      0.6127
         3         0.4715     -0.8959      0.5878
         4        -0.3701      0.3644      0.1264
 Ground to excited state transition velocity quadrupole moments (Au):
       state          XX          YY          ZZ          XY          XZ          YZ
         1        -1.7841     -0.1495     -1.7276     -0.7845      2.6501      0.5206
         2        -0.0613      0.0239     -0.1348     -0.0480      0.1861      0.0289
         3        -2.0493      0.1152     -0.4764     -0.1068      1.0636      0.0302
         4        -0.7836     -0.3715      0.5303     -0.7119      0.1514      0.3897
 <0|del|b> * <b|rxdel|0> + <0|del|b> * <b|delr+rdel|0>
 Rotatory Strengths (R) in cgs (10**-40 erg-esu-cm/Gauss)
       state          XX          YY          ZZ    R(velocity)    E-M Angle
         1      -396.8701     61.0046    238.3317    -32.5113       91.16
         2       -14.0908     -8.2288      6.3700     -5.3165       96.44
         3        89.2434     -2.9047     -2.0906     28.0827       47.15
         4        -9.0512     59.9895    -63.4038     -4.1551       92.79
 1/2[<0|r|b>*<b|rxdel|0> + (<0|rxdel|b>*<b|r|0>)*]
 Rotatory Strengths (R) in cgs (10**-40 erg-esu-cm/Gauss)
       state          XX          YY          ZZ     R(length)
         1       898.4870    282.1200  -1249.4872    -22.9601
         2        13.3942      6.5669    -34.6340     -4.8910
         3        19.7506     96.2299    -30.1812     28.5998
         4      -135.7151     96.5580     13.7216     -8.4785
  1/2[<0|del|b>*<b|r|0> + (<0|r|b>*<b|del|0>)*] (Au)
       state          X           Y           Z        Dip. S.   Osc.(frdel)
         1        -1.4671     -0.0117     -0.2302      1.7090      1.1393
         2        -0.0104      0.0000     -0.0009      0.0113      0.0075
         3        -0.0004     -0.0032     -0.0004      0.0040      0.0026
         4        -0.0441     -0.0252     -0.0049      0.0742      0.0494

 Excitation energies and oscillator strengths:
 
 Excited state symmetry could not be determined.
 Excited State   1:      Singlet-?Sym    3.5681 eV  347.48 nm  f=1.1526  <S**2>=0.000
      66 -> 72        -0.10691
      70 -> 72        -0.14608
      71 -> 72         0.64933
      71 -> 74         0.10910
 This state for optimization and/or second-order correction.
 Total Energy, E(TD-HF/TD-KS) =  -863.037849505    
 Copying the excited state density for this state as the 1-particle RhoCI density.
 
 Excited state symmetry could not be determined.
 Excited State   2:      Singlet-?Sym    3.9036 eV  317.61 nm  f=0.0077  <S**2>=0.000
      66 -> 72        -0.12616
      68 -> 72         0.65097
      68 -> 74        -0.11581
 
 Excited state symmetry could not be determined.
 Excited State   3:      Singlet-?Sym    4.1069 eV  301.89 nm  f=0.0032  <S**2>=0.000
      70 -> 72         0.62561
      70 -> 74        -0.21414
      71 -> 72         0.14128
      71 -> 74         0.12269
 
 Excited state symmetry could not be determined.
 Excited State   4:      Singlet-?Sym    4.5371 eV  273.27 nm  f=0.0481  <S**2>=0.000
      67 -> 72        -0.24894
      67 -> 74        -0.13190
      71 -> 74        -0.25034
      71 -> 77         0.56625
 SavETr:  write IOETrn=   770 NScale= 10 NData=  16 NLR=1 NState=    4 LETran=      82.
 Leave Link  914 at Mon Nov  6 17:21:48 2017, MaxMem=  3758096384 cpu:      5840.3
 (Enter /share/apps/gaussian/g09_D01/g09/l601.exe)
 Copying SCF densities to generalized density rwf, IOpCl= 0 IROHF=0.

 **********************************************************************

            Population analysis using the SCF density.

 **********************************************************************

 Alpha  occ. eigenvalues --  -19.25500 -19.23373 -14.47214 -10.38138 -10.35663
 Alpha  occ. eigenvalues --  -10.34835 -10.33115 -10.33012 -10.31169 -10.30297
 Alpha  occ. eigenvalues --  -10.30155 -10.30085 -10.29872 -10.29790 -10.29727
 Alpha  occ. eigenvalues --  -10.29480 -10.29241 -10.28734 -10.28465 -10.28349
 Alpha  occ. eigenvalues --   -1.16334  -1.13011  -1.07686  -0.97105  -0.96227
 Alpha  occ. eigenvalues --   -0.90891  -0.87428  -0.86903  -0.84948  -0.84215
 Alpha  occ. eigenvalues --   -0.83993  -0.78890  -0.74837  -0.72261  -0.71519
 Alpha  occ. eigenvalues --   -0.69693  -0.68015  -0.64733  -0.63269  -0.61570
 Alpha  occ. eigenvalues --   -0.60596  -0.58846  -0.57848  -0.57536  -0.55876
 Alpha  occ. eigenvalues --   -0.55304  -0.54401  -0.52914  -0.52443  -0.52097
 Alpha  occ. eigenvalues --   -0.51738  -0.51391  -0.51186  -0.49867  -0.48294
 Alpha  occ. eigenvalues --   -0.48234  -0.47414  -0.47160  -0.46788  -0.45932
 Alpha  occ. eigenvalues --   -0.45509  -0.42994  -0.42659  -0.42358  -0.41105
 Alpha  occ. eigenvalues --   -0.35090  -0.34601  -0.34464  -0.33852  -0.30039
 Alpha  occ. eigenvalues --   -0.27093
 Alpha virt. eigenvalues --   -0.02271   0.02774   0.03394   0.03912   0.04432
 Alpha virt. eigenvalues --    0.04710   0.04923   0.05684   0.06331   0.06441
 Alpha virt. eigenvalues --    0.06710   0.06766   0.07946   0.08022   0.08254
 Alpha virt. eigenvalues --    0.08754   0.09367   0.09435   0.10003   0.10560
 Alpha virt. eigenvalues --    0.11036   0.11655   0.11993   0.12592   0.13130
 Alpha virt. eigenvalues --    0.13246   0.13496   0.14038   0.14370   0.14931
 Alpha virt. eigenvalues --    0.15214   0.15424   0.15892   0.15994   0.16144
 Alpha virt. eigenvalues --    0.16246   0.16685   0.16970   0.17134   0.17383
 Alpha virt. eigenvalues --    0.17535   0.17706   0.18415   0.18605   0.18937
 Alpha virt. eigenvalues --    0.19622   0.19780   0.20134   0.20342   0.20526
 Alpha virt. eigenvalues --    0.20736   0.20940   0.21318   0.21758   0.21977
 Alpha virt. eigenvalues --    0.22254   0.22420   0.22645   0.22917   0.23209
 Alpha virt. eigenvalues --    0.23597   0.23788   0.24182   0.24224   0.24735
 Alpha virt. eigenvalues --    0.25232   0.25548   0.25782   0.25972   0.26381
 Alpha virt. eigenvalues --    0.26765   0.26890   0.27208   0.27802   0.28060
 Alpha virt. eigenvalues --    0.28375   0.28643   0.29264   0.29459   0.30174
 Alpha virt. eigenvalues --    0.30604   0.30612   0.30760   0.30858   0.31468
 Alpha virt. eigenvalues --    0.31703   0.31845   0.32412   0.32877   0.33078
 Alpha virt. eigenvalues --    0.33761   0.34079   0.34384   0.34471   0.35055
 Alpha virt. eigenvalues --    0.35567   0.35823   0.35933   0.36666   0.37126
 Alpha virt. eigenvalues --    0.37474   0.37841   0.38006   0.38216   0.38823
 Alpha virt. eigenvalues --    0.39148   0.39315   0.39658   0.40241   0.40629
 Alpha virt. eigenvalues --    0.40834   0.41380   0.41555   0.42030   0.43129
 Alpha virt. eigenvalues --    0.43545   0.43836   0.44188   0.45321   0.46009
 Alpha virt. eigenvalues --    0.46201   0.46558   0.48262   0.48996   0.49039
 Alpha virt. eigenvalues --    0.49643   0.50337   0.51161   0.51883   0.52925
 Alpha virt. eigenvalues --    0.53907   0.54366   0.56363   0.57493   0.58436
 Alpha virt. eigenvalues --    0.60211   0.60898   0.61150   0.61489   0.62128
 Alpha virt. eigenvalues --    0.62325   0.62573   0.63165   0.63903   0.64138
 Alpha virt. eigenvalues --    0.64310   0.65052   0.65644   0.66210   0.66985
 Alpha virt. eigenvalues --    0.67125   0.67556   0.67922   0.68463   0.69250
 Alpha virt. eigenvalues --    0.69813   0.70328   0.71672   0.71878   0.72069
 Alpha virt. eigenvalues --    0.72536   0.73189   0.73680   0.73790   0.74499
 Alpha virt. eigenvalues --    0.75347   0.75422   0.75923   0.76528   0.76802
 Alpha virt. eigenvalues --    0.77351   0.78049   0.78682   0.79115   0.79593
 Alpha virt. eigenvalues --    0.80008   0.80738   0.81023   0.82615   0.83153
 Alpha virt. eigenvalues --    0.83909   0.84699   0.85179   0.86157   0.86862
 Alpha virt. eigenvalues --    0.87824   0.89171   0.89749   0.91066   0.91398
 Alpha virt. eigenvalues --    0.91833   0.93687   0.94016   0.94539   0.95083
 Alpha virt. eigenvalues --    0.95462   0.96702   0.97291   0.97516   0.97729
 Alpha virt. eigenvalues --    0.98825   0.98987   0.99581   1.00483   1.00947
 Alpha virt. eigenvalues --    1.01966   1.02504   1.03697   1.04264   1.05286
 Alpha virt. eigenvalues --    1.05578   1.06658   1.06787   1.07319   1.07972
 Alpha virt. eigenvalues --    1.08461   1.09559   1.10559   1.11075   1.12363
 Alpha virt. eigenvalues --    1.13055   1.13667   1.14493   1.16005   1.16273
 Alpha virt. eigenvalues --    1.17106   1.17794   1.18403   1.19592   1.20763
 Alpha virt. eigenvalues --    1.20934   1.21357   1.22468   1.22659   1.24355
 Alpha virt. eigenvalues --    1.25534   1.29770   1.31636   1.32117   1.33704
 Alpha virt. eigenvalues --    1.35056   1.36587   1.37494   1.40026   1.40449
 Alpha virt. eigenvalues --    1.42581   1.46852   1.48437   1.48747   1.50338
 Alpha virt. eigenvalues --    1.52297   1.52797   1.54162   1.55625   1.56631
 Alpha virt. eigenvalues --    1.56995   1.58508   1.59095   1.59901   1.60150
 Alpha virt. eigenvalues --    1.61805   1.62155   1.63103   1.63378   1.63461
 Alpha virt. eigenvalues --    1.63847   1.65061   1.65269   1.65431   1.65726
 Alpha virt. eigenvalues --    1.66051   1.67554   1.68721   1.69270   1.69649
 Alpha virt. eigenvalues --    1.70646   1.73281   1.74576   1.75044   1.75620
 Alpha virt. eigenvalues --    1.77701   1.78875   1.79217   1.80570   1.81230
 Alpha virt. eigenvalues --    1.81404   1.81510   1.82746   1.83210   1.84182
 Alpha virt. eigenvalues --    1.85189   1.85827   1.87295   1.87749   1.89050
 Alpha virt. eigenvalues --    1.90238   1.90947   1.94020   1.94303   1.96494
 Alpha virt. eigenvalues --    1.96922   1.98092   1.98424   2.00675   2.01124
 Alpha virt. eigenvalues --    2.01686   2.01992   2.02161   2.03808   2.04098
 Alpha virt. eigenvalues --    2.04720   2.05356   2.05805   2.07145   2.07673
 Alpha virt. eigenvalues --    2.08358   2.09462   2.11715   2.12761   2.13330
 Alpha virt. eigenvalues --    2.14926   2.15436   2.16177   2.17751   2.18142
 Alpha virt. eigenvalues --    2.19303   2.20549   2.21234   2.23053   2.25276
 Alpha virt. eigenvalues --    2.27115   2.28957   2.29979   2.32279   2.34260
 Alpha virt. eigenvalues --    2.36622   2.37180   2.38377   2.40512   2.42275
 Alpha virt. eigenvalues --    2.43256   2.43889   2.46338   2.48031   2.48647
 Alpha virt. eigenvalues --    2.51146   2.53690   2.55639   2.55792   2.56232
 Alpha virt. eigenvalues --    2.56529   2.57555   2.57938   2.58460   2.61551
 Alpha virt. eigenvalues --    2.63194   2.64816   2.68185   2.69484   2.70836
 Alpha virt. eigenvalues --    2.71188   2.73117   2.74703   2.75049   2.78049
 Alpha virt. eigenvalues --    2.78607   2.79322   2.79713   2.80072   2.80293
 Alpha virt. eigenvalues --    2.81622   2.82667   2.83086   2.83449   2.84033
 Alpha virt. eigenvalues --    2.84680   2.85091   2.85911   2.86329   2.87314
 Alpha virt. eigenvalues --    2.88703   2.89943   2.90812   2.91209   2.91873
 Alpha virt. eigenvalues --    2.92271   2.93319   2.93646   2.95184   2.95934
 Alpha virt. eigenvalues --    2.97772   2.98702   3.01787   3.02085   3.03883
 Alpha virt. eigenvalues --    3.04685   3.06126   3.06999   3.08293   3.09719
 Alpha virt. eigenvalues --    3.15099   3.18731   3.19417   3.19936   3.22105
 Alpha virt. eigenvalues --    3.22479   3.23898   3.25766   3.28453   3.29700
 Alpha virt. eigenvalues --    3.31030   3.31546   3.35501   3.37704   3.40021
 Alpha virt. eigenvalues --    3.42152   3.46549   3.47345   3.48294   3.50880
 Alpha virt. eigenvalues --    3.59333   3.61083   3.61598   3.63685   3.65098
 Alpha virt. eigenvalues --    3.65451   3.69201   3.70340   3.74528   3.77381
 Alpha virt. eigenvalues --    3.79001   3.79612   3.80211   3.81561   3.87728
 Alpha virt. eigenvalues --    3.89889   3.90068   3.94066   4.02695   4.05570
 Alpha virt. eigenvalues --    4.08221   4.11210   4.13888   4.14589   4.16668
 Alpha virt. eigenvalues --    4.27490   4.28680   4.29884   4.31141   4.36867
 Alpha virt. eigenvalues --    4.53168   4.75871   4.94301   4.94687   5.02711
 Alpha virt. eigenvalues --    5.14350   5.18465   5.18629   5.42371   5.62905
 Alpha virt. eigenvalues --    5.88758   5.93119  23.72072  23.79786  23.95339
 Alpha virt. eigenvalues --   24.02021  24.04139  24.06177  24.06868  24.08941
 Alpha virt. eigenvalues --   24.10128  24.10322  24.16288  24.16706  24.24471
 Alpha virt. eigenvalues --   24.26520  24.32502  24.33238  24.33476  35.74728
 Alpha virt. eigenvalues --   50.13269  50.18760
          Condensed to atoms (all electrons):
               1          2          3          4          5          6
     1  C   18.190589  -1.601620   2.235593   0.358717  -0.697335  -0.141894
     2  C   -1.601620  10.127897  -2.061957  -0.381066   0.680004   0.576082
     3  C    2.235593  -2.061957  21.943806   0.039192   0.164435  -0.085569
     4  O    0.358717  -0.381066   0.039192   8.091719   0.016437  -0.026150
     5  C   -0.697335   0.680004   0.164435   0.016437   7.326571  -0.035496
     6  H   -0.141894   0.576082  -0.085569  -0.026150  -0.035496   0.457833
     7  C   -4.644202   2.826401  -2.346660  -0.054595   1.750054   0.023955
     8  C   -4.801180  -2.054636  -2.203077  -0.025646  -1.623989  -0.003335
     9  H    0.028593   0.045704  -0.133142   0.246076  -0.002684   0.002109
    10  C    0.851170  -0.997910  -2.179154  -0.002588  -0.664358  -0.001895
    11  H    0.012351  -0.093779   0.092430   0.000752   0.447659  -0.011720
    12  H   -0.053804   0.101623  -0.132786  -0.002608   0.073433   0.000153
    13  C   -3.207525  -0.567074  -7.704544  -0.014939  -0.712352   0.004214
    14  O    0.030113  -0.090968   0.004637   0.013332  -0.021495   0.001071
    15  H    0.055686   0.005047   0.042988   0.000223  -0.100340   0.001379
    16  C   -0.817442  -0.081546  -3.153458   0.040558  -0.211840   0.002806
    17  H    0.051555  -0.054896   0.156038   0.000170  -0.019939   0.000173
    18  C    0.151078   0.060653   0.955941   0.002716   0.048171  -0.000868
    19  H   -0.076318  -0.001846  -0.183800  -0.000658  -0.005066  -0.000104
    20  C   -0.063886   0.027507  -1.079288   0.001887  -0.026401   0.000337
    21  C    0.018902  -0.010517   0.116211  -0.001036   0.001351  -0.000008
    22  C    0.019334   0.007936   0.000157   0.000216  -0.000005  -0.000003
    23  H    0.004071   0.004935  -0.049210   0.000094  -0.000838   0.000001
    24  C   -0.018846  -0.003753  -0.108648  -0.000244   0.000031  -0.000008
    25  H    0.008961   0.000583   0.027265   0.000016   0.000210   0.000009
    26  C    0.003091   0.001200  -0.080492  -0.000004  -0.000628   0.000007
    27  H   -0.000275  -0.000205   0.007918  -0.000003   0.000187  -0.000001
    28  H   -0.000559  -0.000021  -0.002386   0.000001   0.000003  -0.000001
    29  N    0.000013   0.000000   0.000431   0.000000   0.000001   0.000000
    30  C    0.000087   0.000005   0.001967   0.000000   0.000006   0.000000
    31  C   -0.000013  -0.000002  -0.000821   0.000000   0.000000   0.000000
    32  H    0.000000   0.000000  -0.000216   0.000000   0.000000   0.000000
    33  H    0.000003   0.000000   0.000106   0.000000   0.000000   0.000000
    34  H   -0.000004   0.000002  -0.000177   0.000000  -0.000003   0.000000
    35  H    0.000004   0.000000   0.000044   0.000000   0.000000   0.000000
    36  H   -0.000002   0.000000  -0.000051   0.000000   0.000000   0.000000
    37  H    0.000008   0.000001   0.000070   0.000000   0.000000   0.000000
               7          8          9         10         11         12
     1  C   -4.644202  -4.801180   0.028593   0.851170   0.012351  -0.053804
     2  C    2.826401  -2.054636   0.045704  -0.997910  -0.093779   0.101623
     3  C   -2.346660  -2.203077  -0.133142  -2.179154   0.092430  -0.132786
     4  O   -0.054595  -0.025646   0.246076  -0.002588   0.000752  -0.002608
     5  C    1.750054  -1.623989  -0.002684  -0.664358   0.447659   0.073433
     6  H    0.023955  -0.003335   0.002109  -0.001895  -0.011720   0.000153
     7  C   19.871085  -1.661031   0.036810  -4.459016  -0.039048   0.982346
     8  C   -1.661031  18.942819   0.055847   1.770526  -0.010995  -0.004706
     9  H    0.036810   0.055847   0.307308   0.005045  -0.000286   0.001544
    10  C   -4.459016   1.770526   0.005045  10.566863  -0.061169  -0.289663
    11  H   -0.039048  -0.010995  -0.000286  -0.061169   0.480150   0.002262
    12  H    0.982346  -0.004706   0.001544  -0.289663   0.002262   0.605424
    13  C   -2.914345   0.118162  -0.009888   1.193942  -0.009377  -0.222942
    14  O   -0.288210   0.812131   0.071237   0.005080  -0.000252  -0.007381
    15  H   -0.176994   0.018654   0.000255   0.455940  -0.011313  -0.024717
    16  C   -1.635461  -3.770532  -0.022457   0.355424  -0.002837  -0.142696
    17  H   -0.246802  -0.152522   0.000696   0.026301  -0.000890  -0.048407
    18  C    0.355492   2.136104   0.002047  -0.300556   0.000691   0.059115
    19  H    0.019583   0.056963  -0.000420   0.013476  -0.000045   0.000201
    20  C   -0.188615  -1.607740  -0.007889   0.122580  -0.000467  -0.032856
    21  C    0.001729   0.271423   0.002813   0.012670   0.000041   0.001417
    22  C    0.033163   0.402722   0.000334  -0.022965   0.000003   0.018593
    23  H   -0.008474  -0.012283  -0.000291  -0.000177  -0.000024  -0.000985
    24  C    0.024339  -0.265710  -0.000353   0.010049   0.000003  -0.003548
    25  H   -0.003314   0.038446   0.000167  -0.001067   0.000002   0.000328
    26  C   -0.000719  -0.118288  -0.000405   0.000694  -0.000010   0.002172
    27  H    0.001918   0.010672   0.000031  -0.000823   0.000005  -0.000091
    28  H    0.000480  -0.002179   0.000002  -0.000013   0.000000  -0.000010
    29  N   -0.000043   0.002050   0.000002  -0.000004   0.000000   0.000013
    30  C   -0.000344   0.007111   0.000004  -0.000192   0.000000   0.000166
    31  C    0.000120  -0.001599  -0.000003   0.000021   0.000000   0.000003
    32  H    0.000037  -0.000448  -0.000001   0.000035   0.000000  -0.000018
    33  H   -0.000023   0.000408   0.000000  -0.000011   0.000000   0.000008
    34  H   -0.000020  -0.000547  -0.000001   0.000015   0.000000   0.000027
    35  H    0.000001  -0.000028   0.000000   0.000001   0.000000   0.000000
    36  H    0.000013  -0.000183   0.000000   0.000003   0.000000  -0.000002
    37  H   -0.000026   0.000194   0.000000  -0.000004   0.000000   0.000003
              13         14         15         16         17         18
     1  C   -3.207525   0.030113   0.055686  -0.817442   0.051555   0.151078
     2  C   -0.567074  -0.090968   0.005047  -0.081546  -0.054896   0.060653
     3  C   -7.704544   0.004637   0.042988  -3.153458   0.156038   0.955941
     4  O   -0.014939   0.013332   0.000223   0.040558   0.000170   0.002716
     5  C   -0.712352  -0.021495  -0.100340  -0.211840  -0.019939   0.048171
     6  H    0.004214   0.001071   0.001379   0.002806   0.000173  -0.000868
     7  C   -2.914345  -0.288210  -0.176994  -1.635461  -0.246802   0.355492
     8  C    0.118162   0.812131   0.018654  -3.770532  -0.152522   2.136104
     9  H   -0.009888   0.071237   0.000255  -0.022457   0.000696   0.002047
    10  C    1.193942   0.005080   0.455940   0.355424   0.026301  -0.300556
    11  H   -0.009377  -0.000252  -0.011313  -0.002837  -0.000890   0.000691
    12  H   -0.222942  -0.007381  -0.024717  -0.142696  -0.048407   0.059115
    13  C   18.424270  -0.346119   0.018530   5.112866   0.806614  -3.533348
    14  O   -0.346119   8.085599   0.000898   0.019764   0.009976   0.024798
    15  H    0.018530   0.000898   0.483301   0.008599   0.006180  -0.005120
    16  C    5.112866   0.019764   0.008599  11.060621   0.073308  -2.062639
    17  H    0.806614   0.009976   0.006180   0.073308   0.892812  -0.066153
    18  C   -3.533348   0.024798  -0.005120  -2.062639  -0.066153  12.956644
    19  H    0.094487  -0.010486  -0.000071   0.400591   0.000086  -0.137320
    20  C    0.184965  -0.014810   0.001377   1.684538  -0.111756  -0.997133
    21  C   -0.436722  -0.002331   0.000148  -1.183230   0.035922   0.626416
    22  C   -0.817094  -0.002435  -0.001083  -0.520946  -0.165725  -0.630041
    23  H   -0.121410   0.000290  -0.000354  -0.015650  -0.063612  -0.162966
    24  C    0.717197   0.000637   0.000055   0.644798   0.045751  -2.563877
    25  H    0.021677   0.000964  -0.000005   0.008089   0.003558  -0.073710
    26  C   -0.310253  -0.001079  -0.000155  -0.009484  -0.051454  -1.870982
    27  H    0.039428   0.000069   0.000005   0.007835   0.012905   0.165042
    28  H   -0.021772   0.000034  -0.000001  -0.003651  -0.000881  -0.006392
    29  N    0.003515  -0.000001   0.000000  -0.004588  -0.000757  -0.021859
    30  C    0.010433  -0.000006  -0.000004  -0.017256  -0.001127   0.022389
    31  C   -0.005626   0.000002   0.000000   0.017485  -0.000209  -0.137052
    32  H   -0.000873   0.000000   0.000000   0.001355  -0.000245  -0.007542
    33  H    0.000519   0.000000   0.000000  -0.001944  -0.000016   0.007998
    34  H   -0.001044   0.000000   0.000000  -0.000507  -0.000420  -0.019462
    35  H    0.000762  -0.000001   0.000000  -0.000685   0.000001   0.002749
    36  H    0.000124   0.000000   0.000000   0.002408   0.000018  -0.007034
    37  H   -0.000284  -0.000001   0.000000  -0.001306   0.000068   0.007326
              19         20         21         22         23         24
     1  C   -0.076318  -0.063886   0.018902   0.019334   0.004071  -0.018846
     2  C   -0.001846   0.027507  -0.010517   0.007936   0.004935  -0.003753
     3  C   -0.183800  -1.079288   0.116211   0.000157  -0.049210  -0.108648
     4  O   -0.000658   0.001887  -0.001036   0.000216   0.000094  -0.000244
     5  C   -0.005066  -0.026401   0.001351  -0.000005  -0.000838   0.000031
     6  H   -0.000104   0.000337  -0.000008  -0.000003   0.000001  -0.000008
     7  C    0.019583  -0.188615   0.001729   0.033163  -0.008474   0.024339
     8  C    0.056963  -1.607740   0.271423   0.402722  -0.012283  -0.265710
     9  H   -0.000420  -0.007889   0.002813   0.000334  -0.000291  -0.000353
    10  C    0.013476   0.122580   0.012670  -0.022965  -0.000177   0.010049
    11  H   -0.000045  -0.000467   0.000041   0.000003  -0.000024   0.000003
    12  H    0.000201  -0.032856   0.001417   0.018593  -0.000985  -0.003548
    13  C    0.094487   0.184965  -0.436722  -0.817094  -0.121410   0.717197
    14  O   -0.010486  -0.014810  -0.002331  -0.002435   0.000290   0.000637
    15  H   -0.000071   0.001377   0.000148  -0.001083  -0.000354   0.000055
    16  C    0.400591   1.684538  -1.183230  -0.520946  -0.015650   0.644798
    17  H    0.000086  -0.111756   0.035922  -0.165725  -0.063612   0.045751
    18  C   -0.137320  -0.997133   0.626416  -0.630041  -0.162966  -2.563877
    19  H    0.470224   0.064009   0.024911   0.006525   0.003471   0.024014
    20  C    0.064009  11.001958  -1.546625   1.212246   0.448958  -1.086091
    21  C    0.024911  -1.546625  10.674159  -1.012879   0.028937   0.630093
    22  C    0.006525   1.212246  -1.012879   9.139897   0.083017  -1.834899
    23  H    0.003471   0.448958   0.028937   0.083017   0.590026  -0.018312
    24  C    0.024014  -1.086091   0.630093  -1.834899  -0.018312   9.730678
    25  H   -0.008543  -0.060639   0.283004   0.015680  -0.004789  -0.001152
    26  C    0.014895  -1.138670  -2.277754   0.330858   0.182654   0.064672
    27  H   -0.000894   0.015499  -0.015382   0.351006  -0.043177  -0.010074
    28  H    0.002432  -0.011889   0.082777  -0.036710   0.001817   0.491344
    29  N   -0.000703  -0.030370   0.051880  -0.273635  -0.001259  -0.244864
    30  C   -0.000277  -0.032694  -0.006558   0.135091   0.004624  -0.183174
    31  C   -0.000635  -0.048843  -0.061327  -0.155989   0.001546   0.205816
    32  H    0.000053   0.011606  -0.010275   0.047019   0.002092  -0.012332
    33  H   -0.000028   0.003299   0.011756   0.028410  -0.000352  -0.000637
    34  H    0.000119  -0.035424  -0.002085  -0.000242   0.002797  -0.003908
    35  H   -0.000050  -0.004340  -0.012893  -0.001494  -0.000097   0.005954
    36  H   -0.000014   0.003393  -0.018433   0.010033  -0.000147   0.014880
    37  H   -0.000134  -0.004605   0.008569  -0.013614  -0.000328   0.030999
              25         26         27         28         29         30
     1  C    0.008961   0.003091  -0.000275  -0.000559   0.000013   0.000087
     2  C    0.000583   0.001200  -0.000205  -0.000021   0.000000   0.000005
     3  C    0.027265  -0.080492   0.007918  -0.002386   0.000431   0.001967
     4  O    0.000016  -0.000004  -0.000003   0.000001   0.000000   0.000000
     5  C    0.000210  -0.000628   0.000187   0.000003   0.000001   0.000006
     6  H    0.000009   0.000007  -0.000001  -0.000001   0.000000   0.000000
     7  C   -0.003314  -0.000719   0.001918   0.000480  -0.000043  -0.000344
     8  C    0.038446  -0.118288   0.010672  -0.002179   0.002050   0.007111
     9  H    0.000167  -0.000405   0.000031   0.000002   0.000002   0.000004
    10  C   -0.001067   0.000694  -0.000823  -0.000013  -0.000004  -0.000192
    11  H    0.000002  -0.000010   0.000005   0.000000   0.000000   0.000000
    12  H    0.000328   0.002172  -0.000091  -0.000010   0.000013   0.000166
    13  C    0.021677  -0.310253   0.039428  -0.021772   0.003515   0.010433
    14  O    0.000964  -0.001079   0.000069   0.000034  -0.000001  -0.000006
    15  H   -0.000005  -0.000155   0.000005  -0.000001   0.000000  -0.000004
    16  C    0.008089  -0.009484   0.007835  -0.003651  -0.004588  -0.017256
    17  H    0.003558  -0.051454   0.012905  -0.000881  -0.000757  -0.001127
    18  C   -0.073710  -1.870982   0.165042  -0.006392  -0.021859   0.022389
    19  H   -0.008543   0.014895  -0.000894   0.002432  -0.000703  -0.000277
    20  C   -0.060639  -1.138670   0.015499  -0.011889  -0.030370  -0.032694
    21  C    0.283004  -2.277754  -0.015382   0.082777   0.051880  -0.006558
    22  C    0.015680   0.330858   0.351006  -0.036710  -0.273635   0.135091
    23  H   -0.004789   0.182654  -0.043177   0.001817  -0.001259   0.004624
    24  C   -0.001152   0.064672  -0.010074   0.491344  -0.244864  -0.183174
    25  H    0.498499   0.046264   0.001529  -0.016087  -0.001411   0.000164
    26  C    0.046264  12.255731  -0.270625  -0.139411   0.244687  -0.207295
    27  H    0.001529  -0.270625   0.540604   0.000352  -0.034996   0.016109
    28  H   -0.016087  -0.139411   0.000352   0.517519  -0.031389  -0.004787
    29  N   -0.001411   0.244687  -0.034996  -0.031389   6.996509   0.301647
    30  C    0.000164  -0.207295   0.016109  -0.004787   0.301647   5.239927
    31  C    0.004148  -0.095738  -0.007797   0.009001   0.304751  -0.122313
    32  H   -0.000066  -0.030362  -0.011456  -0.000349  -0.051891   0.413135
    33  H   -0.000152  -0.030376   0.008982   0.001920  -0.047567   0.404377
    34  H   -0.000169   0.061221  -0.017199  -0.000920  -0.060856   0.425743
    35  H    0.000583  -0.000655  -0.000415  -0.012385  -0.060704  -0.001653
    36  H    0.000170   0.009993   0.001043   0.003753  -0.046864  -0.013224
    37  H    0.000580  -0.024883  -0.000133  -0.004141  -0.052487   0.000233
              31         32         33         34         35         36
     1  C   -0.000013   0.000000   0.000003  -0.000004   0.000004  -0.000002
     2  C   -0.000002   0.000000   0.000000   0.000002   0.000000   0.000000
     3  C   -0.000821  -0.000216   0.000106  -0.000177   0.000044  -0.000051
     4  O    0.000000   0.000000   0.000000   0.000000   0.000000   0.000000
     5  C    0.000000   0.000000   0.000000  -0.000003   0.000000   0.000000
     6  H    0.000000   0.000000   0.000000   0.000000   0.000000   0.000000
     7  C    0.000120   0.000037  -0.000023  -0.000020   0.000001   0.000013
     8  C   -0.001599  -0.000448   0.000408  -0.000547  -0.000028  -0.000183
     9  H   -0.000003  -0.000001   0.000000  -0.000001   0.000000   0.000000
    10  C    0.000021   0.000035  -0.000011   0.000015   0.000001   0.000003
    11  H    0.000000   0.000000   0.000000   0.000000   0.000000   0.000000
    12  H    0.000003  -0.000018   0.000008   0.000027   0.000000  -0.000002
    13  C   -0.005626  -0.000873   0.000519  -0.001044   0.000762   0.000124
    14  O    0.000002   0.000000   0.000000   0.000000  -0.000001   0.000000
    15  H    0.000000   0.000000   0.000000   0.000000   0.000000   0.000000
    16  C    0.017485   0.001355  -0.001944  -0.000507  -0.000685   0.002408
    17  H   -0.000209  -0.000245  -0.000016  -0.000420   0.000001   0.000018
    18  C   -0.137052  -0.007542   0.007998  -0.019462   0.002749  -0.007034
    19  H   -0.000635   0.000053  -0.000028   0.000119  -0.000050  -0.000014
    20  C   -0.048843   0.011606   0.003299  -0.035424  -0.004340   0.003393
    21  C   -0.061327  -0.010275   0.011756  -0.002085  -0.012893  -0.018433
    22  C   -0.155989   0.047019   0.028410  -0.000242  -0.001494   0.010033
    23  H    0.001546   0.002092  -0.000352   0.002797  -0.000097  -0.000147
    24  C    0.205816  -0.012332  -0.000637  -0.003908   0.005954   0.014880
    25  H    0.004148  -0.000066  -0.000152  -0.000169   0.000583   0.000170
    26  C   -0.095738  -0.030362  -0.030376   0.061221  -0.000655   0.009993
    27  H   -0.007797  -0.011456   0.008982  -0.017199  -0.000415   0.001043
    28  H    0.009001  -0.000349   0.001920  -0.000920  -0.012385   0.003753
    29  N    0.304751  -0.051891  -0.047567  -0.060856  -0.060704  -0.046864
    30  C   -0.122313   0.413135   0.404377   0.425743  -0.001653  -0.013224
    31  C    5.257096   0.003515  -0.015615  -0.001783   0.434554   0.404197
    32  H    0.003515   0.557836  -0.023895  -0.063531   0.001989  -0.000145
    33  H   -0.015615  -0.023895   0.510419  -0.021600  -0.003344   0.013269
    34  H   -0.001783  -0.063531  -0.021600   0.573172  -0.000892  -0.002488
    35  H    0.434554   0.001989  -0.003344  -0.000892   0.549130  -0.018015
    36  H    0.404197  -0.000145   0.013269  -0.002488  -0.018015   0.516273
    37  H    0.405344  -0.003563  -0.001171   0.002309  -0.062453  -0.026114
              37
     1  C    0.000008
     2  C    0.000001
     3  C    0.000070
     4  O    0.000000
     5  C    0.000000
     6  H    0.000000
     7  C   -0.000026
     8  C    0.000194
     9  H    0.000000
    10  C   -0.000004
    11  H    0.000000
    12  H    0.000003
    13  C   -0.000284
    14  O   -0.000001
    15  H    0.000000
    16  C   -0.001306
    17  H    0.000068
    18  C    0.007326
    19  H   -0.000134
    20  C   -0.004605
    21  C    0.008569
    22  C   -0.013614
    23  H   -0.000328
    24  C    0.030999
    25  H    0.000580
    26  C   -0.024883
    27  H   -0.000133
    28  H   -0.004141
    29  N   -0.052487
    30  C    0.000233
    31  C    0.405344
    32  H   -0.003563
    33  H   -0.001171
    34  H    0.002309
    35  H   -0.062453
    36  H   -0.026114
    37  H    0.569930
 Mulliken charges:
               1
     1  C    0.104984
     2  C   -0.463782
     3  C    1.716207
     4  O   -0.302569
     5  C   -0.385785
     6  H    0.236924
     7  C   -1.259584
     8  C   -0.323580
     9  H    0.371197
    10  C   -0.408268
    11  H    0.205864
    12  H    0.118388
    13  C    0.205827
    14  O   -0.295056
    15  H    0.220894
    16  C    0.219110
    17  H   -0.136321
    18  C    1.018685
    19  H    0.231375
    20  C   -0.653131
    21  C   -0.287074
    22  C   -0.352480
    23  H    0.145407
    24  C   -0.280881
    25  H    0.210208
    26  C   -0.558416
    27  H    0.232408
    28  H    0.184495
    29  N    0.060748
    30  C   -0.392312
    31  C   -0.392237
    32  H    0.178535
    33  H    0.155257
    34  H    0.167875
    35  H    0.184330
    36  H    0.153146
    37  H    0.169612
 Sum of Mulliken charges =   0.00000
 Mulliken charges with hydrogens summed into heavy atoms:
               1
     1  C    0.104984
     2  C   -0.226858
     3  C    1.716207
     4  O    0.068628
     5  C   -0.179921
     7  C   -1.141197
     8  C   -0.323580
    10  C   -0.187374
    13  C    0.069505
    14  O   -0.295056
    16  C    0.450485
    18  C    1.018685
    20  C   -0.507725
    21  C   -0.076866
    22  C   -0.120072
    24  C   -0.096387
    26  C   -0.558416
    29  N    0.060748
    30  C    0.109354
    31  C    0.114852
 Electronic spatial extent (au):  <R**2>=          14360.9809
 Charge=              0.0000 electrons
 Dipole moment (field-independent basis, Debye):
    X=             -6.0261    Y=              1.3134    Z=              5.4335  Tot=              8.2196
 Quadrupole moment (field-independent basis, Debye-Ang):
   XX=            -78.2721   YY=           -120.0644   ZZ=            -94.5322
   XY=             16.1507   XZ=            -22.2080   YZ=              1.2486
 Traceless Quadrupole moment (field-independent basis, Debye-Ang):
   XX=             19.3508   YY=            -22.4415   ZZ=              3.0907
   XY=             16.1507   XZ=            -22.2080   YZ=              1.2486
 Octapole moment (field-independent basis, Debye-Ang**2):
  XXX=             45.7442  YYY=            372.9951  ZZZ=           -747.5738  XYY=             62.3236
  XXY=             82.9739  XXZ=            -75.6975  XZZ=            -45.1843  YZZ=            143.0526
  YYZ=           -294.8148  XYZ=             33.0468
 Hexadecapole moment (field-independent basis, Debye-Ang**3):
 XXXX=          -9252.2380 YYYY=          -1606.4679 ZZZZ=          -5811.1004 XXXY=           -372.0649
 XXXZ=           1164.4665 YYYX=           -993.8230 YYYZ=            898.6533 ZZZX=           1780.2731
 ZZZY=            973.4453 XXYY=          -2073.4543 XXZZ=          -1948.7280 YYZZ=          -1386.5731
 XXYZ=             87.0533 YYXZ=            813.8971 ZZXY=           -228.1807
 N-N= 1.361563605446D+03 E-N=-4.732555997379D+03  KE= 8.595948211946D+02
 Leave Link  601 at Mon Nov  6 17:21:49 2017, MaxMem=  3758096384 cpu:         0.3
 (Enter /share/apps/gaussian/g09_D01/g09/l9999.exe)
 1\1\GINC-NXV42\SP\RwB97XD TD-FC\6-311++G(d,p)\C17H17N1O2\BTX008\06-Nov
 -2017\0\\#p wb97xd 6-311++G** td=(nstates=4) nosymm\\mon-1\\0,1\C,0,3.
 469637,-0.762135,0.426097\C,0,4.694846,-0.123167,0.639832\C,0,2.435655
 ,-0.670227,1.389238\O,0,3.312841,-1.442316,-0.722541\C,0,4.904305,0.60
 5365,1.796811\H,0,5.461105,-0.224636,-0.12003\C,0,2.689903,0.072047,2.
 555468\C,0,1.141554,-1.344944,1.138267\H,0,2.421564,-1.87445,-0.644066
 \C,0,3.898719,0.708372,2.760969\H,0,5.85715,1.096835,1.966215\H,0,1.92
 5122,0.155975,3.31556\C,0,0.019172,-1.152682,2.053535\O,0,1.007505,-2.
 062253,0.123686\H,0,4.065909,1.274317,3.666625\C,0,-1.130542,-1.839782
 ,1.873217\H,0,0.112004,-0.428463,2.853188\C,0,-2.361938,-1.705922,2.62
 3443\H,0,-1.148735,-2.554182,1.049733\C,0,-2.547126,-0.772889,3.657215
 \C,0,-3.467667,-2.493615,2.273935\C,0,-3.757917,-0.631349,4.297941\H,0
 ,-1.727048,-0.137611,3.974085\C,0,-4.685337,-2.381422,2.91386\H,0,-3.3
 63046,-3.217472,1.474305\C,0,-4.864384,-1.44594,3.954581\H,0,-3.846333
 ,0.119529,5.070263\H,0,-5.501955,-3.015075,2.599042\N,0,-6.058026,-1.3
 28952,4.611296\C,0,-6.175522,-0.392391,5.707507\C,0,-7.149324,-2.23275
 5,4.311584\H,0,-6.057178,0.643319,5.369066\H,0,-7.156988,-0.493911,6.1
 62005\H,0,-5.430953,-0.589622,6.486644\H,0,-6.886034,-3.27762,4.519652
 \H,0,-8.011369,-1.972206,4.926811\H,0,-7.455926,-2.159977,3.26224\\Ver
 sion=ES64L-G09RevD.01\HF=-863.1689754\RMSD=7.344e-09\PG=C01 [X(C17H17N
 1O2)]\\@


 ADVERTISING--  HE WHO HAS SOMETHING TO SELL AND GOES AND WHISPERS
                IN A WELL, IS NOT SO APT TO GET THE DOLLARS AS HE
                WHO CLIMBS A TREE AND HOLLERS.

                   -- FROM THE BACK OF A SUGAR PACKET
 Job cpu time:       0 days  2 hours 19 minutes 32.1 seconds.
 File lengths (MBytes):  RWF=    454 Int=      0 D2E=      0 Chk=     52 Scr=      1
 Normal termination of Gaussian 09 at Mon Nov  6 17:21:49 2017.
