
     Program PWSCF v.6.1 (svn rev. 13369) starts on 16Oct2017 at 10:20:11 

     This program is part of the open-source Quantum ESPRESSO suite
     for quantum simulation of materials; please cite
         "P. Giannozzi et al., J. Phys.:Condens. Matter 21 395502 (2009);
          URL http://www.quantum-espresso.org", 
     in publications or presentations arising from this work. More details at
     http://www.quantum-espresso.org/quote

     Parallel version (MPI), running on     1 processors
     Waiting for input...
     Reading input from standard input
Warning: card 4 4 2 0 0 0 ignored

     Current dimensions of program PWSCF are:
     Max number of different atomic species (ntypx) = 10
     Max number of k-points (npk) =  40000
     Max angular momentum in pseudopotentials (lmaxx) =  3
     Message from routine iosys:
     london is obsolete, use "vdw_corr='grimme-d2'" instead

     IMPORTANT: XC functional enforced from input :
     Exchange-correlation      = PBE ( 1  4  3  4 0 0)
     Any further DFT definition will be discarded
     Please, verify this is what you really want

               file C.pbe-rrkjus.UPF: wavefunction(s)  2S 2P renormalized
               file H.pbe-rrkjus.UPF: wavefunction(s)  1S renormalized
               file O.pbe-rrkjus.UPF: wavefunction(s)  2S renormalized
               file N.pbe-rrkjus.UPF: wavefunction(s)  2S renormalized

     -------------------------------------
     Parameters for Dispersion Correction:
     -------------------------------------
       atom      VdW radius       C_6     

        C          2.744         60.710
        H          1.892          4.857
        O          2.536         24.284
        N          2.640         42.670

     gamma-point specific algorithms are used

     Subspace diagonalization in iterative solution of the eigenvalue problem:
     a serial algorithm will be used

 
     G-vector sticks info
     --------------------
     sticks:   dense  smooth     PW     G-vecs:    dense   smooth      PW
     Sum        4821    4821   1201               469205   469205   58633
 


     bravais-lattice index     =            0
     lattice parameter (alat)  =      20.3146  a.u.
     unit-cell volume          =   21137.7230 (a.u.)^3
     number of atoms/cell      =          320
     number of atomic types    =            4
     number of electrons       =       864.00
     number of Kohn-Sham states=          432
     kinetic-energy cutoff     =      30.0000  Ry
     charge density cutoff     =     120.0000  Ry
     convergence threshold     =      1.0E-07
     mixing beta               =       0.7000
     number of iterations used =            8  plain     mixing
     Exchange-correlation      = PBE ( 1  4  3  4 0 0)
     nstep                     =           50


     celldm(1)=  20.314556  celldm(2)=   0.000000  celldm(3)=   0.000000
     celldm(4)=   0.000000  celldm(5)=   0.000000  celldm(6)=   0.000000

     crystal axes: (cart. coord. in units of alat)
               a(1) = (   1.000000   0.000000   0.000000 )  
               a(2) = (   0.000000   1.224186   0.000000 )  
               a(3) = (   0.000000   0.000000   2.059628 )  

     reciprocal axes: (cart. coord. in units 2 pi/alat)
               b(1) = (  1.000000  0.000000  0.000000 )  
               b(2) = (  0.000000  0.816869  0.000000 )  
               b(3) = (  0.000000  0.000000  0.485525 )  


     PseudoPot. # 1 for C  read from file:
     /data/home/btx156/espresso/pseudo/C.pbe-rrkjus.UPF
     MD5 check sum: 00fb224312de0c5b6853bd333518df6f
     Pseudo is Ultrasoft, Zval =  4.0
     Generated by new atomic code, or converted to UPF format
     Using radial grid of  627 points,  4 beta functions with: 
                l(1) =   0
                l(2) =   0
                l(3) =   1
                l(4) =   1
     Q(r) pseudized with 0 coefficients 


     PseudoPot. # 2 for H  read from file:
     /data/home/btx156/espresso/pseudo/H.pbe-rrkjus.UPF
     MD5 check sum: 7cc9d459525c9a0585f487a71c3c9563
     Pseudo is Ultrasoft, Zval =  1.0
     Generated by new atomic code, or converted to UPF format
     Using radial grid of 1061 points,  2 beta functions with: 
                l(1) =   0
                l(2) =   0
     Q(r) pseudized with 0 coefficients 


     PseudoPot. # 3 for O  read from file:
     /data/home/btx156/espresso/pseudo/O.pbe-rrkjus.UPF
     MD5 check sum: 390ba29e75625707450f3bd3f0eb6be9
     Pseudo is Ultrasoft, Zval =  6.0
     Generated by new atomic code, or converted to UPF format
     Using radial grid of 1269 points,  4 beta functions with: 
                l(1) =   0
                l(2) =   0
                l(3) =   1
                l(4) =   1
     Q(r) pseudized with 0 coefficients 


     PseudoPot. # 4 for N  read from file:
     /data/home/btx156/espresso/pseudo/N.pbe-rrkjus.UPF
     MD5 check sum: 0c3fbe5807a93f9ba59d5a7019aa238b
     Pseudo is Ultrasoft, Zval =  5.0
     Generated by new atomic code, or converted to UPF format
     Using radial grid of 1257 points,  4 beta functions with: 
                l(1) =   0
                l(2) =   0
                l(3) =   1
                l(4) =   1
     Q(r) pseudized with 0 coefficients 


     atomic species   valence    mass     pseudopotential
        C              4.00    12.00000     C ( 1.00)
        H              1.00     1.00790     H ( 1.00)
        O              6.00    15.99940     O ( 1.00)
        N              5.00    14.00670     N ( 1.00)

      8 Sym. Ops., with inversion, found ( 6 have fractional translation)



   Cartesian axes

     site n.     atom                  positions (alat units)
         1           O   tau(   1) = (   0.1580987   0.1964727   0.3372673  )
         2           O   tau(   2) = (   0.0665173   0.0361308   0.1987617  )
         3           C   tau(   3) = (   0.1365068   1.1746640   0.2439735  )
         4           C   tau(   4) = (   0.0908575   0.9059542   0.0166436  )
         5           C   tau(   5) = (   0.2089221   1.2029435   0.3571736  )
         6           C   tau(   6) = (   0.1475052   1.0547307   0.1859611  )
         7           C   tau(   7) = (   0.2175626   0.1042244   0.3987033  )
         8           C   tau(   8) = (   0.1824318   0.7005859   2.0435901  )
         9           N   tau(   9) = (   0.1188967   0.5752072   1.8674587  )
        10           C   tau(  10) = (   0.1089081   0.6814526   1.9348512  )
        11           C   tau(  11) = (   0.0817496   1.0213654   0.0820967  )
        12           C   tau(  12) = (   0.2709377   1.1108326   0.4268493  )
        13           C   tau(  13) = (   0.1731294   0.8088947   0.0513138  )
        14           C   tau(  14) = (   0.3491029   0.0391961   0.5695215  )
        15           C   tau(  15) = (   0.2899922   0.1329348   0.5034425  )
        16           C   tau(  16) = (   0.3394942   1.1379331   0.5329107  )
        17           C   tau(  17) = (   0.0171412   0.8855620   1.9690409  )
        18           C   tau(  18) = (   0.0250328   0.7777809   1.8998141  )
        19           C   tau(  19) = (   0.0428751   0.5568071   1.7570199  )
        20           C   tau(  20) = (   0.2057527   0.4783135   1.9055642  )
        21           C   tau(  21) = (   0.4025322   1.0359765   0.6051902  )
        22           H   tau(  22) = (   0.3629895   1.0268942   0.6993255  )
        23           H   tau(  23) = (   0.5021212   1.0555871   0.6173280  )
        24           H   tau(  24) = (   0.3934828   0.9463881   0.5569563  )
        25           H   tau(  25) = (   0.2658017   1.0140616   0.3974197  )
        26           H   tau(  26) = (   0.9524541   0.9582840   1.9407508  )
        27           H   tau(  27) = (   0.0169503   1.0898357   0.0434201  )
        28           H   tau(  28) = (   0.2472111   0.6292239   0.0146896  )
        29           H   tau(  29) = (   0.2979579   0.2299012   0.5320156  )
        30           H   tau(  30) = (   0.4039388   0.0628292   0.6517245  )
        31           H   tau(  31) = (   0.2314021   0.8192189   0.1335972  )
        32           H   tau(  32) = (   0.2129860   0.9889707   0.2263953  )
        33           H   tau(  33) = (   0.9432334   0.5641323   1.7789971  )
        34           H   tau(  34) = (   0.9665243   0.7670958   1.8179113  )
        35           H   tau(  35) = (   0.2028328   0.4023532   1.8378492  )
        36           H   tau(  36) = (   0.1812687   0.4408950   1.9976743  )
        37           H   tau(  37) = (   0.0607786   0.4641529   1.7190697  )
        38           H   tau(  38) = (   0.3015915   0.5142763   1.9099252  )
        39           H   tau(  39) = (   0.1059437   0.1479757   0.2712949  )
        40           H   tau(  40) = (   0.0647930   0.6258673   1.6845965  )
        41           O   tau(  41) = (   0.3419023   1.0277133   1.3670812  )
        42           O   tau(  42) = (   0.8419013   0.8085658   0.6925467  )
        43           O   tau(  43) = (   0.6580987   0.4156203   1.7223606  )
        44           O   tau(  44) = (   0.8419023   1.0277133   1.7223606  )
        45           O   tau(  45) = (   0.6580987   0.1964727   0.6925467  )
        46           O   tau(  46) = (   0.1580987   0.4156203   1.3670812  )
        47           O   tau(  47) = (   0.3419023   0.8085658   0.3372673  )
        48           O   tau(  48) = (   0.4334827   1.1880553   1.2285757  )
        49           O   tau(  49) = (   0.9334827   0.6482238   0.8310522  )
        50           O   tau(  50) = (   0.5665173   0.5759623   1.8608662  )
        51           O   tau(  51) = (   0.9334827   1.1880553   1.8608662  )
        52           O   tau(  52) = (   0.5665173   0.0361308   0.8310522  )
        53           O   tau(  53) = (   0.0665173   0.5759623   1.2285757  )
        54           O   tau(  54) = (   0.4334827   0.6482238   0.1987617  )
        55           C   tau(  55) = (   0.3634932   0.0495220   1.2737874  )
        56           C   tau(  56) = (   0.8634932   0.5625710   0.7858405  )
        57           C   tau(  57) = (   0.6365068   0.6616151   1.8156544  )
        58           C   tau(  58) = (   0.8634932   0.0495220   1.8156544  )
        59           C   tau(  59) = (   0.6365068   1.1746640   0.7858405  )
        60           C   tau(  60) = (   0.1365068   0.6616151   1.2737874  )
        61           C   tau(  61) = (   0.3634932   0.5625710   0.2439735  )
        62           C   tau(  62) = (   0.4091425   0.3182319   1.0464576  )
        63           C   tau(  63) = (   0.9091425   0.2938611   1.0131703  )
        64           C   tau(  64) = (   0.5908575   0.9303249   2.0429843  )
        65           C   tau(  65) = (   0.9091425   0.3182319   2.0429843  )
        66           C   tau(  66) = (   0.5908575   0.9059542   1.0131703  )
        67           C   tau(  67) = (   0.0908575   0.9303249   1.0464576  )
        68           C   tau(  68) = (   0.4091425   0.2938611   0.0166436  )
        69           C   tau(  69) = (   0.2910779   0.0212425   1.3869875  )
        70           C   tau(  70) = (   0.7910779   0.5908505   0.6726404  )
        71           C   tau(  71) = (   0.7089221   0.6333355   1.7024543  )
        72           C   tau(  72) = (   0.7910779   0.0212425   1.7024543  )
        73           C   tau(  73) = (   0.7089221   1.2029435   0.6726404  )
        74           C   tau(  74) = (   0.2089221   0.6333355   1.3869875  )
        75           C   tau(  75) = (   0.2910779   0.5908505   0.3571736  )
        76           C   tau(  76) = (   0.3524948   0.1694554   1.2157751  )
        77           C   tau(  77) = (   0.8524948   0.4426377   0.8438528  )
        78           C   tau(  78) = (   0.6475052   0.7815484   1.8736668  )
        79           C   tau(  79) = (   0.8524948   0.1694554   1.8736668  )
        80           C   tau(  80) = (   0.6475052   1.0547307   0.8438528  )
        81           C   tau(  81) = (   0.1475052   0.7815484   1.2157751  )
        82           C   tau(  82) = (   0.3524948   0.4426377   0.1859611  )
        83           C   tau(  83) = (   0.2824374   1.1199616   1.4285172  )
        84           C   tau(  84) = (   0.7824374   0.7163175   0.6311107  )
        85           C   tau(  85) = (   0.7175626   0.5078686   1.6609246  )
        86           C   tau(  86) = (   0.7824374   1.1199616   1.6609246  )
        87           C   tau(  87) = (   0.7175626   0.1042244   0.6311107  )
        88           C   tau(  88) = (   0.2175626   0.5078686   1.4285172  )
        89           C   tau(  89) = (   0.2824374   0.7163175   0.3987033  )
        90           C   tau(  90) = (   0.3175691   0.5236001   1.0137761  )
        91           C   tau(  91) = (   0.8175682   0.0884929   1.0458518  )
        92           C   tau(  92) = (   0.6824318   1.1356932   0.0160378  )
        93           C   tau(  93) = (   0.8175682   0.5236001   0.0160378  )
        94           C   tau(  94) = (   0.6824318   0.7005859   1.0458518  )
        95           C   tau(  95) = (   0.1824318   1.1356932   1.0137761  )
        96           C   tau(  96) = (   0.3175691   0.0884929   2.0435901  )
        97           N   tau(  97) = (   0.3811033   0.6489788   0.8376447  )
        98           N   tau(  98) = (   0.8811033   1.1873003   1.2219832  )
        99           N   tau(  99) = (   0.6188967   0.0368858   0.1921692  )
       100           N   tau( 100) = (   0.8811033   0.6489788   0.1921692  )
       101           N   tau( 101) = (   0.6188967   0.5752072   1.2219832  )
       102           N   tau( 102) = (   0.1188967   0.0368858   0.8376447  )
       103           N   tau( 103) = (   0.3811033   1.1873003   1.8674587  )
       104           C   tau( 104) = (   0.3910919   0.5427335   0.9050372  )
       105           C   tau( 105) = (   0.8910919   0.0693596   1.1545907  )
       106           C   tau( 106) = (   0.6089081   1.1548265   0.1247767  )
       107           C   tau( 107) = (   0.8910919   0.5427335   0.1247767  )
       108           C   tau( 108) = (   0.6089081   0.6814526   1.1545907  )
       109           C   tau( 109) = (   0.1089081   1.1548265   0.9050372  )
       110           C   tau( 110) = (   0.3910919   0.0693596   1.9348512  )
       111           C   tau( 111) = (   0.4182513   0.2028206   1.1119107  )
       112           C   tau( 112) = (   0.9182504   0.4092724   0.9477173  )
       113           C   tau( 113) = (   0.5817496   0.8149137   1.9775312  )
       114           C   tau( 114) = (   0.9182513   0.2028206   1.9775312  )
       115           C   tau( 115) = (   0.5817496   1.0213654   0.9477173  )
       116           C   tau( 116) = (   0.0817496   0.8149137   1.1119107  )
       117           C   tau( 117) = (   0.4182504   0.4092724   0.0820967  )
       118           C   tau( 118) = (   0.2290632   0.1133534   1.4566633  )
       119           C   tau( 119) = (   0.7290623   0.4987396   0.6029646  )
       120           C   tau( 120) = (   0.7709377   0.7254464   1.6327786  )
       121           C   tau( 121) = (   0.7290623   0.1133534   1.6327786  )
       122           C   tau( 122) = (   0.7709377   1.1108326   0.6029646  )
       123           C   tau( 123) = (   0.2709377   0.7254464   1.4566633  )
       124           C   tau( 124) = (   0.2290632   0.4987396   0.4268493  )
       125           C   tau( 125) = (   0.3268706   0.4152913   1.0811277  )
       126           C   tau( 126) = (   0.8268706   0.1968017   0.9785002  )
       127           C   tau( 127) = (   0.6731294   1.0273844   2.0083142  )
       128           C   tau( 128) = (   0.8268706   0.4152913   2.0083142  )
       129           C   tau( 129) = (   0.6731294   0.8088947   0.9785002  )
       130           C   tau( 130) = (   0.1731294   1.0273844   1.0811277  )
       131           C   tau( 131) = (   0.3268706   0.1968017   0.0513138  )
       132           C   tau( 132) = (   0.1508980   1.1849899   1.5993355  )
       133           C   tau( 133) = (   0.6508980   0.6512892   0.4602924  )
       134           C   tau( 134) = (   0.8491029   0.5728969   1.4901064  )
       135           C   tau( 135) = (   0.6508980   1.1849899   1.4901064  )
       136           C   tau( 136) = (   0.8491020   0.0391961   0.4602924  )
       137           C   tau( 137) = (   0.3491029   0.5728969   1.5993355  )
       138           C   tau( 138) = (   0.1508980   0.6512892   0.5695215  )
       139           C   tau( 139) = (   0.2100088   1.0912512   1.5332564  )
       140           C   tau( 140) = (   0.7100088   0.7450279   0.5263715  )
       141           C   tau( 141) = (   0.7899922   0.4791582   1.5561854  )
       142           C   tau( 142) = (   0.7100088   1.0912512   1.5561854  )
       143           C   tau( 143) = (   0.7899922   0.1329348   0.5263715  )
       144           C   tau( 144) = (   0.2899922   0.4791582   1.5332564  )
       145           C   tau( 145) = (   0.2100088   0.7450279   0.5034425  )
       146           C   tau( 146) = (   0.1605058   0.0862530   1.5627247  )
       147           C   tau( 147) = (   0.6605058   0.5258400   0.4969032  )
       148           C   tau( 148) = (   0.8394942   0.6983460   1.5267172  )
       149           C   tau( 149) = (   0.6605058   0.0862530   1.5267172  )
       150           C   tau( 150) = (   0.8394942   1.1379331   0.4969032  )
       151           C   tau( 151) = (   0.3394942   0.6983460   1.5627247  )
       152           C   tau( 152) = (   0.1605058   0.5258400   0.5329107  )
       153           H   tau( 153) = (   0.5567666   0.6600538   0.7491831  )
       154           H   tau( 154) = (   0.0567666   1.1762253   1.3104448  )
       155           H   tau( 155) = (   0.4432334   0.0479608   0.2806308  )
       156           H   tau( 156) = (   0.0567666   0.6600538   0.2806308  )
       157           H   tau( 157) = (   0.4432334   0.5641323   1.3104448  )
       158           H   tau( 158) = (   0.9432334   0.0479608   0.7491831  )
       159           H   tau( 159) = (   0.5567666   1.1762253   1.7789971  )
       160           C   tau( 160) = (   0.4828597   0.3386240   0.9392269  )
       161           C   tau( 161) = (   0.9828597   0.2734690   1.1204010  )
       162           C   tau( 162) = (   0.5171412   0.9507171   0.0905870  )
       163           C   tau( 163) = (   0.9828597   0.3386240   0.0905870  )
       164           C   tau( 164) = (   0.5171412   0.8855620   1.1204010  )
       165           C   tau( 165) = (   0.0171412   0.9507171   0.9392269  )
       166           C   tau( 166) = (   0.4828597   0.2734690   1.9690409  )
       167           C   tau( 167) = (   0.4749681   0.4464051   0.8700001  )
       168           C   tau( 168) = (   0.9749672   0.1656879   1.1896278  )
       169           C   tau( 169) = (   0.5250328   1.0584981   0.1598139  )
       170           C   tau( 170) = (   0.9749672   0.4464051   0.1598139  )
       171           C   tau( 171) = (   0.5250328   0.7777809   1.1896278  )
       172           C   tau( 172) = (   0.0250328   1.0584981   0.8700001  )
       173           C   tau( 173) = (   0.4749681   0.1656879   1.8998141  )
       174           C   tau( 174) = (   0.4571249   0.6673789   0.7272060  )
       175           C   tau( 175) = (   0.9571249   1.1689002   1.3324219  )
       176           C   tau( 176) = (   0.5428751   0.0552859   0.3026080  )
       177           C   tau( 177) = (   0.9571249   0.6673789   0.3026080  )
       178           C   tau( 178) = (   0.5428751   0.5568071   1.3324219  )
       179           C   tau( 179) = (   0.0428751   0.0552859   0.7272060  )
       180           C   tau( 180) = (   0.4571249   1.1689002   1.7570199  )
       181           C   tau( 181) = (   0.2942473   0.7458725   0.8757502  )
       182           C   tau( 182) = (   0.7942473   1.0904066   1.1838777  )
       183           C   tau( 183) = (   0.7057527   0.1337795   0.1540638  )
       184           C   tau( 184) = (   0.7942473   0.7458725   0.1540638  )
       185           C   tau( 185) = (   0.7057527   0.4783135   1.1838777  )
       186           C   tau( 186) = (   0.2057527   0.1337795   0.8757502  )
       187           C   tau( 187) = (   0.2942473   1.0904066   1.9055642  )
       188           C   tau( 188) = (   0.0974687   0.1882096   1.6350042  )
       189           C   tau( 189) = (   0.5974687   0.4238834   0.4246237  )
       190           C   tau( 190) = (   0.9025322   0.8003026   1.4544377  )
       191           C   tau( 191) = (   0.5974687   0.1882096   1.4544377  )
       192           C   tau( 192) = (   0.9025322   1.0359765   0.4246237  )
       193           C   tau( 193) = (   0.4025322   0.8003026   1.6350042  )
       194           C   tau( 194) = (   0.0974687   0.4238834   0.6051902  )
       195           H   tau( 195) = (   0.1370105   0.1972919   1.7291395  )
       196           H   tau( 196) = (   0.6370105   0.4148012   0.3304884  )
       197           H   tau( 197) = (   0.8629895   0.8093849   1.3603024  )
       198           H   tau( 198) = (   0.6370105   0.1972919   1.3603024  )
       199           H   tau( 199) = (   0.8629895   1.0268942   0.3304884  )
       200           H   tau( 200) = (   0.3629895   0.8093849   1.7291395  )
       201           H   tau( 201) = (   0.1370105   0.4148012   0.6993255  )
       202           H   tau( 202) = (  -0.0021203   0.1685990   1.6471420  )
       203           H   tau( 203) = (   0.4978797   0.4434940   0.4124859  )
       204           H   tau( 204) = (   1.0021212   0.7806920   1.4422999  )
       205           H   tau( 205) = (   0.4978797   0.1685990   1.4422999  )
       206           H   tau( 206) = (   1.0021203   1.0555871   0.4124859  )
       207           H   tau( 207) = (   0.5021212   0.7806920   1.6471420  )
       208           H   tau( 208) = (  -0.0021203   0.4434940   0.6173280  )
       209           H   tau( 209) = (   0.1065181   0.2777979   1.5867702  )
       210           H   tau( 210) = (   0.6065181   0.3342951   0.4728577  )
       211           H   tau( 211) = (   0.8934828   0.8898910   1.5026717  )
       212           H   tau( 212) = (   0.6065181   0.2777979   1.5026717  )
       213           H   tau( 213) = (   0.8934819   0.9463881   0.4728577  )
       214           H   tau( 214) = (   0.3934828   0.8898910   1.5867702  )
       215           H   tau( 215) = (   0.1065181   0.3342951   0.5569563  )
       216           H   tau( 216) = (   0.2341983   0.2101244   1.4272336  )
       217           H   tau( 217) = (   0.7341983   0.4019686   0.6323943  )
       218           H   tau( 218) = (   0.7658017   0.8222175   1.6622083  )
       219           H   tau( 219) = (   0.7341983   0.2101244   1.6622083  )
       220           H   tau( 220) = (   0.7658017   1.0140616   0.6323943  )
       221           H   tau( 221) = (   0.2658017   0.8222175   1.4272336  )
       222           H   tau( 222) = (   0.2341983   0.4019686   0.3974197  )
       223           H   tau( 223) = (   0.5475459   0.2659020   0.9109368  )
       224           H   tau( 224) = (   0.0475459   0.3461910   1.1486911  )
       225           H   tau( 225) = (   0.4524541   0.8779950   0.1188771  )
       226           H   tau( 226) = (   0.0475459   0.2659020   0.1188771  )
       227           H   tau( 227) = (   0.4524541   0.9582840   1.1486911  )
       228           H   tau( 228) = (   0.9524541   0.8779950   0.9109368  )
       229           H   tau( 229) = (   0.5475459   0.3461910   1.9407508  )
       230           H   tau( 230) = (   0.4830497   0.1343504   1.0732341  )
       231           H   tau( 231) = (   0.9830497   0.4777426   0.9863938  )
       232           H   tau( 232) = (   0.5169503   0.7464434   2.0162078  )
       233           H   tau( 233) = (   0.9830497   0.1343504   2.0162078  )
       234           H   tau( 234) = (   0.5169503   1.0898357   0.9863938  )
       235           H   tau( 235) = (   0.0169503   0.7464434   1.0732341  )
       236           H   tau( 236) = (   0.4830497   0.4777426   0.0434201  )
       237           H   tau( 237) = (   0.2527889   0.5949621   1.0445036  )
       238           H   tau( 238) = (   0.7527889   0.0171309   1.0151243  )
       239           H   tau( 239) = (   0.7472111   1.2070552   2.0449383  )
       240           H   tau( 240) = (   0.7527889   0.5949621   2.0449383  )
       241           H   tau( 241) = (   0.7472111   0.6292239   1.0151243  )
       242           H   tau( 242) = (   0.2472111   1.2070552   1.0445036  )
       243           H   tau( 243) = (   0.2527889   0.0171309   0.0146896  )
       244           H   tau( 244) = (   0.2020421   0.9942849   1.5618295  )
       245           H   tau( 245) = (   0.7020421   0.8419942   0.4977984  )
       246           H   tau( 246) = (   0.7979579   0.3821919   1.5276123  )
       247           H   tau( 247) = (   0.7020421   0.9942849   1.5276123  )
       248           H   tau( 248) = (   0.7979579   0.2299012   0.4977984  )
       249           H   tau( 249) = (   0.2979579   0.3821919   1.5618295  )
       250           H   tau( 250) = (   0.2020421   0.8419942   0.5320156  )
       251           H   tau( 251) = (   0.0960612   1.1613568   1.6815384  )
       252           H   tau( 252) = (   0.5960612   0.6749222   0.3780895  )
       253           H   tau( 253) = (   0.9039388   0.5492638   1.4079034  )
       254           H   tau( 254) = (   0.5960612   1.1613568   1.4079034  )
       255           H   tau( 255) = (   0.9039388   0.0628292   0.3780895  )
       256           H   tau( 256) = (   0.4039388   0.5492638   1.6815384  )
       257           H   tau( 257) = (   0.0960612   0.6749222   0.6517245  )
       258           H   tau( 258) = (   0.2685979   0.4049672   1.1634111  )
       259           H   tau( 259) = (   0.7685979   0.2071258   0.8962168  )
       260           H   tau( 260) = (   0.7314021   1.0170602   1.9260307  )
       261           H   tau( 261) = (   0.7685979   0.4049672   1.9260307  )
       262           H   tau( 262) = (   0.7314021   0.8192189   0.8962168  )
       263           H   tau( 263) = (   0.2314021   1.0170602   1.1634111  )
       264           H   tau( 264) = (   0.2685979   0.2071258   0.1335972  )
       265           H   tau( 265) = (   0.2870140   0.2352153   1.2562092  )
       266           H   tau( 266) = (   0.7870140   0.3768777   0.8034187  )
       267           H   tau( 267) = (   0.7129860   0.8473084   1.8332327  )
       268           H   tau( 268) = (   0.7870140   0.2352153   1.8332327  )
       269           H   tau( 269) = (   0.7129860   0.9889707   0.8034187  )
       270           H   tau( 270) = (   0.2129860   0.8473084   1.2562092  )
       271           H   tau( 271) = (   0.2870140   0.3768777   0.2263953  )
       272           H   tau( 272) = (   0.5334757   0.4570903   0.7880973  )
       273           H   tau( 273) = (   0.0334757   0.1550028   1.2715306  )
       274           H   tau( 274) = (   0.4665243   1.0691833   0.2417166  )
       275           H   tau( 275) = (   0.0334757   0.4570903   0.2417166  )
       276           H   tau( 276) = (   0.4665243   0.7670958   1.2715306  )
       277           H   tau( 277) = (   0.9665243   1.0691833   0.7880973  )
       278           H   tau( 278) = (   0.5334757   0.1550028   1.8179113  )
       279           H   tau( 279) = (   0.2971672   0.8218328   0.8080353  )
       280           H   tau( 280) = (   0.7971672   1.0144462   1.2515926  )
       281           H   tau( 281) = (   0.7028328   0.2097398   0.2217787  )
       282           H   tau( 282) = (   0.7971672   0.8218328   0.2217787  )
       283           H   tau( 283) = (   0.7028328   0.4023532   1.2515926  )
       284           H   tau( 284) = (   0.2028328   0.2097398   0.8080353  )
       285           H   tau( 285) = (   0.2971672   1.0144462   1.8378492  )
       286           H   tau( 286) = (   0.3187313   0.7832911   0.9678604  )
       287           H   tau( 287) = (   0.8187313   1.0529880   1.0917675  )
       288           H   tau( 288) = (   0.6812687   0.1711980   0.0619536  )
       289           H   tau( 289) = (   0.8187313   0.7832911   0.0619536  )
       290           H   tau( 290) = (   0.6812687   0.4408950   1.0917675  )
       291           H   tau( 291) = (   0.1812687   0.1711980   0.9678604  )
       292           H   tau( 292) = (   0.3187313   1.0529880   1.9976743  )
       293           H   tau( 293) = (   0.4392214   0.7600332   0.6892557  )
       294           H   tau( 294) = (   0.9392214   1.0762459   1.3703722  )
       295           H   tau( 295) = (   0.5607786   0.1479402   0.3405582  )
       296           H   tau( 296) = (   0.9392214   0.7600332   0.3405582  )
       297           H   tau( 297) = (   0.5607786   0.4641529   1.3703722  )
       298           H   tau( 298) = (   0.0607786   0.1479402   0.6892557  )
       299           H   tau( 299) = (   0.4392214   1.0762459   1.7190697  )
       300           H   tau( 300) = (   0.1984085   0.7099097   0.8801112  )
       301           H   tau( 301) = (   0.6984085   1.1263693   1.1795167  )
       302           H   tau( 302) = (   0.8015915   0.0978167   0.1497027  )
       303           H   tau( 303) = (   0.6984085   0.7099097   0.1497027  )
       304           H   tau( 304) = (   0.8015915   0.5142763   1.1795167  )
       305           H   tau( 305) = (   0.3015915   0.0978167   0.8801112  )
       306           H   tau( 306) = (   0.1984085   1.1263693   1.9099252  )
       307           H   tau( 307) = (   0.3940563   1.0762104   1.3011088  )
       308           H   tau( 308) = (   0.8940563   0.7600687   0.7585191  )
       309           H   tau( 309) = (   0.6059437   0.4641173   1.7883330  )
       310           H   tau( 310) = (   0.8940563   1.0762104   1.7883330  )
       311           H   tau( 311) = (   0.6059437   0.1479757   0.7585191  )
       312           H   tau( 312) = (   0.1059437   0.4641173   1.3011088  )
       313           H   tau( 313) = (   0.3940563   0.7600687   0.2712949  )
       314           H   tau( 314) = (   0.4352070   0.5983187   0.6547825  )
       315           H   tau( 315) = (   0.9352070   0.0137743   1.4048454  )
       316           H   tau( 316) = (   0.5647930   1.2104117   0.3750314  )
       317           H   tau( 317) = (   0.9352070   0.5983187   0.3750314  )
       318           H   tau( 318) = (   0.5647930   0.6258673   1.4048454  )
       319           H   tau( 319) = (   0.0647930   1.2104117   0.6547825  )
       320           H   tau( 320) = (   0.4352070   0.0137743   1.6845965  )

     number of k points=     1
                       cart. coord. in units 2pi/alat
        k(    1) = (   0.0000000   0.0000000   0.0000000), wk =   2.0000000

     Dense  grid:   234603 G-vectors     FFT dimensions: (  72,  90, 150)

     Estimated max dynamical RAM per process >    2699.69MB

     Initial potential from superposition of free atoms

     starting charge  849.36928, renormalised to  864.00000
     Starting wfc are  824 randomized atomic wfcs

     total cpu time spent up to now is       32.1 secs

     per-process dynamical memory:  1148.0 Mb

     Self-consistent Calculation

     iteration #  1     ecut=    30.00 Ry     beta=0.70
     Davidson diagonalization with overlap
     ethr =  1.00E-02,  avg # of iterations =  2.0

     total cpu time spent up to now is       98.6 secs

     total energy              =   -2475.14115618 Ry
     Harris-Foulkes estimate   =   -2511.60095819 Ry
     estimated scf accuracy    <      56.67410514 Ry

     iteration #  2     ecut=    30.00 Ry     beta=0.70
     Davidson diagonalization with overlap
     ethr =  6.56E-03,  avg # of iterations =  3.0

     total cpu time spent up to now is      151.7 secs

     total energy              =   -2481.79356919 Ry
     Harris-Foulkes estimate   =   -2496.86015531 Ry
     estimated scf accuracy    <      26.48951061 Ry

     iteration #  3     ecut=    30.00 Ry     beta=0.70
     Davidson diagonalization with overlap
     ethr =  3.07E-03,  avg # of iterations =  4.0

     total cpu time spent up to now is      205.4 secs

     total energy              =   -2488.24651855 Ry
     Harris-Foulkes estimate   =   -2490.71015692 Ry
     estimated scf accuracy    <       4.71780767 Ry

     iteration #  4     ecut=    30.00 Ry     beta=0.70
     Davidson diagonalization with overlap
     ethr =  5.46E-04,  avg # of iterations =  4.0

     total cpu time spent up to now is      258.1 secs

     total energy              =   -2489.31948719 Ry
     Harris-Foulkes estimate   =   -2489.75149587 Ry
     estimated scf accuracy    <       0.89615306 Ry

     iteration #  5     ecut=    30.00 Ry     beta=0.70
     Davidson diagonalization with overlap
     ethr =  1.04E-04,  avg # of iterations =  4.0

     total cpu time spent up to now is      308.8 secs

     total energy              =   -2489.50354478 Ry
     Harris-Foulkes estimate   =   -2489.55480699 Ry
     estimated scf accuracy    <       0.11284598 Ry

     iteration #  6     ecut=    30.00 Ry     beta=0.70
     Davidson diagonalization with overlap
     ethr =  1.31E-05,  avg # of iterations =  5.0

     total cpu time spent up to now is      360.5 secs

     total energy              =   -2489.52892271 Ry
     Harris-Foulkes estimate   =   -2489.53451123 Ry
     estimated scf accuracy    <       0.01301553 Ry

     iteration #  7     ecut=    30.00 Ry     beta=0.70
     Davidson diagonalization with overlap
     ethr =  1.51E-06,  avg # of iterations =  5.0

     total cpu time spent up to now is      413.5 secs

     total energy              =   -2489.53143087 Ry
     Harris-Foulkes estimate   =   -2489.53345613 Ry
     estimated scf accuracy    <       0.00486233 Ry

     iteration #  8     ecut=    30.00 Ry     beta=0.70
     Davidson diagonalization with overlap
     ethr =  5.63E-07,  avg # of iterations =  5.0

     total cpu time spent up to now is      463.4 secs

     total energy              =   -2489.53234039 Ry
     Harris-Foulkes estimate   =   -2489.53260974 Ry
     estimated scf accuracy    <       0.00059114 Ry

     iteration #  9     ecut=    30.00 Ry     beta=0.70
     Davidson diagonalization with overlap
     ethr =  6.84E-08,  avg # of iterations =  5.0

     total cpu time spent up to now is      516.5 secs

     total energy              =   -2489.53243104 Ry
     Harris-Foulkes estimate   =   -2489.53258879 Ry
     estimated scf accuracy    <       0.00042766 Ry

     iteration # 10     ecut=    30.00 Ry     beta=0.70
     Davidson diagonalization with overlap
     ethr =  4.95E-08,  avg # of iterations =  5.0

     total cpu time spent up to now is      560.9 secs

     total energy              =   -2489.53250099 Ry
     Harris-Foulkes estimate   =   -2489.53254777 Ry
     estimated scf accuracy    <       0.00014807 Ry

     iteration # 11     ecut=    30.00 Ry     beta=0.70
     Davidson diagonalization with overlap
     ethr =  1.71E-08,  avg # of iterations =  5.0

     total cpu time spent up to now is      604.0 secs

     total energy              =   -2489.53252382 Ry
     Harris-Foulkes estimate   =   -2489.53252688 Ry
     estimated scf accuracy    <       0.00000686 Ry

     iteration # 12     ecut=    30.00 Ry     beta=0.70
     Davidson diagonalization with overlap
     ethr =  7.95E-10,  avg # of iterations =  4.0

     total cpu time spent up to now is      656.3 secs

     total energy              =   -2489.53252571 Ry
     Harris-Foulkes estimate   =   -2489.53252616 Ry
     estimated scf accuracy    <       0.00000107 Ry

     iteration # 13     ecut=    30.00 Ry     beta=0.70
     Davidson diagonalization with overlap
     ethr =  1.23E-10,  avg # of iterations =  5.0

     total cpu time spent up to now is      708.8 secs

     total energy              =   -2489.53252589 Ry
     Harris-Foulkes estimate   =   -2489.53252612 Ry
     estimated scf accuracy    <       0.00000064 Ry

     iteration # 14     ecut=    30.00 Ry     beta=0.70
     Davidson diagonalization with overlap
     ethr =  7.44E-11,  avg # of iterations =  5.0

     total cpu time spent up to now is      755.7 secs

     total energy              =   -2489.53252600 Ry
     Harris-Foulkes estimate   =   -2489.53252604 Ry
     estimated scf accuracy    <       0.00000012 Ry

     iteration # 15     ecut=    30.00 Ry     beta=0.70
     Davidson diagonalization with overlap
     ethr =  1.37E-11,  avg # of iterations =  5.0

     total cpu time spent up to now is      805.7 secs

     End of self-consistent calculation

          k = 0.0000 0.0000 0.0000 ( 29317 PWs)   bands (ev):

   -20.6314 -20.6311 -20.6307 -20.6304 -20.6295 -20.6293 -20.6289 -20.6287
   -19.5006 -19.5004 -19.4992 -19.4990 -19.4988 -19.4986 -19.4975 -19.4973
   -18.1890 -18.1889 -18.1873 -18.1873 -18.1757 -18.1756 -18.1743 -18.1742
   -15.5301 -15.5264 -15.5260 -15.5244 -15.5143 -15.5098 -15.5086 -15.5078
   -15.4065 -15.4019 -15.3892 -15.3867 -15.3815 -15.3801 -15.3776 -15.3771
   -13.9512 -13.9475 -13.9448 -13.9440 -13.9435 -13.9364 -13.9252 -13.9201
   -13.3244 -13.3220 -13.3213 -13.3082 -13.2947 -13.2716 -13.2638 -13.2618
   -13.0852 -13.0646 -13.0459 -13.0375 -13.0199 -13.0078 -12.9948 -12.9893
   -12.8501 -12.8482 -12.8328 -12.8320 -12.8111 -12.8101 -12.7818 -12.7805
   -12.4315 -12.4109 -12.4050 -12.4025 -12.3960 -12.3917 -12.3818 -12.3693
   -12.0196 -12.0170 -12.0170 -12.0144 -11.9864 -11.9840 -11.9606 -11.9590
   -11.0738 -11.0564 -11.0542 -11.0538 -11.0409 -11.0385 -11.0224 -10.9987
   -10.8877 -10.8718 -10.8604 -10.8558 -10.8542 -10.8459 -10.8407 -10.8100
   -10.1041 -10.1016 -10.0972 -10.0705 -10.0661 -10.0632 -10.0615 -10.0347
    -9.4957  -9.4920  -9.4816  -9.4757  -9.3834  -9.3829  -9.3686  -9.3551
    -9.1828  -9.1814  -9.1148  -9.1137  -9.1135  -9.1117  -9.0771  -9.0760
    -8.6812  -8.6725  -8.6510  -8.6079  -8.5929  -8.5716  -8.5245  -8.5073
    -8.3611  -8.3302  -8.2529  -8.2321  -8.1749  -8.1612  -8.1536  -8.1506
    -7.6044  -7.5891  -7.5755  -7.5428  -7.5087  -7.5009  -7.4893  -7.4720
    -7.2070  -7.1967  -7.1726  -7.1598  -7.1543  -7.1513  -7.0826  -7.0729
    -6.8153  -6.7973  -6.7900  -6.7803  -6.7803  -6.7417  -6.7403  -6.7290
    -6.6090  -6.6057  -6.6014  -6.5979  -6.5957  -6.5953  -6.5713  -6.5650
    -6.1814  -6.1610  -6.1280  -6.1133  -6.0853  -6.0848  -6.0815  -6.0790
    -6.0779  -6.0733  -6.0680  -6.0302  -5.9943  -5.9886  -5.9801  -5.9695
    -5.7025  -5.6909  -5.6855  -5.6822  -5.5902  -5.5859  -5.5699  -5.5660
    -5.5536  -5.5488  -5.5481  -5.5443  -5.4374  -5.4005  -5.3830  -5.3669
    -5.2854  -5.2676  -5.2594  -5.2505  -5.1366  -5.1237  -5.1129  -5.1030
    -5.0945  -5.0761  -5.0630  -5.0590  -5.0351  -5.0163  -4.9983  -4.9757
    -4.9529  -4.9445  -4.9236  -4.8303  -4.8253  -4.8207  -4.8155  -4.6760
    -4.6704  -4.6559  -4.6553  -4.6287  -4.6229  -4.6119  -4.5983  -4.5914
    -4.5849  -4.5755  -4.5744  -4.5661  -4.5518  -4.5447  -4.5269  -4.5148
    -4.5000  -4.4499  -4.4402  -4.4179  -4.3817  -4.3773  -4.3625  -4.2866
    -4.2843  -4.2830  -4.2741  -4.2721  -4.2428  -4.2389  -4.2374  -4.2339
    -4.2301  -4.2030  -4.1868  -4.1790  -4.1313  -4.1261  -4.0979  -4.0773
    -3.9831  -3.9675  -3.9662  -3.9619  -3.9605  -3.9547  -3.9526  -3.9494
    -3.9491  -3.9221  -3.9023  -3.8638  -3.8496  -3.8466  -3.8398  -3.8392
    -3.8346  -3.8257  -3.8084  -3.7969  -3.7813  -3.7671  -3.7666  -3.7155
    -3.6461  -3.6013  -3.5694  -3.5412  -3.5345  -3.5255  -3.4955  -3.4892
    -3.4152  -3.4100  -3.3823  -3.3808  -3.3754  -3.3654  -3.3510  -3.3180
    -3.3090  -3.2969  -3.2969  -3.2785  -3.2742  -3.2644  -3.2563  -3.2441
    -3.2055  -3.2031  -3.1955  -3.1937  -3.1909  -3.1696  -3.1656  -3.1587
    -3.1403  -3.1251  -3.1212  -3.1075  -3.0912  -3.0878  -3.0638  -3.0604
    -3.0457  -3.0398  -2.9616  -2.9427  -2.9155  -2.8935  -2.8742  -2.8692
    -2.8074  -2.8026  -2.7339  -2.7307  -2.7224  -2.6916  -2.6795  -2.6791
    -2.5479  -2.5380  -2.4789  -2.4754  -2.2373  -2.2161  -2.2146  -2.1689
    -2.1604  -2.1334  -2.0808  -2.0704  -2.0508  -2.0486  -2.0244  -2.0171
    -2.0124  -2.0040  -1.9960  -1.9891  -1.9866  -1.9753  -1.9737  -1.9663
    -1.9330  -1.9259  -1.9162  -1.8888  -1.8623  -1.8570  -1.8002  -1.7917
    -0.7824  -0.7744  -0.7628  -0.7622  -0.7577  -0.7157  -0.6937  -0.6564
    -0.6560  -0.6498  -0.6421  -0.6236  -0.5836  -0.5820  -0.5338  -0.5247
    -0.5236  -0.5212  -0.4843  -0.4823  -0.4597  -0.4504  -0.4493  -0.4488
    -0.2482  -0.2186  -0.2156  -0.1989  -0.1847  -0.1665  -0.1659  -0.1326
     0.3233   0.3348   0.3492   0.3550   0.3841   0.3867   0.3919   0.4208
     1.0430   1.0437   1.0471   1.0653   1.0769   1.0881   1.1758   1.1945

     highest occupied level (ev):     1.1945

!    total energy              =   -2489.53252602 Ry
     Harris-Foulkes estimate   =   -2489.53252603 Ry
     estimated scf accuracy    <       0.00000002 Ry

     The total energy is the sum of the following terms:

     one-electron contribution =   -2235.36357958 Ry
     hartree contribution      =    1399.70762414 Ry
     xc contribution           =    -764.76172860 Ry
     ewald contribution        =    -887.75276452 Ry
     Dispersion Correction     =      -1.36207745 Ry

     convergence has been achieved in  15 iterations

     Forces acting on atoms (cartesian axes, Ry/au):

     atom    1 type  3   force =     0.00066382   -0.00015003   -0.00019778
     atom    2 type  3   force =     0.00027297   -0.00063527   -0.00043895
     atom    3 type  1   force =    -0.00050112    0.00037832    0.00013659
     atom    4 type  1   force =    -0.00008722   -0.00019779   -0.00029018
     atom    5 type  1   force =    -0.00000629    0.00003502   -0.00019115
     atom    6 type  1   force =     0.00001955    0.00009762    0.00066174
     atom    7 type  1   force =     0.00001155    0.00041575   -0.00037452
     atom    8 type  1   force =    -0.00031684   -0.00019403   -0.00033857
     atom    9 type  4   force =    -0.00024657   -0.00019084    0.00004846
     atom   10 type  1   force =     0.00015160   -0.00042683    0.00038560
     atom   11 type  1   force =    -0.00022071   -0.00048948   -0.00035683
     atom   12 type  1   force =     0.00014776   -0.00020853   -0.00039849
     atom   13 type  1   force =    -0.00025838   -0.00016561    0.00043140
     atom   14 type  1   force =    -0.00009696   -0.00054369    0.00009592
     atom   15 type  1   force =     0.00008293    0.00023379    0.00016420
     atom   16 type  1   force =     0.00023302    0.00017757   -0.00036003
     atom   17 type  1   force =     0.00045057   -0.00054030   -0.00017059
     atom   18 type  1   force =     0.00033876    0.00027914    0.00020855
     atom   19 type  1   force =    -0.00025123    0.00024998    0.00021887
     atom   20 type  1   force =    -0.00000328    0.00013749    0.00015098
     atom   21 type  1   force =     0.00003128    0.00030331   -0.00046293
     atom   22 type  2   force =     0.00015616    0.00016242   -0.00019336
     atom   23 type  2   force =     0.00035071   -0.00034461    0.00001591
     atom   24 type  2   force =    -0.00021500    0.00001133    0.00009804
     atom   25 type  2   force =    -0.00008225   -0.00030475    0.00029201
     atom   26 type  2   force =     0.00019955    0.00070829    0.00044373
     atom   27 type  2   force =     0.00003849   -0.00005233    0.00047471
     atom   28 type  2   force =     0.00006633   -0.00011094    0.00018141
     atom   29 type  2   force =    -0.00006855   -0.00021312    0.00018243
     atom   30 type  2   force =     0.00028693   -0.00005586   -0.00008798
     atom   31 type  2   force =    -0.00035726    0.00035228    0.00013334
     atom   32 type  2   force =    -0.00021006    0.00003266   -0.00019816
     atom   33 type  2   force =    -0.00030812    0.00022380    0.00040459
     atom   34 type  2   force =    -0.00015531   -0.00003785   -0.00000529
     atom   35 type  2   force =    -0.00004599    0.00023228    0.00013281
     atom   36 type  2   force =    -0.00002396    0.00002858    0.00000183
     atom   37 type  2   force =     0.00015514   -0.00006180    0.00013401
     atom   38 type  2   force =     0.00035066   -0.00040090   -0.00022516
     atom   39 type  2   force =    -0.00047461    0.00034049    0.00013304
     atom   40 type  2   force =     0.00034444    0.00028986   -0.00008768
     atom   41 type  3   force =    -0.00066382    0.00015003   -0.00019778
     atom   42 type  3   force =    -0.00066382   -0.00015003    0.00019778
     atom   43 type  3   force =     0.00066382    0.00015003    0.00019778
     atom   44 type  3   force =    -0.00066382    0.00015003    0.00019778
     atom   45 type  3   force =     0.00066382   -0.00015003    0.00019778
     atom   46 type  3   force =     0.00066382    0.00015003   -0.00019778
     atom   47 type  3   force =    -0.00066382   -0.00015003   -0.00019778
     atom   48 type  3   force =    -0.00027297    0.00063527   -0.00043895
     atom   49 type  3   force =    -0.00027297   -0.00063527    0.00043895
     atom   50 type  3   force =     0.00027297    0.00063527    0.00043895
     atom   51 type  3   force =    -0.00027297    0.00063527    0.00043895
     atom   52 type  3   force =     0.00027297   -0.00063527    0.00043895
     atom   53 type  3   force =     0.00027297    0.00063527   -0.00043895
     atom   54 type  3   force =    -0.00027297   -0.00063527   -0.00043895
     atom   55 type  1   force =     0.00050112   -0.00037832    0.00013659
     atom   56 type  1   force =     0.00050112    0.00037832   -0.00013659
     atom   57 type  1   force =    -0.00050112   -0.00037832   -0.00013659
     atom   58 type  1   force =     0.00050112   -0.00037832   -0.00013659
     atom   59 type  1   force =    -0.00050112    0.00037832   -0.00013659
     atom   60 type  1   force =    -0.00050112   -0.00037832    0.00013659
     atom   61 type  1   force =     0.00050112    0.00037832    0.00013659
     atom   62 type  1   force =     0.00008722    0.00019779   -0.00029018
     atom   63 type  1   force =     0.00008722   -0.00019779    0.00029018
     atom   64 type  1   force =    -0.00008722    0.00019779    0.00029018
     atom   65 type  1   force =     0.00008722    0.00019779    0.00029018
     atom   66 type  1   force =    -0.00008722   -0.00019779    0.00029018
     atom   67 type  1   force =    -0.00008722    0.00019779   -0.00029018
     atom   68 type  1   force =     0.00008722   -0.00019779   -0.00029018
     atom   69 type  1   force =     0.00000629   -0.00003502   -0.00019115
     atom   70 type  1   force =     0.00000629    0.00003502    0.00019115
     atom   71 type  1   force =    -0.00000629   -0.00003502    0.00019115
     atom   72 type  1   force =     0.00000629   -0.00003502    0.00019115
     atom   73 type  1   force =    -0.00000629    0.00003502    0.00019115
     atom   74 type  1   force =    -0.00000629   -0.00003502   -0.00019115
     atom   75 type  1   force =     0.00000629    0.00003502   -0.00019115
     atom   76 type  1   force =    -0.00001955   -0.00009762    0.00066174
     atom   77 type  1   force =    -0.00001955    0.00009762   -0.00066174
     atom   78 type  1   force =     0.00001955   -0.00009762   -0.00066174
     atom   79 type  1   force =    -0.00001955   -0.00009762   -0.00066174
     atom   80 type  1   force =     0.00001955    0.00009762   -0.00066174
     atom   81 type  1   force =     0.00001955   -0.00009762    0.00066174
     atom   82 type  1   force =    -0.00001955    0.00009762    0.00066174
     atom   83 type  1   force =    -0.00001155   -0.00041575   -0.00037452
     atom   84 type  1   force =    -0.00001155    0.00041575    0.00037452
     atom   85 type  1   force =     0.00001155   -0.00041575    0.00037452
     atom   86 type  1   force =    -0.00001155   -0.00041575    0.00037452
     atom   87 type  1   force =     0.00001155    0.00041575    0.00037452
     atom   88 type  1   force =     0.00001155   -0.00041575   -0.00037452
     atom   89 type  1   force =    -0.00001155    0.00041575   -0.00037452
     atom   90 type  1   force =     0.00031684    0.00019403   -0.00033857
     atom   91 type  1   force =     0.00031684   -0.00019403    0.00033857
     atom   92 type  1   force =    -0.00031684    0.00019403    0.00033857
     atom   93 type  1   force =     0.00031684    0.00019403    0.00033857
     atom   94 type  1   force =    -0.00031684   -0.00019403    0.00033857
     atom   95 type  1   force =    -0.00031684    0.00019403   -0.00033857
     atom   96 type  1   force =     0.00031684   -0.00019403   -0.00033857
     atom   97 type  4   force =     0.00024657    0.00019084    0.00004846
     atom   98 type  4   force =     0.00024657   -0.00019084   -0.00004846
     atom   99 type  4   force =    -0.00024657    0.00019084   -0.00004846
     atom  100 type  4   force =     0.00024657    0.00019084   -0.00004846
     atom  101 type  4   force =    -0.00024657   -0.00019084   -0.00004846
     atom  102 type  4   force =    -0.00024657    0.00019084    0.00004846
     atom  103 type  4   force =     0.00024657   -0.00019084    0.00004846
     atom  104 type  1   force =    -0.00015160    0.00042683    0.00038560
     atom  105 type  1   force =    -0.00015160   -0.00042683   -0.00038560
     atom  106 type  1   force =     0.00015160    0.00042683   -0.00038560
     atom  107 type  1   force =    -0.00015160    0.00042683   -0.00038560
     atom  108 type  1   force =     0.00015160   -0.00042683   -0.00038560
     atom  109 type  1   force =     0.00015160    0.00042683    0.00038560
     atom  110 type  1   force =    -0.00015160   -0.00042683    0.00038560
     atom  111 type  1   force =     0.00022071    0.00048948   -0.00035683
     atom  112 type  1   force =     0.00022071   -0.00048948    0.00035683
     atom  113 type  1   force =    -0.00022071    0.00048948    0.00035683
     atom  114 type  1   force =     0.00022071    0.00048948    0.00035683
     atom  115 type  1   force =    -0.00022071   -0.00048948    0.00035683
     atom  116 type  1   force =    -0.00022071    0.00048948   -0.00035683
     atom  117 type  1   force =     0.00022071   -0.00048948   -0.00035683
     atom  118 type  1   force =    -0.00014776    0.00020853   -0.00039849
     atom  119 type  1   force =    -0.00014776   -0.00020853    0.00039849
     atom  120 type  1   force =     0.00014776    0.00020853    0.00039849
     atom  121 type  1   force =    -0.00014776    0.00020853    0.00039849
     atom  122 type  1   force =     0.00014776   -0.00020853    0.00039849
     atom  123 type  1   force =     0.00014776    0.00020853   -0.00039849
     atom  124 type  1   force =    -0.00014776   -0.00020853   -0.00039849
     atom  125 type  1   force =     0.00025838    0.00016561    0.00043140
     atom  126 type  1   force =     0.00025838   -0.00016561   -0.00043140
     atom  127 type  1   force =    -0.00025838    0.00016561   -0.00043140
     atom  128 type  1   force =     0.00025838    0.00016561   -0.00043140
     atom  129 type  1   force =    -0.00025838   -0.00016561   -0.00043140
     atom  130 type  1   force =    -0.00025838    0.00016561    0.00043140
     atom  131 type  1   force =     0.00025838   -0.00016561    0.00043140
     atom  132 type  1   force =     0.00009696    0.00054369    0.00009592
     atom  133 type  1   force =     0.00009696   -0.00054369   -0.00009592
     atom  134 type  1   force =    -0.00009696    0.00054369   -0.00009592
     atom  135 type  1   force =     0.00009696    0.00054369   -0.00009592
     atom  136 type  1   force =    -0.00009696   -0.00054369   -0.00009592
     atom  137 type  1   force =    -0.00009696    0.00054369    0.00009592
     atom  138 type  1   force =     0.00009696   -0.00054369    0.00009592
     atom  139 type  1   force =    -0.00008293   -0.00023379    0.00016420
     atom  140 type  1   force =    -0.00008293    0.00023379   -0.00016420
     atom  141 type  1   force =     0.00008293   -0.00023379   -0.00016420
     atom  142 type  1   force =    -0.00008293   -0.00023379   -0.00016420
     atom  143 type  1   force =     0.00008293    0.00023379   -0.00016420
     atom  144 type  1   force =     0.00008293   -0.00023379    0.00016420
     atom  145 type  1   force =    -0.00008293    0.00023379    0.00016420
     atom  146 type  1   force =    -0.00023302   -0.00017757   -0.00036003
     atom  147 type  1   force =    -0.00023302    0.00017757    0.00036003
     atom  148 type  1   force =     0.00023302   -0.00017757    0.00036003
     atom  149 type  1   force =    -0.00023302   -0.00017757    0.00036003
     atom  150 type  1   force =     0.00023302    0.00017757    0.00036003
     atom  151 type  1   force =     0.00023302   -0.00017757   -0.00036003
     atom  152 type  1   force =    -0.00023302    0.00017757   -0.00036003
     atom  153 type  2   force =     0.00030812   -0.00022380    0.00040459
     atom  154 type  2   force =     0.00030812    0.00022380   -0.00040459
     atom  155 type  2   force =    -0.00030812   -0.00022380   -0.00040459
     atom  156 type  2   force =     0.00030812   -0.00022380   -0.00040459
     atom  157 type  2   force =    -0.00030812    0.00022380   -0.00040459
     atom  158 type  2   force =    -0.00030812   -0.00022380    0.00040459
     atom  159 type  2   force =     0.00030812    0.00022380    0.00040459
     atom  160 type  1   force =    -0.00045057    0.00054030   -0.00017059
     atom  161 type  1   force =    -0.00045057   -0.00054030    0.00017059
     atom  162 type  1   force =     0.00045057    0.00054030    0.00017059
     atom  163 type  1   force =    -0.00045057    0.00054030    0.00017059
     atom  164 type  1   force =     0.00045057   -0.00054030    0.00017059
     atom  165 type  1   force =     0.00045057    0.00054030   -0.00017059
     atom  166 type  1   force =    -0.00045057   -0.00054030   -0.00017059
     atom  167 type  1   force =    -0.00033876   -0.00027914    0.00020855
     atom  168 type  1   force =    -0.00033876    0.00027914   -0.00020855
     atom  169 type  1   force =     0.00033876   -0.00027914   -0.00020855
     atom  170 type  1   force =    -0.00033876   -0.00027914   -0.00020855
     atom  171 type  1   force =     0.00033876    0.00027914   -0.00020855
     atom  172 type  1   force =     0.00033876   -0.00027914    0.00020855
     atom  173 type  1   force =    -0.00033876    0.00027914    0.00020855
     atom  174 type  1   force =     0.00025123   -0.00024998    0.00021887
     atom  175 type  1   force =     0.00025123    0.00024998   -0.00021887
     atom  176 type  1   force =    -0.00025123   -0.00024998   -0.00021887
     atom  177 type  1   force =     0.00025123   -0.00024998   -0.00021887
     atom  178 type  1   force =    -0.00025123    0.00024998   -0.00021887
     atom  179 type  1   force =    -0.00025123   -0.00024998    0.00021887
     atom  180 type  1   force =     0.00025123    0.00024998    0.00021887
     atom  181 type  1   force =     0.00000328   -0.00013749    0.00015098
     atom  182 type  1   force =     0.00000328    0.00013749   -0.00015098
     atom  183 type  1   force =    -0.00000328   -0.00013749   -0.00015098
     atom  184 type  1   force =     0.00000328   -0.00013749   -0.00015098
     atom  185 type  1   force =    -0.00000328    0.00013749   -0.00015098
     atom  186 type  1   force =    -0.00000328   -0.00013749    0.00015098
     atom  187 type  1   force =     0.00000328    0.00013749    0.00015098
     atom  188 type  1   force =    -0.00003128   -0.00030331   -0.00046293
     atom  189 type  1   force =    -0.00003128    0.00030331    0.00046293
     atom  190 type  1   force =     0.00003128   -0.00030331    0.00046293
     atom  191 type  1   force =    -0.00003128   -0.00030331    0.00046293
     atom  192 type  1   force =     0.00003128    0.00030331    0.00046293
     atom  193 type  1   force =     0.00003128   -0.00030331   -0.00046293
     atom  194 type  1   force =    -0.00003128    0.00030331   -0.00046293
     atom  195 type  2   force =    -0.00015616   -0.00016242   -0.00019336
     atom  196 type  2   force =    -0.00015616    0.00016242    0.00019336
     atom  197 type  2   force =     0.00015616   -0.00016242    0.00019336
     atom  198 type  2   force =    -0.00015616   -0.00016242    0.00019336
     atom  199 type  2   force =     0.00015616    0.00016242    0.00019336
     atom  200 type  2   force =     0.00015616   -0.00016242   -0.00019336
     atom  201 type  2   force =    -0.00015616    0.00016242   -0.00019336
     atom  202 type  2   force =    -0.00035071    0.00034461    0.00001591
     atom  203 type  2   force =    -0.00035071   -0.00034461   -0.00001591
     atom  204 type  2   force =     0.00035071    0.00034461   -0.00001591
     atom  205 type  2   force =    -0.00035071    0.00034461   -0.00001591
     atom  206 type  2   force =     0.00035071   -0.00034461   -0.00001591
     atom  207 type  2   force =     0.00035071    0.00034461    0.00001591
     atom  208 type  2   force =    -0.00035071   -0.00034461    0.00001591
     atom  209 type  2   force =     0.00021500   -0.00001133    0.00009804
     atom  210 type  2   force =     0.00021500    0.00001133   -0.00009804
     atom  211 type  2   force =    -0.00021500   -0.00001133   -0.00009804
     atom  212 type  2   force =     0.00021500   -0.00001133   -0.00009804
     atom  213 type  2   force =    -0.00021500    0.00001133   -0.00009804
     atom  214 type  2   force =    -0.00021500   -0.00001133    0.00009804
     atom  215 type  2   force =     0.00021500    0.00001133    0.00009804
     atom  216 type  2   force =     0.00008225    0.00030475    0.00029201
     atom  217 type  2   force =     0.00008225   -0.00030475   -0.00029201
     atom  218 type  2   force =    -0.00008225    0.00030475   -0.00029201
     atom  219 type  2   force =     0.00008225    0.00030475   -0.00029201
     atom  220 type  2   force =    -0.00008225   -0.00030475   -0.00029201
     atom  221 type  2   force =    -0.00008225    0.00030475    0.00029201
     atom  222 type  2   force =     0.00008225   -0.00030475    0.00029201
     atom  223 type  2   force =    -0.00019955   -0.00070829    0.00044373
     atom  224 type  2   force =    -0.00019955    0.00070829   -0.00044373
     atom  225 type  2   force =     0.00019955   -0.00070829   -0.00044373
     atom  226 type  2   force =    -0.00019955   -0.00070829   -0.00044373
     atom  227 type  2   force =     0.00019955    0.00070829   -0.00044373
     atom  228 type  2   force =     0.00019955   -0.00070829    0.00044373
     atom  229 type  2   force =    -0.00019955    0.00070829    0.00044373
     atom  230 type  2   force =    -0.00003849    0.00005233    0.00047471
     atom  231 type  2   force =    -0.00003849   -0.00005233   -0.00047471
     atom  232 type  2   force =     0.00003849    0.00005233   -0.00047471
     atom  233 type  2   force =    -0.00003849    0.00005233   -0.00047471
     atom  234 type  2   force =     0.00003849   -0.00005233   -0.00047471
     atom  235 type  2   force =     0.00003849    0.00005233    0.00047471
     atom  236 type  2   force =    -0.00003849   -0.00005233    0.00047471
     atom  237 type  2   force =    -0.00006633    0.00011094    0.00018141
     atom  238 type  2   force =    -0.00006633   -0.00011094   -0.00018141
     atom  239 type  2   force =     0.00006633    0.00011094   -0.00018141
     atom  240 type  2   force =    -0.00006633    0.00011094   -0.00018141
     atom  241 type  2   force =     0.00006633   -0.00011094   -0.00018141
     atom  242 type  2   force =     0.00006633    0.00011094    0.00018141
     atom  243 type  2   force =    -0.00006633   -0.00011094    0.00018141
     atom  244 type  2   force =     0.00006855    0.00021312    0.00018243
     atom  245 type  2   force =     0.00006855   -0.00021312   -0.00018243
     atom  246 type  2   force =    -0.00006855    0.00021312   -0.00018243
     atom  247 type  2   force =     0.00006855    0.00021312   -0.00018243
     atom  248 type  2   force =    -0.00006855   -0.00021312   -0.00018243
     atom  249 type  2   force =    -0.00006855    0.00021312    0.00018243
     atom  250 type  2   force =     0.00006855   -0.00021312    0.00018243
     atom  251 type  2   force =    -0.00028693    0.00005586   -0.00008798
     atom  252 type  2   force =    -0.00028693   -0.00005586    0.00008798
     atom  253 type  2   force =     0.00028693    0.00005586    0.00008798
     atom  254 type  2   force =    -0.00028693    0.00005586    0.00008798
     atom  255 type  2   force =     0.00028693   -0.00005586    0.00008798
     atom  256 type  2   force =     0.00028693    0.00005586   -0.00008798
     atom  257 type  2   force =    -0.00028693   -0.00005586   -0.00008798
     atom  258 type  2   force =     0.00035726   -0.00035228    0.00013334
     atom  259 type  2   force =     0.00035726    0.00035228   -0.00013334
     atom  260 type  2   force =    -0.00035726   -0.00035228   -0.00013334
     atom  261 type  2   force =     0.00035726   -0.00035228   -0.00013334
     atom  262 type  2   force =    -0.00035726    0.00035228   -0.00013334
     atom  263 type  2   force =    -0.00035726   -0.00035228    0.00013334
     atom  264 type  2   force =     0.00035726    0.00035228    0.00013334
     atom  265 type  2   force =     0.00021006   -0.00003266   -0.00019816
     atom  266 type  2   force =     0.00021006    0.00003266    0.00019816
     atom  267 type  2   force =    -0.00021006   -0.00003266    0.00019816
     atom  268 type  2   force =     0.00021006   -0.00003266    0.00019816
     atom  269 type  2   force =    -0.00021006    0.00003266    0.00019816
     atom  270 type  2   force =    -0.00021006   -0.00003266   -0.00019816
     atom  271 type  2   force =     0.00021006    0.00003266   -0.00019816
     atom  272 type  2   force =     0.00015531    0.00003785   -0.00000529
     atom  273 type  2   force =     0.00015531   -0.00003785    0.00000529
     atom  274 type  2   force =    -0.00015531    0.00003785    0.00000529
     atom  275 type  2   force =     0.00015531    0.00003785    0.00000529
     atom  276 type  2   force =    -0.00015531   -0.00003785    0.00000529
     atom  277 type  2   force =    -0.00015531    0.00003785   -0.00000529
     atom  278 type  2   force =     0.00015531   -0.00003785   -0.00000529
     atom  279 type  2   force =     0.00004599   -0.00023228    0.00013281
     atom  280 type  2   force =     0.00004599    0.00023228   -0.00013281
     atom  281 type  2   force =    -0.00004599   -0.00023228   -0.00013281
     atom  282 type  2   force =     0.00004599   -0.00023228   -0.00013281
     atom  283 type  2   force =    -0.00004599    0.00023228   -0.00013281
     atom  284 type  2   force =    -0.00004599   -0.00023228    0.00013281
     atom  285 type  2   force =     0.00004599    0.00023228    0.00013281
     atom  286 type  2   force =     0.00002396   -0.00002858    0.00000183
     atom  287 type  2   force =     0.00002396    0.00002858   -0.00000183
     atom  288 type  2   force =    -0.00002396   -0.00002858   -0.00000183
     atom  289 type  2   force =     0.00002396   -0.00002858   -0.00000183
     atom  290 type  2   force =    -0.00002396    0.00002858   -0.00000183
     atom  291 type  2   force =    -0.00002396   -0.00002858    0.00000183
     atom  292 type  2   force =     0.00002396    0.00002858    0.00000183
     atom  293 type  2   force =    -0.00015514    0.00006180    0.00013401
     atom  294 type  2   force =    -0.00015514   -0.00006180   -0.00013401
     atom  295 type  2   force =     0.00015514    0.00006180   -0.00013401
     atom  296 type  2   force =    -0.00015514    0.00006180   -0.00013401
     atom  297 type  2   force =     0.00015514   -0.00006180   -0.00013401
     atom  298 type  2   force =     0.00015514    0.00006180    0.00013401
     atom  299 type  2   force =    -0.00015514   -0.00006180    0.00013401
     atom  300 type  2   force =    -0.00035066    0.00040090   -0.00022516
     atom  301 type  2   force =    -0.00035066   -0.00040090    0.00022516
     atom  302 type  2   force =     0.00035066    0.00040090    0.00022516
     atom  303 type  2   force =    -0.00035066    0.00040090    0.00022516
     atom  304 type  2   force =     0.00035066   -0.00040090    0.00022516
     atom  305 type  2   force =     0.00035066    0.00040090   -0.00022516
     atom  306 type  2   force =    -0.00035066   -0.00040090   -0.00022516
     atom  307 type  2   force =     0.00047461   -0.00034049    0.00013304
     atom  308 type  2   force =     0.00047461    0.00034049   -0.00013304
     atom  309 type  2   force =    -0.00047461   -0.00034049   -0.00013304
     atom  310 type  2   force =     0.00047461   -0.00034049   -0.00013304
     atom  311 type  2   force =    -0.00047461    0.00034049   -0.00013304
     atom  312 type  2   force =    -0.00047461   -0.00034049    0.00013304
     atom  313 type  2   force =     0.00047461    0.00034049    0.00013304
     atom  314 type  2   force =    -0.00034444   -0.00028986   -0.00008768
     atom  315 type  2   force =    -0.00034444    0.00028986    0.00008768
     atom  316 type  2   force =     0.00034444   -0.00028986    0.00008768
     atom  317 type  2   force =    -0.00034444   -0.00028986    0.00008768
     atom  318 type  2   force =     0.00034444    0.00028986    0.00008768
     atom  319 type  2   force =     0.00034444   -0.00028986   -0.00008768
     atom  320 type  2   force =    -0.00034444    0.00028986   -0.00008768

     Total force =     0.008727     Total SCF correction =     0.000261

     BFGS Geometry Optimization

     bfgs converged in   1 scf cycles and   0 bfgs steps
     (criteria: energy <  1.0E-04 Ry, force <  1.0E-03 Ry/Bohr)

     End of BFGS Geometry Optimization

     Final energy   =   -2489.5325260170 Ry
Begin final coordinates

ATOMIC_POSITIONS (angstrom)
O        1.699560739   2.112081958   3.625623370
O        0.715060588   0.388405600   2.136688790
C        1.467448611  12.627638088   2.622714713
C        0.976718179   9.739007145   0.178918755
C        2.245912500  12.931642993   3.839616063
C        1.585680603  11.338354870   1.999082349
C        2.338798365   1.120412635   4.286060267
C        1.961141746   7.531298541  21.968593254
N        1.278139992   6.183477743  20.075180971
C        1.170761722   7.325615315  20.799650299
C        0.878808402  10.979678158   0.882539506
C        2.912580582  11.941450859   4.588630323
C        1.861141476   8.695618013   0.551622816
C        3.752856127   0.421358513   6.122356454
C        3.117415706   1.429049606   5.412006551
C        3.649562919  12.232780500   5.728790392
C        0.184268307   9.519791645  21.167189693
C        0.269102597   8.361145006  20.423001066
C        0.460907811   5.985676807  18.887964053
C        2.211841161   5.141870586  20.484814685
C        4.327221632  11.136747087   6.505794856
H        3.902137280  11.039112415   7.517749569
H        5.397803089  11.347560845   6.636276042
H        4.229940231  10.173672201   5.987279722
H        2.857368414  10.901162257   4.272261287
H       10.238881971  10.301553289  20.863071085
H        0.182215234  11.715733369   0.466766146
H        2.657519740   6.764156937   0.157913393
H        3.203047041   2.471437544   5.719167342
H        4.342342289   0.675413913   7.006038108
H        2.487572597   8.806602748   1.436169477
H        2.289599921  10.631435104   2.433748960
H       10.139758581   6.064421800  19.124218407
H       10.390136155   8.246279692  19.542546477
H        2.180452909   4.325297021  19.756879435
H        1.948638810   4.739621029  21.474999008
H        0.653369531   4.989643334  18.479998858
H        3.242108432   5.528470494  20.531695801
H        1.138895207   1.590738679   2.916419903
H        0.696524765   6.728073878  18.109411998
O        3.675449261  11.047918042  14.696123370
O        9.050439261   8.692081958   7.444876630
O        7.074560739   4.467918042  18.515376630
O        9.050449261  11.047918042  18.515376630
O        7.074560739   2.112081958   7.444876630
O        1.699560739   4.467918042  14.696123370
O        3.675449261   8.692081958   3.625623370
O        4.659939412  12.771594400  13.207188790
O       10.034939412   6.968405600   8.933811210
O        6.090060588   6.191594400  20.004311210
O       10.034939412  12.771594400  20.004311210
O        6.090060588   0.388405600   8.933811210
O        0.715060588   6.191594400  13.207188790
O        4.659939412   6.968405600   2.136688790
C        3.907551389   0.532361912  13.693214713
C        9.282551389   6.047638088   8.447785287
C        6.842448611   7.112361912  19.518285287
C        9.282551389   0.532361912  19.518285287
C        6.842448611  12.627638088   8.447785287
C        1.467448611   7.112361912  13.693214713
C        3.907551389   6.047638088   2.622714713
C        4.398281821   3.420992855  11.249418755
C        9.773281821   3.159007145  10.891581245
C        6.351718179  10.000992855  21.962081245
C        9.773281821   3.420992855  21.962081245
C        6.351718179   9.739007145  10.891581245
C        0.976718179  10.000992855  11.249418755
C        4.398281821   3.159007145   0.178918755
C        3.129087500   0.228357007  14.910116063
C        8.504087500   6.351642993   7.230883937
C        7.620912500   6.808357007  18.301383937
C        8.504087500   0.228357007  18.301383937
C        7.620912500  12.931642993   7.230883937
C        2.245912500   6.808357007  14.910116063
C        3.129087500   6.351642993   3.839616063
C        3.789319397   1.821645130  13.069582349
C        9.164319397   4.758354870   9.071417651
C        6.960680603   8.401645130  20.141917651
C        9.164319397   1.821645130  20.141917651
C        6.960680603  11.338354870   9.071417651
C        1.585680603   8.401645130  13.069582349
C        3.789319397   4.758354870   1.999082349
C        3.036201635  12.039587365  15.356560267
C        8.411201635   7.700412635   6.784439733
C        7.713798365   5.459587365  17.854939733
C        8.411201635  12.039587365  17.854939733
C        7.713798365   1.120412635   6.784439733
C        2.338798365   5.459587365  15.356560267
C        3.036201635   7.700412635   4.286060267
C        3.413868254   5.628701459  10.898093254
C        8.788858254   0.951298541  11.242906746
C        7.336141746  12.208701459   0.172406746
C        8.788858254   5.628701459   0.172406746
C        7.336141746   7.531298541  11.242906746
C        1.961141746  12.208701459  10.898093254
C        3.413868254   0.951298541  21.968593254
N        4.096860008   6.976522257   9.004680971
N        9.471860008  12.763477743  13.136319029
N        6.653139992   0.396522257   2.065819029
N        9.471860008   6.976522257   2.065819029
N        6.653139992   6.183477743  13.136319029
N        1.278139992   0.396522257   9.004680971
N        4.096860008  12.763477743  20.075180971
C        4.204238278   5.834384685   9.729150299
C        9.579238278   0.745615315  12.411849701
C        6.545761722  12.414384685   1.341349701
C        9.579238278   5.834384685   1.341349701
C        6.545761722   7.325615315  12.411849701
C        1.170761722  12.414384685   9.729150299
C        4.204238278   0.745615315  20.799650299
C        4.496201598   2.180321842  11.953039506
C        9.871191598   4.399678158  10.187960494
C        6.253808402   8.760321842  21.258460494
C        9.871201598   2.180321842  21.258460494
C        6.253808402  10.979678158  10.187960494
C        0.878808402   8.760321842  11.953039506
C        4.496191598   4.399678158   0.882539506
C        2.462429418   1.218549141  15.659130323
C        7.837419418   5.361450859   6.481869677
C        8.287580582   7.798549141  17.552369677
C        7.837419418   1.218549141  17.552369677
C        8.287580582  11.941450859   6.481869677
C        2.912580582   7.798549141  15.659130323
C        2.462429418   5.361450859   4.588630323
C        3.513858524   4.464381987  11.622122816
C        8.888858524   2.115618013  10.518877184
C        7.236141476  11.044381987  21.589377184
C        8.888858524   4.464381987  21.589377184
C        7.236141476   8.695618013  10.518877184
C        1.861141476  11.044381987  11.622122816
C        3.513858524   2.115618013   0.551622816
C        1.622153873  12.738641487  17.192856454
C        6.997153873   7.001358513   4.948143546
C        9.127856127   6.158641487  16.018643546
C        6.997153873  12.738641487  16.018643546
C        9.127846127   0.421358513   4.948143546
C        3.752856127   6.158641487  17.192856454
C        1.622153873   7.001358513   6.122356454
C        2.257594294  11.730950394  16.482506551
C        7.632594294   8.009049606   5.658493449
C        8.492415706   5.150950394  16.728993449
C        7.632594294  11.730950394  16.728993449
C        8.492415706   1.429049606   5.658493449
C        3.117415706   5.150950394  16.482506551
C        2.257594294   8.009049606   5.412006551
C        1.725437081   0.927219500  16.799290392
C        7.100437081   5.652780500   5.341709608
C        9.024562919   7.507219500  16.412209608
C        7.100437081   0.927219500  16.412209608
C        9.024562919  12.232780500   5.341709608
C        3.649562919   7.507219500  16.799290392
C        1.725437081   5.652780500   5.728790392
H        5.985241419   7.095578200   8.053718407
H        0.610241419  12.644421800  14.087281593
H        4.764758581   0.515578200   3.016781593
H        0.610241419   7.095578200   3.016781593
H        4.764758581   6.064421800  14.087281593
H       10.139758581   0.515578200   8.053718407
H        5.985241419  12.644421800  19.124218407
C        5.190741693   3.640208355  10.096689693
C       10.565741693   2.939791645  12.044310307
C        5.559268307  10.220208355   0.973810307
C       10.565741693   3.640208355   0.973810307
C        5.559268307   9.519791645  12.044310307
C        0.184268307  10.220208355  10.096689693
C        5.190741693   2.939791645  21.167189693
C        5.105907403   4.798854994   9.352501066
C       10.480897403   1.781145006  12.788498934
C        5.644102597  11.378854994   1.717998934
C       10.480897403   4.798854994   1.717998934
C        5.644102597   8.361145006  12.788498934
C        0.269102597  11.378854994   9.352501066
C        5.105907403   1.781145006  20.423001066
C        4.914092189   7.174323193   7.817464053
C       10.289092189  12.565676807  14.323535947
C        5.835907811   0.594323193   3.253035947
C       10.289092189   7.174323193   3.253035947
C        5.835907811   5.985676807  14.323535947
C        0.460907811   0.594323193   7.817464053
C        4.914092189  12.565676807  18.887964053
C        3.163158839   8.018129414   9.414314685
C        8.538158839  11.721870586  12.726685315
C        7.586841161   1.438129414   1.656185315
C        8.538158839   8.018129414   1.656185315
C        7.586841161   5.141870586  12.726685315
C        2.211841161   1.438129414   9.414314685
C        3.163158839  11.721870586  20.484814685
C        1.047788368   2.023252913  17.576294856
C        6.422788368   4.556747087   4.564705144
C        9.702221632   8.603252913  15.635205144
C        6.422788368   2.023252913  15.635205144
C        9.702221632  11.136747087   4.564705144
C        4.327221632   8.603252913  17.576294856
C        1.047788368   4.556747087   6.505794856
H        1.472862720   2.120887585  18.588249569
H        6.847862720   4.459112415   3.552750431
H        9.277137280   8.700887585  14.623250431
H        6.847862720   2.120887585  14.623250431
H        9.277137280  11.039112415   3.552750431
H        3.902137280   8.700887585  18.588249569
H        1.472862720   4.459112415   7.517749569
H       -0.022793089   1.812439155  17.706776042
H        5.352206911   4.767560845   4.434223958
H       10.772803089   8.392439155  15.504723958
H        5.352206911   1.812439155  15.504723958
H       10.772793089  11.347560845   4.434223958
H        5.397803089   8.392439155  17.706776042
H       -0.022793089   4.767560845   6.636276042
H        1.145069769   2.986327799  17.057779722
H        6.520069769   3.593672201   5.083220278
H        9.604940231   9.566327799  16.153720278
H        6.520069769   2.986327799  16.153720278
H        9.604930231  10.173672201   5.083220278
H        4.229940231   9.566327799  17.057779722
H        1.145069769   3.593672201   5.987279722
H        2.517631586   2.258837743  15.342761287
H        7.892631586   4.321162257   6.798238713
H        8.232368414   8.838837743  17.868738713
H        7.892631586   2.258837743  17.868738713
H        8.232368414  10.901162257   6.798238713
H        2.857368414   8.838837743  15.342761287
H        2.517631586   4.321162257   4.272261287
H        5.886118029   2.858446711   9.792571085
H        0.511118029   3.721553289  12.348428915
H        4.863881971   9.438446711   1.277928915
H        0.511118029   2.858446711   1.277928915
H        4.863881971  10.301553289  12.348428915
H       10.238881971   9.438446711   9.792571085
H        5.886118029   3.721553289  20.863071085
H        5.192784766   1.444266631  11.537266146
H       10.567784766   5.135733369  10.603733854
H        5.557215234   8.024266631  21.674233854
H       10.567784766   1.444266631  21.674233854
H        5.557215234  11.715733369  10.603733854
H        0.182215234   8.024266631  11.537266146
H        5.192784766   5.135733369   0.466766146
H        2.717480260   6.395843063  11.228413393
H        8.092480260   0.184156937  10.912586607
H        8.032519740  12.975843063  21.983086607
H        8.092480260   6.395843063  21.983086607
H        8.032519740   6.764156937  10.912586607
H        2.657519740  12.975843063  11.228413393
H        2.717480260   0.184156937   0.157913393
H        2.171952959  10.688562456  16.789667342
H        7.546952959   9.051437544   5.351332658
H        8.578047041   4.108562456  16.421832658
H        7.546952959  10.688562456  16.421832658
H        8.578047041   2.471437544   5.351332658
H        3.203047041   4.108562456  16.789667342
H        2.171952959   9.051437544   5.719167342
H        1.032657711  12.484586087  18.076538108
H        6.407657711   7.255413913   4.064461892
H        9.717342289   5.904586087  15.134961892
H        6.407657711  12.484586087  15.134961892
H        9.717342289   0.675413913   4.064461892
H        4.342342289   5.904586087  18.076538108
H        1.032657711   7.255413913   7.006038108
H        2.887427403   4.353397252  12.506669477
H        8.262427403   2.226602748   9.634330523
H        7.862572597  10.933397252  20.704830523
H        8.262427403   4.353397252  20.704830523
H        7.862572597   8.806602748   9.634330523
H        2.487572597  10.933397252  12.506669477
H        2.887427403   2.226602748   1.436169477
H        3.085400079   2.528564896  13.504248960
H        8.460400079   4.051435104   8.636751040
H        7.664599921   9.108564896  19.707251040
H        8.460400079   2.528564896  19.707251040
H        7.664599921  10.631435104   8.636751040
H        2.289599921   9.108564896  13.504248960
H        3.085400079   4.051435104   2.433748960
H        5.734863845   4.913720308   8.472046477
H        0.359863845   1.666279692  13.668953523
H        5.015136155  11.493720308   2.598453523
H        0.359863845   4.913720308   2.598453523
H        5.015136155   8.246279692  13.668953523
H       10.390136155  11.493720308   8.472046477
H        5.734863845   1.666279692  19.542546477
H        3.194547091   8.834702979   8.686379435
H        8.569547091  10.905297021  13.454620565
H        7.555452909   2.254702979   2.384120565
H        8.569547091   8.834702979   2.384120565
H        7.555452909   4.325297021  13.454620565
H        2.180452909   2.254702979   8.686379435
H        3.194547091  10.905297021  19.756879435
H        3.426361190   8.420378971  10.404499008
H        8.801361190  11.319621029  11.736500992
H        7.323638810   1.840378971   0.666000992
H        8.801361190   8.420378971   0.666000992
H        7.323638810   4.739621029  11.736500992
H        1.948638810   1.840378971  10.404499008
H        3.426361190  11.319621029  21.474999008
H        4.721630469   8.170356666   7.409498858
H       10.096630469  11.569643334  14.731501142
H        6.028369531   1.590356666   3.661001142
H       10.096630469   8.170356666   3.661001142
H        6.028369531   4.989643334  14.731501142
H        0.653369531   1.590356666   7.409498858
H        4.721630469  11.569643334  18.479998858
H        2.132891568   7.631529506   9.461195801
H        7.507891568  12.108470494  12.679804199
H        8.617108432   1.051529506   1.609304199
H        7.507891568   7.631529506   1.609304199
H        8.617108432   5.528470494  12.679804199
H        3.242108432   1.051529506   9.461195801
H        2.132891568  12.108470494  20.531695801
H        4.236104793  11.569261321  13.986919903
H        9.611104793   8.170738679   8.154080097
H        6.513895207   4.989261321  19.224580097
H        9.611104793  11.569261321  19.224580097
H        6.513895207   1.590738679   8.154080097
H        1.138895207   4.989261321  13.986919903
H        4.236104793   8.170738679   2.916419903
H        4.678475235   6.431926122   7.038911998
H       10.053475235   0.148073878  15.102088002
H        6.071524765  13.011926122   4.031588002
H       10.053475235   6.431926122   4.031588002
H        6.071524765   6.728073878  15.102088002
H        0.696524765  13.011926122   7.038911998
H        4.678475235   0.148073878  18.109411998
End final coordinates



     Writing output data file 2hc_4_442.save
 
     init_run     :     31.24s CPU     31.96s WALL (       1 calls)
     electrons    :    757.48s CPU    773.68s WALL (       1 calls)
     forces       :     31.55s CPU     32.48s WALL (       1 calls)

     Called by init_run:
     wfcinit      :     25.19s CPU     25.54s WALL (       1 calls)
     potinit      :      2.15s CPU      2.18s WALL (       1 calls)

     Called by electrons:
     c_bands      :    643.25s CPU    650.34s WALL (      15 calls)
     sum_band     :     80.34s CPU     84.87s WALL (      15 calls)
     v_of_rho     :      6.40s CPU      6.44s WALL (      16 calls)
     newd         :     13.12s CPU     17.95s WALL (      16 calls)
     mix_rho      :      0.98s CPU      0.98s WALL (      15 calls)

     Called by c_bands:
     init_us_2    :      5.08s CPU      5.23s WALL (      31 calls)
     regterg      :    624.80s CPU    631.88s WALL (      15 calls)

     Called by sum_band:
     sum_band:bec :      0.02s CPU      0.02s WALL (      15 calls)
     addusdens    :     13.09s CPU     17.62s WALL (      15 calls)

     Called by *egterg:
     h_psi        :    370.94s CPU    371.08s WALL (      82 calls)
     s_psi        :     89.68s CPU     89.68s WALL (      82 calls)
     g_psi        :      2.15s CPU      2.15s WALL (      66 calls)
     rdiaghg      :     28.60s CPU     28.60s WALL (      81 calls)

     Called by h_psi:
     h_psi:pot    :    368.06s CPU    368.12s WALL (      82 calls)
     h_psi:calbec :     83.33s CPU     83.33s WALL (      82 calls)
     vloc_psi     :    195.18s CPU    195.24s WALL (      82 calls)
     add_vuspsi   :     89.55s CPU     89.55s WALL (      82 calls)

     General routines
     calbec       :    118.72s CPU    118.72s WALL (     101 calls)
     fft          :      2.74s CPU      2.76s WALL (     209 calls)
     fftw         :    204.07s CPU    204.12s WALL (   21952 calls)
     davcio       :      0.01s CPU      0.12s WALL (       1 calls)
 
     Parallel routines
     fft_scatter  :     16.84s CPU     16.86s WALL (   22161 calls)
 
     PWSCF        : 13m40.49s CPU    13m58.54s WALL

 
   This run was terminated on:  10:34: 9  16Oct2017            

=------------------------------------------------------------------------------=
   JOB DONE.
=------------------------------------------------------------------------------=
