 Entering Gaussian System, Link 0=g09
 Input=H_HP_mon-2.com
 Output=H_HP_mon-2.out
 Initial command:
 /share/apps/gaussian/g09_D01/g09/l1.exe "/tmp/4048959.1.chemistry.q/Gau-17033.inp" -scrdir="/tmp/4048959.1.chemistry.q/"
 Entering Link 1 = /share/apps/gaussian/g09_D01/g09/l1.exe PID=     17035.
  
 Copyright (c) 1988,1990,1992,1993,1995,1998,2003,2009,2013,
            Gaussian, Inc.  All Rights Reserved.
  
 This is part of the Gaussian(R) 09 program.  It is based on
 the Gaussian(R) 03 system (copyright 2003, Gaussian, Inc.),
 the Gaussian(R) 98 system (copyright 1998, Gaussian, Inc.),
 the Gaussian(R) 94 system (copyright 1995, Gaussian, Inc.),
 the Gaussian 92(TM) system (copyright 1992, Gaussian, Inc.),
 the Gaussian 90(TM) system (copyright 1990, Gaussian, Inc.),
 the Gaussian 88(TM) system (copyright 1988, Gaussian, Inc.),
 the Gaussian 86(TM) system (copyright 1986, Carnegie Mellon
 University), and the Gaussian 82(TM) system (copyright 1983,
 Carnegie Mellon University). Gaussian is a federally registered
 trademark of Gaussian, Inc.
  
 This software contains proprietary and confidential information,
 including trade secrets, belonging to Gaussian, Inc.
  
 This software is provided under written license and may be
 used, copied, transmitted, or stored only in accord with that
 written license.
  
 The following legend is applicable only to US Government
 contracts under FAR:
  
                    RESTRICTED RIGHTS LEGEND
  
 Use, reproduction and disclosure by the US Government is
 subject to restrictions as set forth in subparagraphs (a)
 and (c) of the Commercial Computer Software - Restricted
 Rights clause in FAR 52.227-19.
  
 Gaussian, Inc.
 340 Quinnipiac St., Bldg. 40, Wallingford CT 06492
  
  
 ---------------------------------------------------------------
 Warning -- This program may not be used in any manner that
 competes with the business of Gaussian, Inc. or will provide
 assistance to any competitor of Gaussian, Inc.  The licensee
 of this program is prohibited from giving any competitor of
 Gaussian, Inc. access to this program.  By using this program,
 the user acknowledges that Gaussian, Inc. is engaged in the
 business of creating and licensing software in the field of
 computational chemistry and represents and warrants to the
 licensee that it is not a competitor of Gaussian, Inc. and that
 it will not use this program in any manner prohibited above.
 ---------------------------------------------------------------
  

 Cite this work as:
 Gaussian 09, Revision D.01,
 M. J. Frisch, G. W. Trucks, H. B. Schlegel, G. E. Scuseria, 
 M. A. Robb, J. R. Cheeseman, G. Scalmani, V. Barone, B. Mennucci, 
 G. A. Petersson, H. Nakatsuji, M. Caricato, X. Li, H. P. Hratchian, 
 A. F. Izmaylov, J. Bloino, G. Zheng, J. L. Sonnenberg, M. Hada, 
 M. Ehara, K. Toyota, R. Fukuda, J. Hasegawa, M. Ishida, T. Nakajima, 
 Y. Honda, O. Kitao, H. Nakai, T. Vreven, J. A. Montgomery, Jr., 
 J. E. Peralta, F. Ogliaro, M. Bearpark, J. J. Heyd, E. Brothers, 
 K. N. Kudin, V. N. Staroverov, T. Keith, R. Kobayashi, J. Normand, 
 K. Raghavachari, A. Rendell, J. C. Burant, S. S. Iyengar, J. Tomasi, 
 M. Cossi, N. Rega, J. M. Millam, M. Klene, J. E. Knox, J. B. Cross, 
 V. Bakken, C. Adamo, J. Jaramillo, R. Gomperts, R. E. Stratmann, 
 O. Yazyev, A. J. Austin, R. Cammi, C. Pomelli, J. W. Ochterski, 
 R. L. Martin, K. Morokuma, V. G. Zakrzewski, G. A. Voth, 
 P. Salvador, J. J. Dannenberg, S. Dapprich, A. D. Daniels, 
 O. Farkas, J. B. Foresman, J. V. Ortiz, J. Cioslowski, 
 and D. J. Fox, Gaussian, Inc., Wallingford CT, 2013.
 
 ******************************************
 Gaussian 09:  ES64L-G09RevD.01 24-Apr-2013
                27-Sep-2017 
 ******************************************
 %chk=H_HP_mon-2
 %mem=14GB
 %nproc=2
 Will use up to    2 processors via shared memory.
 ----------------------------------------------------------------------
 #p wb97xd 6-31G* td=(nstates=1) nosymm density=(transition=1) pop=Save
 NTO
 ----------------------------------------------------------------------
 1/38=1/1;
 2/12=2,15=1,17=6,18=5,40=1/2;
 3/5=1,6=6,7=1,11=9,16=1,25=1,30=1,74=-58/1,2,8,3;
 4//1;
 5/5=2,38=5/2;
 8/6=1,10=2,108=1/1;
 9/41=1,42=1,70=2/14;
 6/7=2,8=2,9=2,10=2,29=1,89=10/1;
 99/5=1,9=1/99;
 Leave Link    1 at Wed Sep 27 14:24:34 2017, MaxMem=  1879048192 cpu:         0.1
 (Enter /share/apps/gaussian/g09_D01/g09/l101.exe)
 -----
 title
 -----
 Symbolic Z-matrix:
 Charge =  0 Multiplicity = 1
 C                    -2.46543  -2.36438   1.78754 
 C                    -1.17214  -1.99476   1.14509 
 C                    -3.29807  -3.32122   1.16379 
 C                    -2.90371  -1.79233   2.99065 
 C                    -0.18186  -1.28117   1.90317 
 O                    -0.97716  -2.33063  -0.04286 
 C                    -4.49896  -3.70417   1.77159 
 O                    -2.98361  -3.89092  -0.00586 
 H                    -2.15111  -3.4528   -0.30506 
 C                    -4.10196  -2.15419   3.57639 
 H                    -2.29929  -1.03002   3.4667 
 C                     0.97109  -0.88403   1.28055 
 H                    -0.33594  -1.1056    2.95648 
 C                    -4.89498  -3.12459   2.96113 
 H                    -5.10651  -4.4523    1.27512 
 H                    -4.42172  -1.68732   4.50011 
 H                     1.05624  -1.06234   0.21247 
 N                     2.02213  -0.30057   1.85645 
 H                    -5.83521  -3.42183   3.41302 
 C                     2.01476  -0.0179    3.27858 
 C                     3.15691   0.16746   1.08048 
 H                     1.24816   0.72496   3.52758 
 H                     2.98794   0.37406   3.57111 
 H                     1.81964  -0.93223   3.84854 
 H                     3.01856  -0.09784   0.03193 
 H                     4.07935  -0.29597   1.44396 
 H                     3.24981   1.25505   1.14964 
 
 NAtoms=     27 NQM=       27 NQMF=       0 NMMI=      0 NMMIF=      0
                NMic=       0 NMicF=      0.
                    Isotopes and Nuclear Properties:
 (Nuclear quadrupole moments (NQMom) in fm**2, nuclear magnetic moments (NMagM)
  in nuclear magnetons)

  Atom         1           2           3           4           5           6           7           8           9          10
 IAtWgt=          12          12          12          12          12          16          12          16           1          12
 AtmWgt=  12.0000000  12.0000000  12.0000000  12.0000000  12.0000000  15.9949146  12.0000000  15.9949146   1.0078250  12.0000000
 NucSpn=           0           0           0           0           0           0           0           0           1           0
 AtZEff=   0.0000000   0.0000000   0.0000000   0.0000000   0.0000000   0.0000000   0.0000000   0.0000000   0.0000000   0.0000000
 NQMom=    0.0000000   0.0000000   0.0000000   0.0000000   0.0000000   0.0000000   0.0000000   0.0000000   0.0000000   0.0000000
 NMagM=    0.0000000   0.0000000   0.0000000   0.0000000   0.0000000   0.0000000   0.0000000   0.0000000   2.7928460   0.0000000
 AtZNuc=   6.0000000   6.0000000   6.0000000   6.0000000   6.0000000   8.0000000   6.0000000   8.0000000   1.0000000   6.0000000

  Atom        11          12          13          14          15          16          17          18          19          20
 IAtWgt=           1          12           1          12           1           1           1          14           1          12
 AtmWgt=   1.0078250  12.0000000   1.0078250  12.0000000   1.0078250   1.0078250   1.0078250  14.0030740   1.0078250  12.0000000
 NucSpn=           1           0           1           0           1           1           1           2           1           0
 AtZEff=   0.0000000   0.0000000   0.0000000   0.0000000   0.0000000   0.0000000   0.0000000   0.0000000   0.0000000   0.0000000
 NQMom=    0.0000000   0.0000000   0.0000000   0.0000000   0.0000000   0.0000000   0.0000000   2.0440000   0.0000000   0.0000000
 NMagM=    2.7928460   0.0000000   2.7928460   0.0000000   2.7928460   2.7928460   2.7928460   0.4037610   2.7928460   0.0000000
 AtZNuc=   1.0000000   6.0000000   1.0000000   6.0000000   1.0000000   1.0000000   1.0000000   7.0000000   1.0000000   6.0000000

  Atom        21          22          23          24          25          26          27
 IAtWgt=          12           1           1           1           1           1           1
 AtmWgt=  12.0000000   1.0078250   1.0078250   1.0078250   1.0078250   1.0078250   1.0078250
 NucSpn=           0           1           1           1           1           1           1
 AtZEff=   0.0000000   0.0000000   0.0000000   0.0000000   0.0000000   0.0000000   0.0000000
 NQMom=    0.0000000   0.0000000   0.0000000   0.0000000   0.0000000   0.0000000   0.0000000
 NMagM=    0.0000000   2.7928460   2.7928460   2.7928460   2.7928460   2.7928460   2.7928460
 AtZNuc=   6.0000000   1.0000000   1.0000000   1.0000000   1.0000000   1.0000000   1.0000000
 Leave Link  101 at Wed Sep 27 14:24:34 2017, MaxMem=  1879048192 cpu:         0.1
 (Enter /share/apps/gaussian/g09_D01/g09/l202.exe)
                          Input orientation:                          
 ---------------------------------------------------------------------
 Center     Atomic      Atomic             Coordinates (Angstroms)
 Number     Number       Type             X           Y           Z
 ---------------------------------------------------------------------
      1          6           0       -2.465425   -2.364375    1.787541
      2          6           0       -1.172143   -1.994760    1.145085
      3          6           0       -3.298074   -3.321217    1.163794
      4          6           0       -2.903713   -1.792329    2.990652
      5          6           0       -0.181857   -1.281173    1.903170
      6          8           0       -0.977156   -2.330632   -0.042860
      7          6           0       -4.498958   -3.704170    1.771591
      8          8           0       -2.983612   -3.890922   -0.005857
      9          1           0       -2.151107   -3.452800   -0.305064
     10          6           0       -4.101957   -2.154185    3.576386
     11          1           0       -2.299292   -1.030018    3.466700
     12          6           0        0.971087   -0.884025    1.280550
     13          1           0       -0.335935   -1.105601    2.956483
     14          6           0       -4.894978   -3.124585    2.961132
     15          1           0       -5.106508   -4.452301    1.275116
     16          1           0       -4.421720   -1.687315    4.500109
     17          1           0        1.056240   -1.062342    0.212470
     18          7           0        2.022127   -0.300574    1.856453
     19          1           0       -5.835213   -3.421827    3.413024
     20          6           0        2.014763   -0.017902    3.278582
     21          6           0        3.156912    0.167462    1.080475
     22          1           0        1.248162    0.724955    3.527576
     23          1           0        2.987944    0.374064    3.571110
     24          1           0        1.819639   -0.932225    3.848537
     25          1           0        3.018558   -0.097841    0.031927
     26          1           0        4.079346   -0.295969    1.443957
     27          1           0        3.249809    1.255049    1.149636
 ---------------------------------------------------------------------
                    Distance matrix (angstroms):
                    1          2          3          4          5
     1  C    0.000000
     2  C    1.490618   0.000000
     3  C    1.413475   2.505877   0.000000
     4  C    1.402430   2.538785   2.414628   0.000000
     5  C    2.530095   1.436860   3.797271   2.975298   0.000000
     6  O    2.359333   1.249817   2.797129   3.633674   2.349659
     7  C    2.435274   3.792399   1.399354   2.772373   4.952332
     8  O    2.411460   2.863829   1.338482   3.659172   4.278435
     9  H    2.379593   2.277539   1.868259   3.766341   3.670178
    10  C    2.433595   3.810571   2.797998   1.381960   4.350745
    11  H    2.151205   2.755193   3.398608   1.083081   2.644095
    12  C    3.775989   2.417751   4.917242   4.331690   1.369183
    13  H    2.735994   2.184264   4.110591   2.658241   1.078904
    14  C    2.803206   4.293487   2.412300   2.396020   5.170199
    15  H    3.405486   4.640651   2.135925   3.856270   5.890899
    16  H    3.412261   4.680861   3.881136   2.143323   4.988535
    17  H    4.071641   2.589375   4.996757   4.892076   2.106950
    18  N    4.939853   3.685061   6.156996   5.270260   2.412738
    19  H    3.887913   5.378131   3.392084   3.380437   6.230770
    20  C    5.272687   4.314643   6.603821   5.236688   2.883184
    21  C    6.206514   4.839431   7.337893   6.649867   3.731320
    22  H    5.134434   4.350976   6.528954   4.884984   2.950966
    23  H    6.357625   5.366866   7.678821   6.304111   3.945817
    24  H    4.965937   4.169939   6.253488   4.877069   2.812864
    25  H    6.188168   4.732800   7.181303   6.833640   3.891591
    26  H    6.872436   5.527509   7.978530   7.307152   4.397653
    27  H    6.794928   5.487708   7.988566   7.109268   4.333194
                    6          7          8          9         10
     6  O    0.000000
     7  C    4.193081   0.000000
     8  O    2.541995   2.343175   0.000000
     9  H    1.645045   3.144533   0.987188   0.000000
    10  C    4.784815   2.411918   4.135144   4.534079   0.000000
    11  H    3.969465   3.855258   4.551013   4.485313   2.127295
    12  C    2.764007   6.173794   5.131853   4.342911   5.711387
    13  H    3.302715   5.048494   4.852181   4.409295   3.958122
    14  C    5.000366   1.381216   3.611595   4.278386   1.396100
    15  H    4.825981   1.084115   2.542189   3.497194   3.403866
    16  H    5.737373   3.393889   5.218023   5.600206   1.083273
    17  H    2.410073   6.345891   4.936490   4.033510   6.254202
    18  N    4.089526   7.356373   6.435544   5.659025   6.625590
    19  H    6.060904   2.135321   4.476653   5.234288   2.153550
    20  C    5.033118   7.634668   7.125418   6.480395   6.485881
    21  C    4.959120   8.606946   7.440204   6.572753   8.019401
    22  H    5.199679   7.465254   7.190228   6.610431   6.075821
    23  H    6.008176   8.713436   8.163595   7.488622   7.527202
    24  H    4.992051   7.205696   6.832383   6.274753   6.052483
    25  H    4.577847   8.517340   7.100348   6.172094   8.215441
    26  H    5.649663   9.236367   8.056738   7.200222   8.656439
    27  H    5.669778   9.220850   8.165275   7.310943   8.459341
                   11         12         13         14         15
    11  H    0.000000
    12  C    3.936489   0.000000
    13  H    2.029977   2.136856   0.000000
    14  C    3.373484   6.500399   4.986100   0.000000
    15  H    4.939182   7.047679   6.065127   2.156438   0.000000
    16  H    2.450444   6.331919   4.406224   2.158279   4.302867
    17  H    4.674468   1.086206   3.077276   6.872044   7.113403
    18  N    4.669009   1.332953   2.723709   7.552595   8.269959
    19  H    4.269235   7.570575   5.984596   1.084712   2.482647
    20  C    4.435182   2.414862   2.610099   7.582663   8.624979
    21  C    6.074388   2.433821   4.164142   8.899853   9.469119
    22  H    3.958291   2.777537   2.487257   7.271725   8.500552
    23  H    5.471491   3.301085   3.689898   8.645986   9.699770
    24  H    4.137748   2.704981   2.339299   7.118989   8.184433
    25  H    6.398918   2.523744   4.563029   8.964679   9.301803
    26  H    6.731815   3.167615   4.736871   9.531074  10.083825
    27  H    6.432949   3.128154   4.657781   9.423389  10.120159
                   16         17         18         19         20
    16  H    0.000000
    17  H    6.984446   0.000000
    18  N    7.101770   2.053268   0.000000
    19  H    2.487619   7.956308   8.596681   0.000000
    20  C    6.760723   3.377967   1.449968   8.557272   0.000000
    21  C    8.518788   2.584313   1.452218   9.959021   2.484057
    22  H    6.237983   3.771100   2.107933   8.208722   1.096135
    23  H    7.746963   4.132216   2.080382   9.606346   1.089170
    24  H    6.320543   3.717619   2.099615   8.061299   1.094947
    25  H    8.823198   2.193980   2.088749  10.043404   3.399230
    26  H    9.140242   3.353067   2.098172  10.580486   2.775909
    27  H    8.873304   3.325707   2.103986  10.465836   2.770948
                   21         22         23         24         25
    21  C    0.000000
    22  H    3.153162   0.000000
    23  H    2.504895   1.775348   0.000000
    24  H    3.264932   1.782091   1.774343   0.000000
    25  H    1.090404   4.003855   3.570637   4.086577   0.000000
    26  H    1.094428   3.660513   2.482918   3.360521   1.777176
    27  H    1.093736   3.153124   2.590028   3.756810   1.770046
                   26         27
    26  H    0.000000
    27  H    1.783371   0.000000
 Symmetry turned off by external request.
 Stoichiometry    C11H13NO2
 Framework group  C1[X(C11H13NO2)]
 Deg. of freedom    75
 Full point group                 C1      NOp   1
 Rotational constants (GHZ):      1.6064841      0.3223532      0.2716634
 Leave Link  202 at Wed Sep 27 14:24:34 2017, MaxMem=  1879048192 cpu:         0.0
 (Enter /share/apps/gaussian/g09_D01/g09/l301.exe)
 Standard basis: 6-31G(d) (6D, 7F)
 Ernie: Thresh=  0.10000D-02 Tol=  0.10000D-05 Strict=F.
   236 basis functions,   444 primitive gaussians,   236 cartesian basis functions
    51 alpha electrons       51 beta electrons
       nuclear repulsion energy       838.3763305197 Hartrees.
 IExCor= 4639 DFT=T Ex+Corr=wB97XD ExCW=0 ScaHFX=  1.000000
 ScaDFX=  1.000000  1.000000  1.000000  1.000000 ScalE2=  1.000000  1.000000
 IRadAn=      0 IRanWt=     -1 IRanGd=            0 ICorTp=0 IEmpDi=121
  HFx wShort=  0.000000 wLong=  0.200000 cFull=  0.222036 cShort=  0.000000 cLong=  0.777964
  DFx wShort=  0.000000 wLong=  0.200000 cFull=  0.000000 cShort=  0.000000 cLong=  1.000000
 NAtoms=   27 NActive=   27 NUniq=   27 SFac= 1.00D+00 NAtFMM=   60 NAOKFM=F Big=F
 Integral buffers will be    131072 words long.
 Raffenetti 1 integral format.
 Two-electron integral symmetry is turned off.
 R6Disp:  Grimme-D2 Dispersion energy=       -0.0149955823 Hartrees.
 Nuclear repulsion after empirical dispersion term =      838.3613349374 Hartrees.
 Leave Link  301 at Wed Sep 27 14:24:34 2017, MaxMem=  1879048192 cpu:         0.1
 (Enter /share/apps/gaussian/g09_D01/g09/l302.exe)
 NPDir=0 NMtPBC=     1 NCelOv=     1 NCel=       1 NClECP=     1 NCelD=      1
         NCelK=      1 NCelE2=     1 NClLst=     1 CellRange=     0.0.
 One-electron integrals computed using PRISM.
 NBasis=   236 RedAO= T EigKep=  3.95D-04  NBF=   236
 NBsUse=   236 1.00D-06 EigRej= -1.00D+00 NBFU=   236
 Precomputing XC quadrature grid using
 IXCGrd= 4 IRadAn=           0 IRanWt=          -1 IRanGd=           0 AccXCQ= 0.00D+00.
 Generated NRdTot=       0 NPtTot=           0 NUsed=           0 NTot=          32
 NSgBfM=   235   235   235   235   235 MxSgAt=    27 MxSgA2=    27.
 Leave Link  302 at Wed Sep 27 14:24:34 2017, MaxMem=  1879048192 cpu:         0.7
 (Enter /share/apps/gaussian/g09_D01/g09/l308.exe)
 Leave Link  308 at Wed Sep 27 14:24:34 2017, MaxMem=  1879048192 cpu:         0.1
 (Enter /share/apps/gaussian/g09_D01/g09/l303.exe)
 DipDrv:  MaxL=1.
 Leave Link  303 at Wed Sep 27 14:24:34 2017, MaxMem=  1879048192 cpu:         0.1
 (Enter /share/apps/gaussian/g09_D01/g09/l401.exe)
 ExpMin= 1.61D-01 ExpMax= 5.48D+03 ExpMxC= 8.25D+02 IAcc=1 IRadAn=         1 AccDes= 0.00D+00
 Harris functional with IExCor= 4639 and IRadAn=       1 diagonalized for initial guess.
 HarFok:  IExCor= 4639 AccDes= 0.00D+00 IRadAn=         1 IDoV= 1 UseB2=F ITyADJ=14
 ICtDFT=  3500011 ScaDFX=  1.000000  1.000000  1.000000  1.000000
 FoFCou: FMM=F IPFlag=           0 FMFlag=      100000 FMFlg1=           0
         NFxFlg=           0 DoJE=T BraDBF=F KetDBF=T FulRan=T
         wScrn=  0.000000 ICntrl=     500 IOpCl=  0 I1Cent=   200000004 NGrid=           0
         NMat0=    1 NMatS0=      1 NMatT0=    0 NMatD0=    1 NMtDS0=    0 NMtDT0=    0
 Symmetry not used in FoFCou.
 Harris En= -604.776739575127    
 JPrj=0 DoOrth=F DoCkMO=F.
 Leave Link  401 at Wed Sep 27 14:24:35 2017, MaxMem=  1879048192 cpu:         2.1
 (Enter /share/apps/gaussian/g09_D01/g09/l502.exe)
 Closed shell SCF:
 Using DIIS extrapolation, IDIIS=  1040.
 Two-electron integral symmetry not used.
 Keep R1 ints in memory in canonical form, NReq=788969554.
 IVT=      188524 IEndB=      188524 NGot=  1879048192 MDV=  1096734547
 LenX=  1096734547 LenY=  1096678410
 Requested convergence on RMS density matrix=1.00D-08 within 128 cycles.
 Requested convergence on MAX density matrix=1.00D-06.
 Requested convergence on             energy=1.00D-06.
 No special actions if energy rises.
 FoFCou: FMM=F IPFlag=           0 FMFlag=           0 FMFlg1=           0
         NFxFlg=           0 DoJE=F BraDBF=F KetDBF=F FulRan=T
         wScrn=  0.000000 ICntrl=     600 IOpCl=  0 I1Cent=           0 NGrid=           0
         NMat0=    1 NMatS0=  27966 NMatT0=    0 NMatD0=    1 NMtDS0=    0 NMtDT0=    0
 Symmetry not used in FoFCou.
 Integral accuracy reduced to 1.0D-05 until final iterations.

 Cycle   1  Pass 0  IDiag  1:
 E= -631.790561320878    
 DIIS: error= 5.97D-02 at cycle   1 NSaved=   1.
 NSaved= 1 IEnMin= 1 EnMin= -631.790561320878     IErMin= 1 ErrMin= 5.97D-02
 ErrMax= 5.97D-02  0.00D+00 EMaxC= 1.00D-01 BMatC= 6.15D-01 BMatP= 6.15D-01
 IDIUse=3 WtCom= 4.03D-01 WtEn= 5.97D-01
 Coeff-Com:  0.100D+01
 Coeff-En:   0.100D+01
 Coeff:      0.100D+01
 Gap=     0.360 Goal=   None    Shift=    0.000
 GapD=    0.360 DampG=1.000 DampE=0.500 DampFc=0.5000 IDamp=-1.
 Damping current iteration by 5.00D-01
 RMSDP=3.58D-03 MaxDP=1.41D-01              OVMax= 1.47D-01

 Cycle   2  Pass 0  IDiag  1:
 E= -631.878644587022     Delta-E=       -0.088083266144 Rises=F Damp=T
 DIIS: error= 3.07D-02 at cycle   2 NSaved=   2.
 NSaved= 2 IEnMin= 2 EnMin= -631.878644587022     IErMin= 2 ErrMin= 3.07D-02
 ErrMax= 3.07D-02  0.00D+00 EMaxC= 1.00D-01 BMatC= 1.24D-01 BMatP= 6.15D-01
 IDIUse=3 WtCom= 6.93D-01 WtEn= 3.07D-01
 Coeff-Com: -0.380D+00 0.138D+01
 Coeff-En:   0.000D+00 0.100D+01
 Coeff:     -0.263D+00 0.126D+01
 Gap=     0.320 Goal=   None    Shift=    0.000
 RMSDP=1.42D-03 MaxDP=4.25D-02 DE=-8.81D-02 OVMax= 1.37D-01

 Cycle   3  Pass 0  IDiag  1:
 E= -631.952292643868     Delta-E=       -0.073648056846 Rises=F Damp=F
 DIIS: error= 1.03D-02 at cycle   3 NSaved=   3.
 NSaved= 3 IEnMin= 3 EnMin= -631.952292643868     IErMin= 3 ErrMin= 1.03D-02
 ErrMax= 1.03D-02  0.00D+00 EMaxC= 1.00D-01 BMatC= 3.63D-02 BMatP= 1.24D-01
 IDIUse=3 WtCom= 8.97D-01 WtEn= 1.03D-01
 Coeff-Com: -0.291D+00 0.607D+00 0.684D+00
 Coeff-En:   0.000D+00 0.000D+00 0.100D+01
 Coeff:     -0.261D+00 0.544D+00 0.717D+00
 Gap=     0.302 Goal=   None    Shift=    0.000
 RMSDP=8.70D-04 MaxDP=4.14D-02 DE=-7.36D-02 OVMax= 5.69D-02

 Cycle   4  Pass 0  IDiag  1:
 E= -631.981161047135     Delta-E=       -0.028868403268 Rises=F Damp=F
 DIIS: error= 2.82D-03 at cycle   4 NSaved=   4.
 NSaved= 4 IEnMin= 4 EnMin= -631.981161047135     IErMin= 4 ErrMin= 2.82D-03
 ErrMax= 2.82D-03  0.00D+00 EMaxC= 1.00D-01 BMatC= 2.74D-03 BMatP= 3.63D-02
 IDIUse=3 WtCom= 9.72D-01 WtEn= 2.82D-02
 Coeff-Com: -0.127D+00 0.258D+00 0.389D+00 0.480D+00
 Coeff-En:   0.000D+00 0.000D+00 0.000D+00 0.100D+01
 Coeff:     -0.123D+00 0.251D+00 0.378D+00 0.495D+00
 Gap=     0.295 Goal=   None    Shift=    0.000
 RMSDP=2.09D-04 MaxDP=6.40D-03 DE=-2.89D-02 OVMax= 9.90D-03

 Cycle   5  Pass 0  IDiag  1:
 E= -631.983415624285     Delta-E=       -0.002254577149 Rises=F Damp=F
 DIIS: error= 3.59D-04 at cycle   5 NSaved=   5.
 NSaved= 5 IEnMin= 5 EnMin= -631.983415624285     IErMin= 5 ErrMin= 3.59D-04
 ErrMax= 3.59D-04  0.00D+00 EMaxC= 1.00D-01 BMatC= 6.31D-05 BMatP= 2.74D-03
 IDIUse=3 WtCom= 9.96D-01 WtEn= 3.59D-03
 Coeff-Com: -0.326D-02 0.508D-02 0.445D-01 0.144D+00 0.810D+00
 Coeff-En:   0.000D+00 0.000D+00 0.000D+00 0.000D+00 0.100D+01
 Coeff:     -0.325D-02 0.506D-02 0.443D-01 0.143D+00 0.811D+00
 Gap=     0.295 Goal=   None    Shift=    0.000
 RMSDP=6.09D-05 MaxDP=1.68D-03 DE=-2.25D-03 OVMax= 2.61D-03

 Cycle   6  Pass 0  IDiag  1:
 E= -631.983493210436     Delta-E=       -0.000077586152 Rises=F Damp=F
 DIIS: error= 1.70D-04 at cycle   6 NSaved=   6.
 NSaved= 6 IEnMin= 6 EnMin= -631.983493210436     IErMin= 6 ErrMin= 1.70D-04
 ErrMax= 1.70D-04  0.00D+00 EMaxC= 1.00D-01 BMatC= 1.64D-05 BMatP= 6.31D-05
 IDIUse=3 WtCom= 9.98D-01 WtEn= 1.70D-03
 Coeff-Com:  0.284D-01-0.585D-01-0.656D-01-0.470D-01 0.381D+00 0.761D+00
 Coeff-En:   0.000D+00 0.000D+00 0.000D+00 0.000D+00 0.000D+00 0.100D+01
 Coeff:      0.284D-01-0.584D-01-0.655D-01-0.469D-01 0.381D+00 0.762D+00
 Gap=     0.296 Goal=   None    Shift=    0.000
 RMSDP=3.10D-05 MaxDP=9.77D-04 DE=-7.76D-05 OVMax= 3.29D-03

 Cycle   7  Pass 0  IDiag  1:
 E= -631.983518831762     Delta-E=       -0.000025621325 Rises=F Damp=F
 DIIS: error= 5.61D-05 at cycle   7 NSaved=   7.
 NSaved= 7 IEnMin= 7 EnMin= -631.983518831762     IErMin= 7 ErrMin= 5.61D-05
 ErrMax= 5.61D-05  0.00D+00 EMaxC= 1.00D-01 BMatC= 1.44D-06 BMatP= 1.64D-05
 IDIUse=1 WtCom= 1.00D+00 WtEn= 0.00D+00
 Coeff-Com:  0.780D-02-0.159D-01-0.198D-01-0.240D-01 0.266D-01 0.248D+00
 Coeff-Com:  0.777D+00
 Coeff:      0.780D-02-0.159D-01-0.198D-01-0.240D-01 0.266D-01 0.248D+00
 Coeff:      0.777D+00
 Gap=     0.296 Goal=   None    Shift=    0.000
 RMSDP=1.12D-05 MaxDP=2.75D-04 DE=-2.56D-05 OVMax= 6.89D-04

 Cycle   8  Pass 0  IDiag  1:
 E= -631.983520967109     Delta-E=       -0.000002135347 Rises=F Damp=F
 DIIS: error= 2.30D-05 at cycle   8 NSaved=   8.
 NSaved= 8 IEnMin= 8 EnMin= -631.983520967109     IErMin= 8 ErrMin= 2.30D-05
 ErrMax= 2.30D-05  0.00D+00 EMaxC= 1.00D-01 BMatC= 2.66D-07 BMatP= 1.44D-06
 IDIUse=1 WtCom= 1.00D+00 WtEn= 0.00D+00
 Coeff-Com: -0.228D-02 0.482D-02 0.476D-02-0.136D-02-0.718D-01-0.291D-01
 Coeff-Com:  0.321D+00 0.774D+00
 Coeff:     -0.228D-02 0.482D-02 0.476D-02-0.136D-02-0.718D-01-0.291D-01
 Coeff:      0.321D+00 0.774D+00
 Gap=     0.296 Goal=   None    Shift=    0.000
 RMSDP=4.84D-06 MaxDP=1.08D-04 DE=-2.14D-06 OVMax= 4.93D-04

 Initial convergence to 1.0D-05 achieved.  Increase integral accuracy.
 Cycle   9  Pass 1  IDiag  1:
 E= -631.983337287137     Delta-E=        0.000183679972 Rises=F Damp=F
 DIIS: error= 6.96D-05 at cycle   1 NSaved=   1.
 NSaved= 1 IEnMin= 1 EnMin= -631.983337287137     IErMin= 1 ErrMin= 6.96D-05
 ErrMax= 6.96D-05  0.00D+00 EMaxC= 1.00D-01 BMatC= 4.31D-06 BMatP= 4.31D-06
 IDIUse=1 WtCom= 1.00D+00 WtEn= 0.00D+00
 Coeff-Com:  0.100D+01
 Coeff:      0.100D+01
 Gap=     0.296 Goal=   None    Shift=    0.000
 RMSDP=4.84D-06 MaxDP=1.08D-04 DE= 1.84D-04 OVMax= 1.91D-04

 Cycle  10  Pass 1  IDiag  1:
 E= -631.983340761329     Delta-E=       -0.000003474192 Rises=F Damp=F
 DIIS: error= 1.02D-05 at cycle   2 NSaved=   2.
 NSaved= 2 IEnMin= 2 EnMin= -631.983340761329     IErMin= 2 ErrMin= 1.02D-05
 ErrMax= 1.02D-05  0.00D+00 EMaxC= 1.00D-01 BMatC= 8.07D-08 BMatP= 4.31D-06
 IDIUse=1 WtCom= 1.00D+00 WtEn= 0.00D+00
 Coeff-Com: -0.578D-01 0.106D+01
 Coeff:     -0.578D-01 0.106D+01
 Gap=     0.296 Goal=   None    Shift=    0.000
 RMSDP=2.37D-06 MaxDP=9.54D-05 DE=-3.47D-06 OVMax= 1.48D-04

 Cycle  11  Pass 1  IDiag  1:
 E= -631.983340832162     Delta-E=       -0.000000070833 Rises=F Damp=F
 DIIS: error= 1.11D-05 at cycle   3 NSaved=   3.
 NSaved= 3 IEnMin= 3 EnMin= -631.983340832162     IErMin= 2 ErrMin= 1.02D-05
 ErrMax= 1.11D-05  0.00D+00 EMaxC= 1.00D-01 BMatC= 5.70D-08 BMatP= 8.07D-08
 IDIUse=1 WtCom= 1.00D+00 WtEn= 0.00D+00
 Coeff-Com: -0.417D-01 0.507D+00 0.535D+00
 Coeff:     -0.417D-01 0.507D+00 0.535D+00
 Gap=     0.296 Goal=   None    Shift=    0.000
 RMSDP=1.10D-06 MaxDP=5.10D-05 DE=-7.08D-08 OVMax= 7.24D-05

 Cycle  12  Pass 1  IDiag  1:
 E= -631.983340881678     Delta-E=       -0.000000049515 Rises=F Damp=F
 DIIS: error= 2.79D-06 at cycle   4 NSaved=   4.
 NSaved= 4 IEnMin= 4 EnMin= -631.983340881678     IErMin= 4 ErrMin= 2.79D-06
 ErrMax= 2.79D-06  0.00D+00 EMaxC= 1.00D-01 BMatC= 2.86D-09 BMatP= 5.70D-08
 IDIUse=1 WtCom= 1.00D+00 WtEn= 0.00D+00
 Coeff-Com: -0.278D-02-0.227D-01 0.148D+00 0.878D+00
 Coeff:     -0.278D-02-0.227D-01 0.148D+00 0.878D+00
 Gap=     0.296 Goal=   None    Shift=    0.000
 RMSDP=3.86D-07 MaxDP=1.50D-05 DE=-4.95D-08 OVMax= 3.13D-05

 Cycle  13  Pass 1  IDiag  1:
 E= -631.983340886202     Delta-E=       -0.000000004525 Rises=F Damp=F
 DIIS: error= 7.95D-07 at cycle   5 NSaved=   5.
 NSaved= 5 IEnMin= 5 EnMin= -631.983340886202     IErMin= 5 ErrMin= 7.95D-07
 ErrMax= 7.95D-07  0.00D+00 EMaxC= 1.00D-01 BMatC= 2.71D-10 BMatP= 2.86D-09
 IDIUse=1 WtCom= 1.00D+00 WtEn= 0.00D+00
 Coeff-Com:  0.205D-02-0.401D-01-0.917D-02 0.223D+00 0.824D+00
 Coeff:      0.205D-02-0.401D-01-0.917D-02 0.223D+00 0.824D+00
 Gap=     0.296 Goal=   None    Shift=    0.000
 RMSDP=1.52D-07 MaxDP=2.75D-06 DE=-4.52D-09 OVMax= 1.71D-05

 Cycle  14  Pass 1  IDiag  1:
 E= -631.983340886843     Delta-E=       -0.000000000641 Rises=F Damp=F
 DIIS: error= 3.35D-07 at cycle   6 NSaved=   6.
 NSaved= 6 IEnMin= 6 EnMin= -631.983340886843     IErMin= 6 ErrMin= 3.35D-07
 ErrMax= 3.35D-07  0.00D+00 EMaxC= 1.00D-01 BMatC= 6.35D-11 BMatP= 2.71D-10
 IDIUse=1 WtCom= 1.00D+00 WtEn= 0.00D+00
 Coeff-Com:  0.112D-02-0.929D-02-0.317D-01-0.702D-01 0.273D+00 0.837D+00
 Coeff:      0.112D-02-0.929D-02-0.317D-01-0.702D-01 0.273D+00 0.837D+00
 Gap=     0.296 Goal=   None    Shift=    0.000
 RMSDP=8.10D-08 MaxDP=9.77D-07 DE=-6.41D-10 OVMax= 8.40D-06

 Cycle  15  Pass 1  IDiag  1:
 E= -631.983340887055     Delta-E=       -0.000000000212 Rises=F Damp=F
 DIIS: error= 1.57D-07 at cycle   7 NSaved=   7.
 NSaved= 7 IEnMin= 7 EnMin= -631.983340887055     IErMin= 7 ErrMin= 1.57D-07
 ErrMax= 1.57D-07  0.00D+00 EMaxC= 1.00D-01 BMatC= 7.02D-12 BMatP= 6.35D-11
 IDIUse=1 WtCom= 1.00D+00 WtEn= 0.00D+00
 Coeff-Com: -0.150D-03 0.557D-02-0.649D-02-0.504D-01-0.796D-01 0.122D+00
 Coeff-Com:  0.101D+01
 Coeff:     -0.150D-03 0.557D-02-0.649D-02-0.504D-01-0.796D-01 0.122D+00
 Coeff:      0.101D+01
 Gap=     0.296 Goal=   None    Shift=    0.000
 RMSDP=4.22D-08 MaxDP=5.48D-07 DE=-2.12D-10 OVMax= 5.81D-06

 Cycle  16  Pass 1  IDiag  1:
 E= -631.983340887094     Delta-E=       -0.000000000038 Rises=F Damp=F
 DIIS: error= 6.58D-08 at cycle   8 NSaved=   8.
 NSaved= 8 IEnMin= 8 EnMin= -631.983340887094     IErMin= 8 ErrMin= 6.58D-08
 ErrMax= 6.58D-08  0.00D+00 EMaxC= 1.00D-01 BMatC= 2.43D-12 BMatP= 7.02D-12
 IDIUse=1 WtCom= 1.00D+00 WtEn= 0.00D+00
 Coeff-Com: -0.251D-03 0.383D-02 0.201D-02-0.911D-02-0.725D-01-0.101D+00
 Coeff-Com:  0.431D+00 0.747D+00
 Coeff:     -0.251D-03 0.383D-02 0.201D-02-0.911D-02-0.725D-01-0.101D+00
 Coeff:      0.431D+00 0.747D+00
 Gap=     0.296 Goal=   None    Shift=    0.000
 RMSDP=1.54D-08 MaxDP=2.07D-07 DE=-3.82D-11 OVMax= 1.90D-06

 Cycle  17  Pass 1  IDiag  1:
 E= -631.983340887107     Delta-E=       -0.000000000014 Rises=F Damp=F
 DIIS: error= 2.89D-08 at cycle   9 NSaved=   9.
 NSaved= 9 IEnMin= 9 EnMin= -631.983340887107     IErMin= 9 ErrMin= 2.89D-08
 ErrMax= 2.89D-08  0.00D+00 EMaxC= 1.00D-01 BMatC= 2.17D-13 BMatP= 2.43D-12
 IDIUse=1 WtCom= 1.00D+00 WtEn= 0.00D+00
 Coeff-Com: -0.305D-04-0.141D-03 0.183D-02 0.766D-02-0.462D-03-0.565D-01
 Coeff-Com: -0.864D-01 0.169D+00 0.965D+00
 Coeff:     -0.305D-04-0.141D-03 0.183D-02 0.766D-02-0.462D-03-0.565D-01
 Coeff:     -0.864D-01 0.169D+00 0.965D+00
 Gap=     0.296 Goal=   None    Shift=    0.000
 RMSDP=6.91D-09 MaxDP=9.02D-08 DE=-1.36D-11 OVMax= 8.37D-07

 SCF Done:  E(RwB97XD) =  -631.983340887     A.U. after   17 cycles
            NFock= 17  Conv=0.69D-08     -V/T= 2.0091
 KE= 6.263109815366D+02 PE=-3.147503376931D+03 EE= 1.050847719570D+03
 Leave Link  502 at Wed Sep 27 14:25:24 2017, MaxMem=  1879048192 cpu:        88.9
 (Enter /share/apps/gaussian/g09_D01/g09/l801.exe)
 DoSCS=F DFT=T ScalE2(SS,OS)=  1.000000  1.000000
 ExpMin= 1.61D-01 ExpMax= 5.48D+03 ExpMxC= 8.25D+02 IAcc=3 IRadAn=         5 AccDes= 0.00D+00
 HarFok:  IExCor=  205 AccDes= 0.00D+00 IRadAn=         5 IDoV=-2 UseB2=F ITyADJ=14
 ICtDFT= 12500011 ScaDFX=  1.000000  1.000000  1.000000  1.000000
 Largest valence mixing into a core orbital is  7.25D-05
 Largest core mixing into a valence orbital is  1.49D-05
 Range of M.O.s used for correlation:    15   236
 NBasis=   236 NAE=    51 NBE=    51 NFC=    14 NFV=     0
 NROrb=    222 NOA=    37 NOB=    37 NVA=   185 NVB=   185
 Leave Link  801 at Wed Sep 27 14:25:24 2017, MaxMem=  1879048192 cpu:         0.8
 (Enter /share/apps/gaussian/g09_D01/g09/l914.exe)
 RHF ground state
 MDV=  1879048192 DFT=T DoStab=F Mixed=T DoRPA=T DoScal=F NonHer=T
 Would need an additional           474900000 words for in-memory AO integral storage.
 Making orbital integer symmetry assigments:
     8 initial guesses have been made.
 Convergence on wavefunction:    0.001000000000000
 Davidson Disk Diagonalization:  ConvIn= 1.00D-03 SkipCon=T Conv= 1.00D-03.
 Max sub-space:   200 roots to seek:     8 dimension of matrix:        13690
 Iteration     1 Dimension     8 NMult     0 NNew      8
 CISAX will form     8 AO SS matrices at one time.
 NMat=     8 NSing=     8 JSym2X= 0.
 FoFJK:  IHMeth= 1 ICntrl=       0 DoSepK=T KAlg= 0 I1Cent=   0 FoldK=F
 IRaf=         1 NMat=  16 IRICut=       1 DoRegI=T DoRafI=F ISym2E= 0.
 FoFCou: FMM=F IPFlag=           0 FMFlag=      100000 FMFlg1=           0
         NFxFlg=           0 DoJE=F BraDBF=F KetDBF=F FulRan=T
         wScrn=  0.000000 ICntrl=     500 IOpCl=  0 I1Cent=           0 NGrid=           0
         NMat0=    8 NMatS0=      8 NMatT0=    0 NMatD0=    8 NMtDS0=    0 NMtDT0=    0
 Symmetry not used in FoFCou.
 New state      1 was old state      4
 Excitation Energies [eV] at current iteration:
 Root      1 :     4.521609803035705
 Root      2 :     4.792283198641313
 Root      3 :     5.434384073081727
 Root      4 :     6.190972042604353
 Root      5 :     6.843829674389315
 Root      6 :     7.119993801273746
 Root      7 :     7.620212695398237
 Root      8 :     7.898098506637809
 Iteration     2 Dimension    12 NMult     8 NNew      4
 CISAX will form     4 AO SS matrices at one time.
 NMat=     4 NSing=     4 JSym2X= 0.
 Root      1 not converged, maximum delta is    0.131114250780128
 Excitation Energies [eV] at current iteration:
 Root      1 :     4.236878078689356   Change is   -0.284731724346349
 Root      2 :     4.315907671697143   Change is   -0.476375526944171
 Iteration     3 Dimension    16 NMult    12 NNew      4
 CISAX will form     4 AO SS matrices at one time.
 NMat=     4 NSing=     4 JSym2X= 0.
 Root      1 not converged, maximum delta is    0.071732558645740
 Excitation Energies [eV] at current iteration:
 Root      1 :     4.216841233739934   Change is   -0.020036844949423
 Root      2 :     4.275958580384496   Change is   -0.039949091312646
 Iteration     4 Dimension    20 NMult    16 NNew      4
 CISAX will form     4 AO SS matrices at one time.
 NMat=     4 NSing=     4 JSym2X= 0.
 Root      1 not converged, maximum delta is    0.019229798645450
 Excitation Energies [eV] at current iteration:
 Root      1 :     4.214173558389314   Change is   -0.002667675350620
 Root      2 :     4.269854693474127   Change is   -0.006103886910369
 Iteration     5 Dimension    24 NMult    20 NNew      4
 CISAX will form     4 AO SS matrices at one time.
 NMat=     4 NSing=     4 JSym2X= 0.
 Root      1 not converged, maximum delta is    0.001724885736128
 Excitation Energies [eV] at current iteration:
 Root      1 :     4.213941064536746   Change is   -0.000232493852568
 Root      2 :     4.269208782107714   Change is   -0.000645911366413
 Iteration     6 Dimension    28 NMult    24 NNew      4
 CISAX will form     4 AO SS matrices at one time.
 NMat=     4 NSing=     4 JSym2X= 0.
 Root      1 has converged.
 Excitation Energies [eV] at current iteration:
 Root      1 :     4.213914524713823   Change is   -0.000026539822922
 Root      2 :     4.269152928614695   Change is   -0.000055853493020
 Convergence achieved on expansion vectors.
 ***********************************************************************
 Excited states from <AA,BB:AA,BB> singles matrix:
 ***********************************************************************
 
 1PDM for each excited state written to RWF  633
 Ground to excited state transition densities written to RWF  633
 Ground to excited state transition electric dipole moments (Au):
       state          X           Y           Z        Dip. S.      Osc.
         1        -0.8853     -0.5054     -0.1049      1.0503      0.1084
 Ground to excited state transition velocity dipole moments (Au):
       state          X           Y           Z        Dip. S.      Osc.
         1         0.1362      0.0784      0.0173      0.0250      0.1076
 Ground to excited state transition magnetic dipole moments (Au):
       state          X           Y           Z
         1        -0.5764      0.8257      0.6105
 Ground to excited state transition velocity quadrupole moments (Au):
       state          XX          YY          ZZ          XY          XZ          YZ
         1        -0.4976     -0.5441      0.0670     -0.6051      0.4417      0.1605
 <0|del|b> * <b|rxdel|0> + <0|del|b> * <b|delr+rdel|0>
 Rotatory Strengths (R) in cgs (10**-40 erg-esu-cm/Gauss)
       state          XX          YY          ZZ    R(velocity)    E-M Angle
         1        68.9294    -81.3116     -2.3802     -4.9208       90.99
 1/2[<0|r|b>*<b|rxdel|0> + (<0|rxdel|b>*<b|r|0>)*]
 Rotatory Strengths (R) in cgs (10**-40 erg-esu-cm/Gauss)
       state          XX          YY          ZZ     R(length)
         1      -360.9070    295.1220     45.2757     -6.8364
  1/2[<0|del|b>*<b|r|0> + (<0|r|b>*<b|del|0>)*] (Au)
       state          X           Y           Z        Dip. S.   Osc.(frdel)
         1        -0.1206     -0.0396     -0.0018      0.1620      0.1080

 Excitation energies and oscillator strengths:
 
 Excited state symmetry could not be determined.
 Excited State   1:      Singlet-?Sym    4.2139 eV  294.23 nm  f=0.1084  <S**2>=0.000
      48 -> 52         0.45349
      49 -> 52         0.38847
      51 -> 52         0.33398
 This state for optimization and/or second-order correction.
 Total Energy, E(TD-HF/TD-KS) =  -631.828482371    
 Copying the excited state density for this state as the 1-particle RhoCI density.
 SavETr:  write IOETrn=   770 NScale= 10 NData=  16 NLR=1 NState=    1 LETran=      28.
 Leave Link  914 at Wed Sep 27 14:27:27 2017, MaxMem=  1879048192 cpu:       245.4
 (Enter /share/apps/gaussian/g09_D01/g09/l601.exe)
 Copying SCF densities to generalized density rwf, IOpCl= 0 IROHF=0.
 Saving Alpha spin NTOs for state    1 to file 10524.

 **********************************************************************

   Populations using transition density between ground and state  1.

 **********************************************************************

 Alpha  occ. eigenvalues --    0.00000   0.00000   0.00000   0.00000   0.00000
 Alpha  occ. eigenvalues --    0.00000   0.00000   0.00000   0.00000   0.00000
 Alpha  occ. eigenvalues --    0.00000   0.00000   0.00000   0.00000   0.00000
 Alpha  occ. eigenvalues --    0.00000   0.00000   0.00000   0.00000   0.00000
 Alpha  occ. eigenvalues --    0.00000   0.00001   0.00001   0.00001   0.00001
 Alpha  occ. eigenvalues --    0.00001   0.00001   0.00002   0.00002   0.00002
 Alpha  occ. eigenvalues --    0.00003   0.00003   0.00003   0.00004   0.00004
 Alpha  occ. eigenvalues --    0.00004   0.00006   0.00006   0.00007   0.00009
 Alpha  occ. eigenvalues --    0.00009   0.00009   0.00012   0.00013   0.00016
 Alpha  occ. eigenvalues --    0.00018   0.00030   0.00212   0.00505   0.01902
 Alpha  occ. eigenvalues --    0.97485
 Alpha virt. eigenvalues --    0.97485   0.01902   0.00505   0.00212   0.00030
 Alpha virt. eigenvalues --    0.00018   0.00016   0.00013   0.00012   0.00009
 Alpha virt. eigenvalues --    0.00009   0.00009   0.00007   0.00006   0.00006
 Alpha virt. eigenvalues --    0.00004   0.00004   0.00004   0.00003   0.00003
 Alpha virt. eigenvalues --    0.00003   0.00002   0.00002   0.00002   0.00001
 Alpha virt. eigenvalues --    0.00001   0.00001   0.00001   0.00001   0.00001
 Alpha virt. eigenvalues --    0.00000   0.00000   0.00000   0.00000   0.00000
 Alpha virt. eigenvalues --    0.00000   0.00000   0.00000   0.00000   0.00000
 Alpha virt. eigenvalues --    0.00000   0.00000   0.00000   0.00000   0.00000
 Alpha virt. eigenvalues --    0.00000   0.00000   0.00000   0.00000   0.00000
 Alpha virt. eigenvalues --    0.00000   0.00000   0.00000   0.00000   0.00000
 Alpha virt. eigenvalues --    0.00000   0.00000   0.00000   0.00000   0.00000
 Alpha virt. eigenvalues --    0.00000   0.00000   0.00000   0.00000   0.00000
 Alpha virt. eigenvalues --    0.00000   0.00000   0.00000   0.00000   0.00000
 Alpha virt. eigenvalues --    0.00000   0.00000   0.00000   0.00000   0.00000
 Alpha virt. eigenvalues --    0.00000   0.00000   0.00000   0.00000   0.00000
 Alpha virt. eigenvalues --    0.00000   0.00000   0.00000   0.00000   0.00000
 Alpha virt. eigenvalues --    0.00000   0.00000   0.00000   0.00000   0.00000
 Alpha virt. eigenvalues --    0.00000   0.00000   0.00000   0.00000   0.00000
 Alpha virt. eigenvalues --    0.00000   0.00000   0.00000   0.00000   0.00000
 Alpha virt. eigenvalues --    0.00000   0.00000   0.00000   0.00000   0.00000
 Alpha virt. eigenvalues --    0.00000   0.00000   0.00000   0.00000   0.00000
 Alpha virt. eigenvalues --    0.00000   0.00000   0.00000   0.00000   0.00000
 Alpha virt. eigenvalues --    0.00000   0.00000   0.00000   0.00000   0.00000
 Alpha virt. eigenvalues --    0.00000   0.00000   0.00000   0.00000   0.00000
 Alpha virt. eigenvalues --    0.00000   0.00000   0.00000   0.00000   0.00000
 Alpha virt. eigenvalues --    0.00000   0.00000   0.00000   0.00000   0.00000
 Alpha virt. eigenvalues --    0.00000   0.00000   0.00000   0.00000   0.00000
 Alpha virt. eigenvalues --    0.00000   0.00000   0.00000   0.00000   0.00000
 Alpha virt. eigenvalues --    0.00000   0.00000   0.00000   0.00000   0.00000
 Alpha virt. eigenvalues --    0.00000   0.00000   0.00000   0.00000   0.00000
 Alpha virt. eigenvalues --    0.00000   0.00000   0.00000   0.00000   0.00000
 Alpha virt. eigenvalues --    0.00000   0.00000   0.00000   0.00000   0.00000
 Alpha virt. eigenvalues --    0.00000   0.00000   0.00000   0.00000   0.00000
 Alpha virt. eigenvalues --    0.00000   0.00000   0.00000   0.00000   0.00000
 Alpha virt. eigenvalues --    0.00000   0.00000   0.00000   0.00000   0.00000
 Alpha virt. eigenvalues --    0.00000   0.00000   0.00000   0.00000   0.00000
          Condensed to atoms (all electrons):
               1          2          3          4          5          6
     1  C    0.020625   0.042238   0.012519  -0.040132   0.000216  -0.002633
     2  C    0.042238  -0.004930   0.002242   0.002311  -0.032681  -0.004285
     3  C    0.012519   0.002242  -0.007401  -0.003427   0.001404  -0.001213
     4  C   -0.040132   0.002311  -0.003427  -0.008219   0.000771  -0.000407
     5  C    0.000216  -0.032681   0.001404   0.000771  -0.038493   0.006208
     6  O   -0.002633  -0.004285  -0.001213  -0.000407   0.006208  -0.027065
     7  C    0.000172  -0.000269  -0.044266   0.000383   0.000000  -0.000114
     8  O    0.001353   0.001250   0.012716   0.000182  -0.000081  -0.003145
     9  H   -0.001762  -0.003383   0.002525   0.000008   0.000476   0.016250
    10  C   -0.000191  -0.000305   0.001511   0.046163   0.000165   0.000021
    11  H    0.001319   0.000612   0.000336   0.000329  -0.000041  -0.000002
    12  C   -0.000248  -0.002923  -0.000055  -0.000020   0.047043  -0.002477
    13  H   -0.001735  -0.005731  -0.000026  -0.000368   0.003973  -0.000206
    14  C    0.002504  -0.000020   0.000944  -0.000147  -0.000010   0.000007
    15  H   -0.000481   0.000005  -0.001130  -0.000127   0.000000   0.000001
    16  H   -0.000191   0.000006   0.000038   0.004022  -0.000003   0.000000
    17  H   -0.000117  -0.001953  -0.000003   0.000004  -0.002403  -0.002049
    18  N   -0.000011   0.000240   0.000000   0.000002  -0.000210  -0.000022
    19  H    0.000000   0.000000  -0.000204  -0.000096   0.000000   0.000000
    20  C    0.000003   0.000027   0.000000  -0.000001  -0.002402   0.000000
    21  C    0.000000  -0.000014   0.000000   0.000000   0.000291  -0.000002
    22  H    0.000019   0.000084   0.000000  -0.000015   0.001594   0.000004
    23  H    0.000000  -0.000001   0.000000   0.000000  -0.000036   0.000000
    24  H   -0.000038  -0.000175   0.000000   0.000023   0.000254  -0.000008
    25  H    0.000000   0.000002   0.000000   0.000000  -0.000050  -0.000003
    26  H    0.000000  -0.000003   0.000000   0.000000   0.000030  -0.000001
    27  H    0.000000   0.000003   0.000000   0.000000  -0.000022   0.000001
               7          8          9         10         11         12
     1  C    0.000172   0.001353  -0.001762  -0.000191   0.001319  -0.000248
     2  C   -0.000269   0.001250  -0.003383  -0.000305   0.000612  -0.002923
     3  C   -0.044266   0.012716   0.002525   0.001511   0.000336  -0.000055
     4  C    0.000383   0.000182   0.000008   0.046163   0.000329  -0.000020
     5  C    0.000000  -0.000081   0.000476   0.000165  -0.000041   0.047043
     6  O   -0.000114  -0.003145   0.016250   0.000021  -0.000002  -0.002477
     7  C   -0.011126   0.002930  -0.000360   0.000553  -0.000022   0.000000
     8  O    0.002930  -0.024481  -0.013871  -0.000030   0.000001  -0.000001
     9  H   -0.000360  -0.013871  -0.005241   0.000011   0.000004  -0.000020
    10  C    0.000553  -0.000030   0.000011  -0.001576   0.002346   0.000000
    11  H   -0.000022   0.000001   0.000004   0.002346  -0.012420  -0.000054
    12  C    0.000000  -0.000001  -0.000020   0.000000  -0.000054  -0.000356
    13  H   -0.000001  -0.000001   0.000001  -0.000024  -0.000097   0.004377
    14  C    0.035762  -0.000232   0.000019  -0.046988   0.000020   0.000000
    15  H    0.000268   0.000290   0.000059  -0.000263  -0.000001   0.000000
    16  H    0.000012   0.000000   0.000000   0.001690  -0.000020   0.000000
    17  H    0.000000   0.000000  -0.000024   0.000000   0.000001   0.006313
    18  N    0.000000   0.000000   0.000000   0.000000   0.000001  -0.026047
    19  H    0.001201   0.000001  -0.000001   0.001083   0.000008   0.000000
    20  C    0.000000   0.000000   0.000000   0.000000   0.000001  -0.000611
    21  C    0.000000   0.000000   0.000000   0.000000   0.000000   0.001459
    22  H    0.000000   0.000000   0.000000   0.000000  -0.000012   0.001887
    23  H    0.000000   0.000000   0.000000   0.000000   0.000000   0.000119
    24  H    0.000000   0.000000   0.000000   0.000000   0.000005   0.000211
    25  H    0.000000   0.000000   0.000000   0.000000   0.000000  -0.000433
    26  H    0.000000   0.000000   0.000000   0.000000   0.000000   0.001120
    27  H    0.000000   0.000000   0.000000   0.000000   0.000000  -0.000318
              13         14         15         16         17         18
     1  C   -0.001735   0.002504  -0.000481  -0.000191  -0.000117  -0.000011
     2  C   -0.005731  -0.000020   0.000005   0.000006  -0.001953   0.000240
     3  C   -0.000026   0.000944  -0.001130   0.000038  -0.000003   0.000000
     4  C   -0.000368  -0.000147  -0.000127   0.004022   0.000004   0.000002
     5  C    0.003973  -0.000010   0.000000  -0.000003  -0.002403  -0.000210
     6  O   -0.000206   0.000007   0.000001   0.000000  -0.002049  -0.000022
     7  C   -0.000001   0.035762   0.000268   0.000012   0.000000   0.000000
     8  O   -0.000001  -0.000232   0.000290   0.000000   0.000000   0.000000
     9  H    0.000001   0.000019   0.000059   0.000000  -0.000024   0.000000
    10  C   -0.000024  -0.046988  -0.000263   0.001690   0.000000   0.000000
    11  H   -0.000097   0.000020  -0.000001  -0.000020   0.000001   0.000001
    12  C    0.004377   0.000000   0.000000   0.000000   0.006313  -0.026047
    13  H   -0.004331   0.000001   0.000000   0.000006   0.000007  -0.000194
    14  C    0.000001  -0.001574   0.003466  -0.002858   0.000000   0.000000
    15  H    0.000000   0.003466  -0.017352   0.000007   0.000000   0.000000
    16  H    0.000006  -0.002858   0.000007  -0.011143   0.000000   0.000000
    17  H    0.000007   0.000000   0.000000   0.000000   0.018470  -0.000931
    18  N   -0.000194   0.000000   0.000000   0.000000  -0.000931   0.031423
    19  H    0.000000  -0.000023   0.000265   0.000265   0.000000   0.000000
    20  C    0.000401   0.000000   0.000000   0.000000   0.000335   0.020745
    21  C   -0.000001   0.000000   0.000000   0.000000  -0.000876   0.013368
    22  H    0.000378   0.000000   0.000000   0.000000   0.000090  -0.006399
    23  H   -0.000062   0.000000   0.000000   0.000000  -0.000022   0.000051
    24  H   -0.000002   0.000000   0.000000   0.000000  -0.000114  -0.004672
    25  H   -0.000001   0.000000   0.000000   0.000000   0.000393  -0.000465
    26  H    0.000001   0.000000   0.000000   0.000000  -0.000120  -0.004533
    27  H    0.000000   0.000000   0.000000   0.000000   0.000197  -0.003298
              19         20         21         22         23         24
     1  C    0.000000   0.000003   0.000000   0.000019   0.000000  -0.000038
     2  C    0.000000   0.000027  -0.000014   0.000084  -0.000001  -0.000175
     3  C   -0.000204   0.000000   0.000000   0.000000   0.000000   0.000000
     4  C   -0.000096  -0.000001   0.000000  -0.000015   0.000000   0.000023
     5  C    0.000000  -0.002402   0.000291   0.001594  -0.000036   0.000254
     6  O    0.000000   0.000000  -0.000002   0.000004   0.000000  -0.000008
     7  C    0.001201   0.000000   0.000000   0.000000   0.000000   0.000000
     8  O    0.000001   0.000000   0.000000   0.000000   0.000000   0.000000
     9  H   -0.000001   0.000000   0.000000   0.000000   0.000000   0.000000
    10  C    0.001083   0.000000   0.000000   0.000000   0.000000   0.000000
    11  H    0.000008   0.000001   0.000000  -0.000012   0.000000   0.000005
    12  C    0.000000  -0.000611   0.001459   0.001887   0.000119   0.000211
    13  H    0.000000   0.000401  -0.000001   0.000378  -0.000062  -0.000002
    14  C   -0.000023   0.000000   0.000000   0.000000   0.000000   0.000000
    15  H    0.000265   0.000000   0.000000   0.000000   0.000000   0.000000
    16  H    0.000265   0.000000   0.000000   0.000000   0.000000   0.000000
    17  H    0.000000   0.000335  -0.000876   0.000090  -0.000022  -0.000114
    18  N    0.000000   0.020745   0.013368  -0.006399   0.000051  -0.004672
    19  H   -0.016252   0.000000   0.000000   0.000000   0.000000   0.000000
    20  C    0.000000  -0.025315  -0.002061  -0.003418   0.000715  -0.001067
    21  C    0.000000  -0.002061  -0.023927   0.000275  -0.000484   0.000049
    22  H    0.000000  -0.003418   0.000275   0.032956  -0.000891  -0.007550
    23  H    0.000000   0.000715  -0.000484  -0.000891   0.010469  -0.001020
    24  H    0.000000  -0.001067   0.000049  -0.007550  -0.001020   0.032596
    25  H    0.000000   0.000212  -0.000073  -0.000016  -0.000005  -0.000005
    26  H    0.000000  -0.000209   0.000496  -0.000195   0.000175   0.000325
    27  H    0.000000  -0.000471   0.000221   0.000542   0.000111  -0.000139
              25         26         27
     1  C    0.000000   0.000000   0.000000
     2  C    0.000002  -0.000003   0.000003
     3  C    0.000000   0.000000   0.000000
     4  C    0.000000   0.000000   0.000000
     5  C   -0.000050   0.000030  -0.000022
     6  O   -0.000003  -0.000001   0.000001
     7  C    0.000000   0.000000   0.000000
     8  O    0.000000   0.000000   0.000000
     9  H    0.000000   0.000000   0.000000
    10  C    0.000000   0.000000   0.000000
    11  H    0.000000   0.000000   0.000000
    12  C   -0.000433   0.001120  -0.000318
    13  H   -0.000001   0.000001   0.000000
    14  C    0.000000   0.000000   0.000000
    15  H    0.000000   0.000000   0.000000
    16  H    0.000000   0.000000   0.000000
    17  H    0.000393  -0.000120   0.000197
    18  N   -0.000465  -0.004533  -0.003298
    19  H    0.000000   0.000000   0.000000
    20  C    0.000212  -0.000209  -0.000471
    21  C   -0.000073   0.000496   0.000221
    22  H   -0.000016  -0.000195   0.000542
    23  H   -0.000005   0.000175   0.000111
    24  H   -0.000005   0.000325  -0.000139
    25  H    0.014722  -0.000786  -0.001441
    26  H   -0.000786   0.022628  -0.004631
    27  H   -0.001441  -0.004631   0.023071
 Mulliken charges:
               1
     1  C    5.966573
     2  C    6.007652
     3  C    6.023491
     4  C    5.998761
     5  C    6.014006
     6  O    8.021137
     7  C    6.014877
     8  O    8.023118
     9  H    1.005308
    10  C    5.995834
    11  H    1.007684
    12  C    5.971034
    13  H    1.003636
    14  C    6.009130
    15  H    1.014993
    16  H    1.008169
    17  H    0.982801
    18  N    6.980953
    19  H    1.013751
    20  C    6.013115
    21  C    6.011277
    22  H    0.980666
    23  H    0.990881
    24  H    0.981327
    25  H    0.987947
    26  H    0.985703
    27  H    0.986175
 Sum of Mulliken charges = 102.00000
 Mulliken charges with hydrogens summed into heavy atoms:
               1
     1  C    5.966573
     2  C    6.007652
     3  C    6.023491
     4  C    7.006446
     5  C    7.017642
     6  O    8.021137
     7  C    7.029870
     8  O    9.028426
    10  C    7.004003
    12  C    6.953835
    14  C    7.022880
    18  N    6.980953
    20  C    8.965989
    21  C    8.971102
 Electronic spatial extent (au):  <R**2>=             -8.8211
 Charge=              0.0000 electrons
 Dipole moment (field-independent basis, Debye):
    X=             -3.1824    Y=             -1.8169    Z=             -0.3769  Tot=              3.6839
 Quadrupole moment (field-independent basis, Debye-Ang):
   XX=              6.0994   YY=              6.5655   ZZ=             -0.8003
   XY=              7.2938   XZ=             -5.4435   YZ=             -1.9956
 Traceless Quadrupole moment (field-independent basis, Debye-Ang):
   XX=              2.1446   YY=              2.6106   ZZ=             -4.7552
   XY=              7.2938   XZ=             -5.4435   YZ=             -1.9956
 Octapole moment (field-independent basis, Debye-Ang**2):
  XXX=            -54.7737  YYY=            -28.1935  ZZZ=             -2.5432  XYY=            -27.9759
  XXY=            -31.3383  XXZ=             13.0605  XZZ=            -16.9331  YZZ=             -6.4481
  YYZ=              6.9535  XYZ=             11.8200
 Hexadecapole moment (field-independent basis, Debye-Ang**3):
 XXXX=            183.2780 YYYY=            116.8200 ZZZZ=             -9.0901 XXXY=            147.8254
 XXXZ=           -115.4970 YYYX=            106.4434 YYYZ=            -32.6347 ZZZX=            -58.5473
 ZZZY=            -21.1470 XXYY=            112.1798 XXZZ=             46.2345 YYZZ=             21.0248
 XXYZ=            -58.5481 YYXZ=            -43.7907 ZZXY=             36.9540
 N-N= 8.383613349374D+02 E-N= 1.303146756887D-01  KE=-1.296051522812D-02
 Leave Link  601 at Wed Sep 27 14:27:27 2017, MaxMem=  1879048192 cpu:         0.1
 (Enter /share/apps/gaussian/g09_D01/g09/l9999.exe)
 1\1\GINC-NXN37\SP\RwB97XD TD-FC\6-31G(d)\C11H13N1O2\BTX008\27-Sep-2017
 \0\\#p wb97xd 6-31G* td=(nstates=1) nosymm density=(transition=1) pop=
 SaveNTO\\title\\0,1\C,0,-2.465425,-2.364375,1.787541\C,0,-1.172143,-1.
 99476,1.145085\C,0,-3.298074,-3.321217,1.163794\C,0,-2.903713,-1.79232
 9,2.990652\C,0,-0.181857,-1.281173,1.90317\O,0,-0.977156,-2.330632,-0.
 04286\C,0,-4.498958,-3.70417,1.771591\O,0,-2.983612,-3.890922,-0.00585
 7\H,0,-2.151107,-3.4528,-0.305064\C,0,-4.101957,-2.154185,3.576386\H,0
 ,-2.299292,-1.030018,3.4667\C,0,0.971087,-0.884025,1.28055\H,0,-0.3359
 35,-1.105601,2.956483\C,0,-4.894978,-3.124585,2.961132\H,0,-5.106508,-
 4.452301,1.275116\H,0,-4.42172,-1.687315,4.500109\H,0,1.05624,-1.06234
 2,0.21247\N,0,2.022127,-0.300574,1.856453\H,0,-5.835213,-3.421827,3.41
 3024\C,0,2.014763,-0.017902,3.278582\C,0,3.156912,0.167462,1.080475\H,
 0,1.248162,0.724955,3.527576\H,0,2.987944,0.374064,3.57111\H,0,1.81963
 9,-0.932225,3.848537\H,0,3.018558,-0.097841,0.031927\H,0,4.079346,-0.2
 95969,1.443957\H,0,3.249809,1.255049,1.149636\\Version=ES64L-G09RevD.0
 1\HF=-631.9833409\RMSD=6.913e-09\PG=C01 [X(C11H13N1O2)]\\@


 ADVERTISING--  HE WHO HAS SOMETHING TO SELL AND GOES AND WHISPERS
                IN A WELL, IS NOT SO APT TO GET THE DOLLARS AS HE
                WHO CLIMBS A TREE AND HOLLERS.

                   -- FROM THE BACK OF A SUGAR PACKET
 Job cpu time:       0 days  0 hours  5 minutes 38.7 seconds.
 File lengths (MBytes):  RWF=     77 Int=      0 D2E=      0 Chk=      7 Scr=      1
 Normal termination of Gaussian 09 at Wed Sep 27 14:27:27 2017.
