 Entering Gaussian System, Link 0=g09
 Input=J_HP_mon-2.com
 Output=J_HP_mon-2.out
 Initial command:
 /share/apps/gaussian/g09_D01/g09/l1.exe "/tmp/4048962.1.chemistry.q/Gau-17797.inp" -scrdir="/tmp/4048962.1.chemistry.q/"
 Entering Link 1 = /share/apps/gaussian/g09_D01/g09/l1.exe PID=     17798.
  
 Copyright (c) 1988,1990,1992,1993,1995,1998,2003,2009,2013,
            Gaussian, Inc.  All Rights Reserved.
  
 This is part of the Gaussian(R) 09 program.  It is based on
 the Gaussian(R) 03 system (copyright 2003, Gaussian, Inc.),
 the Gaussian(R) 98 system (copyright 1998, Gaussian, Inc.),
 the Gaussian(R) 94 system (copyright 1995, Gaussian, Inc.),
 the Gaussian 92(TM) system (copyright 1992, Gaussian, Inc.),
 the Gaussian 90(TM) system (copyright 1990, Gaussian, Inc.),
 the Gaussian 88(TM) system (copyright 1988, Gaussian, Inc.),
 the Gaussian 86(TM) system (copyright 1986, Carnegie Mellon
 University), and the Gaussian 82(TM) system (copyright 1983,
 Carnegie Mellon University). Gaussian is a federally registered
 trademark of Gaussian, Inc.
  
 This software contains proprietary and confidential information,
 including trade secrets, belonging to Gaussian, Inc.
  
 This software is provided under written license and may be
 used, copied, transmitted, or stored only in accord with that
 written license.
  
 The following legend is applicable only to US Government
 contracts under FAR:
  
                    RESTRICTED RIGHTS LEGEND
  
 Use, reproduction and disclosure by the US Government is
 subject to restrictions as set forth in subparagraphs (a)
 and (c) of the Commercial Computer Software - Restricted
 Rights clause in FAR 52.227-19.
  
 Gaussian, Inc.
 340 Quinnipiac St., Bldg. 40, Wallingford CT 06492
  
  
 ---------------------------------------------------------------
 Warning -- This program may not be used in any manner that
 competes with the business of Gaussian, Inc. or will provide
 assistance to any competitor of Gaussian, Inc.  The licensee
 of this program is prohibited from giving any competitor of
 Gaussian, Inc. access to this program.  By using this program,
 the user acknowledges that Gaussian, Inc. is engaged in the
 business of creating and licensing software in the field of
 computational chemistry and represents and warrants to the
 licensee that it is not a competitor of Gaussian, Inc. and that
 it will not use this program in any manner prohibited above.
 ---------------------------------------------------------------
  

 Cite this work as:
 Gaussian 09, Revision D.01,
 M. J. Frisch, G. W. Trucks, H. B. Schlegel, G. E. Scuseria, 
 M. A. Robb, J. R. Cheeseman, G. Scalmani, V. Barone, B. Mennucci, 
 G. A. Petersson, H. Nakatsuji, M. Caricato, X. Li, H. P. Hratchian, 
 A. F. Izmaylov, J. Bloino, G. Zheng, J. L. Sonnenberg, M. Hada, 
 M. Ehara, K. Toyota, R. Fukuda, J. Hasegawa, M. Ishida, T. Nakajima, 
 Y. Honda, O. Kitao, H. Nakai, T. Vreven, J. A. Montgomery, Jr., 
 J. E. Peralta, F. Ogliaro, M. Bearpark, J. J. Heyd, E. Brothers, 
 K. N. Kudin, V. N. Staroverov, T. Keith, R. Kobayashi, J. Normand, 
 K. Raghavachari, A. Rendell, J. C. Burant, S. S. Iyengar, J. Tomasi, 
 M. Cossi, N. Rega, J. M. Millam, M. Klene, J. E. Knox, J. B. Cross, 
 V. Bakken, C. Adamo, J. Jaramillo, R. Gomperts, R. E. Stratmann, 
 O. Yazyev, A. J. Austin, R. Cammi, C. Pomelli, J. W. Ochterski, 
 R. L. Martin, K. Morokuma, V. G. Zakrzewski, G. A. Voth, 
 P. Salvador, J. J. Dannenberg, S. Dapprich, A. D. Daniels, 
 O. Farkas, J. B. Foresman, J. V. Ortiz, J. Cioslowski, 
 and D. J. Fox, Gaussian, Inc., Wallingford CT, 2013.
 
 ******************************************
 Gaussian 09:  ES64L-G09RevD.01 24-Apr-2013
                27-Sep-2017 
 ******************************************
 %chk=J_HP_mon-2
 %mem=14GB
 %nproc=2
 Will use up to    2 processors via shared memory.
 ----------------------------------------------------------------------
 #p wb97xd 6-31G* td=(nstates=1) nosymm density=(transition=1) pop=Save
 NTO
 ----------------------------------------------------------------------
 1/38=1/1;
 2/12=2,15=1,17=6,18=5,40=1/2;
 3/5=1,6=6,7=1,11=9,16=1,25=1,30=1,74=-58/1,2,8,3;
 4//1;
 5/5=2,38=5/2;
 8/6=1,10=2,108=1/1;
 9/41=1,42=1,70=2/14;
 6/7=2,8=2,9=2,10=2,29=1,89=10/1;
 99/5=1,9=1/99;
 Leave Link    1 at Wed Sep 27 14:38:03 2017, MaxMem=  1879048192 cpu:         0.1
 (Enter /share/apps/gaussian/g09_D01/g09/l101.exe)
 -----
 title
 -----
 Symbolic Z-matrix:
 Charge =  0 Multiplicity = 1
 C                     2.84511   0.14651   2.76938 
 C                     1.55604   0.45896   3.44204 
 C                     3.89026  -0.44447   3.51612 
 C                     3.07114   0.4197    1.41277 
 C                     0.58142   1.29356   2.76758 
 O                     1.34896   0.01963   4.58849 
 C                     5.12691  -0.69021   2.90878 
 O                     3.75497  -0.77987   4.80204 
 H                     2.81613  -0.58939   5.03817 
 C                     4.28565   0.1487    0.81184 
 H                     2.27159   0.83156   0.8111 
 C                    -0.60163   1.5457    3.38914 
 H                     0.80828   1.71351   1.79943 
 C                     5.31983  -0.39662   1.57403 
 H                     5.9126   -1.12402   3.51493 
 H                     4.42697   0.35186  -0.24245 
 H                    -0.7797    1.06313   4.3464 
 N                    -1.58757   2.35643   2.96243 
 H                     6.28188  -0.60106   1.11651 
 C                    -1.48449   3.04606   1.69254 
 C                    -2.88605   2.35303   3.60558 
 H                    -0.49317   3.48949   1.58269 
 H                    -2.2244    3.848     1.66164 
 H                    -1.6622    2.36989   0.84792 
 H                    -2.81883   1.85371   4.57231 
 H                    -3.63201   1.82971   2.99336 
 H                    -3.2313    3.3793    3.76832 
 
 NAtoms=     27 NQM=       27 NQMF=       0 NMMI=      0 NMMIF=      0
                NMic=       0 NMicF=      0.
                    Isotopes and Nuclear Properties:
 (Nuclear quadrupole moments (NQMom) in fm**2, nuclear magnetic moments (NMagM)
  in nuclear magnetons)

  Atom         1           2           3           4           5           6           7           8           9          10
 IAtWgt=          12          12          12          12          12          16          12          16           1          12
 AtmWgt=  12.0000000  12.0000000  12.0000000  12.0000000  12.0000000  15.9949146  12.0000000  15.9949146   1.0078250  12.0000000
 NucSpn=           0           0           0           0           0           0           0           0           1           0
 AtZEff=   0.0000000   0.0000000   0.0000000   0.0000000   0.0000000   0.0000000   0.0000000   0.0000000   0.0000000   0.0000000
 NQMom=    0.0000000   0.0000000   0.0000000   0.0000000   0.0000000   0.0000000   0.0000000   0.0000000   0.0000000   0.0000000
 NMagM=    0.0000000   0.0000000   0.0000000   0.0000000   0.0000000   0.0000000   0.0000000   0.0000000   2.7928460   0.0000000
 AtZNuc=   6.0000000   6.0000000   6.0000000   6.0000000   6.0000000   8.0000000   6.0000000   8.0000000   1.0000000   6.0000000

  Atom        11          12          13          14          15          16          17          18          19          20
 IAtWgt=           1          12           1          12           1           1           1          14           1          12
 AtmWgt=   1.0078250  12.0000000   1.0078250  12.0000000   1.0078250   1.0078250   1.0078250  14.0030740   1.0078250  12.0000000
 NucSpn=           1           0           1           0           1           1           1           2           1           0
 AtZEff=   0.0000000   0.0000000   0.0000000   0.0000000   0.0000000   0.0000000   0.0000000   0.0000000   0.0000000   0.0000000
 NQMom=    0.0000000   0.0000000   0.0000000   0.0000000   0.0000000   0.0000000   0.0000000   2.0440000   0.0000000   0.0000000
 NMagM=    2.7928460   0.0000000   2.7928460   0.0000000   2.7928460   2.7928460   2.7928460   0.4037610   2.7928460   0.0000000
 AtZNuc=   1.0000000   6.0000000   1.0000000   6.0000000   1.0000000   1.0000000   1.0000000   7.0000000   1.0000000   6.0000000

  Atom        21          22          23          24          25          26          27
 IAtWgt=          12           1           1           1           1           1           1
 AtmWgt=  12.0000000   1.0078250   1.0078250   1.0078250   1.0078250   1.0078250   1.0078250
 NucSpn=           0           1           1           1           1           1           1
 AtZEff=   0.0000000   0.0000000   0.0000000   0.0000000   0.0000000   0.0000000   0.0000000
 NQMom=    0.0000000   0.0000000   0.0000000   0.0000000   0.0000000   0.0000000   0.0000000
 NMagM=    0.0000000   2.7928460   2.7928460   2.7928460   2.7928460   2.7928460   2.7928460
 AtZNuc=   6.0000000   1.0000000   1.0000000   1.0000000   1.0000000   1.0000000   1.0000000
 Leave Link  101 at Wed Sep 27 14:38:04 2017, MaxMem=  1879048192 cpu:         0.1
 (Enter /share/apps/gaussian/g09_D01/g09/l202.exe)
                          Input orientation:                          
 ---------------------------------------------------------------------
 Center     Atomic      Atomic             Coordinates (Angstroms)
 Number     Number       Type             X           Y           Z
 ---------------------------------------------------------------------
      1          6           0        2.845109    0.146510    2.769383
      2          6           0        1.556037    0.458959    3.442038
      3          6           0        3.890255   -0.444474    3.516121
      4          6           0        3.071142    0.419696    1.412774
      5          6           0        0.581420    1.293560    2.767584
      6          8           0        1.348961    0.019626    4.588492
      7          6           0        5.126913   -0.690212    2.908777
      8          8           0        3.754973   -0.779870    4.802038
      9          1           0        2.816130   -0.589386    5.038175
     10          6           0        4.285648    0.148700    0.811836
     11          1           0        2.271593    0.831557    0.811104
     12          6           0       -0.601627    1.545703    3.389144
     13          1           0        0.808278    1.713509    1.799433
     14          6           0        5.319830   -0.396616    1.574026
     15          1           0        5.912601   -1.124016    3.514929
     16          1           0        4.426974    0.351858   -0.242450
     17          1           0       -0.779696    1.063129    4.346396
     18          7           0       -1.587574    2.356426    2.962433
     19          1           0        6.281884   -0.601060    1.116508
     20          6           0       -1.484488    3.046062    1.692542
     21          6           0       -2.886045    2.353027    3.605579
     22          1           0       -0.493171    3.489494    1.582694
     23          1           0       -2.224397    3.847997    1.661639
     24          1           0       -1.662197    2.369891    0.847920
     25          1           0       -2.818827    1.853707    4.572311
     26          1           0       -3.632013    1.829713    2.993364
     27          1           0       -3.231297    3.379298    3.768317
 ---------------------------------------------------------------------
                    Distance matrix (angstroms):
                    1          2          3          4          5
     1  C    0.000000
     2  C    1.487211   0.000000
     3  C    1.413934   2.504047   0.000000
     4  C    1.402180   2.532784   2.416983   0.000000
     5  C    2.537718   1.449595   3.811753   2.966119   0.000000
     6  O    2.358753   1.245091   2.797060   3.634714   2.351113
     7  C    2.434371   3.788947   1.399492   2.774187   4.961531
     8  O    2.411995   2.866987   1.335805   3.659740   4.302273
     9  H    2.385330   2.287906   1.868527   3.771844   3.700675
    10  C    2.430462   3.803288   2.796667   1.381879   4.342460
    11  H    2.152456   2.751847   3.400800   1.082088   2.626394
    12  C    3.771185   2.416469   4.914665   4.320088   1.359968
    13  H    2.746811   2.197997   4.135516   2.635149   1.079416
    14  C    2.801448   4.288078   2.411993   2.397700   5.170474
    15  H    3.402879   4.635814   2.133462   3.856941   5.901245
    16  H    3.408167   4.672173   3.879313   2.140712   4.973469
    17  H    4.057878   2.576535   4.977014   4.883554   2.097232
    18  N    4.956781   3.703065   6.177234   5.277878   2.423259
    19  H    3.886165   5.372649   3.391541   3.382097   6.229842
    20  C    5.320940   4.358742   6.663118   5.265912   2.914611
    21  C    6.197908   4.831804   7.331593   6.635830   3.721293
    22  H    4.871128   4.103725   6.199086   4.707107   2.716769
    23  H    6.374009   5.380249   7.697622   6.313313   3.952325
    24  H    5.380637   4.553915   6.772715   5.150419   3.142836
    25  H    6.184274   4.728877   7.170004   6.835993   3.890049
    26  H    6.696002   5.384806   7.875895   7.029844   4.253405
    27  H    6.954962   5.617242   8.087109   7.350413   4.459661
                    6          7          8          9         10
     6  O    0.000000
     7  C    4.195025   0.000000
     8  O    2.544345   2.339807   0.000000
     9  H    1.650968   3.143918   0.986646   0.000000
    10  C    4.785804   2.410117   4.131050   4.534997   0.000000
    11  H    3.972297   3.856017   4.552435   4.492630   2.126667
    12  C    2.751752   6.168163   5.136587   4.354190   5.699087
    13  H    3.307632   5.065484   4.890357   4.452443   3.939045
    14  C    5.002806   1.380209   3.607731   4.278551   1.395649
    15  H    4.825688   1.083011   2.535832   3.492025   3.401984
    16  H    5.737817   3.392058   5.213372   5.600514   1.082943
    17  H    2.383000   6.326846   4.916043   4.017378   6.243957
    18  N    4.089980   7.373549   6.462454   5.690266   6.632787
    19  H    6.064128   2.134042   4.472179   5.233647   2.154048
    20  C    5.057101   7.690877   7.194350   6.550195   6.516504
    21  C    4.934182   8.599670   7.439736   6.574567   8.006075
    22  H    4.946540   7.128379   6.829229   6.287216   5.881517
    23  H    5.999315   8.728829   8.187315   7.516533   7.535758
    24  H    5.346279   7.726796   7.409573   6.809623   6.349161
    25  H    4.553523   8.507271   7.085432   6.159421   8.217164
    26  H    5.534523   9.114602   8.040447   7.184138   8.382972
    27  H    5.739237   9.335920   8.196049   7.344002   8.699541
                   11         12         13         14         15
    11  H    0.000000
    12  C    3.925772   0.000000
    13  H    1.973810   2.131472   0.000000
    14  C    3.373753   6.490833   4.985733   0.000000
    15  H    4.938813   7.041192   6.086755   2.155828   0.000000
    16  H    2.446580   6.316690   4.372452   2.158006   4.301533
    17  H    4.675712   1.086700   3.071103   6.857194   7.089554
    18  N    4.674036   1.345900   2.739711   7.564334   8.286818
    19  H    4.269438   7.560171   5.981971   1.084743   2.482393
    20  C    4.448495   2.430839   2.654034   7.626586   8.684905
    21  C    6.060131   2.432526   4.161631   8.889552   9.461195
    22  H    3.912020   2.655814   2.212435   6.992346   8.127233
    23  H    5.480533   3.304272   3.711084   8.656776   9.714234
    24  H    4.224042   2.874355   2.727538   7.545163   8.757733
    25  H    6.411228   2.531941   4.567756   8.960547   9.285619
    26  H    6.372687   3.069290   4.599474   9.333089  10.004809
    27  H    6.746695   3.228158   4.792653   9.601782  10.195828
                   16         17         18         19         20
    16  H    0.000000
    17  H    6.976591   0.000000
    18  N    7.103827   2.059281   0.000000
    19  H    2.489078   7.941512   8.607121   0.000000
    20  C    6.778518   3.386989   1.448740   8.599410   0.000000
    21  C    8.502485   2.578634   1.449026   9.948519   2.470702
    22  H    6.114224   3.688820   2.094097   7.927883   1.091516
    23  H    7.751727   4.129234   2.079036   9.614993   1.091568
    24  H    6.506871   3.837417   2.115872   8.485700   1.096437
    25  H    8.828313   2.198660   2.088161  10.039492   3.390463
    26  H    8.809189   3.248701   2.111425  10.378661   2.789894
    27  H    9.159736   3.421865   2.097032  10.647814   2.733355
                   21         22         23         24         25
    21  C    0.000000
    22  H    3.333087   0.000000
    23  H    2.540003   1.769718   0.000000
    24  H    3.017080   1.777646   1.778484   0.000000
    25  H    1.090142   4.125807   3.578065   3.933869   0.000000
    26  H    1.097786   3.820627   2.797918   2.962245   1.776210
    27  H    1.094950   3.505200   2.381516   3.465501   1.773123
                   26         27
    26  H    0.000000
    27  H    1.778297   0.000000
 Symmetry turned off by external request.
 Stoichiometry    C11H13NO2
 Framework group  C1[X(C11H13NO2)]
 Deg. of freedom    75
 Full point group                 C1      NOp   1
 Rotational constants (GHZ):      1.6091391      0.3215967      0.2704242
 Leave Link  202 at Wed Sep 27 14:38:04 2017, MaxMem=  1879048192 cpu:         0.0
 (Enter /share/apps/gaussian/g09_D01/g09/l301.exe)
 Standard basis: 6-31G(d) (6D, 7F)
 Ernie: Thresh=  0.10000D-02 Tol=  0.10000D-05 Strict=F.
   236 basis functions,   444 primitive gaussians,   236 cartesian basis functions
    51 alpha electrons       51 beta electrons
       nuclear repulsion energy       837.9407351766 Hartrees.
 IExCor= 4639 DFT=T Ex+Corr=wB97XD ExCW=0 ScaHFX=  1.000000
 ScaDFX=  1.000000  1.000000  1.000000  1.000000 ScalE2=  1.000000  1.000000
 IRadAn=      0 IRanWt=     -1 IRanGd=            0 ICorTp=0 IEmpDi=121
  HFx wShort=  0.000000 wLong=  0.200000 cFull=  0.222036 cShort=  0.000000 cLong=  0.777964
  DFx wShort=  0.000000 wLong=  0.200000 cFull=  0.000000 cShort=  0.000000 cLong=  1.000000
 NAtoms=   27 NActive=   27 NUniq=   27 SFac= 1.00D+00 NAtFMM=   60 NAOKFM=F Big=F
 Integral buffers will be    131072 words long.
 Raffenetti 1 integral format.
 Two-electron integral symmetry is turned off.
 R6Disp:  Grimme-D2 Dispersion energy=       -0.0148895069 Hartrees.
 Nuclear repulsion after empirical dispersion term =      837.9258456697 Hartrees.
 Leave Link  301 at Wed Sep 27 14:38:04 2017, MaxMem=  1879048192 cpu:         0.1
 (Enter /share/apps/gaussian/g09_D01/g09/l302.exe)
 NPDir=0 NMtPBC=     1 NCelOv=     1 NCel=       1 NClECP=     1 NCelD=      1
         NCelK=      1 NCelE2=     1 NClLst=     1 CellRange=     0.0.
 One-electron integrals computed using PRISM.
 NBasis=   236 RedAO= T EigKep=  3.93D-04  NBF=   236
 NBsUse=   236 1.00D-06 EigRej= -1.00D+00 NBFU=   236
 Precomputing XC quadrature grid using
 IXCGrd= 4 IRadAn=           0 IRanWt=          -1 IRanGd=           0 AccXCQ= 0.00D+00.
 Generated NRdTot=       0 NPtTot=           0 NUsed=           0 NTot=          32
 NSgBfM=   235   235   235   235   235 MxSgAt=    27 MxSgA2=    27.
 Leave Link  302 at Wed Sep 27 14:38:04 2017, MaxMem=  1879048192 cpu:         0.7
 (Enter /share/apps/gaussian/g09_D01/g09/l308.exe)
 Leave Link  308 at Wed Sep 27 14:38:04 2017, MaxMem=  1879048192 cpu:         0.1
 (Enter /share/apps/gaussian/g09_D01/g09/l303.exe)
 DipDrv:  MaxL=1.
 Leave Link  303 at Wed Sep 27 14:38:04 2017, MaxMem=  1879048192 cpu:         0.0
 (Enter /share/apps/gaussian/g09_D01/g09/l401.exe)
 ExpMin= 1.61D-01 ExpMax= 5.48D+03 ExpMxC= 8.25D+02 IAcc=1 IRadAn=         1 AccDes= 0.00D+00
 Harris functional with IExCor= 4639 and IRadAn=       1 diagonalized for initial guess.
 HarFok:  IExCor= 4639 AccDes= 0.00D+00 IRadAn=         1 IDoV= 1 UseB2=F ITyADJ=14
 ICtDFT=  3500011 ScaDFX=  1.000000  1.000000  1.000000  1.000000
 FoFCou: FMM=F IPFlag=           0 FMFlag=      100000 FMFlg1=           0
         NFxFlg=           0 DoJE=T BraDBF=F KetDBF=T FulRan=T
         wScrn=  0.000000 ICntrl=     500 IOpCl=  0 I1Cent=   200000004 NGrid=           0
         NMat0=    1 NMatS0=      1 NMatT0=    0 NMatD0=    1 NMtDS0=    0 NMtDT0=    0
 Symmetry not used in FoFCou.
 Harris En= -604.776017808531    
 JPrj=0 DoOrth=F DoCkMO=F.
 Leave Link  401 at Wed Sep 27 14:38:05 2017, MaxMem=  1879048192 cpu:         2.1
 (Enter /share/apps/gaussian/g09_D01/g09/l502.exe)
 Closed shell SCF:
 Using DIIS extrapolation, IDIIS=  1040.
 Two-electron integral symmetry not used.
 Keep R1 ints in memory in canonical form, NReq=788969554.
 IVT=      188524 IEndB=      188524 NGot=  1879048192 MDV=  1096734547
 LenX=  1096734547 LenY=  1096678410
 Requested convergence on RMS density matrix=1.00D-08 within 128 cycles.
 Requested convergence on MAX density matrix=1.00D-06.
 Requested convergence on             energy=1.00D-06.
 No special actions if energy rises.
 FoFCou: FMM=F IPFlag=           0 FMFlag=           0 FMFlg1=           0
         NFxFlg=           0 DoJE=F BraDBF=F KetDBF=F FulRan=T
         wScrn=  0.000000 ICntrl=     600 IOpCl=  0 I1Cent=           0 NGrid=           0
         NMat0=    1 NMatS0=  27966 NMatT0=    0 NMatD0=    1 NMtDS0=    0 NMtDT0=    0
 Symmetry not used in FoFCou.
 Integral accuracy reduced to 1.0D-05 until final iterations.

 Cycle   1  Pass 0  IDiag  1:
 E= -631.793086980838    
 DIIS: error= 5.60D-02 at cycle   1 NSaved=   1.
 NSaved= 1 IEnMin= 1 EnMin= -631.793086980838     IErMin= 1 ErrMin= 5.60D-02
 ErrMax= 5.60D-02  0.00D+00 EMaxC= 1.00D-01 BMatC= 6.14D-01 BMatP= 6.14D-01
 IDIUse=3 WtCom= 4.40D-01 WtEn= 5.60D-01
 Coeff-Com:  0.100D+01
 Coeff-En:   0.100D+01
 Coeff:      0.100D+01
 Gap=     0.360 Goal=   None    Shift=    0.000
 GapD=    0.360 DampG=1.000 DampE=0.500 DampFc=0.5000 IDamp=-1.
 Damping current iteration by 5.00D-01
 RMSDP=3.56D-03 MaxDP=1.25D-01              OVMax= 1.39D-01

 Cycle   2  Pass 0  IDiag  1:
 E= -631.880526522634     Delta-E=       -0.087439541796 Rises=F Damp=T
 DIIS: error= 2.59D-02 at cycle   2 NSaved=   2.
 NSaved= 2 IEnMin= 2 EnMin= -631.880526522634     IErMin= 2 ErrMin= 2.59D-02
 ErrMax= 2.59D-02  0.00D+00 EMaxC= 1.00D-01 BMatC= 1.24D-01 BMatP= 6.14D-01
 IDIUse=3 WtCom= 7.41D-01 WtEn= 2.59D-01
 Coeff-Com: -0.386D+00 0.139D+01
 Coeff-En:   0.000D+00 0.100D+01
 Coeff:     -0.286D+00 0.129D+01
 Gap=     0.322 Goal=   None    Shift=    0.000
 RMSDP=1.43D-03 MaxDP=4.20D-02 DE=-8.74D-02 OVMax= 1.41D-01

 Cycle   3  Pass 0  IDiag  1:
 E= -631.950287803510     Delta-E=       -0.069761280876 Rises=F Damp=F
 DIIS: error= 8.95D-03 at cycle   3 NSaved=   3.
 NSaved= 3 IEnMin= 3 EnMin= -631.950287803510     IErMin= 3 ErrMin= 8.95D-03
 ErrMax= 8.95D-03  0.00D+00 EMaxC= 1.00D-01 BMatC= 3.94D-02 BMatP= 1.24D-01
 IDIUse=3 WtCom= 9.10D-01 WtEn= 8.95D-02
 Coeff-Com: -0.302D+00 0.630D+00 0.673D+00
 Coeff-En:   0.000D+00 0.000D+00 0.100D+01
 Coeff:     -0.275D+00 0.573D+00 0.702D+00
 Gap=     0.303 Goal=   None    Shift=    0.000
 RMSDP=8.91D-04 MaxDP=3.80D-02 DE=-6.98D-02 OVMax= 5.65D-02

 Cycle   4  Pass 0  IDiag  1:
 E= -631.981809459358     Delta-E=       -0.031521655847 Rises=F Damp=F
 DIIS: error= 3.27D-03 at cycle   4 NSaved=   4.
 NSaved= 4 IEnMin= 4 EnMin= -631.981809459358     IErMin= 4 ErrMin= 3.27D-03
 ErrMax= 3.27D-03  0.00D+00 EMaxC= 1.00D-01 BMatC= 2.62D-03 BMatP= 3.94D-02
 IDIUse=3 WtCom= 9.67D-01 WtEn= 3.27D-02
 Coeff-Com: -0.134D+00 0.273D+00 0.381D+00 0.480D+00
 Coeff-En:   0.000D+00 0.000D+00 0.000D+00 0.100D+01
 Coeff:     -0.130D+00 0.265D+00 0.369D+00 0.497D+00
 Gap=     0.295 Goal=   None    Shift=    0.000
 RMSDP=2.06D-04 MaxDP=6.55D-03 DE=-3.15D-02 OVMax= 9.74D-03

 Cycle   5  Pass 0  IDiag  1:
 E= -631.983955251965     Delta-E=       -0.002145792608 Rises=F Damp=F
 DIIS: error= 4.26D-04 at cycle   5 NSaved=   5.
 NSaved= 5 IEnMin= 5 EnMin= -631.983955251965     IErMin= 5 ErrMin= 4.26D-04
 ErrMax= 4.26D-04  0.00D+00 EMaxC= 1.00D-01 BMatC= 6.40D-05 BMatP= 2.62D-03
 IDIUse=3 WtCom= 9.96D-01 WtEn= 4.26D-03
 Coeff-Com: -0.565D-02 0.990D-02 0.461D-01 0.148D+00 0.802D+00
 Coeff-En:   0.000D+00 0.000D+00 0.000D+00 0.000D+00 0.100D+01
 Coeff:     -0.563D-02 0.986D-02 0.459D-01 0.147D+00 0.802D+00
 Gap=     0.295 Goal=   None    Shift=    0.000
 RMSDP=6.01D-05 MaxDP=1.78D-03 DE=-2.15D-03 OVMax= 2.51D-03

 Cycle   6  Pass 0  IDiag  1:
 E= -631.984033094067     Delta-E=       -0.000077842102 Rises=F Damp=F
 DIIS: error= 1.91D-04 at cycle   6 NSaved=   6.
 NSaved= 6 IEnMin= 6 EnMin= -631.984033094067     IErMin= 6 ErrMin= 1.91D-04
 ErrMax= 1.91D-04  0.00D+00 EMaxC= 1.00D-01 BMatC= 1.61D-05 BMatP= 6.40D-05
 IDIUse=3 WtCom= 9.98D-01 WtEn= 1.91D-03
 Coeff-Com:  0.292D-01-0.600D-01-0.637D-01-0.461D-01 0.374D+00 0.767D+00
 Coeff-En:   0.000D+00 0.000D+00 0.000D+00 0.000D+00 0.000D+00 0.100D+01
 Coeff:      0.291D-01-0.599D-01-0.635D-01-0.460D-01 0.373D+00 0.767D+00
 Gap=     0.296 Goal=   None    Shift=    0.000
 RMSDP=3.08D-05 MaxDP=1.02D-03 DE=-7.78D-05 OVMax= 3.21D-03

 Cycle   7  Pass 0  IDiag  1:
 E= -631.984058634243     Delta-E=       -0.000025540175 Rises=F Damp=F
 DIIS: error= 6.52D-05 at cycle   7 NSaved=   7.
 NSaved= 7 IEnMin= 7 EnMin= -631.984058634243     IErMin= 7 ErrMin= 6.52D-05
 ErrMax= 6.52D-05  0.00D+00 EMaxC= 1.00D-01 BMatC= 1.39D-06 BMatP= 1.61D-05
 IDIUse=1 WtCom= 1.00D+00 WtEn= 0.00D+00
 Coeff-Com:  0.793D-02-0.161D-01-0.190D-01-0.235D-01 0.221D-01 0.242D+00
 Coeff-Com:  0.786D+00
 Coeff:      0.793D-02-0.161D-01-0.190D-01-0.235D-01 0.221D-01 0.242D+00
 Coeff:      0.786D+00
 Gap=     0.296 Goal=   None    Shift=    0.000
 RMSDP=1.11D-05 MaxDP=2.72D-04 DE=-2.55D-05 OVMax= 7.08D-04

 Cycle   8  Pass 0  IDiag  1:
 E= -631.984060756777     Delta-E=       -0.000002122534 Rises=F Damp=F
 DIIS: error= 2.01D-05 at cycle   8 NSaved=   8.
 NSaved= 8 IEnMin= 8 EnMin= -631.984060756777     IErMin= 8 ErrMin= 2.01D-05
 ErrMax= 2.01D-05  0.00D+00 EMaxC= 1.00D-01 BMatC= 2.64D-07 BMatP= 1.39D-06
 IDIUse=1 WtCom= 1.00D+00 WtEn= 0.00D+00
 Coeff-Com: -0.234D-02 0.496D-02 0.466D-02-0.132D-02-0.714D-01-0.316D-01
 Coeff-Com:  0.326D+00 0.771D+00
 Coeff:     -0.234D-02 0.496D-02 0.466D-02-0.132D-02-0.714D-01-0.316D-01
 Coeff:      0.326D+00 0.771D+00
 Gap=     0.296 Goal=   None    Shift=    0.000
 RMSDP=4.75D-06 MaxDP=1.01D-04 DE=-2.12D-06 OVMax= 4.73D-04

 Initial convergence to 1.0D-05 achieved.  Increase integral accuracy.
 Cycle   9  Pass 1  IDiag  1:
 E= -631.983995633634     Delta-E=        0.000065123143 Rises=F Damp=F
 DIIS: error= 7.83D-05 at cycle   1 NSaved=   1.
 NSaved= 1 IEnMin= 1 EnMin= -631.983995633634     IErMin= 1 ErrMin= 7.83D-05
 ErrMax= 7.83D-05  0.00D+00 EMaxC= 1.00D-01 BMatC= 4.69D-06 BMatP= 4.69D-06
 IDIUse=1 WtCom= 1.00D+00 WtEn= 0.00D+00
 Coeff-Com:  0.100D+01
 Coeff:      0.100D+01
 Gap=     0.296 Goal=   None    Shift=    0.000
 RMSDP=4.75D-06 MaxDP=1.01D-04 DE= 6.51D-05 OVMax= 2.45D-04

 Cycle  10  Pass 1  IDiag  1:
 E= -631.983999593016     Delta-E=       -0.000003959382 Rises=F Damp=F
 DIIS: error= 1.36D-05 at cycle   2 NSaved=   2.
 NSaved= 2 IEnMin= 2 EnMin= -631.983999593016     IErMin= 2 ErrMin= 1.36D-05
 ErrMax= 1.36D-05  0.00D+00 EMaxC= 1.00D-01 BMatC= 1.25D-07 BMatP= 4.69D-06
 IDIUse=1 WtCom= 1.00D+00 WtEn= 0.00D+00
 Coeff-Com: -0.382D-01 0.104D+01
 Coeff:     -0.382D-01 0.104D+01
 Gap=     0.296 Goal=   None    Shift=    0.000
 RMSDP=2.94D-06 MaxDP=6.66D-05 DE=-3.96D-06 OVMax= 1.87D-04

 Cycle  11  Pass 1  IDiag  1:
 E= -631.983999674863     Delta-E=       -0.000000081847 Rises=F Damp=F
 DIIS: error= 1.44D-05 at cycle   3 NSaved=   3.
 NSaved= 3 IEnMin= 3 EnMin= -631.983999674863     IErMin= 2 ErrMin= 1.36D-05
 ErrMax= 1.44D-05  0.00D+00 EMaxC= 1.00D-01 BMatC= 9.89D-08 BMatP= 1.25D-07
 IDIUse=1 WtCom= 1.00D+00 WtEn= 0.00D+00
 Coeff-Com: -0.426D-01 0.502D+00 0.541D+00
 Coeff:     -0.426D-01 0.502D+00 0.541D+00
 Gap=     0.296 Goal=   None    Shift=    0.000
 RMSDP=1.59D-06 MaxDP=3.85D-05 DE=-8.18D-08 OVMax= 9.37D-05

 Cycle  12  Pass 1  IDiag  1:
 E= -631.983999767791     Delta-E=       -0.000000092928 Rises=F Damp=F
 DIIS: error= 2.43D-06 at cycle   4 NSaved=   4.
 NSaved= 4 IEnMin= 4 EnMin= -631.983999767791     IErMin= 4 ErrMin= 2.43D-06
 ErrMax= 2.43D-06  0.00D+00 EMaxC= 1.00D-01 BMatC= 4.28D-09 BMatP= 9.89D-08
 IDIUse=1 WtCom= 1.00D+00 WtEn= 0.00D+00
 Coeff-Com: -0.825D-02 0.254D-01 0.162D+00 0.821D+00
 Coeff:     -0.825D-02 0.254D-01 0.162D+00 0.821D+00
 Gap=     0.296 Goal=   None    Shift=    0.000
 RMSDP=4.15D-07 MaxDP=1.39D-05 DE=-9.29D-08 OVMax= 3.06D-05

 Cycle  13  Pass 1  IDiag  1:
 E= -631.983999773455     Delta-E=       -0.000000005664 Rises=F Damp=F
 DIIS: error= 1.05D-06 at cycle   5 NSaved=   5.
 NSaved= 5 IEnMin= 5 EnMin= -631.983999773455     IErMin= 5 ErrMin= 1.05D-06
 ErrMax= 1.05D-06  0.00D+00 EMaxC= 1.00D-01 BMatC= 6.37D-10 BMatP= 4.28D-09
 IDIUse=1 WtCom= 1.00D+00 WtEn= 0.00D+00
 Coeff-Com:  0.153D-02-0.412D-01-0.418D-03 0.298D+00 0.742D+00
 Coeff:      0.153D-02-0.412D-01-0.418D-03 0.298D+00 0.742D+00
 Gap=     0.296 Goal=   None    Shift=    0.000
 RMSDP=1.70D-07 MaxDP=4.77D-06 DE=-5.66D-09 OVMax= 1.24D-05

 Cycle  14  Pass 1  IDiag  1:
 E= -631.983999774348     Delta-E=       -0.000000000893 Rises=F Damp=F
 DIIS: error= 4.39D-07 at cycle   6 NSaved=   6.
 NSaved= 6 IEnMin= 6 EnMin= -631.983999774348     IErMin= 6 ErrMin= 4.39D-07
 ErrMax= 4.39D-07  0.00D+00 EMaxC= 1.00D-01 BMatC= 6.57D-11 BMatP= 6.37D-10
 IDIUse=1 WtCom= 1.00D+00 WtEn= 0.00D+00
 Coeff-Com:  0.150D-02-0.160D-01-0.243D-01-0.609D-02 0.205D+00 0.840D+00
 Coeff:      0.150D-02-0.160D-01-0.243D-01-0.609D-02 0.205D+00 0.840D+00
 Gap=     0.296 Goal=   None    Shift=    0.000
 RMSDP=8.49D-08 MaxDP=1.54D-06 DE=-8.93D-10 OVMax= 1.01D-05

 Cycle  15  Pass 1  IDiag  1:
 E= -631.983999774509     Delta-E=       -0.000000000161 Rises=F Damp=F
 DIIS: error= 1.75D-07 at cycle   7 NSaved=   7.
 NSaved= 7 IEnMin= 7 EnMin= -631.983999774509     IErMin= 7 ErrMin= 1.75D-07
 ErrMax= 1.75D-07  0.00D+00 EMaxC= 1.00D-01 BMatC= 1.76D-11 BMatP= 6.57D-11
 IDIUse=1 WtCom= 1.00D+00 WtEn= 0.00D+00
 Coeff-Com:  0.272D-03 0.760D-03-0.940D-02-0.441D-01-0.587D-01 0.297D+00
 Coeff-Com:  0.815D+00
 Coeff:      0.272D-03 0.760D-03-0.940D-02-0.441D-01-0.587D-01 0.297D+00
 Coeff:      0.815D+00
 Gap=     0.296 Goal=   None    Shift=    0.000
 RMSDP=4.43D-08 MaxDP=1.04D-06 DE=-1.61D-10 OVMax= 4.47D-06

 Cycle  16  Pass 1  IDiag  1:
 E= -631.983999774596     Delta-E=       -0.000000000088 Rises=F Damp=F
 DIIS: error= 1.10D-07 at cycle   8 NSaved=   8.
 NSaved= 8 IEnMin= 8 EnMin= -631.983999774596     IErMin= 8 ErrMin= 1.10D-07
 ErrMax= 1.10D-07  0.00D+00 EMaxC= 1.00D-01 BMatC= 3.77D-12 BMatP= 1.76D-11
 IDIUse=1 WtCom= 1.00D+00 WtEn= 0.00D+00
 Coeff-Com: -0.266D-03 0.440D-02 0.209D-02-0.155D-01-0.814D-01-0.808D-01
 Coeff-Com:  0.346D+00 0.825D+00
 Coeff:     -0.266D-03 0.440D-02 0.209D-02-0.155D-01-0.814D-01-0.808D-01
 Coeff:      0.346D+00 0.825D+00
 Gap=     0.296 Goal=   None    Shift=    0.000
 RMSDP=2.26D-08 MaxDP=6.04D-07 DE=-8.75D-11 OVMax= 2.97D-06

 Cycle  17  Pass 1  IDiag  1:
 E= -631.983999774608     Delta-E=       -0.000000000012 Rises=F Damp=F
 DIIS: error= 4.61D-08 at cycle   9 NSaved=   9.
 NSaved= 9 IEnMin= 9 EnMin= -631.983999774608     IErMin= 9 ErrMin= 4.61D-08
 ErrMax= 4.61D-08  0.00D+00 EMaxC= 1.00D-01 BMatC= 6.40D-13 BMatP= 3.77D-12
 IDIUse=1 WtCom= 1.00D+00 WtEn= 0.00D+00
 Coeff-Com: -0.133D-03 0.165D-02 0.218D-02 0.167D-03-0.244D-01-0.728D-01
 Coeff-Com:  0.320D-01 0.339D+00 0.722D+00
 Coeff:     -0.133D-03 0.165D-02 0.218D-02 0.167D-03-0.244D-01-0.728D-01
 Coeff:      0.320D-01 0.339D+00 0.722D+00
 Gap=     0.296 Goal=   None    Shift=    0.000
 RMSDP=7.30D-09 MaxDP=2.12D-07 DE=-1.18D-11 OVMax= 8.12D-07

 SCF Done:  E(RwB97XD) =  -631.983999775     A.U. after   17 cycles
            NFock= 17  Conv=0.73D-08     -V/T= 2.0091
 KE= 6.263120756544D+02 PE=-3.146571328037D+03 EE= 1.050349406938D+03
 Leave Link  502 at Wed Sep 27 14:38:54 2017, MaxMem=  1879048192 cpu:        89.1
 (Enter /share/apps/gaussian/g09_D01/g09/l801.exe)
 DoSCS=F DFT=T ScalE2(SS,OS)=  1.000000  1.000000
 ExpMin= 1.61D-01 ExpMax= 5.48D+03 ExpMxC= 8.25D+02 IAcc=3 IRadAn=         5 AccDes= 0.00D+00
 HarFok:  IExCor=  205 AccDes= 0.00D+00 IRadAn=         5 IDoV=-2 UseB2=F ITyADJ=14
 ICtDFT= 12500011 ScaDFX=  1.000000  1.000000  1.000000  1.000000
 Largest valence mixing into a core orbital is  7.26D-05
 Largest core mixing into a valence orbital is  1.50D-05
 Range of M.O.s used for correlation:    15   236
 NBasis=   236 NAE=    51 NBE=    51 NFC=    14 NFV=     0
 NROrb=    222 NOA=    37 NOB=    37 NVA=   185 NVB=   185
 Leave Link  801 at Wed Sep 27 14:38:54 2017, MaxMem=  1879048192 cpu:         0.8
 (Enter /share/apps/gaussian/g09_D01/g09/l914.exe)
 RHF ground state
 MDV=  1879048192 DFT=T DoStab=F Mixed=T DoRPA=T DoScal=F NonHer=T
 Would need an additional           474900000 words for in-memory AO integral storage.
 Making orbital integer symmetry assigments:
     8 initial guesses have been made.
 Convergence on wavefunction:    0.001000000000000
 Davidson Disk Diagonalization:  ConvIn= 1.00D-03 SkipCon=T Conv= 1.00D-03.
 Max sub-space:   200 roots to seek:     8 dimension of matrix:        13690
 Iteration     1 Dimension     8 NMult     0 NNew      8
 CISAX will form     8 AO SS matrices at one time.
 NMat=     8 NSing=     8 JSym2X= 0.
 FoFJK:  IHMeth= 1 ICntrl=       0 DoSepK=T KAlg= 0 I1Cent=   0 FoldK=F
 IRaf=         1 NMat=  16 IRICut=       1 DoRegI=T DoRafI=F ISym2E= 0.
 FoFCou: FMM=F IPFlag=           0 FMFlag=      100000 FMFlg1=           0
         NFxFlg=           0 DoJE=F BraDBF=F KetDBF=F FulRan=T
         wScrn=  0.000000 ICntrl=     500 IOpCl=  0 I1Cent=           0 NGrid=           0
         NMat0=    8 NMatS0=      8 NMatT0=    0 NMatD0=    8 NMtDS0=    0 NMtDT0=    0
 Symmetry not used in FoFCou.
 New state      1 was old state      4
 Excitation Energies [eV] at current iteration:
 Root      1 :     4.547553481804288
 Root      2 :     4.800903041608581
 Root      3 :     5.421926038368292
 Root      4 :     6.221031050530393
 Root      5 :     6.867858337029272
 Root      6 :     7.121212910031040
 Root      7 :     7.649423760162197
 Root      8 :     7.923080075309827
 Iteration     2 Dimension    12 NMult     8 NNew      4
 CISAX will form     4 AO SS matrices at one time.
 NMat=     4 NSing=     4 JSym2X= 0.
 Root      1 not converged, maximum delta is    0.176755388500812
 Excitation Energies [eV] at current iteration:
 Root      1 :     4.257626399608468   Change is   -0.289927082195820
 Root      2 :     4.320965896045990   Change is   -0.479937145562591
 Iteration     3 Dimension    16 NMult    12 NNew      4
 CISAX will form     4 AO SS matrices at one time.
 NMat=     4 NSing=     4 JSym2X= 0.
 Root      1 not converged, maximum delta is    0.106955835001686
 Excitation Energies [eV] at current iteration:
 Root      1 :     4.235586230830481   Change is   -0.022040168777986
 Root      2 :     4.282887591978691   Change is   -0.038078304067300
 Iteration     4 Dimension    20 NMult    16 NNew      4
 CISAX will form     4 AO SS matrices at one time.
 NMat=     4 NSing=     4 JSym2X= 0.
 Root      1 not converged, maximum delta is    0.027763010789655
 Excitation Energies [eV] at current iteration:
 Root      1 :     4.232459780132641   Change is   -0.003126450697841
 Root      2 :     4.277227343867776   Change is   -0.005660248110915
 Iteration     5 Dimension    24 NMult    20 NNew      4
 CISAX will form     4 AO SS matrices at one time.
 NMat=     4 NSing=     4 JSym2X= 0.
 Root      1 not converged, maximum delta is    0.002660841484725
 Excitation Energies [eV] at current iteration:
 Root      1 :     4.232175517825452   Change is   -0.000284262307188
 Root      2 :     4.276612620567963   Change is   -0.000614723299813
 Iteration     6 Dimension    28 NMult    24 NNew      4
 CISAX will form     4 AO SS matrices at one time.
 NMat=     4 NSing=     4 JSym2X= 0.
 Root      1 has converged.
 Excitation Energies [eV] at current iteration:
 Root      1 :     4.232148615452831   Change is   -0.000026902372620
 Root      2 :     4.276558520633738   Change is   -0.000054099934225
 Convergence achieved on expansion vectors.
 ***********************************************************************
 Excited states from <AA,BB:AA,BB> singles matrix:
 ***********************************************************************
 
 1PDM for each excited state written to RWF  633
 Ground to excited state transition densities written to RWF  633
 Ground to excited state transition electric dipole moments (Au):
       state          X           Y           Z        Dip. S.      Osc.
         1        -1.2025      0.5662     -0.0946      1.7756      0.1841
 Ground to excited state transition velocity dipole moments (Au):
       state          X           Y           Z        Dip. S.      Osc.
         1         0.1850     -0.0881      0.0172      0.0423      0.1812
 Ground to excited state transition magnetic dipole moments (Au):
       state          X           Y           Z
         1         0.5228      0.7993     -1.0257
 Ground to excited state transition velocity quadrupole moments (Au):
       state          XX          YY          ZZ          XY          XZ          YZ
         1         1.0345     -0.2982      0.2751      0.0408      1.0590     -0.4784
 <0|del|b> * <b|rxdel|0> + <0|del|b> * <b|delr+rdel|0>
 Rotatory Strengths (R) in cgs (10**-40 erg-esu-cm/Gauss)
       state          XX          YY          ZZ    R(velocity)    E-M Angle
         1        13.4173    -23.1132     48.7437     13.0159       88.29
 1/2[<0|r|b>*<b|rxdel|0> + (<0|rxdel|b>*<b|r|0>)*]
 Rotatory Strengths (R) in cgs (10**-40 erg-esu-cm/Gauss)
       state          XX          YY          ZZ     R(length)
         1       444.5609   -320.0200    -68.6441     18.6323
  1/2[<0|del|b>*<b|r|0> + (<0|r|b>*<b|del|0>)*] (Au)
       state          X           Y           Z        Dip. S.   Osc.(frdel)
         1        -0.2224     -0.0499     -0.0016      0.2740      0.1826

 Excitation energies and oscillator strengths:
 
 Excited state symmetry could not be determined.
 Excited State   1:      Singlet-?Sym    4.2321 eV  292.96 nm  f=0.1841  <S**2>=0.000
      48 -> 52         0.43216
      49 -> 52        -0.31731
      51 -> 52         0.42550
 This state for optimization and/or second-order correction.
 Total Energy, E(TD-HF/TD-KS) =  -631.828471168    
 Copying the excited state density for this state as the 1-particle RhoCI density.
 SavETr:  write IOETrn=   770 NScale= 10 NData=  16 NLR=1 NState=    1 LETran=      28.
 Leave Link  914 at Wed Sep 27 14:40:59 2017, MaxMem=  1879048192 cpu:       248.5
 (Enter /share/apps/gaussian/g09_D01/g09/l601.exe)
 Copying SCF densities to generalized density rwf, IOpCl= 0 IROHF=0.
 Saving Alpha spin NTOs for state    1 to file 10524.

 **********************************************************************

   Populations using transition density between ground and state  1.

 **********************************************************************

 Alpha  occ. eigenvalues --    0.00000   0.00000   0.00000   0.00000   0.00000
 Alpha  occ. eigenvalues --    0.00000   0.00000   0.00000   0.00000   0.00000
 Alpha  occ. eigenvalues --    0.00000   0.00000   0.00000   0.00000   0.00000
 Alpha  occ. eigenvalues --    0.00000   0.00000   0.00000   0.00000   0.00001
 Alpha  occ. eigenvalues --    0.00001   0.00001   0.00001   0.00001   0.00001
 Alpha  occ. eigenvalues --    0.00001   0.00001   0.00002   0.00002   0.00003
 Alpha  occ. eigenvalues --    0.00004   0.00004   0.00005   0.00007   0.00007
 Alpha  occ. eigenvalues --    0.00007   0.00009   0.00010   0.00011   0.00012
 Alpha  occ. eigenvalues --    0.00014   0.00015   0.00018   0.00018   0.00023
 Alpha  occ. eigenvalues --    0.00025   0.00048   0.00311   0.00833   0.02568
 Alpha  occ. eigenvalues --    0.96402
 Alpha virt. eigenvalues --    0.96402   0.02568   0.00833   0.00311   0.00048
 Alpha virt. eigenvalues --    0.00025   0.00023   0.00018   0.00018   0.00015
 Alpha virt. eigenvalues --    0.00014   0.00012   0.00011   0.00010   0.00009
 Alpha virt. eigenvalues --    0.00007   0.00007   0.00007   0.00005   0.00004
 Alpha virt. eigenvalues --    0.00004   0.00003   0.00002   0.00002   0.00001
 Alpha virt. eigenvalues --    0.00001   0.00001   0.00001   0.00001   0.00001
 Alpha virt. eigenvalues --    0.00001   0.00001   0.00000   0.00000   0.00000
 Alpha virt. eigenvalues --    0.00000   0.00000   0.00000   0.00000   0.00000
 Alpha virt. eigenvalues --    0.00000   0.00000   0.00000   0.00000   0.00000
 Alpha virt. eigenvalues --    0.00000   0.00000   0.00000   0.00000   0.00000
 Alpha virt. eigenvalues --    0.00000   0.00000   0.00000   0.00000   0.00000
 Alpha virt. eigenvalues --    0.00000   0.00000   0.00000   0.00000   0.00000
 Alpha virt. eigenvalues --    0.00000   0.00000   0.00000   0.00000   0.00000
 Alpha virt. eigenvalues --    0.00000   0.00000   0.00000   0.00000   0.00000
 Alpha virt. eigenvalues --    0.00000   0.00000   0.00000   0.00000   0.00000
 Alpha virt. eigenvalues --    0.00000   0.00000   0.00000   0.00000   0.00000
 Alpha virt. eigenvalues --    0.00000   0.00000   0.00000   0.00000   0.00000
 Alpha virt. eigenvalues --    0.00000   0.00000   0.00000   0.00000   0.00000
 Alpha virt. eigenvalues --    0.00000   0.00000   0.00000   0.00000   0.00000
 Alpha virt. eigenvalues --    0.00000   0.00000   0.00000   0.00000   0.00000
 Alpha virt. eigenvalues --    0.00000   0.00000   0.00000   0.00000   0.00000
 Alpha virt. eigenvalues --    0.00000   0.00000   0.00000   0.00000   0.00000
 Alpha virt. eigenvalues --    0.00000   0.00000   0.00000   0.00000   0.00000
 Alpha virt. eigenvalues --    0.00000   0.00000   0.00000   0.00000   0.00000
 Alpha virt. eigenvalues --    0.00000   0.00000   0.00000   0.00000   0.00000
 Alpha virt. eigenvalues --    0.00000   0.00000   0.00000   0.00000   0.00000
 Alpha virt. eigenvalues --    0.00000   0.00000   0.00000   0.00000   0.00000
 Alpha virt. eigenvalues --    0.00000   0.00000   0.00000   0.00000   0.00000
 Alpha virt. eigenvalues --    0.00000   0.00000   0.00000   0.00000   0.00000
 Alpha virt. eigenvalues --    0.00000   0.00000   0.00000   0.00000   0.00000
 Alpha virt. eigenvalues --    0.00000   0.00000   0.00000   0.00000   0.00000
 Alpha virt. eigenvalues --    0.00000   0.00000   0.00000   0.00000   0.00000
 Alpha virt. eigenvalues --    0.00000   0.00000   0.00000   0.00000   0.00000
 Alpha virt. eigenvalues --    0.00000   0.00000   0.00000   0.00000   0.00000
 Alpha virt. eigenvalues --    0.00000   0.00000   0.00000   0.00000   0.00000
 Alpha virt. eigenvalues --    0.00000   0.00000   0.00000   0.00000   0.00000
 Alpha virt. eigenvalues --    0.00000   0.00000   0.00000   0.00000   0.00000
          Condensed to atoms (all electrons):
               1          2          3          4          5          6
     1  C   -0.034552  -0.049068  -0.015840   0.051772   0.001213   0.004944
     2  C   -0.049068   0.012213  -0.005425  -0.002955   0.033306   0.004467
     3  C   -0.015840  -0.005425   0.009667   0.005543  -0.001022   0.001502
     4  C    0.051772  -0.002955   0.005543   0.012733  -0.001731   0.000224
     5  C    0.001213   0.033306  -0.001022  -0.001731   0.059953  -0.010134
     6  O    0.004944   0.004467   0.001502   0.000224  -0.010134   0.022794
     7  C   -0.000300   0.000181   0.057979  -0.000320  -0.000011   0.000065
     8  O   -0.001338   0.000051  -0.016252  -0.000202   0.000049   0.002054
     9  H    0.001535   0.002601  -0.002802  -0.000023  -0.000357  -0.015929
    10  C    0.001047   0.000340  -0.002361  -0.057263  -0.000146  -0.000014
    11  H   -0.001733  -0.000474  -0.000371  -0.001471  -0.000243  -0.000004
    12  C    0.000462   0.004521   0.000047  -0.000018  -0.060307   0.001699
    13  H    0.000668   0.006880   0.000015   0.000728  -0.001270   0.000102
    14  C   -0.002926   0.000067  -0.001907  -0.000216   0.000012  -0.000004
    15  H    0.000528  -0.000012   0.001550   0.000138   0.000000  -0.000002
    16  H    0.000249  -0.000008  -0.000006  -0.005734   0.000002   0.000000
    17  H    0.000131   0.002119   0.000002  -0.000004   0.001985   0.003441
    18  N    0.000020  -0.000227   0.000000  -0.000003  -0.000978   0.000090
    19  H    0.000011   0.000000   0.000235   0.000220   0.000000   0.000000
    20  C   -0.000008  -0.000044   0.000000   0.000003   0.002628  -0.000001
    21  C    0.000000   0.000022   0.000000   0.000000  -0.000363   0.000002
    22  H    0.000041   0.000146   0.000000  -0.000032  -0.000065   0.000007
    23  H    0.000000   0.000002   0.000000   0.000000   0.000022   0.000000
    24  H   -0.000008  -0.000029   0.000000   0.000006  -0.001222  -0.000002
    25  H    0.000000   0.000003   0.000000   0.000000   0.000020   0.000012
    26  H    0.000000  -0.000003   0.000000   0.000000   0.000021  -0.000001
    27  H    0.000000   0.000001   0.000000   0.000000  -0.000017   0.000000
               7          8          9         10         11         12
     1  C   -0.000300  -0.001338   0.001535   0.001047  -0.001733   0.000462
     2  C    0.000181   0.000051   0.002601   0.000340  -0.000474   0.004521
     3  C    0.057979  -0.016252  -0.002802  -0.002361  -0.000371   0.000047
     4  C   -0.000320  -0.000202  -0.000023  -0.057263  -0.001471  -0.000018
     5  C   -0.000011   0.000049  -0.000357  -0.000146  -0.000243  -0.060307
     6  O    0.000065   0.002054  -0.015929  -0.000014  -0.000004   0.001699
     7  C    0.012310  -0.003896   0.000313  -0.000774   0.000024   0.000000
     8  O   -0.003896   0.036863   0.014912   0.000044  -0.000001   0.000001
     9  H    0.000313   0.014912   0.007364  -0.000011  -0.000003   0.000017
    10  C   -0.000774   0.000044  -0.000011  -0.003746  -0.002176  -0.000001
    11  H    0.000024  -0.000001  -0.000003  -0.002176   0.016043   0.000070
    12  C    0.000000   0.000001   0.000017  -0.000001   0.000070   0.003674
    13  H    0.000002   0.000000   0.000004  -0.000006   0.000255  -0.006317
    14  C   -0.045489   0.000315  -0.000019   0.061368  -0.000036   0.000000
    15  H   -0.000625  -0.000273  -0.000053   0.000376   0.000001   0.000000
    16  H   -0.000064   0.000000   0.000000  -0.001688  -0.000003   0.000000
    17  H    0.000000   0.000001   0.000015   0.000000  -0.000002  -0.007920
    18  N    0.000000   0.000000   0.000000   0.000000  -0.000001   0.033906
    19  H   -0.001427  -0.000003   0.000001  -0.001557  -0.000011   0.000000
    20  C    0.000000   0.000000   0.000000   0.000000   0.000004   0.000090
    21  C    0.000000   0.000000   0.000000   0.000000   0.000000  -0.002332
    22  H    0.000000   0.000000   0.000000   0.000000  -0.000009   0.000280
    23  H    0.000000   0.000000   0.000000   0.000000   0.000000  -0.000084
    24  H    0.000000   0.000000   0.000000   0.000000   0.000006  -0.002258
    25  H    0.000000   0.000000   0.000000   0.000000   0.000000   0.000069
    26  H    0.000000   0.000000   0.000000   0.000000   0.000000  -0.000441
    27  H    0.000000   0.000000   0.000000   0.000000   0.000000  -0.000480
              13         14         15         16         17         18
     1  C    0.000668  -0.002926   0.000528   0.000249   0.000131   0.000020
     2  C    0.006880   0.000067  -0.000012  -0.000008   0.002119  -0.000227
     3  C    0.000015  -0.001907   0.001550  -0.000006   0.000002   0.000000
     4  C    0.000728  -0.000216   0.000138  -0.005734  -0.000004  -0.000003
     5  C   -0.001270   0.000012   0.000000   0.000002   0.001985  -0.000978
     6  O    0.000102  -0.000004  -0.000002   0.000000   0.003441   0.000090
     7  C    0.000002  -0.045489  -0.000625  -0.000064   0.000000   0.000000
     8  O    0.000000   0.000315  -0.000273   0.000000   0.000001   0.000000
     9  H    0.000004  -0.000019  -0.000053   0.000000   0.000015   0.000000
    10  C   -0.000006   0.061368   0.000376  -0.001688   0.000000   0.000000
    11  H    0.000255  -0.000036   0.000001  -0.000003  -0.000002  -0.000001
    12  C   -0.006317   0.000000   0.000000   0.000000  -0.007920   0.033906
    13  H    0.000703  -0.000001   0.000000  -0.000005  -0.000101   0.000268
    14  C   -0.000001   0.003345  -0.004300   0.003846   0.000000   0.000000
    15  H    0.000000  -0.004300   0.022732  -0.000010   0.000000   0.000000
    16  H   -0.000005   0.003846  -0.000010   0.014267   0.000000   0.000000
    17  H   -0.000101   0.000000   0.000000   0.000000  -0.021690   0.001302
    18  N    0.000268   0.000000   0.000000   0.000000   0.001302  -0.042105
    19  H    0.000000  -0.000135  -0.000364  -0.000347   0.000000   0.000000
    20  C   -0.000498   0.000000   0.000000   0.000000  -0.000411  -0.024183
    21  C   -0.000005   0.000000   0.000000   0.000000   0.001132  -0.017074
    22  H    0.000020   0.000000   0.000000   0.000000   0.000090   0.004070
    23  H    0.000063   0.000000   0.000000   0.000000   0.000027   0.000764
    24  H   -0.000280   0.000000   0.000000   0.000000  -0.000053   0.008339
    25  H    0.000001   0.000000   0.000000   0.000000  -0.000291   0.001194
    26  H   -0.000001   0.000000   0.000000   0.000000  -0.000219   0.005354
    27  H    0.000000   0.000000   0.000000   0.000000   0.000048   0.004422
              19         20         21         22         23         24
     1  C    0.000011  -0.000008   0.000000   0.000041   0.000000  -0.000008
     2  C    0.000000  -0.000044   0.000022   0.000146   0.000002  -0.000029
     3  C    0.000235   0.000000   0.000000   0.000000   0.000000   0.000000
     4  C    0.000220   0.000003   0.000000  -0.000032   0.000000   0.000006
     5  C    0.000000   0.002628  -0.000363  -0.000065   0.000022  -0.001222
     6  O    0.000000  -0.000001   0.000002   0.000007   0.000000  -0.000002
     7  C   -0.001427   0.000000   0.000000   0.000000   0.000000   0.000000
     8  O   -0.000003   0.000000   0.000000   0.000000   0.000000   0.000000
     9  H    0.000001   0.000000   0.000000   0.000000   0.000000   0.000000
    10  C   -0.001557   0.000000   0.000000   0.000000   0.000000   0.000000
    11  H   -0.000011   0.000004   0.000000  -0.000009   0.000000   0.000006
    12  C    0.000000   0.000090  -0.002332   0.000280  -0.000084  -0.002258
    13  H    0.000000  -0.000498  -0.000005   0.000020   0.000063  -0.000280
    14  C   -0.000135   0.000000   0.000000   0.000000   0.000000   0.000000
    15  H   -0.000364   0.000000   0.000000   0.000000   0.000000   0.000000
    16  H   -0.000347   0.000000   0.000000   0.000000   0.000000   0.000000
    17  H    0.000000  -0.000411   0.001132   0.000090   0.000027  -0.000053
    18  N    0.000000  -0.024183  -0.017074   0.004070   0.000764   0.008339
    19  H    0.022210   0.000000   0.000000   0.000000   0.000000   0.000000
    20  C    0.000000   0.032683   0.002178   0.001110  -0.000769   0.003428
    21  C    0.000000   0.002178   0.030560  -0.000281   0.000306   0.000182
    22  H    0.000000   0.001110  -0.000281  -0.035430  -0.000088   0.008527
    23  H    0.000000  -0.000769   0.000306  -0.000088  -0.015308   0.003272
    24  H    0.000000   0.003428   0.000182   0.008527   0.003272  -0.043954
    25  H    0.000000  -0.000290   0.000179  -0.000005  -0.000013   0.000051
    26  H    0.000000   0.000805   0.001867   0.000155   0.000285  -0.001275
    27  H    0.000000   0.000054  -0.001801  -0.000203  -0.000660   0.000317
              25         26         27
     1  C    0.000000   0.000000   0.000000
     2  C    0.000003  -0.000003   0.000001
     3  C    0.000000   0.000000   0.000000
     4  C    0.000000   0.000000   0.000000
     5  C    0.000020   0.000021  -0.000017
     6  O    0.000012  -0.000001   0.000000
     7  C    0.000000   0.000000   0.000000
     8  O    0.000000   0.000000   0.000000
     9  H    0.000000   0.000000   0.000000
    10  C    0.000000   0.000000   0.000000
    11  H    0.000000   0.000000   0.000000
    12  C    0.000069  -0.000441  -0.000480
    13  H    0.000001  -0.000001   0.000000
    14  C    0.000000   0.000000   0.000000
    15  H    0.000000   0.000000   0.000000
    16  H    0.000000   0.000000   0.000000
    17  H   -0.000291  -0.000219   0.000048
    18  N    0.001194   0.005354   0.004422
    19  H    0.000000   0.000000   0.000000
    20  C   -0.000290   0.000805   0.000054
    21  C    0.000179   0.001867  -0.001801
    22  H   -0.000005   0.000155  -0.000203
    23  H   -0.000013   0.000285  -0.000660
    24  H    0.000051  -0.001275   0.000317
    25  H   -0.019586   0.003257   0.000033
    26  H    0.003257  -0.036037   0.005950
    27  H    0.000033   0.005950  -0.023453
 Mulliken charges:
               1
     1  C    6.043151
     2  C    5.991323
     3  C    5.969444
     4  C    5.998604
     5  C    5.978655
     6  O    7.984688
     7  C    5.982035
     8  O    7.967675
     9  H    0.992435
    10  C    6.006569
    11  H    0.990135
    12  C    6.035322
    13  H    0.998777
    14  C    5.986078
    15  H    0.980314
    16  H    0.989501
    17  H    1.020398
    18  N    7.024842
    19  H    0.981165
    20  C    5.983221
    21  C    5.985426
    22  H    1.021669
    23  H    1.012181
    24  H    1.024953
    25  H    1.015366
    26  H    1.020282
    27  H    1.015788
 Sum of Mulliken charges = 102.00000
 Mulliken charges with hydrogens summed into heavy atoms:
               1
     1  C    6.043151
     2  C    5.991323
     3  C    5.969444
     4  C    6.988740
     5  C    6.977431
     6  O    7.984688
     7  C    6.962349
     8  O    8.960110
    10  C    6.996071
    12  C    7.055721
    14  C    6.967243
    18  N    7.024842
    20  C    9.042025
    21  C    9.036863
 Electronic spatial extent (au):  <R**2>=              8.8411
 Charge=              0.0000 electrons
 Dipole moment (field-independent basis, Debye):
    X=             -4.3226    Y=              2.0351    Z=             -0.3402  Tot=              4.7898
 Quadrupole moment (field-independent basis, Debye-Ang):
   XX=            -12.4541   YY=              3.6059   ZZ=             -3.0434
   XY=             -0.5851   XZ=            -12.9613   YZ=              5.8336
 Traceless Quadrupole moment (field-independent basis, Debye-Ang):
   XX=             -8.4903   YY=              7.5698   ZZ=              0.9205
   XY=             -0.5851   XZ=            -12.9613   YZ=              5.8336
 Octapole moment (field-independent basis, Debye-Ang**2):
  XXX=            -91.5006  YYY=             15.6955  ZZZ=            -19.6316  XYY=            -11.5405
  XXY=             17.1553  XXZ=            -32.9747  XZZ=            -50.2550  YZZ=             20.4896
  YYZ=              8.8135  XYZ=             -1.1007
 Hexadecapole moment (field-independent basis, Debye-Ang**3):
 XXXX=           -409.6874 YYYY=             48.5911 ZZZZ=           -115.2054 XXXY=             23.7178
 XXXZ=           -238.6316 YYYX=            -19.9295 YYYZ=             40.9994 ZZZX=           -212.3984
 ZZZY=             78.3206 XXYY=              3.6725 XXZZ=           -126.6765 YYZZ=             26.8957
 XXYZ=             52.1434 YYXZ=            -34.2318 ZZXY=             -1.4313
 N-N= 8.379258456697D+02 E-N=-1.449273277297D-01  KE= 1.264552497591D-02
 Leave Link  601 at Wed Sep 27 14:40:59 2017, MaxMem=  1879048192 cpu:         0.1
 (Enter /share/apps/gaussian/g09_D01/g09/l9999.exe)
 1\1\GINC-NXN37\SP\RwB97XD TD-FC\6-31G(d)\C11H13N1O2\BTX008\27-Sep-2017
 \0\\#p wb97xd 6-31G* td=(nstates=1) nosymm density=(transition=1) pop=
 SaveNTO\\title\\0,1\C,0,2.845109,0.14651,2.769383\C,0,1.556037,0.45895
 9,3.442038\C,0,3.890255,-0.444474,3.516121\C,0,3.071142,0.419696,1.412
 774\C,0,0.58142,1.29356,2.767584\O,0,1.348961,0.019626,4.588492\C,0,5.
 126913,-0.690212,2.908777\O,0,3.754973,-0.77987,4.802038\H,0,2.81613,-
 0.589386,5.038175\C,0,4.285648,0.1487,0.811836\H,0,2.271593,0.831557,0
 .811104\C,0,-0.601627,1.545703,3.389144\H,0,0.808278,1.713509,1.799433
 \C,0,5.31983,-0.396616,1.574026\H,0,5.912601,-1.124016,3.514929\H,0,4.
 426974,0.351858,-0.24245\H,0,-0.779696,1.063129,4.346396\N,0,-1.587574
 ,2.356426,2.962433\H,0,6.281884,-0.60106,1.116508\C,0,-1.484488,3.0460
 62,1.692542\C,0,-2.886045,2.353027,3.605579\H,0,-0.493171,3.489494,1.5
 82694\H,0,-2.224397,3.847997,1.661639\H,0,-1.662197,2.369891,0.84792\H
 ,0,-2.818827,1.853707,4.572311\H,0,-3.632013,1.829713,2.993364\H,0,-3.
 231297,3.379298,3.768317\\Version=ES64L-G09RevD.01\HF=-631.9839998\RMS
 D=7.301e-09\PG=C01 [X(C11H13N1O2)]\\@


 NO MATTER HOW THIN YOU SLICE IT, IT'S STILL BALONEY

                                   -- ALFRED E. SMITH
 Job cpu time:       0 days  0 hours  5 minutes 42.1 seconds.
 File lengths (MBytes):  RWF=     77 Int=      0 D2E=      0 Chk=      7 Scr=      1
 Normal termination of Gaussian 09 at Wed Sep 27 14:40:59 2017.
