
     Program PWSCF v.6.1 (svn rev. 13369) starts on 10Oct2017 at 11:14:27 

     This program is part of the open-source Quantum ESPRESSO suite
     for quantum simulation of materials; please cite
         "P. Giannozzi et al., J. Phys.:Condens. Matter 21 395502 (2009);
          URL http://www.quantum-espresso.org", 
     in publications or presentations arising from this work. More details at
     http://www.quantum-espresso.org/quote

     Parallel version (MPI), running on     1 processors
     Waiting for input...
     Reading input from standard input

     Current dimensions of program PWSCF are:
     Max number of different atomic species (ntypx) = 10
     Max number of k-points (npk) =  40000
     Max angular momentum in pseudopotentials (lmaxx) =  3
     Message from routine iosys:
     london is obsolete, use "vdw_corr='grimme-d2'" instead

     IMPORTANT: XC functional enforced from input :
     Exchange-correlation      = PBE ( 1  4  3  4 0 0)
     Any further DFT definition will be discarded
     Please, verify this is what you really want

               file C.pbe-rrkjus.UPF: wavefunction(s)  2S 2P renormalized
               file H.pbe-rrkjus.UPF: wavefunction(s)  1S renormalized
               file O.pbe-rrkjus.UPF: wavefunction(s)  2S renormalized
               file N.pbe-rrkjus.UPF: wavefunction(s)  2S renormalized

     -------------------------------------
     Parameters for Dispersion Correction:
     -------------------------------------
       atom      VdW radius       C_6     

        C          2.744         60.710
        H          1.892          4.857
        O          2.536         24.284
        N          2.640         42.670
        F          2.432         26.018

     Subspace diagonalization in iterative solution of the eigenvalue problem:
     a serial algorithm will be used

 
     G-vector sticks info
     --------------------
     sticks:   dense  smooth     PW     G-vecs:    dense   smooth      PW
     Sum        3207    3207    899               154425   154425   22919
 


     bravais-lattice index     =            0
     lattice parameter (alat)  =      17.1364  a.u.
     unit-cell volume          =    6954.5023 (a.u.)^3
     number of atoms/cell      =          108
     number of atomic types    =            5
     number of electrons       =       320.00
     number of Kohn-Sham states=          160
     kinetic-energy cutoff     =      30.0000  Ry
     charge density cutoff     =     120.0000  Ry
     convergence threshold     =      1.0E-07
     mixing beta               =       0.7000
     number of iterations used =            8  plain     mixing
     Exchange-correlation      = PBE ( 1  4  3  4 0 0)
     nstep                     =           50


     celldm(1)=  17.136415  celldm(2)=   0.000000  celldm(3)=   0.000000
     celldm(4)=   0.000000  celldm(5)=   0.000000  celldm(6)=   0.000000

     crystal axes: (cart. coord. in units of alat)
               a(1) = (   1.000000   0.000000   0.000000 )  
               a(2) = (   0.000000   1.145762   0.000000 )  
               a(3) = (  -0.419328   0.000000   1.206179 )  

     reciprocal axes: (cart. coord. in units 2 pi/alat)
               b(1) = (  1.000000  0.000000  0.347650 )  
               b(2) = (  0.000000  0.872782  0.000000 )  
               b(3) = (  0.000000  0.000000  0.829064 )  


     PseudoPot. # 1 for C  read from file:
     /data/home/btx156/espresso/pseudo/C.pbe-rrkjus.UPF
     MD5 check sum: 00fb224312de0c5b6853bd333518df6f
     Pseudo is Ultrasoft, Zval =  4.0
     Generated by new atomic code, or converted to UPF format
     Using radial grid of  627 points,  4 beta functions with: 
                l(1) =   0
                l(2) =   0
                l(3) =   1
                l(4) =   1
     Q(r) pseudized with 0 coefficients 


     PseudoPot. # 2 for H  read from file:
     /data/home/btx156/espresso/pseudo/H.pbe-rrkjus.UPF
     MD5 check sum: 7cc9d459525c9a0585f487a71c3c9563
     Pseudo is Ultrasoft, Zval =  1.0
     Generated by new atomic code, or converted to UPF format
     Using radial grid of 1061 points,  2 beta functions with: 
                l(1) =   0
                l(2) =   0
     Q(r) pseudized with 0 coefficients 


     PseudoPot. # 3 for O  read from file:
     /data/home/btx156/espresso/pseudo/O.pbe-rrkjus.UPF
     MD5 check sum: 390ba29e75625707450f3bd3f0eb6be9
     Pseudo is Ultrasoft, Zval =  6.0
     Generated by new atomic code, or converted to UPF format
     Using radial grid of 1269 points,  4 beta functions with: 
                l(1) =   0
                l(2) =   0
                l(3) =   1
                l(4) =   1
     Q(r) pseudized with 0 coefficients 


     PseudoPot. # 4 for N  read from file:
     /data/home/btx156/espresso/pseudo/N.pbe-rrkjus.UPF
     MD5 check sum: 0c3fbe5807a93f9ba59d5a7019aa238b
     Pseudo is Ultrasoft, Zval =  5.0
     Generated by new atomic code, or converted to UPF format
     Using radial grid of 1257 points,  4 beta functions with: 
                l(1) =   0
                l(2) =   0
                l(3) =   1
                l(4) =   1
     Q(r) pseudized with 0 coefficients 


     PseudoPot. # 5 for  F read from file:
     /data/home/btx156/espresso/pseudo/F.pbe-n-rrkjus_psl.0.1.UPF
     MD5 check sum: 04c7599644978b7d0345d67c6032d20f
     Pseudo is Ultrasoft + core correction, Zval =  7.0
     Generated using "atomic" code by A. Dal Corso  v.5.0.2 svn rev. 9415
     Using radial grid of 1105 points,  4 beta functions with: 
                l(1) =   0
                l(2) =   0
                l(3) =   1
                l(4) =   1
     Q(r) pseudized with 0 coefficients 


     atomic species   valence    mass     pseudopotential
        C              4.00    12.00000     C ( 1.00)
        H              1.00     1.00790     H ( 1.00)
        O              6.00    15.99940     O ( 1.00)
        N              5.00    14.00670     N ( 1.00)
        F              7.00    18.99840      F( 1.00)

      4 Sym. Ops., with inversion, found ( 2 have fractional translation)



   Cartesian axes

     site n.     atom                  positions (alat units)
         1           C   tau(   1) = (   0.0561543   0.8942292   0.3868207  )
         2           C   tau(   2) = (  -0.0856374   0.9361308   0.4574757  )
         3           C   tau(   3) = (   0.0980408   0.9412689   0.2446096  )
         4           C   tau(   4) = (   0.1564964   0.8027004   0.4669452  )
         5           C   tau(   5) = (   0.8033922   1.0129623   0.3771093  )
         6           C   tau(   6) = (   0.2931988   0.7628892   0.4054268  )
         7           C   tau(   7) = (   0.3325956   0.8104575   0.2651056  )
         8           C   tau(   8) = (   0.6715902   1.0502432   0.4445713  )
         9           C   tau(   9) = (   0.2327417   0.8988292   0.1883080  )
        10           C   tau(  10) = (   0.5574805   0.0145965   0.2268108  )
        11           H   tau(  11) = (   0.6425529   0.0985201   0.2031206  )
        12           H   tau(  12) = (   0.4493690   0.0603379   0.1977836  )
        13           H   tau(  13) = (   0.5780471   1.0630235   0.1571834  )
        14           C   tau(  14) = (   0.4257958   0.0088025   0.4673528  )
        15           H   tau(  15) = (   0.4372109   1.1107902   0.5797405  )
        16           H   tau(  16) = (   0.3282584   1.1046947   0.4145760  )
        17           H   tau(  17) = (   0.4105489   0.1293196   0.4727172  )
        18           F   tau(  18) = (   0.2704559   0.9482297   0.0490604  )
        19           N   tau(  19) = (   0.5574101   1.1188233   0.3824677  )
        20           O   tau(  20) = (   0.1218231   0.7539241   0.6025702  )
        21           H   tau(  21) = (   0.0206481   0.8083549   0.6240475  )
        22           O   tau(  22) = (  -0.1036233   0.8986761   0.5936780  )
        23           H   tau(  23) = (   0.0275090   1.0108566   0.1767467  )
        24           H   tau(  24) = (   0.8219769   1.0395789   0.2618421  )
        25           H   tau(  25) = (   0.6570038   1.0208822   0.5605568  )
        26           H   tau(  26) = (   0.4382420   0.7814519   0.2147971  )
        27           H   tau(  27) = (   0.3680064   0.6950034   0.4712960  )
        28           C   tau(  28) = (   0.3759729   0.3632497   0.1456131  )
        29           C   tau(  29) = (   0.6663094   0.2096313   0.7487030  )
        30           C   tau(  30) = (   0.2046991   0.7825124   1.0605656  )
        31           C   tau(  31) = (   0.2341811   0.3213481   0.2162692  )
        32           C   tau(  32) = (   0.5245177   0.2515329   0.8193580  )
        33           C   tau(  33) = (   0.3464909   0.8244140   0.9899106  )
        34           C   tau(  34) = (   0.1922958   0.3683878   0.3584803  )
        35           C   tau(  35) = (   0.4826324   0.2044932   0.9615691  )
        36           C   tau(  36) = (   0.3883762   0.7773743   0.8476995  )
        37           C   tau(  37) = (   0.1338401   0.2298194   0.1361447  )
        38           C   tau(  38) = (   0.4241756   0.3430617   0.7392335  )
        39           C   tau(  39) = (   0.4468330   0.9159427   1.0700351  )
        40           C   tau(  40) = (   0.4869444   0.4400813   0.2259795  )
        41           C   tau(  41) = (  -0.2227201   0.1327998   0.8290694  )
        42           C   tau(  42) = (   0.0937276   0.7056808   0.9801992  )
        43           C   tau(  43) = (  -0.0028623   0.1900082   0.1976631  )
        44           C   tau(  44) = (   0.2874743   0.3828729   0.8007520  )
        45           C   tau(  45) = (   0.5835343   0.9557539   1.0085156  )
        46           C   tau(  46) = (  -0.0422601   0.2375765   0.3379843  )
        47           C   tau(  47) = (   0.2480764   0.3353046   0.9410742  )
        48           C   tau(  48) = (   0.6229321   0.9081856   0.8681944  )
        49           C   tau(  49) = (   0.6187463   0.4773621   0.1585187  )
        50           C   tau(  50) = (  -0.0909182   0.0955189   0.7616075  )
        51           C   tau(  51) = (  -0.0380743   0.6684000   1.0476612  )
        52           C   tau(  52) = (   0.0575937   0.3259482   0.4147808  )
        53           C   tau(  53) = (   0.3479303   0.2469329   1.0178708  )
        54           C   tau(  54) = (   0.5230783   0.8198139   0.7913979  )
        55           C   tau(  55) = (   0.7328560   0.5874776   0.3762791  )
        56           C   tau(  56) = (   0.0231915   1.1311656   0.9793679  )
        57           C   tau(  57) = (  -0.1521840   0.5582845   0.8298996  )
        58           H   tau(  58) = (   0.6477826   0.6714011   0.3999682  )
        59           H   tau(  59) = (  -0.0618808   1.0472420   1.0030581  )
        60           H   tau(  60) = (  -0.0671106   0.4743610   0.8062105  )
        61           H   tau(  61) = (   0.8409675   0.6332190   0.4053052  )
        62           H   tau(  62) = (   0.1313030   1.0854242   1.0083952  )
        63           H   tau(  63) = (  -0.2602955   0.5125431   0.8008735  )
        64           H   tau(  64) = (   0.7122895   0.4901424   0.4459065  )
        65           H   tau(  65) = (   0.0026249   0.0827386   1.0489953  )
        66           H   tau(  66) = (  -0.1316175   0.6556197   0.7602722  )
        67           C   tau(  67) = (   0.8645408   0.5816835   0.1357371  )
        68           C   tau(  68) = (   0.1548762   1.1369596   0.7388259  )
        69           C   tau(  69) = (  -0.2838688   0.5640786   1.0704416  )
        70           H   tau(  70) = (   0.8531256   0.5379092   0.0233483  )
        71           H   tau(  71) = (   0.1434611   0.0349719   0.6264382  )
        72           H   tau(  72) = (  -0.2724536   0.6078529   1.1828304  )
        73           H   tau(  73) = (  -0.0379230   0.5318136   0.1885139  )
        74           H   tau(  74) = (   0.2524136   0.0410674   0.7916027  )
        75           H   tau(  75) = (   0.6185950   0.6139485   1.0176648  )
        76           H   tau(  76) = (   0.8797866   0.7022007   0.1303716  )
        77           H   tau(  77) = (   0.1701231   1.0164425   0.7334615  )
        78           H   tau(  78) = (  -0.2991145   0.4435614   1.0758071  )
        79           F   tau(  79) = (   0.0198806   0.3753486   0.5540284  )
        80           F   tau(  80) = (   0.3102161   0.1975324   1.1571183  )
        81           F   tau(  81) = (   0.5607914   0.7704135   0.6521503  )
        82           N   tau(  82) = (   0.7329254   0.5459423   0.2206222  )
        83           N   tau(  83) = (   0.0232619   0.0269388   0.8237111  )
        84           N   tau(  84) = (  -0.1522534   0.5998198   0.9855565  )
        85           O   tau(  85) = (   0.1685134   0.1810431   0.0005197  )
        86           O   tau(  86) = (   0.4588489   0.3918380   0.6036085  )
        87           O   tau(  87) = (   0.4121586   0.9647190   1.2056590  )
        88           H   tau(  88) = (  -0.1496406   0.2354739   1.1852200  )
        89           H   tau(  89) = (   0.5600239   0.3374072   0.5821312  )
        90           H   tau(  90) = (   0.7303126   0.9102882   0.0209587  )
        91           O   tau(  91) = (   0.3939587   0.3257950   0.0094119  )
        92           O   tau(  92) = (   0.6842953   0.2470860   0.6125007  )
        93           O   tau(  93) = (   0.1867133   0.8199671   1.1967679  )
        94           H   tau(  94) = (   0.2628276   0.4379756   0.4263432  )
        95           H   tau(  95) = (   0.5531630   0.1349055   1.0294320  )
        96           H   tau(  96) = (   0.3178444   0.7077865   0.7798366  )
        97           H   tau(  97) = (   0.4683586   0.4666978   0.3412467  )
        98           H   tau(  98) = (  -0.2413049   0.1061832   0.9443367  )
        99           H   tau(  99) = (   0.1123134   0.6790643   0.8649320  )
       100           H   tau( 100) = (   0.6333328   0.4480012   0.0425320  )
       101           H   tau( 101) = (  -0.0763317   0.1248799   0.6456220  )
       102           H   tau( 102) = (  -0.0526608   0.6977609   1.1636467  )
       103           H   tau( 103) = (  -0.1479055   0.2085708   0.3882928  )
       104           H   tau( 104) = (   0.1424311   0.3643102   0.9913816  )
       105           H   tau( 105) = (   0.7285775   0.9371913   0.8178859  )
       106           H   tau( 106) = (   0.9223301   0.1221223   0.1317939  )
       107           H   tau( 107) = (   0.2126656   0.4507587   0.7348827  )
       108           H   tau( 108) = (  -0.3416581   1.0236398   1.0743848  )

     number of k points=    80
                       cart. coord. in units 2pi/alat
        k(    1) = (   0.0000000   0.0000000   0.0000000), wk =   0.0092593
        k(    2) = (   0.0000000   0.0000000   0.1381774), wk =   0.0185185
        k(    3) = (   0.0000000   0.0000000   0.2763548), wk =   0.0185185
        k(    4) = (   0.0000000   0.0000000  -0.4145322), wk =   0.0092593
        k(    5) = (   0.0000000   0.1454636   0.0000000), wk =   0.0185185
        k(    6) = (   0.0000000   0.1454636   0.1381774), wk =   0.0370370
        k(    7) = (   0.0000000   0.1454636   0.2763548), wk =   0.0370370
        k(    8) = (   0.0000000   0.1454636  -0.4145322), wk =   0.0185185
        k(    9) = (   0.0000000   0.2909272   0.0000000), wk =   0.0185185
        k(   10) = (   0.0000000   0.2909272   0.1381774), wk =   0.0370370
        k(   11) = (   0.0000000   0.2909272   0.2763548), wk =   0.0370370
        k(   12) = (   0.0000000   0.2909272  -0.4145322), wk =   0.0185185
        k(   13) = (   0.0000000  -0.4363908   0.0000000), wk =   0.0092593
        k(   14) = (   0.0000000  -0.4363908   0.1381774), wk =   0.0185185
        k(   15) = (   0.0000000  -0.4363908   0.2763548), wk =   0.0185185
        k(   16) = (   0.0000000  -0.4363908  -0.4145322), wk =   0.0092593
        k(   17) = (   0.1666667   0.0000000   0.0579416), wk =   0.0185185
        k(   18) = (   0.1666667   0.0000000   0.1961190), wk =   0.0185185
        k(   19) = (   0.1666667   0.0000000   0.3342965), wk =   0.0185185
        k(   20) = (   0.1666667   0.0000000  -0.3565906), wk =   0.0185185
        k(   21) = (   0.1666667   0.0000000  -0.2184132), wk =   0.0185185
        k(   22) = (   0.1666667   0.0000000  -0.0802358), wk =   0.0185185
        k(   23) = (   0.1666667   0.1454636   0.0579416), wk =   0.0370370
        k(   24) = (   0.1666667   0.1454636   0.1961190), wk =   0.0370370
        k(   25) = (   0.1666667   0.1454636   0.3342965), wk =   0.0370370
        k(   26) = (   0.1666667   0.1454636  -0.3565906), wk =   0.0370370
        k(   27) = (   0.1666667   0.1454636  -0.2184132), wk =   0.0370370
        k(   28) = (   0.1666667   0.1454636  -0.0802358), wk =   0.0370370
        k(   29) = (   0.1666667   0.2909272   0.0579416), wk =   0.0370370
        k(   30) = (   0.1666667   0.2909272   0.1961190), wk =   0.0370370
        k(   31) = (   0.1666667   0.2909272   0.3342965), wk =   0.0370370
        k(   32) = (   0.1666667   0.2909272  -0.3565906), wk =   0.0370370
        k(   33) = (   0.1666667   0.2909272  -0.2184132), wk =   0.0370370
        k(   34) = (   0.1666667   0.2909272  -0.0802358), wk =   0.0370370
        k(   35) = (   0.1666667  -0.4363908   0.0579416), wk =   0.0185185
        k(   36) = (   0.1666667  -0.4363908   0.1961190), wk =   0.0185185
        k(   37) = (   0.1666667  -0.4363908   0.3342965), wk =   0.0185185
        k(   38) = (   0.1666667  -0.4363908  -0.3565906), wk =   0.0185185
        k(   39) = (   0.1666667  -0.4363908  -0.2184132), wk =   0.0185185
        k(   40) = (   0.1666667  -0.4363908  -0.0802358), wk =   0.0185185
        k(   41) = (   0.3333333   0.0000000   0.1158833), wk =   0.0185185
        k(   42) = (   0.3333333   0.0000000   0.2540607), wk =   0.0185185
        k(   43) = (   0.3333333   0.0000000   0.3922381), wk =   0.0185185
        k(   44) = (   0.3333333   0.0000000  -0.2986490), wk =   0.0185185
        k(   45) = (   0.3333333   0.0000000  -0.1604715), wk =   0.0185185
        k(   46) = (   0.3333333   0.0000000  -0.0222941), wk =   0.0185185
        k(   47) = (   0.3333333   0.1454636   0.1158833), wk =   0.0370370
        k(   48) = (   0.3333333   0.1454636   0.2540607), wk =   0.0370370
        k(   49) = (   0.3333333   0.1454636   0.3922381), wk =   0.0370370
        k(   50) = (   0.3333333   0.1454636  -0.2986490), wk =   0.0370370
        k(   51) = (   0.3333333   0.1454636  -0.1604715), wk =   0.0370370
        k(   52) = (   0.3333333   0.1454636  -0.0222941), wk =   0.0370370
        k(   53) = (   0.3333333   0.2909272   0.1158833), wk =   0.0370370
        k(   54) = (   0.3333333   0.2909272   0.2540607), wk =   0.0370370
        k(   55) = (   0.3333333   0.2909272   0.3922381), wk =   0.0370370
        k(   56) = (   0.3333333   0.2909272  -0.2986490), wk =   0.0370370
        k(   57) = (   0.3333333   0.2909272  -0.1604715), wk =   0.0370370
        k(   58) = (   0.3333333   0.2909272  -0.0222941), wk =   0.0370370
        k(   59) = (   0.3333333  -0.4363908   0.1158833), wk =   0.0185185
        k(   60) = (   0.3333333  -0.4363908   0.2540607), wk =   0.0185185
        k(   61) = (   0.3333333  -0.4363908   0.3922381), wk =   0.0185185
        k(   62) = (   0.3333333  -0.4363908  -0.2986490), wk =   0.0185185
        k(   63) = (   0.3333333  -0.4363908  -0.1604715), wk =   0.0185185
        k(   64) = (   0.3333333  -0.4363908  -0.0222941), wk =   0.0185185
        k(   65) = (  -0.5000000   0.0000000  -0.1738249), wk =   0.0092593
        k(   66) = (  -0.5000000   0.0000000  -0.0356475), wk =   0.0185185
        k(   67) = (  -0.5000000   0.0000000   0.1025299), wk =   0.0185185
        k(   68) = (  -0.5000000   0.0000000  -0.5883571), wk =   0.0092593
        k(   69) = (  -0.5000000   0.1454636  -0.1738249), wk =   0.0185185
        k(   70) = (  -0.5000000   0.1454636  -0.0356475), wk =   0.0370370
        k(   71) = (  -0.5000000   0.1454636   0.1025299), wk =   0.0370370
        k(   72) = (  -0.5000000   0.1454636  -0.5883571), wk =   0.0185185
        k(   73) = (  -0.5000000   0.2909272  -0.1738249), wk =   0.0185185
        k(   74) = (  -0.5000000   0.2909272  -0.0356475), wk =   0.0370370
        k(   75) = (  -0.5000000   0.2909272   0.1025299), wk =   0.0370370
        k(   76) = (  -0.5000000   0.2909272  -0.5883571), wk =   0.0185185
        k(   77) = (  -0.5000000  -0.4363908  -0.1738249), wk =   0.0092593
        k(   78) = (  -0.5000000  -0.4363908  -0.0356475), wk =   0.0185185
        k(   79) = (  -0.5000000  -0.4363908   0.1025299), wk =   0.0185185
        k(   80) = (  -0.5000000  -0.4363908  -0.5883571), wk =   0.0092593

     Dense  grid:   154425 G-vectors     FFT dimensions: (  60,  72,  80)

     Estimated max dynamical RAM per process >    4471.47MB

     Check: negative/imaginary core charge=   -0.000684    0.000000

     Initial potential from superposition of free atoms

     starting charge  315.37983, renormalised to  320.00000
     Starting wfc are  288 randomized atomic wfcs

     total cpu time spent up to now is      440.2 secs

     per-process dynamical memory:    27.0 Mb

     Self-consistent Calculation

     iteration #  1     ecut=    30.00 Ry     beta=0.70
     Davidson diagonalization with overlap
     ethr =  1.00E-02,  avg # of iterations =  2.0

     total cpu time spent up to now is     1349.1 secs

     total energy              =   -1086.27424588 Ry
     Harris-Foulkes estimate   =   -1099.31388191 Ry
     estimated scf accuracy    <      19.14881725 Ry

     iteration #  2     ecut=    30.00 Ry     beta=0.70
     Davidson diagonalization with overlap
     ethr =  5.98E-03,  avg # of iterations =  4.0

     total cpu time spent up to now is     2308.9 secs

     total energy              =   -1088.50012040 Ry
     Harris-Foulkes estimate   =   -1094.55107098 Ry
     estimated scf accuracy    <      11.01507525 Ry

     iteration #  3     ecut=    30.00 Ry     beta=0.70
     Davidson diagonalization with overlap
     ethr =  3.44E-03,  avg # of iterations =  4.0

     total cpu time spent up to now is     3237.7 secs

     total energy              =   -1091.05139775 Ry
     Harris-Foulkes estimate   =   -1092.12423411 Ry
     estimated scf accuracy    <       2.08753183 Ry

     iteration #  4     ecut=    30.00 Ry     beta=0.70
     Davidson diagonalization with overlap
     ethr =  6.52E-04,  avg # of iterations =  4.0

     total cpu time spent up to now is     4139.2 secs

     total energy              =   -1091.48551945 Ry
     Harris-Foulkes estimate   =   -1091.74268061 Ry
     estimated scf accuracy    <       0.57192548 Ry

     iteration #  5     ecut=    30.00 Ry     beta=0.70
     Davidson diagonalization with overlap
     ethr =  1.79E-04,  avg # of iterations =  4.0

     total cpu time spent up to now is     5001.9 secs

     total energy              =   -1091.59974645 Ry
     Harris-Foulkes estimate   =   -1091.61537876 Ry
     estimated scf accuracy    <       0.03185719 Ry

     iteration #  6     ecut=    30.00 Ry     beta=0.70
     Davidson diagonalization with overlap
     ethr =  9.96E-06,  avg # of iterations =  4.0

     total cpu time spent up to now is     5903.4 secs

     total energy              =   -1091.60782118 Ry
     Harris-Foulkes estimate   =   -1091.60963114 Ry
     estimated scf accuracy    <       0.00389001 Ry

     iteration #  7     ecut=    30.00 Ry     beta=0.70
     Davidson diagonalization with overlap
     ethr =  1.22E-06,  avg # of iterations =  4.0

     total cpu time spent up to now is     6765.0 secs

     total energy              =   -1091.60860822 Ry
     Harris-Foulkes estimate   =   -1091.60900682 Ry
     estimated scf accuracy    <       0.00084772 Ry

     iteration #  8     ecut=    30.00 Ry     beta=0.70
     Davidson diagonalization with overlap
     ethr =  2.65E-07,  avg # of iterations =  4.0

     total cpu time spent up to now is     7635.0 secs

     total energy              =   -1091.60880777 Ry
     Harris-Foulkes estimate   =   -1091.60884046 Ry
     estimated scf accuracy    <       0.00007984 Ry

     iteration #  9     ecut=    30.00 Ry     beta=0.70
     Davidson diagonalization with overlap
     ethr =  2.49E-08,  avg # of iterations =  4.0

     total cpu time spent up to now is     8532.6 secs

     total energy              =   -1091.60882328 Ry
     Harris-Foulkes estimate   =   -1091.60882930 Ry
     estimated scf accuracy    <       0.00001225 Ry

     iteration # 10     ecut=    30.00 Ry     beta=0.70
     Davidson diagonalization with overlap
     ethr =  3.83E-09,  avg # of iterations =  3.0

     total cpu time spent up to now is     9418.1 secs

     total energy              =   -1091.60882606 Ry
     Harris-Foulkes estimate   =   -1091.60882658 Ry
     estimated scf accuracy    <       0.00000112 Ry

     iteration # 11     ecut=    30.00 Ry     beta=0.70
     Davidson diagonalization with overlap
     ethr =  3.51E-10,  avg # of iterations =  4.0

     total cpu time spent up to now is    10326.8 secs

     total energy              =   -1091.60882633 Ry
     Harris-Foulkes estimate   =   -1091.60882646 Ry
     estimated scf accuracy    <       0.00000030 Ry

     iteration # 12     ecut=    30.00 Ry     beta=0.70
     Davidson diagonalization with overlap
     ethr =  9.42E-11,  avg # of iterations =  4.0

     total cpu time spent up to now is    11149.2 secs

     End of self-consistent calculation

          k = 0.0000 0.0000 0.0000 ( 19295 PWs)   bands (ev):

   -24.2856 -24.2855 -24.2853 -24.2852 -20.1724 -20.1693 -20.1681 -20.1660
   -19.0113 -19.0085 -19.0043 -19.0009 -18.1610 -18.1582 -18.1574 -18.1568
   -15.2138 -15.1907 -15.1897 -15.1693 -13.3865 -13.3669 -13.3167 -13.3015
   -12.7765 -12.7633 -12.7485 -12.7399 -12.0827 -12.0458 -12.0378 -12.0127
   -11.9850 -11.9842 -11.9108 -11.8974 -11.1246 -11.0932 -11.0866 -11.0468
    -9.8527  -9.8503  -9.8469  -9.8149  -8.9060  -8.8482  -8.7438  -8.6942
    -8.5929  -8.4741  -8.4152  -8.3259  -7.4836  -7.4461  -7.3875  -7.3695
    -7.1867  -7.0981  -7.0952  -7.0745  -6.8057  -6.7405  -6.5804  -6.5095
    -6.3178  -6.2648  -6.2511  -6.1627  -6.1449  -6.1049  -6.0948  -6.0811
    -5.8150  -5.6253  -5.6077  -5.5832  -5.5537  -5.5254  -5.4693  -5.3949
    -5.0437  -5.0193  -4.8950  -4.8920  -4.8519  -4.8343  -4.8281  -4.7732
    -4.5893  -4.5486  -4.4855  -4.3198  -4.3002  -4.2928  -4.2630  -4.2496
    -4.2039  -4.1399  -4.1177  -4.1112  -3.9638  -3.9505  -3.9053  -3.8522
    -3.8513  -3.7481  -3.7223  -3.6970  -3.6942  -3.6440  -3.6176  -3.5873
    -3.5376  -3.5160  -3.4738  -3.4360  -3.2271  -3.2091  -3.1892  -3.1675
    -3.1357  -3.0031  -2.9502  -2.9471  -2.9447  -2.8688  -2.7705  -2.7512
    -2.5341  -2.4540  -2.3476  -2.3241  -2.2784  -2.1862  -2.0545  -2.0275
    -1.8743  -1.7661  -1.7274  -1.7002  -1.6518  -1.6118  -1.6094  -1.5020
    -0.5759  -0.5532  -0.3463  -0.3331   0.1377   0.1620   0.2859   0.3079
     0.5805   0.6790   0.6818   0.7035   0.9242   1.0549   1.0670   1.0903

          k = 0.0000 0.0000 0.1382 ( 19300 PWs)   bands (ev):

   -24.2856 -24.2855 -24.2853 -24.2852 -20.1721 -20.1691 -20.1684 -20.1662
   -19.0111 -19.0088 -19.0041 -19.0012 -18.1609 -18.1586 -18.1571 -18.1568
   -15.2123 -15.1923 -15.1884 -15.1706 -13.3855 -13.3686 -13.3153 -13.3023
   -12.7758 -12.7645 -12.7477 -12.7405 -12.0845 -12.0505 -12.0360 -12.0141
   -11.9820 -11.9750 -11.9102 -11.9042 -11.1233 -11.1006 -11.0789 -11.0487
    -9.8521  -9.8473  -9.8468  -9.8168  -8.9017  -8.8362  -8.7662  -8.6986
    -8.5758  -8.4688  -8.4180  -8.3440  -7.4888  -7.4355  -7.4062  -7.3655
    -7.1932  -7.0873  -7.0837  -7.0781  -6.7873  -6.7295  -6.6000  -6.5233
    -6.3219  -6.2605  -6.2546  -6.1602  -6.1369  -6.1137  -6.0968  -6.0765
    -5.7897  -5.6155  -5.5997  -5.5797  -5.5485  -5.5272  -5.4750  -5.4246
    -5.0416  -5.0267  -4.8904  -4.8886  -4.8537  -4.8395  -4.8331  -4.7710
    -4.5868  -4.5616  -4.4819  -4.3488  -4.2980  -4.2956  -4.2610  -4.2449
    -4.2085  -4.1591  -4.1063  -4.1029  -3.9992  -3.9287  -3.9144  -3.8487
    -3.8450  -3.7431  -3.7212  -3.6953  -3.6872  -3.6262  -3.6146  -3.5702
    -3.5200  -3.5195  -3.4745  -3.4483  -3.2222  -3.2220  -3.1856  -3.1706
    -3.1394  -3.0106  -2.9522  -2.9440  -2.9084  -2.8641  -2.7718  -2.7577
    -2.5245  -2.4488  -2.3619  -2.3335  -2.2688  -2.1738  -2.0779  -2.0346
    -1.8765  -1.7645  -1.7522  -1.7044  -1.6478  -1.6089  -1.5935  -1.5040
    -0.5726  -0.5528  -0.3454  -0.3342   0.1475   0.1715   0.2758   0.2981
     0.5886   0.6756   0.6810   0.7024   0.9335   1.0562   1.0576   1.0891

          k = 0.0000 0.0000 0.2764 ( 19267 PWs)   bands (ev):

   -24.2856 -24.2854 -24.2853 -24.2852 -20.1713 -20.1692 -20.1685 -20.1668
   -19.0106 -19.0093 -19.0035 -19.0018 -18.1606 -18.1593 -18.1568 -18.1567
   -15.2081 -15.1965 -15.1846 -15.1744 -13.3825 -13.3729 -13.3119 -13.3045
   -12.7737 -12.7673 -12.7459 -12.7419 -12.0842 -12.0629 -12.0311 -12.0182
   -11.9710 -11.9542 -11.9208 -11.9130 -11.1198 -11.1089 -11.0694 -11.0538
    -9.8502  -9.8470  -9.8400  -9.8225  -8.8852  -8.8104  -8.8045  -8.7226
    -8.5277  -8.4549  -8.4261  -8.3933  -7.4886  -7.4405  -7.4141  -7.3719
    -7.1843  -7.1158  -7.0612  -7.0500  -6.7454  -6.6921  -6.6458  -6.5675
    -6.3062  -6.2785  -6.2592  -6.1809  -6.1336  -6.1094  -6.0796  -6.0625
    -5.7234  -5.5899  -5.5845  -5.5714  -5.5403  -5.5337  -5.5108  -5.4822
    -5.0403  -5.0389  -4.8885  -4.8805  -4.8569  -4.8552  -4.8220  -4.7758
    -4.5797  -4.5740  -4.4675  -4.3920  -4.3385  -4.3168  -4.2363  -4.2316
    -4.2153  -4.1930  -4.0956  -4.0913  -4.0091  -3.9437  -3.9134  -3.8500
    -3.8092  -3.7335  -3.7135  -3.7016  -3.6916  -3.6346  -3.5601  -3.5369
    -3.5249  -3.4911  -3.4844  -3.4671  -3.2360  -3.2202  -3.1866  -3.1810
    -3.1251  -3.0391  -2.9349  -2.9272  -2.8710  -2.8352  -2.7871  -2.7732
    -2.4948  -2.4321  -2.4004  -2.3624  -2.2385  -2.1423  -2.1303  -2.0617
    -1.8724  -1.8017  -1.7563  -1.7203  -1.6348  -1.6090  -1.5613  -1.5125
    -0.5649  -0.5532  -0.3431  -0.3368   0.1741   0.1977   0.2481   0.2710
     0.6096   0.6592   0.6858   0.6984   0.9589   1.0293   1.0651   1.0839

          k = 0.0000 0.0000-0.4145 ( 19300 PWs)   bands (ev):

   -24.2856 -24.2855 -24.2853 -24.2852 -20.1704 -20.1701 -20.1677 -20.1675
   -19.0100 -19.0099 -19.0027 -19.0026 -18.1601 -18.1600 -18.1567 -18.1566
   -15.2023 -15.2022 -15.1795 -15.1794 -13.3781 -13.3780 -13.3080 -13.3079
   -12.7708 -12.7706 -12.7439 -12.7438 -12.0766 -12.0765 -12.0246 -12.0245
   -11.9526 -11.9525 -11.9240 -11.9239 -11.1152 -11.1151 -11.0611 -11.0610
    -9.8482  -9.8481  -9.8310  -9.8309  -8.8539  -8.8538  -8.7628  -8.7627
    -8.4612  -8.4612  -8.4391  -8.4391  -7.4721  -7.4721  -7.3907  -7.3906
    -7.1537  -7.1536  -7.0445  -7.0444  -6.6981  -6.6980  -6.6305  -6.6304
    -6.2886  -6.2886  -6.2417  -6.2416  -6.1071  -6.1070  -6.0650  -6.0650
    -5.6281  -5.6280  -5.5730  -5.5729  -5.5515  -5.5514  -5.5109  -5.5109
    -5.0429  -5.0428  -4.8857  -4.8856  -4.8602  -4.8601  -4.7969  -4.7968
    -4.5741  -4.5740  -4.4379  -4.4379  -4.3442  -4.3441  -4.2290  -4.2290
    -4.2119  -4.2119  -4.0908  -4.0907  -3.9818  -3.9817  -3.8796  -3.8795
    -3.7531  -3.7530  -3.7216  -3.7215  -3.6590  -3.6590  -3.5327  -3.5326
    -3.5013  -3.5012  -3.4799  -3.4798  -3.2305  -3.2304  -3.1892  -3.1891
    -3.0836  -3.0835  -2.9223  -2.9223  -2.8289  -2.8288  -2.7961  -2.7960
    -2.4506  -2.4506  -2.4009  -2.4008  -2.1894  -2.1894  -2.1018  -2.1018
    -1.8476  -1.8475  -1.7406  -1.7405  -1.6193  -1.6193  -1.5316  -1.5316
    -0.5573  -0.5572  -0.3401  -0.3400   0.2108   0.2108   0.2341   0.2341
     0.6355   0.6355   0.6920   0.6921   0.9938   0.9938   1.0748   1.0748

          k = 0.0000 0.1455 0.0000 ( 19260 PWs)   bands (ev):

   -24.2856 -24.2854 -24.2852 -24.2852 -20.1722 -20.1695 -20.1679 -20.1661
   -19.0110 -19.0085 -19.0043 -19.0013 -18.1608 -18.1584 -18.1574 -18.1569
   -15.2122 -15.1914 -15.1893 -15.1707 -13.3822 -13.3626 -13.3218 -13.3060
   -12.7748 -12.7634 -12.7479 -12.7404 -12.0804 -12.0435 -12.0418 -12.0146
   -11.9849 -11.9842 -11.9096 -11.8981 -11.1219 -11.0906 -11.0889 -11.0504
    -9.8520  -9.8498  -9.8444  -9.8167  -8.9027  -8.8528  -8.7410  -8.6978
    -8.5866  -8.4884  -8.4020  -8.3295  -7.4805  -7.4475  -7.3882  -7.3735
    -7.1842  -7.1128  -7.0863  -7.0739  -6.7973  -6.7410  -6.5783  -6.5161
    -6.3153  -6.2727  -6.2389  -6.1552  -6.1390  -6.1214  -6.0906  -6.0842
    -5.8057  -5.6458  -5.6088  -5.5877  -5.5530  -5.5255  -5.4599  -5.3970
    -5.0333  -5.0021  -4.9048  -4.8909  -4.8514  -4.8436  -4.8174  -4.7731
    -4.5920  -4.5246  -4.4919  -4.3242  -4.3239  -4.2886  -4.2731  -4.2377
    -4.2096  -4.1516  -4.1332  -4.1159  -3.9598  -3.9502  -3.9095  -3.8534
    -3.8106  -3.7640  -3.7129  -3.6997  -3.6828  -3.6461  -3.6337  -3.5677
    -3.5487  -3.5068  -3.4738  -3.4406  -3.2262  -3.2041  -3.1923  -3.1687
    -3.1167  -3.0014  -2.9598  -2.9484  -2.9469  -2.8747  -2.7688  -2.7514
    -2.5242  -2.4567  -2.3433  -2.3237  -2.2756  -2.1961  -2.0516  -2.0271
    -1.8679  -1.7766  -1.7226  -1.6962  -1.6552  -1.6365  -1.5840  -1.5053
    -0.5635  -0.5359  -0.3658  -0.3442   0.1389   0.1598   0.2879   0.3070
     0.5897   0.6781   0.6836   0.7012   0.9291   1.0421   1.0674   1.0890

          k = 0.0000 0.1455 0.1382 ( 19272 PWs)   bands (ev):

   -24.2856 -24.2854 -24.2853 -24.2852 -20.1719 -20.1693 -20.1682 -20.1663
   -19.0109 -19.0087 -19.0041 -19.0015 -18.1607 -18.1587 -18.1571 -18.1568
   -15.2107 -15.1909 -15.1899 -15.1721 -13.3812 -13.3644 -13.3203 -13.3068
   -12.7741 -12.7643 -12.7474 -12.7410 -12.0820 -12.0485 -12.0399 -12.0163
   -11.9811 -11.9752 -11.9095 -11.9044 -11.1207 -11.0994 -11.0799 -11.0521
    -9.8512  -9.8471  -9.8444  -9.8185  -8.8979  -8.8413  -8.7621  -8.7037
    -8.5697  -8.4812  -8.4067  -8.3466  -7.4855  -7.4405  -7.4036  -7.3694
    -7.1880  -7.0990  -7.0839  -7.0716  -6.7805  -6.7300  -6.5970  -6.5301
    -6.3194  -6.2729  -6.2371  -6.1557  -6.1345  -6.1203  -6.1007  -6.0772
    -5.7808  -5.6344  -5.5991  -5.5837  -5.5489  -5.5281  -5.4678  -5.4251
    -5.0317  -5.0103  -4.9011  -4.8880  -4.8522  -4.8483  -4.8224  -4.7724
    -4.5890  -4.5389  -4.4868  -4.3512  -4.3167  -4.2980  -4.2757  -4.2304
    -4.2099  -4.1649  -4.1305  -4.1072  -3.9905  -3.9487  -3.9072  -3.8516
    -3.8056  -3.7500  -3.7184  -3.7035  -3.6685  -3.6339  -3.6149  -3.5621
    -3.5312  -3.5094  -3.4761  -3.4523  -3.2259  -3.2123  -3.1882  -3.1725
    -3.1202  -3.0082  -2.9551  -2.9486  -2.9115  -2.8719  -2.7705  -2.7587
    -2.5157  -2.4521  -2.3582  -2.3338  -2.2660  -2.1847  -2.0726  -2.0354
    -1.8699  -1.7743  -1.7459  -1.7019  -1.6505  -1.6291  -1.5744  -1.5070
    -0.5600  -0.5360  -0.3642  -0.3456   0.1486   0.1693   0.2777   0.2971
     0.5973   0.6778   0.6798   0.7002   0.9378   1.0429   1.0599   1.0867

          k = 0.0000 0.1455 0.2764 ( 19295 PWs)   bands (ev):

   -24.2856 -24.2855 -24.2853 -24.2852 -20.1711 -20.1690 -20.1686 -20.1669
   -19.0104 -19.0091 -19.0036 -19.0021 -18.1605 -18.1594 -18.1569 -18.1567
   -15.2065 -15.1951 -15.1862 -15.1759 -13.3783 -13.3688 -13.3167 -13.3091
   -12.7722 -12.7665 -12.7461 -12.7425 -12.0816 -12.0608 -12.0351 -12.0212
   -11.9691 -11.9549 -11.9201 -11.9134 -11.1176 -11.1074 -11.0709 -11.0567
    -9.8490  -9.8451  -9.8402  -9.8238  -8.8805  -8.8108  -8.8051  -8.7294
    -8.5234  -8.4628  -8.4204  -8.3941  -7.4867  -7.4479  -7.4092  -7.3751
    -7.1780  -7.1130  -7.0695  -7.0504  -6.7411  -6.6953  -6.6402  -6.5728
    -6.3084  -6.2749  -6.2572  -6.1845  -6.1310  -6.1060  -6.0840  -6.0644
    -5.7157  -5.6038  -5.5827  -5.5746  -5.5417  -5.5361  -5.5073  -5.4808
    -5.0313  -5.0228  -4.8979  -4.8876  -4.8563  -4.8502  -4.8226  -4.7793
    -4.5796  -4.5549  -4.4707  -4.3964  -4.3436  -4.3205  -4.2531  -4.2262
    -4.2096  -4.1946  -4.1237  -4.1006  -4.0034  -3.9563  -3.9089  -3.8544
    -3.7893  -3.7392  -3.7139  -3.6987  -3.6580  -3.6429  -3.5598  -3.5432
    -3.5157  -3.5007  -3.4866  -3.4692  -3.2332  -3.2149  -3.1886  -3.1822
    -3.1098  -3.0338  -2.9411  -2.9250  -2.8767  -2.8448  -2.7858  -2.7756
    -2.4891  -2.4365  -2.3961  -2.3631  -2.2363  -2.1617  -2.1143  -2.0634
    -1.8654  -1.7944  -1.7644  -1.7214  -1.6372  -1.6198  -1.5535  -1.5145
    -0.5517  -0.5377  -0.3602  -0.3495   0.1751   0.1951   0.2504   0.2699
     0.6167   0.6627   0.6844   0.6965   0.9616   1.0273   1.0586   1.0795

          k = 0.0000 0.1455-0.4145 ( 19278 PWs)   bands (ev):

   -24.2856 -24.2854 -24.2853 -24.2852 -20.1702 -20.1699 -20.1679 -20.1677
   -19.0098 -19.0097 -19.0029 -19.0028 -18.1600 -18.1599 -18.1568 -18.1567
   -15.2009 -15.2008 -15.1811 -15.1810 -13.3740 -13.3739 -13.3127 -13.3126
   -12.7695 -12.7694 -12.7444 -12.7443 -12.0740 -12.0740 -12.0283 -12.0282
   -11.9513 -11.9513 -11.9243 -11.9243 -11.1133 -11.1132 -11.0632 -11.0631
    -9.8466  -9.8466  -9.8317  -9.8316  -8.8484  -8.8483  -8.7695  -8.7694
    -8.4592  -8.4592  -8.4401  -8.4400  -7.4730  -7.4730  -7.3913  -7.3913
    -7.1484  -7.1483  -7.0481  -7.0481  -6.6960  -6.6959  -6.6316  -6.6316
    -6.2872  -6.2871  -6.2441  -6.2440  -6.1040  -6.1040  -6.0673  -6.0673
    -5.6234  -5.6233  -5.5760  -5.5760  -5.5540  -5.5539  -5.5127  -5.5126
    -5.0301  -5.0300  -4.8937  -4.8936  -4.8554  -4.8553  -4.7998  -4.7997
    -4.5653  -4.5653  -4.4413  -4.4412  -4.3461  -4.3460  -4.2328  -4.2327
    -4.2120  -4.2119  -4.1102  -4.1101  -3.9806  -3.9805  -3.8817  -3.8817
    -3.7648  -3.7647  -3.6835  -3.6835  -3.6658  -3.6658  -3.5328  -3.5328
    -3.5027  -3.5027  -3.4835  -3.4835  -3.2261  -3.2261  -3.1896  -3.1895
    -3.0739  -3.0739  -2.9249  -2.9249  -2.8359  -2.8358  -2.7970  -2.7969
    -2.4464  -2.4464  -2.4015  -2.4015  -2.1903  -2.1902  -2.1017  -2.1017
    -1.8400  -1.8399  -1.7451  -1.7451  -1.6235  -1.6234  -1.5308  -1.5308
    -0.5431  -0.5430  -0.3548  -0.3547   0.2105   0.2105   0.2343   0.2344
     0.6410   0.6410   0.6906   0.6907   0.9947   0.9947   1.0688   1.0689

          k = 0.0000 0.2909 0.0000 ( 19264 PWs)   bands (ev):

   -24.2856 -24.2854 -24.2852 -24.2852 -20.1716 -20.1701 -20.1675 -20.1665
   -19.0103 -19.0087 -19.0040 -19.0021 -18.1603 -18.1589 -18.1572 -18.1570
   -15.2079 -15.1959 -15.1854 -15.1747 -13.3701 -13.3510 -13.3354 -13.3183
   -12.7708 -12.7643 -12.7463 -12.7419 -12.0738 -12.0517 -12.0371 -12.0203
   -11.9846 -11.9842 -11.9066 -11.9000 -11.1145 -11.0956 -11.0831 -11.0598
    -9.8503  -9.8490  -9.8380  -9.8220  -8.8934  -8.8649  -8.7328  -8.7075
    -8.5688  -8.5155  -8.3789  -8.3399  -7.4721  -7.4524  -7.3892  -7.3818
    -7.1743  -7.1348  -7.0795  -7.0734  -6.7774  -6.7449  -6.5703  -6.5336
    -6.3080  -6.2851  -6.2145  -6.1503  -6.1371  -6.1250  -6.0976  -6.0931
    -5.7789  -5.6903  -5.6096  -5.5972  -5.5502  -5.5330  -5.4385  -5.4042
    -5.0053  -4.9658  -4.9321  -4.9002  -4.8507  -4.8495  -4.8023  -4.7754
    -4.5837  -4.5164  -4.4701  -4.3450  -4.3374  -4.3347  -4.2603  -4.2435
    -4.2147  -4.1768  -4.1485  -4.1214  -3.9479  -3.9468  -3.9121  -3.8697
    -3.7624  -3.7450  -3.7058  -3.7042  -3.6668  -3.6567  -3.6482  -3.5809
    -3.5357  -3.4878  -3.4813  -3.4543  -3.2212  -3.2008  -3.1935  -3.1735
    -3.0698  -2.9892  -2.9887  -2.9488  -2.9471  -2.9036  -2.7632  -2.7529
    -2.5023  -2.4665  -2.3366  -2.3250  -2.2661  -2.2207  -2.0441  -2.0290
    -1.8508  -1.8002  -1.7106  -1.6905  -1.6636  -1.6605  -1.5578  -1.5160
    -0.5265  -0.4913  -0.4129  -0.3803   0.1423   0.1541   0.2927   0.3035
     0.6135   0.6688   0.6877   0.6957   0.9456   1.0116   1.0696   1.0832

          k = 0.0000 0.2909 0.1382 ( 19281 PWs)   bands (ev):

   -24.2856 -24.2855 -24.2853 -24.2852 -20.1714 -20.1698 -20.1678 -20.1667
   -19.0101 -19.0087 -19.0040 -19.0023 -18.1603 -18.1591 -18.1571 -18.1569
   -15.2064 -15.1945 -15.1869 -15.1761 -13.3693 -13.3534 -13.3332 -13.3191
   -12.7702 -12.7645 -12.7464 -12.7425 -12.0749 -12.0521 -12.0402 -12.0227
   -11.9791 -11.9759 -11.9081 -11.9051 -11.1138 -11.0993 -11.0793 -11.0609
    -9.8492  -9.8468  -9.8384  -9.8235  -8.8873  -8.8548  -8.7507  -8.7171
    -8.5534  -8.5052  -8.3871  -8.3550  -7.4770  -7.4520  -7.3977  -7.3789
    -7.1736  -7.1238  -7.0776  -7.0697  -6.7639  -6.7342  -6.5871  -6.5478
    -6.3121  -6.2869  -6.2101  -6.1491  -6.1440  -6.1203  -6.1065  -6.0836
    -5.7554  -5.6739  -5.6003  -5.5919  -5.5481  -5.5347  -5.4518  -5.4282
    -5.0037  -4.9754  -4.9264  -4.9040  -4.8500  -4.8491  -4.8084  -4.7784
    -4.5782  -4.5163  -4.4801  -4.3710  -4.3366  -4.3204  -4.2857  -4.2290
    -4.2096  -4.1773  -4.1577  -4.1200  -3.9762  -3.9517  -3.9121  -3.8696
    -3.7572  -3.7275  -3.7146  -3.7054  -3.6671  -3.6300  -3.6181  -3.5650
    -3.5382  -3.4910  -3.4869  -3.4617  -3.2217  -3.2038  -3.1927  -3.1775
    -3.0735  -3.0030  -2.9728  -2.9410  -2.9211  -2.8995  -2.7672  -2.7608
    -2.4961  -2.4618  -2.3503  -2.3360  -2.2562  -2.2099  -2.0609  -2.0394
    -1.8520  -1.7976  -1.7310  -1.7007  -1.6576  -1.6513  -1.5517  -1.5165
    -0.5230  -0.4924  -0.4103  -0.3821   0.1519   0.1635   0.2826   0.2936
     0.6198   0.6710   0.6834   0.6946   0.9528   1.0143   1.0628   1.0792

          k = 0.0000 0.2909 0.2764 ( 19299 PWs)   bands (ev):

   -24.2856 -24.2855 -24.2853 -24.2852 -20.1706 -20.1692 -20.1685 -20.1674
   -19.0097 -19.0089 -19.0038 -19.0028 -18.1601 -18.1595 -18.1570 -18.1569
   -15.2023 -15.1916 -15.1900 -15.1800 -13.3668 -13.3581 -13.3290 -13.3213
   -12.7686 -12.7652 -12.7463 -12.7439 -12.0742 -12.0573 -12.0424 -12.0291
   -11.9648 -11.9570 -11.9182 -11.9144 -11.1119 -11.1047 -11.0733 -11.0638
    -9.8462  -9.8413  -9.8397  -9.8277  -8.8670  -8.8270  -8.7903  -8.7468
    -8.5115  -8.4783  -8.4105  -8.3969  -7.4812  -7.4609  -7.4008  -7.3828
    -7.1605  -7.1160  -7.0762  -7.0559  -6.7299  -6.7037  -6.6254  -6.5869
    -6.3066  -6.2838  -6.2387  -6.1962  -6.1228  -6.0997  -6.0917  -6.0707
    -5.6942  -5.6308  -5.5843  -5.5809  -5.5453  -5.5415  -5.4972  -5.4807
    -5.0016  -4.9884  -4.9201  -4.9126  -4.8503  -4.8394  -4.8221  -4.7900
    -4.5627  -4.5220  -4.4822  -4.4203  -4.3396  -4.3252  -4.2788  -4.2277
    -4.2107  -4.1899  -4.1641  -4.1268  -3.9887  -3.9564  -3.9192  -3.8791
    -3.7508  -3.7395  -3.7066  -3.6791  -3.6535  -3.6101  -3.5653  -3.5508
    -3.5254  -3.5023  -3.4920  -3.4738  -3.2236  -3.2048  -3.1946  -3.1868
    -3.0703  -3.0228  -2.9523  -2.9259  -2.8889  -2.8652  -2.7846  -2.7797
    -2.4741  -2.4460  -2.3850  -2.3664  -2.2276  -2.1869  -2.0965  -2.0693
    -1.8453  -1.7871  -1.7745  -1.7295  -1.6416  -1.6353  -1.5408  -1.5205
    -0.5142  -0.4964  -0.4035  -0.3872   0.1782   0.1893   0.2558   0.2667
     0.6355   0.6717   0.6772   0.6909   0.9726   1.0163   1.0506   1.0682

          k = 0.0000 0.2909-0.4145 ( 19288 PWs)   bands (ev):

   -24.2856 -24.2854 -24.2853 -24.2852 -20.1697 -20.1695 -20.1684 -20.1681
   -19.0093 -19.0092 -19.0034 -19.0033 -18.1599 -18.1598 -18.1569 -18.1568
   -15.1968 -15.1967 -15.1853 -15.1852 -13.3630 -13.3629 -13.3248 -13.3247
   -12.7667 -12.7666 -12.7455 -12.7454 -12.0675 -12.0675 -12.0370 -12.0369
   -11.9489 -11.9489 -11.9251 -11.9250 -11.1090 -11.1089 -11.0681 -11.0680
    -9.8427  -9.8427  -9.8340  -9.8340  -8.8331  -8.8330  -8.7875  -8.7874
    -8.4543  -8.4543  -8.4434  -8.4433  -7.4750  -7.4750  -7.3926  -7.3926
    -7.1365  -7.1364  -7.0584  -7.0584  -6.6915  -6.6914  -6.6344  -6.6343
    -6.2837  -6.2836  -6.2497  -6.2497  -6.0961  -6.0960  -6.0742  -6.0742
    -5.6117  -5.6116  -5.5835  -5.5834  -5.5596  -5.5595  -5.5167  -5.5167
    -4.9973  -4.9972  -4.9170  -4.9169  -4.8437  -4.8437  -4.8108  -4.8108
    -4.5404  -4.5403  -4.4590  -4.4589  -4.3417  -4.3416  -4.2481  -4.2481
    -4.2089  -4.2088  -4.1459  -4.1459  -3.9701  -3.9700  -3.9031  -3.9030
    -3.7507  -3.7507  -3.6833  -3.6832  -3.6272  -3.6272  -3.5435  -3.5435
    -3.5038  -3.5038  -3.4913  -3.4912  -3.2154  -3.2154  -3.1932  -3.1931
    -3.0494  -3.0494  -2.9342  -2.9342  -2.8489  -2.8488  -2.7998  -2.7997
    -2.4390  -2.4389  -2.4027  -2.4026  -2.1910  -2.1909  -2.1029  -2.1029
    -1.8192  -1.8191  -1.7616  -1.7616  -1.6306  -1.6306  -1.5296  -1.5296
    -0.5041  -0.5040  -0.3949  -0.3949   0.2097   0.2097   0.2349   0.2349
     0.6548   0.6548   0.6845   0.6845   0.9988   0.9988   1.0547   1.0548

          k = 0.0000-0.4364 0.0000 ( 19270 PWs)   bands (ev):

   -24.2856 -24.2855 -24.2852 -24.2852 -20.1708 -20.1708 -20.1670 -20.1670
   -19.0094 -19.0093 -19.0033 -19.0031 -18.1596 -18.1596 -18.1571 -18.1571
   -15.2019 -15.2019 -15.1800 -15.1800 -13.3532 -13.3531 -13.3348 -13.3348
   -12.7668 -12.7667 -12.7441 -12.7440 -12.0636 -12.0635 -12.0286 -12.0285
   -11.9844 -11.9844 -11.9030 -11.9030 -11.1049 -11.1049 -11.0720 -11.0720
    -9.8491  -9.8491  -9.8298  -9.8298  -8.8800  -8.8799  -8.7206  -8.7206
    -8.5441  -8.5440  -8.3570  -8.3570  -7.4613  -7.4613  -7.3879  -7.3879
    -7.1575  -7.1574  -7.0751  -7.0750  -6.7572  -6.7572  -6.5544  -6.5543
    -6.2976  -6.2975  -6.1832  -6.1831  -6.1153  -6.1153  -6.1078  -6.1078
    -5.7384  -5.7383  -5.6060  -5.6060  -5.5433  -5.5432  -5.4181  -5.4181
    -4.9681  -4.9680  -4.9271  -4.9271  -4.8502  -4.8502  -4.7857  -4.7857
    -4.5542  -4.5542  -4.4012  -4.4012  -4.3487  -4.3486  -4.2549  -4.2548
    -4.2017  -4.2016  -4.1358  -4.1358  -3.9436  -3.9435  -3.8967  -3.8966
    -3.7405  -3.7405  -3.6986  -3.6985  -3.6609  -3.6608  -3.6276  -3.6275
    -3.5042  -3.5042  -3.4693  -3.4692  -3.2117  -3.2117  -3.1822  -3.1822
    -3.0233  -3.0232  -2.9543  -2.9543  -2.9459  -2.9459  -2.7569  -2.7569
    -2.4813  -2.4813  -2.3290  -2.3290  -2.2473  -2.2472  -2.0354  -2.0354
    -1.8265  -1.8265  -1.6947  -1.6947  -1.6708  -1.6707  -1.5340  -1.5340
    -0.4719  -0.4718  -0.4342  -0.4341   0.1476   0.1476   0.2985   0.2985
     0.6442   0.6442   0.6920   0.6920   0.9754   0.9755   1.0753   1.0753

          k = 0.0000-0.4364 0.1382 ( 19278 PWs)   bands (ev):

   -24.2856 -24.2855 -24.2852 -24.2852 -20.1706 -20.1706 -20.1673 -20.1672
   -19.0093 -19.0092 -19.0034 -19.0032 -18.1597 -18.1596 -18.1571 -18.1570
   -15.2005 -15.2005 -15.1815 -15.1815 -13.3531 -13.3531 -13.3349 -13.3349
   -12.7665 -12.7663 -12.7446 -12.7445 -12.0642 -12.0641 -12.0316 -12.0315
   -11.9772 -11.9772 -11.9064 -11.9064 -11.1053 -11.1053 -11.0717 -11.0717
    -9.8474  -9.8474  -9.8307  -9.8307  -8.8717  -8.8716  -8.7345  -8.7345
    -8.5306  -8.5306  -8.3689  -8.3689  -7.4652  -7.4652  -7.3892  -7.3892
    -7.1507  -7.1506  -7.0719  -7.0719  -6.7461  -6.7460  -6.5693  -6.5693
    -6.3006  -6.3005  -6.1788  -6.1787  -6.1294  -6.1293  -6.0964  -6.0964
    -5.7174  -5.7174  -5.5985  -5.5985  -5.5432  -5.5432  -5.4369  -5.4369
    -4.9664  -4.9663  -4.9336  -4.9335  -4.8481  -4.8481  -4.7916  -4.7916
    -4.5487  -4.5487  -4.4213  -4.4213  -4.3396  -4.3396  -4.2644  -4.2644
    -4.1949  -4.1949  -4.1414  -4.1414  -3.9607  -3.9607  -3.8970  -3.8969
    -3.7279  -3.7278  -3.7120  -3.7120  -3.6351  -3.6350  -3.6078  -3.6077
    -3.5111  -3.5110  -3.4735  -3.4735  -3.2116  -3.2116  -3.1853  -3.1853
    -3.0268  -3.0268  -2.9511  -2.9511  -2.9265  -2.9265  -2.7636  -2.7635
    -2.4766  -2.4766  -2.3415  -2.3415  -2.2367  -2.2367  -2.0485  -2.0484
    -1.8257  -1.8257  -1.7121  -1.7120  -1.6608  -1.6607  -1.5319  -1.5318
    -0.4689  -0.4688  -0.4356  -0.4355   0.1571   0.1572   0.2885   0.2885
     0.6483   0.6483   0.6896   0.6896   0.9805   0.9805   1.0696   1.0697

          k = 0.0000-0.4364 0.2764 ( 19282 PWs)   bands (ev):

   -24.2856 -24.2855 -24.2853 -24.2852 -20.1699 -20.1699 -20.1680 -20.1679
   -19.0091 -19.0090 -19.0036 -19.0035 -18.1598 -18.1597 -18.1570 -18.1569
   -15.1965 -15.1965 -15.1855 -15.1855 -13.3531 -13.3530 -13.3351 -13.3351
   -12.7657 -12.7655 -12.7457 -12.7456 -12.0638 -12.0637 -12.0387 -12.0387
   -11.9604 -11.9604 -11.9161 -11.9161 -11.1060 -11.1060 -11.0712 -11.0712
    -9.8432  -9.8432  -9.8335  -9.8335  -8.8476  -8.8475  -8.7691  -8.7691
    -8.4954  -8.4954  -8.4022  -8.4021  -7.4726  -7.4726  -7.3919  -7.3919
    -7.1368  -7.1368  -7.0667  -7.0667  -6.7161  -6.7161  -6.6061  -6.6060
    -6.2972  -6.2972  -6.2154  -6.2154  -6.1105  -6.1105  -6.0815  -6.0815
    -5.6635  -5.6635  -5.5848  -5.5847  -5.5457  -5.5457  -5.4865  -5.4864
    -4.9651  -4.9650  -4.9412  -4.9411  -4.8420  -4.8420  -4.8069  -4.8069
    -4.5313  -4.5313  -4.4603  -4.4602  -4.3286  -4.3285  -4.2698  -4.2697
    -4.1970  -4.1970  -4.1554  -4.1554  -3.9677  -3.9676  -3.9090  -3.9090
    -3.7314  -3.7314  -3.7019  -3.7018  -3.5986  -3.5985  -3.5770  -3.5770
    -3.5177  -3.5176  -3.4820  -3.4819  -3.2097  -3.2096  -3.1930  -3.1929
    -3.0314  -3.0314  -2.9454  -2.9454  -2.8843  -2.8842  -2.7829  -2.7829
    -2.4586  -2.4586  -2.3733  -2.3733  -2.2103  -2.2103  -2.0810  -2.0810
    -1.8164  -1.8164  -1.7495  -1.7495  -1.6424  -1.6424  -1.5294  -1.5294
    -0.4615  -0.4613  -0.4398  -0.4397   0.1831   0.1831   0.2618   0.2618
     0.6589   0.6590   0.6826   0.6826   0.9934   0.9934   1.0558   1.0559

          k = 0.0000-0.4364-0.4145 ( 19320 PWs)   bands (ev):

   -24.2856 -24.2855 -24.2853 -24.2852 -20.1693 -20.1690 -20.1688 -20.1686
   -19.0090 -19.0089 -19.0037 -19.0036 -18.1598 -18.1598 -18.1569 -18.1569
   -15.1920 -15.1918 -15.1902 -15.1900 -13.3530 -13.3529 -13.3353 -13.3352
   -12.7652 -12.7651 -12.7462 -12.7461 -12.0625 -12.0624 -12.0433 -12.0431
   -11.9478 -11.9477 -11.9255 -11.9255 -11.1064 -11.1064 -11.0709 -11.0709
    -9.8387  -9.8386  -9.8374  -9.8372  -8.8136  -8.8135  -8.8083  -8.8082
    -8.4486  -8.4486  -8.4485  -8.4485  -7.4762  -7.4762  -7.3933  -7.3933
    -7.1297  -7.1297  -7.0650  -7.0649  -6.6893  -6.6892  -6.6361  -6.6360
    -6.2814  -6.2814  -6.2531  -6.2531  -6.0878  -6.0877  -6.0823  -6.0822
    -5.6022  -5.6022  -5.5902  -5.5902  -5.5627  -5.5627  -5.5190  -5.5190
    -4.9666  -4.9665  -4.9437  -4.9436  -4.8294  -4.8294  -4.8253  -4.8253
    -4.5144  -4.5143  -4.4840  -4.4840  -4.3295  -4.3295  -4.2669  -4.2669
    -4.2012  -4.2012  -4.1650  -4.1650  -3.9573  -3.9572  -3.9228  -3.9227
    -3.7347  -3.7347  -3.6972  -3.6972  -3.5778  -3.5777  -3.5761  -3.5760
    -3.5017  -3.5016  -3.4970  -3.4969  -3.2053  -3.2053  -3.2000  -3.2000
    -3.0330  -3.0330  -2.9429  -2.9429  -2.8549  -2.8548  -2.8016  -2.8015
    -2.4359  -2.4358  -2.4041  -2.4040  -2.1908  -2.1908  -2.1041  -2.1041
    -1.7969  -1.7968  -1.7827  -1.7826  -1.6335  -1.6335  -1.5293  -1.5292
    -0.4559  -0.4558  -0.4438  -0.4436   0.2093   0.2093   0.2350   0.2350
     0.6700   0.6701   0.6730   0.6730   1.0027   1.0027   1.0459   1.0459

          k = 0.1667 0.0000 0.0579 ( 19278 PWs)   bands (ev):

   -24.2856 -24.2854 -24.2853 -24.2852 -20.1719 -20.1692 -20.1682 -20.1664
   -19.0110 -19.0085 -19.0043 -19.0014 -18.1615 -18.1597 -18.1561 -18.1559
   -15.2130 -15.1930 -15.1886 -15.1709 -13.3770 -13.3614 -13.3151 -13.3040
   -12.7784 -12.7656 -12.7523 -12.7440 -12.0839 -12.0501 -12.0362 -12.0158
   -11.9838 -11.9834 -11.9095 -11.8987 -11.1162 -11.1145 -11.0630 -11.0533
    -9.8638  -9.8450  -9.8375  -9.8222  -8.8943  -8.8475  -8.7668  -8.6983
    -8.5646  -8.4703  -8.4170  -8.3368  -7.5045  -7.4160  -7.4075  -7.3593
    -7.1765  -7.1150  -7.1032  -7.0642  -6.7634  -6.7417  -6.5966  -6.5362
    -6.3034  -6.2540  -6.2487  -6.1599  -6.1558  -6.1136  -6.0971  -6.0854
    -5.7664  -5.6400  -5.6299  -5.5981  -5.5463  -5.5265  -5.4675  -5.4351
    -5.0248  -5.0024  -4.8943  -4.8888  -4.8552  -4.8208  -4.8100  -4.7870
    -4.5697  -4.5523  -4.4889  -4.3439  -4.3009  -4.2905  -4.2594  -4.2515
    -4.1993  -4.1742  -4.1110  -4.0698  -3.9720  -3.9432  -3.9391  -3.8520
    -3.8443  -3.7307  -3.7303  -3.7055  -3.6866  -3.6255  -3.6058  -3.5861
    -3.5589  -3.5202  -3.4544  -3.4373  -3.2377  -3.2098  -3.1841  -3.1627
    -3.1254  -3.0025  -2.9653  -2.9629  -2.9433  -2.8689  -2.7939  -2.7569
    -2.5350  -2.4575  -2.3886  -2.3398  -2.2471  -2.1476  -2.0514  -2.0171
    -1.8678  -1.7854  -1.7362  -1.6900  -1.6363  -1.6214  -1.6081  -1.5016
    -0.5804  -0.5651  -0.3440  -0.3322   0.1447   0.1706   0.2706   0.2977
     0.5899   0.6734   0.6881   0.7158   0.9439   1.0573   1.0753   1.1084

          k = 0.1667 0.0000 0.1961 ( 19270 PWs)   bands (ev):

   -24.2856 -24.2854 -24.2853 -24.2852 -20.1712 -20.1689 -20.1686 -20.1670
   -19.0107 -19.0089 -19.0036 -19.0021 -18.1610 -18.1604 -18.1562 -18.1556
   -15.2095 -15.1965 -15.1856 -15.1738 -13.3760 -13.3621 -13.3177 -13.3018
   -12.7814 -12.7639 -12.7513 -12.7438 -12.0806 -12.0553 -12.0311 -12.0199
   -11.9820 -11.9772 -11.9138 -11.9023 -11.1172 -11.1069 -11.0751 -11.0474
    -9.8754  -9.8494  -9.8310  -9.8079  -8.8776  -8.8125  -8.8000  -8.7347
    -8.5590  -8.4776  -8.4033  -8.3453  -7.4832  -7.4144  -7.4000  -7.3868
    -7.2071  -7.1112  -7.0952  -7.0522  -6.7553  -6.7154  -6.6102  -6.5552
    -6.3524  -6.2541  -6.2413  -6.1455  -6.1348  -6.0911  -6.0724  -6.0721
    -5.7329  -5.6483  -5.5995  -5.5809  -5.5429  -5.5420  -5.5190  -5.4763
    -5.0255  -5.0056  -4.8961  -4.8760  -4.8460  -4.8393  -4.8088  -4.7947
    -4.5823  -4.5608  -4.4723  -4.3790  -4.3144  -4.2898  -4.2718  -4.2591
    -4.1941  -4.1779  -4.1041  -4.0772  -4.0225  -3.9392  -3.9066  -3.8604
    -3.8214  -3.7354  -3.7138  -3.6769  -3.6752  -3.6370  -3.6137  -3.5715
    -3.5285  -3.4796  -3.4683  -3.4501  -3.2332  -3.2309  -3.1797  -3.1656
    -3.1388  -3.0116  -2.9682  -2.9445  -2.8895  -2.8616  -2.8136  -2.7748
    -2.5165  -2.4467  -2.4144  -2.3496  -2.1880  -2.1235  -2.0844  -2.0692
    -1.8425  -1.7934  -1.7907  -1.6845  -1.6531  -1.6003  -1.5877  -1.5115
    -0.5719  -0.5693  -0.3412  -0.3344   0.1500   0.1731   0.2641   0.2934
     0.6077   0.6615   0.6977   0.7046   0.9661   1.0340   1.0803   1.1041

          k = 0.1667 0.0000 0.3343 ( 19281 PWs)   bands (ev):

   -24.2856 -24.2854 -24.2853 -24.2852 -20.1702 -20.1699 -20.1679 -20.1677
   -19.0101 -19.0095 -19.0030 -19.0028 -18.1610 -18.1604 -18.1563 -18.1556
   -15.2043 -15.2018 -15.1810 -15.1783 -13.3736 -13.3655 -13.3175 -13.3014
   -12.7817 -12.7637 -12.7579 -12.7373 -12.0781 -12.0668 -12.0258 -12.0251
   -11.9751 -11.9560 -11.9176 -11.9176 -11.1174 -11.0972 -11.0872 -11.0446
    -9.8814  -9.8564  -9.8232  -9.8000  -8.8492  -8.8431  -8.7765  -8.7647
    -8.5261  -8.4774  -8.4012  -8.3832  -7.4680  -7.4401  -7.3974  -7.3943
    -7.2089  -7.0981  -7.0745  -7.0556  -6.7208  -6.6788  -6.6498  -6.5890
    -6.3726  -6.2698  -6.2625  -6.1435  -6.1166  -6.1023  -6.0568  -6.0527
    -5.6589  -5.6498  -5.5983  -5.5752  -5.5752  -5.5345  -5.5227  -5.4895
    -5.0296  -5.0136  -4.9013  -4.8643  -4.8545  -4.8408  -4.8163  -4.7968
    -4.5915  -4.5525  -4.4349  -4.4207  -4.3338  -4.3260  -4.2587  -4.2530
    -4.1939  -4.1798  -4.1159  -4.0960  -4.0280  -3.9299  -3.9235  -3.8645
    -3.7726  -3.7240  -3.7099  -3.6887  -3.6669  -3.6504  -3.5798  -3.5781
    -3.5031  -3.4838  -3.4596  -3.4537  -3.2449  -3.2249  -3.1802  -3.1763
    -3.1284  -3.0395  -2.9601  -2.9159  -2.8481  -2.8388  -2.8223  -2.8039
    -2.4816  -2.4510  -2.4272  -2.3793  -2.2042  -2.1384  -2.1233  -2.0326
    -1.8530  -1.8226  -1.7767  -1.6961  -1.6618  -1.5851  -1.5520  -1.5262
    -0.5724  -0.5617  -0.3387  -0.3385   0.1710   0.1920   0.2432   0.2733
     0.6321   0.6424   0.6921   0.7083   0.9992   1.0038   1.0871   1.0945

          k = 0.1667 0.0000-0.3566 ( 19284 PWs)   bands (ev):

   -24.2856 -24.2855 -24.2853 -24.2852 -20.1710 -20.1691 -20.1686 -20.1669
   -19.0101 -19.0094 -19.0038 -19.0020 -18.1614 -18.1596 -18.1565 -18.1557
   -15.2073 -15.1987 -15.1832 -15.1761 -13.3702 -13.3699 -13.3151 -13.3030
   -12.7789 -12.7654 -12.7623 -12.7339 -12.0805 -12.0715 -12.0322 -12.0193
   -11.9603 -11.9487 -11.9252 -11.9235 -11.1185 -11.0979 -11.0860 -11.0443
    -9.8808  -9.8571  -9.8244  -9.8009  -8.8779  -8.8173  -8.8140  -8.7158
    -8.4727  -8.4715  -8.4381  -8.4117  -7.4854  -7.4594  -7.4019  -7.3682
    -7.1825  -7.1080  -7.0613  -7.0516  -6.7001  -6.6783  -6.6399  -6.6299
    -6.3447  -6.2867  -6.2799  -6.1864  -6.1216  -6.1026  -6.0626  -6.0517
    -5.6998  -5.6323  -5.6028  -5.5696  -5.5378  -5.5249  -5.5048  -5.4648
    -5.0331  -5.0142  -4.9019  -4.8772  -4.8460  -4.8397  -4.8394  -4.7784
    -4.5887  -4.5484  -4.4497  -4.3884  -4.3413  -4.3205  -4.2548  -4.2446
    -4.1954  -4.1796  -4.1324  -4.1071  -4.0079  -3.9661  -3.9036  -3.8853
    -3.7515  -3.7139  -3.6987  -3.6901  -3.6799  -3.6717  -3.5800  -3.5544
    -3.5245  -3.4858  -3.4721  -3.4518  -3.2337  -3.2169  -3.1913  -3.1801
    -3.0873  -3.0756  -2.9482  -2.9174  -2.8839  -2.8258  -2.8105  -2.7770
    -2.4890  -2.4369  -2.4147  -2.4037  -2.2673  -2.2014  -2.0636  -1.9981
    -1.8960  -1.7912  -1.7488  -1.7190  -1.6635  -1.5768  -1.5470  -1.5224
    -0.5764  -0.5550  -0.3430  -0.3364   0.2026   0.2132   0.2228   0.2430
     0.6190   0.6550   0.6831   0.7174   0.9727   1.0352   1.0846   1.0930

          k = 0.1667 0.0000-0.2184 ( 19313 PWs)   bands (ev):

   -24.2856 -24.2855 -24.2853 -24.2852 -20.1718 -20.1693 -20.1683 -20.1663
   -19.0107 -19.0089 -19.0044 -19.0014 -18.1617 -18.1591 -18.1566 -18.1559
   -15.2117 -15.1943 -15.1872 -15.1722 -13.3739 -13.3664 -13.3115 -13.3064
   -12.7736 -12.7690 -12.7637 -12.7342 -12.0890 -12.0609 -12.0372 -12.0152
   -11.9682 -11.9564 -11.9243 -11.9096 -11.1199 -11.1064 -11.0740 -11.0469
    -9.8735  -9.8507  -9.8341  -9.8097  -8.8966  -8.8483  -8.7808  -8.6819
    -8.4994  -8.4542  -8.4329  -8.4120  -7.5131  -7.4460  -7.4091  -7.3465
    -7.1476  -7.1371  -7.0646  -7.0501  -6.7402  -6.6952  -6.6417  -6.5744
    -6.2922  -6.2791  -6.2754  -6.2292  -6.1500  -6.1180  -6.0834  -6.0649
    -5.7398  -5.6486  -5.6095  -5.5634  -5.5388  -5.5235  -5.4487  -5.4331
    -5.0275  -5.0147  -4.8976  -4.8808  -4.8699  -4.8325  -4.8254  -4.7737
    -4.5857  -4.5419  -4.4686  -4.3565  -4.3076  -4.2960  -4.2693  -4.2302
    -4.2088  -4.1652  -4.1222  -4.1133  -3.9925  -3.9865  -3.9105  -3.8805
    -3.7996  -3.7272  -3.6998  -3.6744  -3.6670  -3.6599  -3.5975  -3.5574
    -3.5527  -3.5214  -3.4724  -3.4494  -3.2199  -3.2108  -3.1936  -3.1749
    -3.1073  -3.0421  -2.9508  -2.9342  -2.9197  -2.8522  -2.7787  -2.7600
    -2.5207  -2.4410  -2.3938  -2.3819  -2.2960  -2.2284  -2.0212  -1.9827
    -1.9092  -1.7557  -1.7425  -1.7193  -1.6596  -1.5851  -1.5732  -1.5042
    -0.5811  -0.5548  -0.3456  -0.3344   0.1816   0.2107   0.2357   0.2569
     0.5972   0.6706   0.6793   0.7227   0.9484   1.0630   1.0772   1.0973

          k = 0.1667 0.0000-0.0802 ( 19290 PWs)   bands (ev):

   -24.2856 -24.2855 -24.2852 -24.2852 -20.1722 -20.1694 -20.1679 -20.1661
   -19.0110 -19.0086 -19.0046 -19.0012 -18.1617 -18.1591 -18.1563 -18.1560
   -15.2138 -15.1922 -15.1891 -15.1703 -13.3763 -13.3631 -13.3108 -13.3075
   -12.7738 -12.7685 -12.7602 -12.7379 -12.0890 -12.0519 -12.0387 -12.0140
   -11.9810 -11.9726 -11.9082 -11.9055 -11.1190 -11.1126 -11.0626 -11.0531
    -9.8606  -9.8488  -9.8380  -9.8232  -8.9003  -8.8607  -8.7610  -8.6761
    -8.5432  -8.4545  -8.4364  -8.3614  -7.5178  -7.4268  -7.4135  -7.3438
    -7.1573  -7.1200  -7.0760  -7.0735  -6.7566  -6.7376  -6.6111  -6.5378
    -6.2720  -6.2660  -6.2619  -6.2042  -6.1644  -6.1355  -6.1021  -6.0797
    -5.7620  -5.6559  -5.6055  -5.5940  -5.5395  -5.5332  -5.4428  -5.4075
    -5.0196  -5.0134  -4.8928  -4.8904  -4.8646  -4.8203  -4.8149  -4.7809
    -4.5786  -4.5335  -4.4841  -4.3398  -4.2986  -4.2917  -4.2567  -4.2255
    -4.2144  -4.1716  -4.1139  -4.0875  -3.9744  -3.9679  -3.9266  -3.8657
    -3.8376  -3.7419  -3.7184  -3.6865  -3.6771  -3.6264  -3.6136  -3.5805
    -3.5626  -3.5426  -3.4598  -3.4388  -3.2263  -3.2040  -3.1901  -3.1667
    -3.1195  -3.0117  -2.9740  -2.9507  -2.9309  -2.8739  -2.7766  -2.7546
    -2.5367  -2.4551  -2.3794  -2.3535  -2.2873  -2.2046  -2.0120  -1.9901
    -1.8953  -1.7645  -1.7289  -1.6988  -1.6461  -1.6104  -1.5977  -1.4980
    -0.5834  -0.5595  -0.3458  -0.3326   0.1565   0.1845   0.2606   0.2844
     0.5859   0.6770   0.6815   0.7226   0.9377   1.0698   1.0740   1.1044

          k = 0.1667 0.1455 0.0579 ( 19274 PWs)   bands (ev):

   -24.2856 -24.2854 -24.2853 -24.2852 -20.1718 -20.1695 -20.1680 -20.1664
   -19.0108 -19.0086 -19.0042 -19.0016 -18.1613 -18.1598 -18.1561 -18.1559
   -15.2114 -15.1916 -15.1901 -15.1724 -13.3731 -13.3577 -13.3195 -13.3078
   -12.7771 -12.7655 -12.7522 -12.7444 -12.0813 -12.0478 -12.0402 -12.0179
   -11.9837 -11.9833 -11.9085 -11.8992 -11.1147 -11.1132 -11.0640 -11.0554
    -9.8625  -9.8429  -9.8391  -9.8224  -8.8929  -8.8524  -8.7614  -8.7021
    -8.5602  -8.4826  -8.4051  -8.3397  -7.5000  -7.4293  -7.3978  -7.3622
    -7.1741  -7.1213  -7.0980  -7.0665  -6.7609  -6.7424  -6.5924  -6.5395
    -6.3028  -6.2665  -6.2333  -6.1556  -6.1530  -6.1148  -6.1076  -6.0829
    -5.7615  -5.6590  -5.6215  -5.5995  -5.5469  -5.5275  -5.4631  -5.4341
    -5.0169  -4.9893  -4.9069  -4.8879  -4.8561  -4.8276  -4.8055  -4.7851
    -4.5745  -4.5298  -4.4936  -4.3597  -4.3096  -4.2806  -4.2756  -4.2450
    -4.2032  -4.1786  -4.1299  -4.0779  -3.9658  -3.9393  -3.9207  -3.8673
    -3.8163  -3.7403  -3.7242  -3.7046  -3.6756  -3.6487  -3.6136  -3.5703
    -3.5636  -3.5074  -3.4596  -3.4396  -3.2332  -3.2058  -3.1873  -3.1648
    -3.1096  -3.0036  -2.9779  -2.9602  -2.9413  -2.8748  -2.7907  -2.7587
    -2.5268  -2.4606  -2.3848  -2.3408  -2.2429  -2.1573  -2.0471  -2.0176
    -1.8618  -1.7913  -1.7315  -1.6875  -1.6531  -1.6241  -1.5955  -1.5069
    -0.5679  -0.5464  -0.3637  -0.3442   0.1460   0.1682   0.2730   0.2963
     0.5984   0.6761   0.6854   0.7123   0.9495   1.0483   1.0761   1.1048

          k = 0.1667 0.1455 0.1961 ( 19294 PWs)   bands (ev):

   -24.2856 -24.2854 -24.2853 -24.2852 -20.1710 -20.1690 -20.1687 -20.1670
   -19.0105 -19.0088 -19.0038 -19.0022 -18.1610 -18.1604 -18.1562 -18.1557
   -15.2080 -15.1951 -15.1872 -15.1754 -13.3722 -13.3582 -13.3218 -13.3060
   -12.7799 -12.7644 -12.7509 -12.7441 -12.0778 -12.0530 -12.0352 -12.0222
   -11.9814 -11.9774 -11.9128 -11.9029 -11.1157 -11.1058 -11.0752 -11.0503
    -9.8736  -9.8512  -9.8287  -9.8089  -8.8743  -8.8192  -8.7948  -8.7392
    -8.5543  -8.4854  -8.3964  -8.3477  -7.4795  -7.4225  -7.3968  -7.3875
    -7.2013  -7.1181  -7.0925  -7.0554  -6.7503  -6.7163  -6.6083  -6.5599
    -6.3480  -6.2697  -6.2246  -6.1417  -6.1338  -6.0966  -6.0768  -6.0733
    -5.7274  -5.6525  -5.6038  -5.5884  -5.5446  -5.5366  -5.5115  -5.4775
    -5.0157  -4.9946  -4.9054  -4.8775  -4.8486  -4.8425  -4.8086  -4.7925
    -4.5792  -4.5484  -4.4783  -4.3904  -4.3208  -4.2999  -4.2831  -4.2388
    -4.1938  -4.1883  -4.1324  -4.0758  -4.0109  -3.9445  -3.8879  -3.8763
    -3.8025  -3.7426  -3.7043  -3.6780  -3.6731  -3.6439  -3.6080  -3.5666
    -3.5270  -3.4837  -3.4742  -3.4517  -3.2330  -3.2210  -3.1826  -3.1684
    -3.1208  -3.0062  -2.9770  -2.9432  -2.8966  -2.8704  -2.8080  -2.7769
    -2.5102  -2.4505  -2.4097  -2.3530  -2.1844  -2.1266  -2.0876  -2.0676
    -1.8396  -1.7968  -1.7823  -1.6863  -1.6588  -1.6047  -1.5835  -1.5172
    -0.5613  -0.5490  -0.3608  -0.3462   0.1509   0.1708   0.2666   0.2918
     0.6156   0.6646   0.6946   0.7020   0.9704   1.0312   1.0771   1.0984

          k = 0.1667 0.1455 0.3343 ( 19289 PWs)   bands (ev):

   -24.2856 -24.2854 -24.2853 -24.2852 -20.1701 -20.1697 -20.1683 -20.1675
   -19.0100 -19.0093 -19.0034 -19.0026 -18.1609 -18.1604 -18.1563 -18.1556
   -15.2028 -15.2002 -15.1826 -15.1799 -13.3701 -13.3614 -13.3214 -13.3058
   -12.7804 -12.7655 -12.7553 -12.7383 -12.0752 -12.0645 -12.0294 -12.0286
   -11.9730 -11.9569 -11.9175 -11.9174 -11.1160 -11.0970 -11.0860 -11.0478
    -9.8794  -9.8579  -9.8211  -9.8012  -8.8461  -8.8379  -8.7824  -8.7700
    -8.5224  -8.4804  -8.3994  -8.3841  -7.4668  -7.4426  -7.3966  -7.3946
    -7.2025  -7.0960  -7.0886  -7.0509  -6.7171  -6.6812  -6.6467  -6.5943
    -6.3668  -6.2835  -6.2477  -6.1488  -6.1132  -6.1005  -6.0596  -6.0568
    -5.6572  -5.6497  -5.5923  -5.5792  -5.5773  -5.5306  -5.5256  -5.4915
    -5.0190  -5.0031  -4.9088  -4.8711  -4.8532  -4.8407  -4.8186  -4.7964
    -4.5841  -4.5440  -4.4494  -4.4206  -4.3353  -4.3299  -4.2702  -4.2342
    -4.2030  -4.1950  -4.1350  -4.0859  -4.0191  -3.9408  -3.9106  -3.8726
    -3.7835  -3.7290  -3.7072  -3.6698  -3.6660  -3.6358  -3.5832  -3.5735
    -3.5084  -3.4872  -3.4622  -3.4555  -3.2403  -3.2190  -3.1846  -3.1762
    -3.1138  -3.0336  -2.9629  -2.9169  -2.8598  -2.8470  -2.8148  -2.8048
    -2.4780  -2.4462  -2.4294  -2.3815  -2.2030  -2.1523  -2.1078  -2.0364
    -1.8429  -1.8187  -1.7787  -1.7061  -1.6584  -1.5913  -1.5528  -1.5283
    -0.5574  -0.5466  -0.3576  -0.3505   0.1719   0.1896   0.2460   0.2717
     0.6386   0.6469   0.6895   0.7059   1.0010   1.0057   1.0812   1.0892

          k = 0.1667 0.1455-0.3566 ( 19289 PWs)   bands (ev):

   -24.2856 -24.2855 -24.2853 -24.2852 -20.1709 -20.1690 -20.1688 -20.1670
   -19.0101 -19.0092 -19.0039 -19.0021 -18.1613 -18.1597 -18.1564 -18.1557
   -15.2057 -15.1972 -15.1849 -15.1777 -13.3676 -13.3651 -13.3188 -13.3073
   -12.7780 -12.7680 -12.7583 -12.7352 -12.0780 -12.0688 -12.0357 -12.0232
   -11.9584 -11.9483 -11.9253 -11.9240 -11.1172 -11.0978 -11.0846 -11.0473
    -9.8788  -9.8585  -9.8224  -9.8021  -8.8762  -8.8233  -8.8062  -8.7218
    -8.4743  -8.4700  -8.4358  -8.4129  -7.4842  -7.4615  -7.3994  -7.3702
    -7.1784  -7.1074  -7.0718  -7.0470  -6.6999  -6.6823  -6.6387  -6.6274
    -6.3416  -6.2918  -6.2725  -6.1922  -6.1172  -6.0993  -6.0657  -6.0548
    -5.6958  -5.6371  -5.6030  -5.5711  -5.5363  -5.5241  -5.5036  -5.4675
    -5.0248  -5.0043  -4.9108  -4.8799  -4.8509  -4.8413  -4.8328  -4.7822
    -4.5840  -4.5340  -4.4599  -4.3878  -4.3442  -4.3209  -4.2656  -4.2366
    -4.2091  -4.1843  -4.1465  -4.0965  -4.0026  -3.9542  -3.9202  -3.8861
    -3.7598  -3.7373  -3.7087  -3.6863  -3.6604  -3.6318  -3.5810  -3.5600
    -3.5265  -3.4899  -3.4708  -3.4534  -3.2298  -3.2132  -3.1934  -3.1804
    -3.0820  -3.0665  -2.9480  -2.9220  -2.8829  -2.8333  -2.8089  -2.7801
    -2.4828  -2.4353  -2.4182  -2.4011  -2.2663  -2.2095  -2.0565  -2.0006
    -1.8847  -1.7875  -1.7500  -1.7307  -1.6606  -1.5902  -1.5421  -1.5224
    -0.5609  -0.5408  -0.3588  -0.3513   0.2028   0.2109   0.2254   0.2422
     0.6246   0.6604   0.6809   0.7146   0.9759   1.0366   1.0732   1.0926

          k = 0.1667 0.1455-0.2184 ( 19284 PWs)   bands (ev):

   -24.2856 -24.2855 -24.2853 -24.2851 -20.1717 -20.1695 -20.1681 -20.1664
   -19.0105 -19.0088 -19.0043 -19.0016 -18.1615 -18.1593 -18.1565 -18.1559
   -15.2101 -15.1928 -15.1889 -15.1737 -13.3701 -13.3629 -13.3155 -13.3103
   -12.7734 -12.7704 -12.7601 -12.7356 -12.0864 -12.0588 -12.0408 -12.0182
   -11.9667 -11.9567 -11.9231 -11.9104 -11.1185 -11.1056 -11.0740 -11.0494
    -9.8717  -9.8521  -9.8318  -9.8107  -8.8957  -8.8535  -8.7727  -8.6875
    -8.4975  -8.4603  -8.4275  -8.4117  -7.5093  -7.4541  -7.4020  -7.3503
    -7.1502  -7.1299  -7.0678  -7.0519  -6.7389  -6.7046  -6.6304  -6.5764
    -6.2919  -6.2836  -6.2664  -6.2314  -6.1461  -6.1136  -6.0882  -6.0671
    -5.7354  -5.6559  -5.6075  -5.5658  -5.5395  -5.5264  -5.4462  -5.4322
    -5.0225  -5.0030  -4.9058  -4.8898  -4.8658  -4.8311  -4.8228  -4.7762
    -4.5838  -4.5218  -4.4741  -4.3542  -4.3209  -4.2997  -4.2784  -4.2258
    -4.2067  -4.1770  -4.1406  -4.1017  -3.9873  -3.9739  -3.9242  -3.8827
    -3.7784  -3.7362  -3.7192  -3.6931  -3.6689  -3.6091  -3.5953  -3.5697
    -3.5553  -3.5126  -3.4756  -3.4510  -3.2159  -3.2101  -3.1942  -3.1765
    -3.0968  -3.0429  -2.9458  -2.9421  -2.9148  -2.8571  -2.7788  -2.7629
    -2.5121  -2.4440  -2.3908  -2.3808  -2.2948  -2.2366  -2.0169  -1.9835
    -1.8981  -1.7580  -1.7468  -1.7190  -1.6610  -1.6072  -1.5559  -1.5057
    -0.5663  -0.5395  -0.3629  -0.3481   0.1827   0.2070   0.2388   0.2561
     0.6046   0.6747   0.6773   0.7195   0.9533   1.0627   1.0653   1.0982

          k = 0.1667 0.1455-0.0802 ( 19289 PWs)   bands (ev):

   -24.2856 -24.2855 -24.2853 -24.2852 -20.1720 -20.1697 -20.1678 -20.1662
   -19.0108 -19.0086 -19.0045 -19.0014 -18.1615 -18.1593 -18.1563 -18.1561
   -15.2122 -15.1909 -15.1906 -15.1717 -13.3725 -13.3596 -13.3156 -13.3106
   -12.7735 -12.7684 -12.7585 -12.7390 -12.0864 -12.0501 -12.0425 -12.0163
   -11.9799 -11.9728 -11.9079 -11.9054 -11.1177 -11.1114 -11.0637 -11.0549
    -9.8599  -9.8455  -9.8400  -9.8235  -8.8998  -8.8652  -8.7540  -8.6808
    -8.5395  -8.4709  -8.4205  -8.3638  -7.5133  -7.4417  -7.4011  -7.3479
    -7.1561  -7.1189  -7.0782  -7.0741  -6.7557  -6.7407  -6.6038  -6.5412
    -6.2798  -6.2654  -6.2511  -6.2024  -6.1623  -6.1303  -6.1110  -6.0801
    -5.7576  -5.6665  -5.6045  -5.5930  -5.5417  -5.5353  -5.4392  -5.4072
    -5.0176  -4.9983  -4.9042  -4.8949  -4.8624  -4.8254  -4.8093  -4.7807
    -4.5791  -4.5118  -4.4891  -4.3500  -4.3099  -4.2809  -4.2718  -4.2263
    -4.2132  -4.1790  -4.1296  -4.0912  -3.9632  -3.9586  -3.9268  -3.8768
    -3.8078  -3.7461  -3.7213  -3.6972  -3.6777  -3.6360  -3.5945  -3.5862
    -3.5751  -3.5190  -3.4648  -3.4414  -3.2228  -3.2030  -3.1916  -3.1685
    -3.1059  -3.0188  -2.9705  -2.9546  -2.9296  -2.8772  -2.7761  -2.7559
    -2.5278  -2.4581  -2.3769  -2.3536  -2.2846  -2.2131  -2.0094  -1.9902
    -1.8863  -1.7737  -1.7245  -1.6974  -1.6523  -1.6300  -1.5784  -1.5014
    -0.5697  -0.5424  -0.3647  -0.3452   0.1578   0.1817   0.2628   0.2833
     0.5942   0.6788   0.6799   0.7187   0.9434   1.0562   1.0767   1.1034

          k = 0.1667 0.2909 0.0579 ( 19281 PWs)   bands (ev):

   -24.2856 -24.2855 -24.2852 -24.2852 -20.1713 -20.1700 -20.1677 -20.1667
   -19.0103 -19.0089 -19.0039 -19.0022 -18.1610 -18.1601 -18.1561 -18.1560
   -15.2070 -15.1948 -15.1875 -15.1764 -13.3625 -13.3479 -13.3307 -13.3182
   -12.7739 -12.7666 -12.7509 -12.7458 -12.0738 -12.0506 -12.0412 -12.0240
   -11.9835 -11.9832 -11.9060 -11.9007 -11.1115 -11.1105 -11.0657 -11.0604
    -9.8584  -9.8456  -9.8352  -9.8242  -8.8878  -8.8645  -8.7473  -8.7132
    -8.5475  -8.5054  -8.3837  -8.3489  -7.4872  -7.4489  -7.3875  -7.3694
    -7.1654  -7.1344  -7.0893  -7.0731  -6.7548  -6.7445  -6.5809  -6.5497
    -6.2994  -6.2800  -6.2107  -6.1599  -6.1418  -6.1243  -6.1096  -6.0881
    -5.7463  -5.6893  -5.6164  -5.6043  -5.5454  -5.5321  -5.4517  -5.4340
    -4.9956  -4.9583  -4.9335  -4.8977  -4.8551  -4.8382  -4.7968  -4.7830
    -4.5648  -4.5176  -4.4800  -4.3950  -4.3205  -4.3055  -4.2799  -4.2392
    -4.2214  -4.1840  -4.1355  -4.0929  -3.9567  -3.9384  -3.8939  -3.8697
    -3.7913  -3.7512  -3.7140  -3.7000  -3.6772  -3.6491  -3.6355  -3.5825
    -3.5394  -3.4910  -3.4714  -3.4471  -3.2224  -3.1977  -3.1934  -3.1713
    -3.0725  -3.0135  -2.9817  -2.9571  -2.9424  -2.8996  -2.7819  -2.7635
    -2.5076  -2.4706  -2.3732  -2.3478  -2.2296  -2.1808  -2.0376  -2.0206
    -1.8460  -1.8061  -1.7187  -1.6841  -1.6716  -1.6420  -1.5704  -1.5221
    -0.5296  -0.4993  -0.4119  -0.3824   0.1494   0.1620   0.2788   0.2921
     0.6211   0.6740   0.6835   0.7032   0.9667   1.0245   1.0790   1.0958

          k = 0.1667 0.2909 0.1961 ( 19307 PWs)   bands (ev):

   -24.2856 -24.2855 -24.2853 -24.2852 -20.1706 -20.1695 -20.1683 -20.1673
   -19.0100 -19.0089 -19.0038 -19.0026 -18.1608 -18.1604 -18.1561 -18.1559
   -15.2037 -15.1922 -15.1904 -15.1795 -13.3620 -13.3474 -13.3329 -13.3173
   -12.7761 -12.7667 -12.7494 -12.7452 -12.0700 -12.0471 -12.0451 -12.0287
   -11.9803 -11.9780 -11.9102 -11.9045 -11.1117 -11.1048 -11.0733 -11.0577
    -9.8685  -9.8557  -9.8231  -9.8118  -8.8647  -8.8336  -8.7831  -8.7513
    -8.5413  -8.5028  -8.3815  -8.3548  -7.4689  -7.4376  -7.3937  -7.3893
    -7.1850  -7.1371  -7.0843  -7.0632  -6.7386  -6.7195  -6.6016  -6.5728
    -6.3346  -6.2917  -6.1993  -6.1461  -6.1261  -6.0986  -6.0885  -6.0799
    -5.7112  -5.6652  -5.6120  -5.6020  -5.5403  -5.5337  -5.4971  -5.4804
    -4.9900  -4.9645  -4.9267  -4.8926  -4.8515  -4.8475  -4.8048  -4.7910
    -4.5589  -4.5291  -4.4853  -4.4314  -4.3230  -4.3116  -4.2965  -4.2429
    -4.2129  -4.1818  -4.1384  -4.0953  -3.9936  -3.9584  -3.8778  -3.8528
    -3.8003  -3.7474  -3.7023  -3.6928  -3.6609  -3.6191  -3.6143  -3.5595
    -3.5191  -3.4922  -3.4849  -3.4602  -3.2234  -3.2062  -3.1897  -3.1759
    -3.0788  -3.0048  -2.9813  -2.9390  -2.9120  -2.8964  -2.7978  -2.7819
    -2.4948  -2.4611  -2.3958  -2.3619  -2.1738  -2.1390  -2.0858  -2.0692
    -1.8302  -1.8052  -1.7604  -1.7034  -1.6564  -1.6206  -1.5697  -1.5323
    -0.5237  -0.5020  -0.4078  -0.3847   0.1540   0.1652   0.2728   0.2872
     0.6362   0.6727   0.6850   0.6933   0.9838   1.0216   1.0721   1.0859

          k = 0.1667 0.2909 0.3343 ( 19311 PWs)   bands (ev):

   -24.2856 -24.2855 -24.2853 -24.2852 -20.1699 -20.1693 -20.1688 -20.1677
   -19.0097 -19.0091 -19.0037 -19.0028 -18.1608 -18.1604 -18.1562 -18.1558
   -15.1986 -15.1961 -15.1869 -15.1843 -13.3605 -13.3506 -13.3314 -13.3175
   -12.7770 -12.7688 -12.7505 -12.7412 -12.0673 -12.0583 -12.0398 -12.0361
   -11.9684 -11.9595 -11.9172 -11.9171 -11.1119 -11.1000 -11.0791 -11.0563
    -9.8743  -9.8620  -9.8159  -9.8045  -8.8360  -8.8253  -8.7968  -8.7842
    -8.5129  -8.4889  -8.3951  -8.3863  -7.4628  -7.4488  -7.3959  -7.3949
    -7.1842  -7.1236  -7.0798  -7.0532  -6.7077  -6.6874  -6.6376  -6.6077
    -6.3510  -6.3046  -6.2232  -6.1665  -6.1035  -6.0941  -6.0680  -6.0658
    -5.6527  -5.6486  -5.5894  -5.5874  -5.5710  -5.5381  -5.5177  -5.4971
    -4.9902  -4.9770  -4.9269  -4.8955  -4.8516  -4.8437  -4.8164  -4.7989
    -4.5599  -4.5210  -4.4765  -4.4440  -4.3384  -4.3231  -4.2788  -4.2585
    -4.2093  -4.1893  -4.1413  -4.1080  -3.9983  -3.9596  -3.9043  -3.8591
    -3.8003  -3.7437  -3.7011  -3.6729  -3.6423  -3.5966  -3.5946  -3.5624
    -3.5160  -3.4955  -3.4689  -3.4619  -3.2265  -3.2074  -3.1905  -3.1842
    -3.0785  -3.0253  -2.9639  -2.9243  -2.8761  -2.8632  -2.8089  -2.8064
    -2.4684  -2.4443  -2.4235  -2.3892  -2.1978  -2.1705  -2.0860  -2.0475
    -1.8169  -1.8062  -1.7855  -1.7351  -1.6470  -1.6085  -1.5506  -1.5349
    -0.5167  -0.5046  -0.4021  -0.3900   0.1745   0.1843   0.2527   0.2671
     0.6547   0.6588   0.6822   0.6964   1.0066   1.0112   1.0688   1.0761

          k = 0.1667 0.2909-0.3566 ( 19307 PWs)   bands (ev):

   -24.2856 -24.2855 -24.2853 -24.2852 -20.1705 -20.1695 -20.1684 -20.1673
   -19.0098 -19.0091 -19.0039 -19.0026 -18.1610 -18.1600 -18.1563 -18.1559
   -15.2014 -15.1932 -15.1893 -15.1818 -13.3589 -13.3543 -13.3283 -13.3188
   -12.7759 -12.7707 -12.7518 -12.7392 -12.0711 -12.0625 -12.0433 -12.0329
   -11.9541 -11.9483 -11.9256 -11.9249 -11.1132 -11.1011 -11.0778 -11.0555
    -9.8739  -9.8623  -9.8171  -9.8055  -8.8693  -8.8383  -8.7865  -8.7384
    -8.4743  -8.4702  -8.4296  -8.4165  -7.4804  -7.4672  -7.3928  -7.3759
    -7.1651  -7.1191  -7.0732  -7.0498  -6.6986  -6.6900  -6.6341  -6.6256
    -6.3324  -6.3036  -6.2545  -6.2084  -6.1062  -6.0918  -6.0730  -6.0628
    -5.6840  -5.6497  -5.6003  -5.5794  -5.5328  -5.5252  -5.4960  -5.4743
    -4.9989  -4.9811  -4.9295  -4.9074  -4.8499  -4.8438  -4.8202  -4.7921
    -4.5658  -4.5003  -4.4875  -4.4030  -4.3439  -4.3162  -4.2850  -4.2480
    -4.2119  -4.1855  -4.1526  -4.1106  -3.9870  -3.9559  -3.9263  -3.8858
    -3.7864  -3.7530  -3.7006  -3.6735  -3.6477  -3.5951  -3.5811  -3.5590
    -3.5313  -3.5008  -3.4696  -3.4584  -3.2183  -3.2062  -3.1958  -3.1862
    -3.0651  -3.0498  -2.9485  -2.9339  -2.8788  -2.8499  -2.8050  -2.7884
    -2.4686  -2.4391  -2.4163  -2.3993  -2.2616  -2.2287  -2.0402  -2.0086
    -1.8532  -1.7778  -1.7645  -1.7545  -1.6517  -1.6147  -1.5350  -1.5242
    -0.5185  -0.5018  -0.4017  -0.3918   0.2033   0.2074   0.2305   0.2396
     0.6392   0.6725   0.6744   0.7057   0.9875   1.0319   1.0610   1.0838

          k = 0.1667 0.2909-0.2184 ( 19305 PWs)   bands (ev):

   -24.2856 -24.2855 -24.2853 -24.2852 -20.1712 -20.1700 -20.1677 -20.1667
   -19.0101 -19.0090 -19.0040 -19.0022 -18.1610 -18.1597 -18.1564 -18.1560
   -15.2057 -15.1934 -15.1888 -15.1777 -13.3601 -13.3537 -13.3257 -13.3206
   -12.7728 -12.7716 -12.7534 -12.7397 -12.0789 -12.0581 -12.0448 -12.0265
   -11.9634 -11.9578 -11.9200 -11.9127 -11.1147 -11.1056 -11.0717 -11.0562
    -9.8672  -9.8559  -9.8261  -9.8140  -8.8912  -8.8665  -8.7522  -8.7037
    -8.4918  -8.4716  -8.4200  -8.4121  -7.4994  -7.4699  -7.3884  -7.3603
    -7.1462  -7.1257  -7.0721  -7.0585  -6.7353  -6.7189  -6.6111  -6.5829
    -6.2908  -6.2856  -6.2554  -6.2375  -6.1351  -6.1044  -6.0993  -6.0748
    -5.7218  -5.6753  -5.6007  -5.5750  -5.5402  -5.5327  -5.4400  -5.4313
    -5.0019  -4.9795  -4.9246  -4.9228  -4.8551  -4.8363  -4.8100  -4.7838
    -4.5691  -4.5029  -4.4699  -4.3578  -4.3483  -4.3170  -4.2797  -4.2304
    -4.2043  -4.1873  -4.1481  -4.1095  -3.9773  -3.9669  -3.9270  -3.8917
    -3.7629  -3.7577  -3.7219  -3.6782  -3.6645  -3.6176  -3.5826  -3.5647
    -3.5553  -3.5069  -3.4782  -3.4570  -3.2092  -3.2082  -3.1936  -3.1811
    -3.0715  -3.0433  -2.9527  -2.9415  -2.9075  -2.8717  -2.7781  -2.7688
    -2.4923  -2.4541  -2.3851  -2.3787  -2.2900  -2.2566  -2.0067  -1.9875
    -1.8685  -1.7861  -1.7392  -1.7206  -1.6617  -1.6351  -1.5375  -1.5114
    -0.5254  -0.4982  -0.4082  -0.3873   0.1862   0.1995   0.2445   0.2537
     0.6235   0.6674   0.6847   0.7103   0.9696   1.0322   1.0719   1.0930

          k = 0.1667 0.2909-0.0802 ( 19274 PWs)   bands (ev):

   -24.2856 -24.2855 -24.2852 -24.2851 -20.1715 -20.1702 -20.1674 -20.1665
   -19.0103 -19.0089 -19.0040 -19.0021 -18.1610 -18.1597 -18.1563 -18.1561
   -15.2077 -15.1954 -15.1867 -15.1758 -13.3619 -13.3507 -13.3271 -13.3199
   -12.7723 -12.7690 -12.7537 -12.7424 -12.0788 -12.0552 -12.0414 -12.0231
   -11.9775 -11.9736 -11.9070 -11.9056 -11.1141 -11.1095 -11.0653 -11.0594
    -9.8567  -9.8451  -9.8381  -9.8256  -8.8966  -8.8764  -8.7361  -8.6941
    -8.5290  -8.4929  -8.4001  -8.3708  -7.5008  -7.4626  -7.3858  -7.3582
    -7.1492  -7.1225  -7.0808  -7.0759  -6.7535  -6.7462  -6.5865  -6.5512
    -6.2830  -6.2726  -6.2295  -6.2016  -6.1567  -6.1295  -6.1166  -6.0862
    -5.7438  -5.6918  -5.6007  -5.5933  -5.5457  -5.5411  -5.4288  -5.4090
    -4.9997  -4.9692  -4.9328  -4.9104  -4.8551  -4.8339  -4.7981  -4.7814
    -4.5677  -4.5084  -4.4632  -4.3709  -4.3266  -4.3114  -4.2600  -4.2445
    -4.2066  -4.1911  -4.1392  -4.1008  -3.9546  -3.9444  -3.9207  -3.8873
    -3.7634  -3.7466  -3.7426  -3.6938  -3.6738  -3.6430  -3.6177  -3.5985
    -3.5461  -3.4989  -3.4718  -3.4479  -3.2158  -3.2032  -3.1902  -3.1740
    -3.0743  -3.0293  -2.9735  -2.9490  -2.9307  -2.8939  -2.7722  -2.7594
    -2.5062  -2.4675  -2.3693  -2.3555  -2.2754  -2.2342  -2.0029  -1.9914
    -1.8617  -1.7974  -1.7127  -1.6945  -1.6643  -1.6559  -1.5532  -1.5119
    -0.5302  -0.4977  -0.4122  -0.3836   0.1615   0.1751   0.2683   0.2798
     0.6162   0.6678   0.6878   0.7093   0.9618   1.0267   1.0813   1.0980

          k = 0.1667-0.4364 0.0579 ( 19292 PWs)   bands (ev):

   -24.2856 -24.2855 -24.2853 -24.2852 -20.1707 -20.1707 -20.1672 -20.1671
   -19.0096 -19.0095 -19.0032 -19.0030 -18.1605 -18.1605 -18.1561 -18.1561
   -15.2010 -15.2009 -15.1820 -15.1820 -13.3482 -13.3481 -13.3319 -13.3318
   -12.7699 -12.7698 -12.7483 -12.7482 -12.0628 -12.0628 -12.0327 -12.0326
   -11.9832 -11.9832 -11.9031 -11.9031 -11.1094 -11.1094 -11.0649 -11.0649
    -9.8523  -9.8522  -9.8287  -9.8286  -8.8779  -8.8778  -8.7296  -8.7296
    -8.5285  -8.5284  -8.3640  -8.3640  -7.4692  -7.4692  -7.3783  -7.3783
    -7.1510  -7.1510  -7.0811  -7.0810  -6.7486  -6.7486  -6.5651  -6.5650
    -6.2916  -6.2915  -6.1838  -6.1837  -6.1305  -6.1304  -6.1006  -6.1005
    -5.7209  -5.7208  -5.6110  -5.6109  -5.5397  -5.5397  -5.4398  -5.4398
    -4.9660  -4.9659  -4.9233  -4.9232  -4.8486  -4.8486  -4.7873  -4.7872
    -4.5407  -4.5407  -4.4354  -4.4353  -4.3278  -4.3278  -4.2665  -4.2664
    -4.2013  -4.2013  -4.1138  -4.1138  -3.9467  -3.9467  -3.8762  -3.8761
    -3.7681  -3.7681  -3.7099  -3.7099  -3.6619  -3.6618  -3.6122  -3.6122
    -3.5096  -3.5096  -3.4602  -3.4601  -3.2092  -3.2091  -3.1817  -3.1817
[...]

   -24.2856 -24.2855 -24.2853 -24.2852 -20.1710 -20.1708 -20.1670 -20.1669
   -19.0103 -19.0102 -19.0027 -19.0026 -18.1618 -18.1617 -18.1546 -18.1545
   -15.1997 -15.1997 -15.1860 -15.1860 -13.3334 -13.3333 -13.3230 -13.3230
   -12.7897 -12.7896 -12.7504 -12.7504 -12.0633 -12.0633 -12.0426 -12.0425
   -11.9659 -11.9659 -11.9177 -11.9177 -11.1114 -11.1114 -11.0535 -11.0534
    -9.8925  -9.8925  -9.7952  -9.7952  -8.8791  -8.8790  -8.7327  -8.7327
    -8.4809  -8.4809  -8.4009  -8.4009  -7.4716  -7.4716  -7.3576  -7.3576
    -7.1668  -7.1668  -7.0658  -7.0658  -6.7082  -6.7081  -6.6078  -6.6077
    -6.3418  -6.3417  -6.2378  -6.2378  -6.0983  -6.0983  -6.0710  -6.0710
    -5.7119  -5.7118  -5.6305  -5.6305  -5.5376  -5.5376  -5.4094  -5.4094
    -4.9530  -4.9529  -4.8870  -4.8869  -4.8574  -4.8573  -4.8123  -4.8123
    -4.5229  -4.5229  -4.4268  -4.4268  -4.3198  -4.3198  -4.2761  -4.2760
    -4.1863  -4.1862  -4.1001  -4.1001  -4.0094  -4.0093  -3.8775  -3.8775
    -3.7520  -3.7520  -3.7086  -3.7086  -3.6692  -3.6691  -3.6115  -3.6114
    -3.5127  -3.5126  -3.4419  -3.4419  -3.1912  -3.1912  -3.1761  -3.1761
    -3.0890  -3.0890  -2.9728  -2.9728  -2.8947  -2.8947  -2.8084  -2.8083
    -2.4934  -2.4933  -2.4227  -2.4227  -2.2518  -2.2518  -1.9254  -1.9254
    -1.8311  -1.8311  -1.7085  -1.7084  -1.6543  -1.6543  -1.5390  -1.5389
    -0.4760  -0.4759  -0.4544  -0.4544   0.1934   0.1934   0.2344   0.2345
     0.6491   0.6491   0.7125   0.7125   1.0452   1.0453   1.1275   1.1275

          k =-0.5000-0.4364-0.5884 ( 19296 PWs)   bands (ev):

   -24.2856 -24.2855 -24.2853 -24.2852 -20.1712 -20.1710 -20.1668 -20.1667
   -19.0103 -19.0102 -19.0026 -19.0025 -18.1617 -18.1617 -18.1546 -18.1546
   -15.2007 -15.2007 -15.1849 -15.1849 -13.3341 -13.3341 -13.3225 -13.3224
   -12.7923 -12.7923 -12.7475 -12.7474 -12.0641 -12.0640 -12.0425 -12.0424
   -11.9580 -11.9580 -11.9254 -11.9254 -11.1096 -11.1096 -11.0547 -11.0547
    -9.8996  -9.8996  -9.7879  -9.7879  -8.8876  -8.8876  -8.7170  -8.7170
    -8.4903  -8.4903  -8.3981  -8.3980  -7.4665  -7.4665  -7.3602  -7.3602
    -7.1728  -7.1728  -7.0582  -7.0582  -6.7070  -6.7069  -6.6131  -6.6130
    -6.3541  -6.3540  -6.2476  -6.2476  -6.0966  -6.0965  -6.0582  -6.0581
    -5.7219  -5.7219  -5.6345  -5.6345  -5.5316  -5.5316  -5.3839  -5.3838
    -4.9615  -4.9614  -4.8855  -4.8854  -4.8545  -4.8545  -4.8202  -4.8201
    -4.5257  -4.5257  -4.4196  -4.4195  -4.2957  -4.2957  -4.2603  -4.2603
    -4.2019  -4.2019  -4.1114  -4.1114  -4.0246  -4.0245  -3.8885  -3.8884
    -3.7452  -3.7452  -3.7033  -3.7033  -3.6642  -3.6641  -3.6115  -3.6114
    -3.5065  -3.5064  -3.4521  -3.4521  -3.1904  -3.1904  -3.1768  -3.1768
    -3.0918  -3.0918  -2.9694  -2.9693  -2.8943  -2.8943  -2.7989  -2.7988
    -2.4932  -2.4932  -2.4172  -2.4172  -2.2903  -2.2903  -1.9056  -1.9056
    -1.8408  -1.8407  -1.6920  -1.6920  -1.6676  -1.6675  -1.5281  -1.5280
    -0.4776  -0.4775  -0.4535  -0.4534   0.1923   0.1923   0.2360   0.2361
     0.6439   0.6439   0.7173   0.7174   1.0443   1.0444   1.1293   1.1293

     highest occupied level (ev):     1.1407

!    total energy              =   -1091.60882639 Ry
     Harris-Foulkes estimate   =   -1091.60882641 Ry
     estimated scf accuracy    <       0.00000003 Ry

     The total energy is the sum of the following terms:

     one-electron contribution =    -818.47626711 Ry
     hartree contribution      =     521.92861354 Ry
     xc contribution           =    -307.02761238 Ry
     ewald contribution        =    -487.56383216 Ry
     Dispersion Correction     =      -0.46972829 Ry

     convergence has been achieved in  12 iterations

     Forces acting on atoms (cartesian axes, Ry/au):

     atom    1 type  1   force =    -0.00011045    0.00010284   -0.00062784
     atom    2 type  1   force =     0.00015333    0.00066988   -0.00079189
     atom    3 type  1   force =     0.00056568   -0.00010138    0.00079997
     atom    4 type  1   force =    -0.00068637   -0.00008263   -0.00031087
     atom    5 type  1   force =    -0.00073960    0.00009221    0.00014745
     atom    6 type  1   force =     0.00000119   -0.00045202    0.00026230
     atom    7 type  1   force =    -0.00034750    0.00040223    0.00043319
     atom    8 type  1   force =    -0.00076159    0.00014890   -0.00006817
     atom    9 type  1   force =     0.00032806    0.00054413   -0.00009467
     atom   10 type  1   force =    -0.00055679    0.00043017   -0.00090921
     atom   11 type  2   force =     0.00034777    0.00037186   -0.00011795
     atom   12 type  2   force =    -0.00083757    0.00022082   -0.00009265
     atom   13 type  2   force =    -0.00006844   -0.00041062   -0.00057329
     atom   14 type  1   force =    -0.00035764   -0.00003561    0.00010035
     atom   15 type  2   force =    -0.00004827   -0.00012860    0.00022250
     atom   16 type  2   force =    -0.00016025    0.00008457    0.00027348
     atom   17 type  2   force =    -0.00028172   -0.00025684   -0.00009622
     atom   18 type  5   force =     0.00014747   -0.00026698   -0.00025083
     atom   19 type  4   force =    -0.00024055   -0.00002988   -0.00031689
     atom   20 type  3   force =    -0.00060443    0.00029255    0.00006125
     atom   21 type  2   force =    -0.00093960   -0.00084354    0.00047950
     atom   22 type  3   force =    -0.00002981   -0.00028751    0.00019852
     atom   23 type  2   force =    -0.00064227   -0.00078776    0.00062063
     atom   24 type  2   force =     0.00002204    0.00049800   -0.00020369
     atom   25 type  2   force =    -0.00015910   -0.00003122    0.00059578
     atom   26 type  2   force =    -0.00075226    0.00073764   -0.00040993
     atom   27 type  2   force =     0.00014182    0.00051691    0.00040941
     atom   28 type  1   force =    -0.00015333    0.00066988    0.00079189
     atom   29 type  1   force =    -0.00015333   -0.00066988    0.00079189
     atom   30 type  1   force =     0.00015333   -0.00066988   -0.00079189
     atom   31 type  1   force =     0.00011045    0.00010284    0.00062784
     atom   32 type  1   force =     0.00011045   -0.00010284    0.00062784
     atom   33 type  1   force =    -0.00011045   -0.00010284   -0.00062784
     atom   34 type  1   force =    -0.00056568   -0.00010138   -0.00079997
     atom   35 type  1   force =    -0.00056568    0.00010138   -0.00079997
     atom   36 type  1   force =     0.00056568    0.00010138    0.00079997
     atom   37 type  1   force =     0.00068637   -0.00008263    0.00031087
     atom   38 type  1   force =     0.00068637    0.00008263    0.00031087
     atom   39 type  1   force =    -0.00068637    0.00008263   -0.00031087
     atom   40 type  1   force =     0.00073960    0.00009221   -0.00014745
     atom   41 type  1   force =     0.00073960   -0.00009221   -0.00014745
     atom   42 type  1   force =    -0.00073960   -0.00009221    0.00014745
     atom   43 type  1   force =    -0.00000119   -0.00045202   -0.00026230
     atom   44 type  1   force =    -0.00000119    0.00045202   -0.00026230
     atom   45 type  1   force =     0.00000119    0.00045202    0.00026230
     atom   46 type  1   force =     0.00034750    0.00040223   -0.00043319
     atom   47 type  1   force =     0.00034750   -0.00040223   -0.00043319
     atom   48 type  1   force =    -0.00034750   -0.00040223    0.00043319
     atom   49 type  1   force =     0.00076159    0.00014890    0.00006817
     atom   50 type  1   force =     0.00076159   -0.00014890    0.00006817
     atom   51 type  1   force =    -0.00076159   -0.00014890   -0.00006817
     atom   52 type  1   force =    -0.00032806    0.00054413    0.00009467
     atom   53 type  1   force =    -0.00032806   -0.00054413    0.00009467
     atom   54 type  1   force =     0.00032806   -0.00054413   -0.00009467
     atom   55 type  1   force =     0.00055679    0.00043017    0.00090921
     atom   56 type  1   force =     0.00055679   -0.00043017    0.00090921
     atom   57 type  1   force =    -0.00055679   -0.00043017   -0.00090921
     atom   58 type  2   force =    -0.00034777    0.00037186    0.00011795
     atom   59 type  2   force =    -0.00034777   -0.00037186    0.00011795
     atom   60 type  2   force =     0.00034777   -0.00037186   -0.00011795
     atom   61 type  2   force =     0.00083757    0.00022082    0.00009265
     atom   62 type  2   force =     0.00083757   -0.00022082    0.00009265
     atom   63 type  2   force =    -0.00083757   -0.00022082   -0.00009265
     atom   64 type  2   force =     0.00006844   -0.00041062    0.00057329
     atom   65 type  2   force =     0.00006844    0.00041062    0.00057329
     atom   66 type  2   force =    -0.00006844    0.00041062   -0.00057329
     atom   67 type  1   force =     0.00035764   -0.00003561   -0.00010035
     atom   68 type  1   force =     0.00035764    0.00003561   -0.00010035
     atom   69 type  1   force =    -0.00035764    0.00003561    0.00010035
     atom   70 type  2   force =     0.00004827   -0.00012860   -0.00022250
     atom   71 type  2   force =     0.00004827    0.00012860   -0.00022250
     atom   72 type  2   force =    -0.00004827    0.00012860    0.00022250
     atom   73 type  2   force =     0.00016025    0.00008457   -0.00027348
     atom   74 type  2   force =     0.00016025   -0.00008457   -0.00027348
     atom   75 type  2   force =    -0.00016025   -0.00008457    0.00027348
     atom   76 type  2   force =     0.00028172   -0.00025684    0.00009622
     atom   77 type  2   force =     0.00028172    0.00025684    0.00009622
     atom   78 type  2   force =    -0.00028172    0.00025684   -0.00009622
     atom   79 type  5   force =    -0.00014747   -0.00026698    0.00025083
     atom   80 type  5   force =    -0.00014747    0.00026698    0.00025083
     atom   81 type  5   force =     0.00014747    0.00026698   -0.00025083
     atom   82 type  4   force =     0.00024055   -0.00002988    0.00031689
     atom   83 type  4   force =     0.00024055    0.00002988    0.00031689
     atom   84 type  4   force =    -0.00024055    0.00002988   -0.00031689
     atom   85 type  3   force =     0.00060443    0.00029255   -0.00006125
     atom   86 type  3   force =     0.00060443   -0.00029255   -0.00006125
     atom   87 type  3   force =    -0.00060443   -0.00029255    0.00006125
     atom   88 type  2   force =     0.00093960   -0.00084354   -0.00047950
     atom   89 type  2   force =     0.00093960    0.00084354   -0.00047950
     atom   90 type  2   force =    -0.00093960    0.00084354    0.00047950
     atom   91 type  3   force =     0.00002981   -0.00028751   -0.00019852
     atom   92 type  3   force =     0.00002981    0.00028751   -0.00019852
     atom   93 type  3   force =    -0.00002981    0.00028751    0.00019852
     atom   94 type  2   force =     0.00064227   -0.00078776   -0.00062063
     atom   95 type  2   force =     0.00064227    0.00078776   -0.00062063
     atom   96 type  2   force =    -0.00064227    0.00078776    0.00062063
     atom   97 type  2   force =    -0.00002204    0.00049800    0.00020369
     atom   98 type  2   force =    -0.00002204   -0.00049800    0.00020369
     atom   99 type  2   force =     0.00002204   -0.00049800   -0.00020369
     atom  100 type  2   force =     0.00015910   -0.00003122   -0.00059578
     atom  101 type  2   force =     0.00015910    0.00003122   -0.00059578
     atom  102 type  2   force =    -0.00015910    0.00003122    0.00059578
     atom  103 type  2   force =     0.00075226    0.00073764    0.00040993
     atom  104 type  2   force =     0.00075226   -0.00073764    0.00040993
     atom  105 type  2   force =    -0.00075226   -0.00073764   -0.00040993
     atom  106 type  2   force =    -0.00014182    0.00051691   -0.00040941
     atom  107 type  2   force =    -0.00014182   -0.00051691   -0.00040941
     atom  108 type  2   force =     0.00014182   -0.00051691    0.00040941

     Total force =     0.007814     Total SCF correction =     0.000371

     BFGS Geometry Optimization

     bfgs converged in   1 scf cycles and   0 bfgs steps
     (criteria: energy <  1.0E-04 Ry, force <  1.0E-03 Ry/Bohr)

     End of BFGS Geometry Optimization

     Final energy   =   -1091.6088263887 Ry
Begin final coordinates

ATOMIC_POSITIONS (angstrom)
C        0.509218539   8.109049082   3.507767670
C       -0.776577402   8.489021356   4.148481188
C        0.889053159   8.535614480   2.218168672
C        1.419140779   7.279048228   4.234352594
C        7.285320863   9.185744934   3.419702347
C        2.658785523   6.918032224   3.676491026
C        3.016043225   7.349390929   2.404030902
C        6.090114640   9.523815462   4.031461159
C        2.110548578   8.150763263   1.707614296
C        5.055344816   0.132364195   2.056765838
H        5.826797828   0.893399903   1.841938316
H        4.074967991   0.547156398   1.793540973
H        5.241846598   9.639709700   1.425370698
C        3.861201357   0.079822385   4.238048918
H        3.964715901  10.072867974   5.257203131
H        2.976713147  10.017592394   3.759458244
H        3.722939410   1.172696451   4.286693994
F        2.452548328   8.598736568   0.444889782
N        5.054706013  10.145713636   3.468293342
O        1.104716513   6.836735013   5.464227476
H        0.187241032   7.330324228   5.658987918
O       -0.939676759   8.149374623   5.383591084
H        0.249456946   9.166650139   1.602774724
H        7.453850835   9.427109102   2.374436215
H        5.957841536   9.257564173   5.083240910
H        3.974066509   7.086361939   1.947823144
H        3.337155908   6.302429652   4.273806471
C        3.409397402   3.294021356   1.320448812
C        6.042227402   1.900978644   6.789388812
C        1.856252598   7.095978644   9.617421188
C        2.123601461   2.914049082   1.961172330
C        4.756431461   2.280950918   7.430102330
C        3.142048539   7.475950918   8.976707670
C        1.743776841   3.340614480   3.250771328
C        4.376606841   1.854385520   8.719701328
C        3.521873159   7.049385520   7.687108672
C        1.213689221   2.084048228   1.234587406
C        3.846509221   3.110951772   6.703517406
C        4.051970779   8.305951772   9.703292594
C        4.415709137   3.990744934   2.049227653
C       -2.019670863   1.204255066   7.518167653
C        0.849940863   6.399255066   8.888642347
C       -0.025955523   1.723032224   1.792448974
C        2.606874477   3.471967776   7.261378974
C        5.291605523   8.666967776   9.145421026
C       -0.383223225   2.154390929   3.064909098
C        2.249606775   3.040609071   8.533849098
C        5.648873225   8.235609071   7.872960902
C        5.610915360   4.328815462   1.437478841
C       -0.824464640   0.866184538   6.906408841
C       -0.345265360   6.061184538   9.500401159
C        0.522271422   2.955763263   3.761315704
C        3.155101422   2.239236737   9.230255704
C        4.743378578   7.434236737   7.176554296
C        6.645685184   5.327364195   3.412174162
C        0.210305184  10.257635805   8.881104162
C       -1.380035184   5.062635805   7.525695838
H        5.874222172   6.088399903   3.626991684
H       -0.561147828   9.496600097   9.095931684
H       -0.608572172   4.301600097   7.310878316
H        7.626062009   5.742156398   3.675389027
H        1.190682009   9.842843602   9.144329027
H       -2.360412009   4.647843602   7.262480973
H        6.459183402   4.444709700   4.043569302
H        0.023803402   0.750290300   9.512499302
H       -1.193533402   5.945290300   6.894300698
C        7.839828643   5.274822385   1.230891082
C        1.404448643  10.310177615   6.699821082
C       -2.574178643   5.115177615   9.706978918
H        7.736314099   4.877867974   0.211726869
H        1.300934099   0.317132026   5.680666869
H       -2.470664099   5.512132026  10.726143131
H       -0.343893147   4.822592394   1.709481756
H        2.288936853   0.372407606   7.178411756
H        5.609543147   5.567407606   9.228388244
H        7.978080590   6.367696451   1.182236006
H        1.542710590   9.217303549   6.651176006
H       -2.712430590   4.022303549   9.755633994
F        0.180281672   3.403736568   5.024040218
F        2.813101672   1.791263432  10.492980218
F        5.085368328   6.986263432   5.913829782
N        6.646313987   4.950713636   2.000646658
N        0.210943987   0.244286364   7.469576658
N       -1.380663987   5.439286364   8.937223342
O        1.528113487   1.641735013   0.004712524
O        4.160933487   3.553264987   5.473642524
O        3.737536513   8.748264987  10.933157476
H       -1.356971032   2.135324228  10.747812082
H        5.078408968   3.059675772   5.278882082
H        6.622621032   8.254675772   0.190057918
O        3.572496759   2.954374623   0.085348916
O        6.205326759   2.240625377   5.554278916
O        1.693153241   7.435625377  10.852531084
H        2.383373054   3.971650139   3.866165276
H        5.016193054   1.223349861   9.335095276
H        2.882276946   6.418349861   7.071714724
H        4.247169165   4.232109102   3.094493785
H       -2.188200835   0.962890898   8.563433785
H        1.018480835   6.157890898   7.843376215
H        5.743188464   4.062564173   0.385689090
H       -0.692191536   1.132435827   5.854629090
H       -0.477538464   6.327435827  10.552180910
H       -1.341236509   1.891361939   3.521116856
H        1.291593491   3.303638061   8.990046856
H        6.606886509   8.498638061   7.416753144
H        8.363874092   1.107429652   1.195133529
H        1.928494092   4.087570348   6.664063529
H       -3.098224092   9.282570348   9.742736471
End final coordinates



     Writing output data file 2hp_4_666.save
 
     init_run     :    435.62s CPU    440.02s WALL (       1 calls)
     electrons    :  10580.77s CPU  10709.05s WALL (       1 calls)
     forces       :    145.46s CPU    145.78s WALL (       1 calls)

     Called by init_run:
     wfcinit      :    431.18s CPU    435.39s WALL (       1 calls)
     potinit      :      1.65s CPU      1.66s WALL (       1 calls)

     Called by electrons:
     c_bands      :   9564.03s CPU   9688.60s WALL (      12 calls)
     sum_band     :   1003.63s CPU   1005.71s WALL (      12 calls)
     v_of_rho     :      1.87s CPU      1.88s WALL (      13 calls)
     newd         :      4.33s CPU      5.96s WALL (      13 calls)
     mix_rho      :      0.40s CPU      0.46s WALL (      12 calls)

     Called by c_bands:
     init_us_2    :     94.50s CPU     94.55s WALL (    2080 calls)
     cegterg      :   9232.64s CPU   9356.89s WALL (     960 calls)

     Called by sum_band:
     sum_band:bec :      0.68s CPU      0.68s WALL (     960 calls)
     addusdens    :      4.74s CPU      6.26s WALL (      12 calls)

     Called by *egterg:
     h_psi        :   5640.79s CPU   5645.37s WALL (    4637 calls)
     s_psi        :   1225.88s CPU   1225.87s WALL (    4637 calls)
     g_psi        :     33.15s CPU     33.15s WALL (    3597 calls)
     cdiaghg      :    320.94s CPU    320.97s WALL (    4557 calls)

     Called by h_psi:
     h_psi:pot    :   5587.49s CPU   5590.50s WALL (    4637 calls)
     h_psi:calbec :   1171.25s CPU   1171.30s WALL (    4637 calls)
     vloc_psi     :   3190.66s CPU   3193.62s WALL (    4637 calls)
     add_vuspsi   :   1225.56s CPU   1225.55s WALL (    4637 calls)

     General routines
     calbec       :   1660.41s CPU   1660.45s WALL (    5917 calls)
     fft          :      0.76s CPU      0.77s WALL (     179 calls)
     fftw         :   3286.46s CPU   3289.32s WALL ( 1095800 calls)
     davcio       :      0.07s CPU      2.45s WALL (      80 calls)
 
     Parallel routines
     fft_scatter  :    357.09s CPU    357.77s WALL ( 1095979 calls)
 
     PWSCF        :     3h 6m CPU        3h 8m WALL

 
   This run was terminated on:  14:22:46  10Oct2017            

=------------------------------------------------------------------------------=
   JOB DONE.
=------------------------------------------------------------------------------=
