
     Program PWSCF v.6.1 (svn rev. 13369) starts on  9Oct2017 at  9:56:13 

     This program is part of the open-source Quantum ESPRESSO suite
     for quantum simulation of materials; please cite
         "P. Giannozzi et al., J. Phys.:Condens. Matter 21 395502 (2009);
          URL http://www.quantum-espresso.org", 
     in publications or presentations arising from this work. More details at
     http://www.quantum-espresso.org/quote

     Parallel version (MPI), running on     1 processors
     Waiting for input...
     Reading input from standard input

     Current dimensions of program PWSCF are:
     Max number of different atomic species (ntypx) = 10
     Max number of k-points (npk) =  40000
     Max angular momentum in pseudopotentials (lmaxx) =  3
     Message from routine iosys:
     london is obsolete, use "vdw_corr='grimme-d2'" instead

     IMPORTANT: XC functional enforced from input :
     Exchange-correlation      = PBE ( 1  4  3  4 0 0)
     Any further DFT definition will be discarded
     Please, verify this is what you really want

               file C.pbe-rrkjus.UPF: wavefunction(s)  2S 2P renormalized
               file H.pbe-rrkjus.UPF: wavefunction(s)  1S renormalized
               file O.pbe-rrkjus.UPF: wavefunction(s)  2S renormalized
               file N.pbe-rrkjus.UPF: wavefunction(s)  2S renormalized

     -------------------------------------
     Parameters for Dispersion Correction:
     -------------------------------------
       atom      VdW radius       C_6     

        C          2.744         60.710
        H          1.892          4.857
        O          2.536         24.284
        N          2.640         42.670
        F          2.432         26.018

     Subspace diagonalization in iterative solution of the eigenvalue problem:
     a serial algorithm will be used

 
     G-vector sticks info
     --------------------
     sticks:   dense  smooth     PW     G-vecs:    dense   smooth      PW
     Sum        3207    3207    899               154425   154425   22919
 


     bravais-lattice index     =            0
     lattice parameter (alat)  =      17.1364  a.u.
     unit-cell volume          =    6954.5023 (a.u.)^3
     number of atoms/cell      =          108
     number of atomic types    =            5
     number of electrons       =       320.00
     number of Kohn-Sham states=          160
     kinetic-energy cutoff     =      30.0000  Ry
     charge density cutoff     =     120.0000  Ry
     convergence threshold     =      1.0E-07
     mixing beta               =       0.7000
     number of iterations used =            8  plain     mixing
     Exchange-correlation      = PBE ( 1  4  3  4 0 0)
     nstep                     =           50


     celldm(1)=  17.136415  celldm(2)=   0.000000  celldm(3)=   0.000000
     celldm(4)=   0.000000  celldm(5)=   0.000000  celldm(6)=   0.000000

     crystal axes: (cart. coord. in units of alat)
               a(1) = (   1.000000   0.000000   0.000000 )  
               a(2) = (   0.000000   1.145762   0.000000 )  
               a(3) = (  -0.419328   0.000000   1.206179 )  

     reciprocal axes: (cart. coord. in units 2 pi/alat)
               b(1) = (  1.000000  0.000000  0.347650 )  
               b(2) = (  0.000000  0.872782  0.000000 )  
               b(3) = (  0.000000  0.000000  0.829064 )  


     PseudoPot. # 1 for C  read from file:
     /data/home/btx156/espresso/pseudo/C.pbe-rrkjus.UPF
     MD5 check sum: 00fb224312de0c5b6853bd333518df6f
     Pseudo is Ultrasoft, Zval =  4.0
     Generated by new atomic code, or converted to UPF format
     Using radial grid of  627 points,  4 beta functions with: 
                l(1) =   0
                l(2) =   0
                l(3) =   1
                l(4) =   1
     Q(r) pseudized with 0 coefficients 


     PseudoPot. # 2 for H  read from file:
     /data/home/btx156/espresso/pseudo/H.pbe-rrkjus.UPF
     MD5 check sum: 7cc9d459525c9a0585f487a71c3c9563
     Pseudo is Ultrasoft, Zval =  1.0
     Generated by new atomic code, or converted to UPF format
     Using radial grid of 1061 points,  2 beta functions with: 
                l(1) =   0
                l(2) =   0
     Q(r) pseudized with 0 coefficients 


     PseudoPot. # 3 for O  read from file:
     /data/home/btx156/espresso/pseudo/O.pbe-rrkjus.UPF
     MD5 check sum: 390ba29e75625707450f3bd3f0eb6be9
     Pseudo is Ultrasoft, Zval =  6.0
     Generated by new atomic code, or converted to UPF format
     Using radial grid of 1269 points,  4 beta functions with: 
                l(1) =   0
                l(2) =   0
                l(3) =   1
                l(4) =   1
     Q(r) pseudized with 0 coefficients 


     PseudoPot. # 4 for N  read from file:
     /data/home/btx156/espresso/pseudo/N.pbe-rrkjus.UPF
     MD5 check sum: 0c3fbe5807a93f9ba59d5a7019aa238b
     Pseudo is Ultrasoft, Zval =  5.0
     Generated by new atomic code, or converted to UPF format
     Using radial grid of 1257 points,  4 beta functions with: 
                l(1) =   0
                l(2) =   0
                l(3) =   1
                l(4) =   1
     Q(r) pseudized with 0 coefficients 


     PseudoPot. # 5 for  F read from file:
     /data/home/btx156/espresso/pseudo/F.pbe-n-rrkjus_psl.0.1.UPF
     MD5 check sum: 04c7599644978b7d0345d67c6032d20f
     Pseudo is Ultrasoft + core correction, Zval =  7.0
     Generated using "atomic" code by A. Dal Corso  v.5.0.2 svn rev. 9415
     Using radial grid of 1105 points,  4 beta functions with: 
                l(1) =   0
                l(2) =   0
                l(3) =   1
                l(4) =   1
     Q(r) pseudized with 0 coefficients 


     atomic species   valence    mass     pseudopotential
        C              4.00    12.00000     C ( 1.00)
        H              1.00     1.00790     H ( 1.00)
        O              6.00    15.99940     O ( 1.00)
        N              5.00    14.00670     N ( 1.00)
        F              7.00    18.99840      F( 1.00)

      4 Sym. Ops., with inversion, found ( 2 have fractional translation)



   Cartesian axes

     site n.     atom                  positions (alat units)
         1           C   tau(   1) = (   0.0557652   0.8948975   0.3877021  )
         2           C   tau(   2) = (  -0.0866655   0.9379094   0.4573708  )
         3           C   tau(   3) = (   0.0971273   0.9432147   0.2469531  )
         4           C   tau(   4) = (   0.1545003   0.8028694   0.4647769  )
         5           C   tau(   5) = (   0.8042743   1.0127964   0.3748197  )
         6           C   tau(   6) = (   0.2889405   0.7627225   0.4011513  )
         7           C   tau(   7) = (   0.3276152   0.8119792   0.2631526  )
         8           C   tau(   8) = (   0.6738702   1.0519011   0.4407016  )
         9           C   tau(   9) = (   0.2303368   0.9009131   0.1893937  )
        10           C   tau(  10) = (   0.5584471   0.0146655   0.2262434  )
        11           H   tau(  11) = (   0.6333043   0.0875367   0.2093922  )
        12           H   tau(  12) = (   0.4637723   0.0548819   0.2014314  )
        13           H   tau(  13) = (   0.5776427   1.0756412   0.1658499  )
        14           C   tau(  14) = (   0.4286043   0.0075616   0.4665501  )
        15           H   tau(  15) = (   0.4395547   1.1147118   0.5644913  )
        16           H   tau(  16) = (   0.3432544   1.1104728   0.4209567  )
        17           H   tau(  17) = (   0.4170100   0.1127434   0.4711332  )
        18           F   tau(  18) = (   0.2684414   0.9500320   0.0527216  )
        19           N   tau(  19) = (   0.5594175   1.1176562   0.3798141  )
        20           O   tau(  20) = (   0.1223936   0.7524790   0.6008822  )
        21           H   tau(  21) = (   0.0414845   0.7837013   0.6262478  )
        22           O   tau(  22) = (  -0.1058744   0.9036964   0.5913533  )
        23           H   tau(  23) = (   0.0342207   1.0050627   0.1834598  )
        24           H   tau(  24) = (   0.8217287   1.0332480   0.2777828  )
        25           H   tau(  25) = (   0.6634834   1.0324463   0.5365078  )
        26           H   tau(  26) = (   0.4196345   0.7874826   0.2225403  )
        27           H   tau(  27) = (   0.3533623   0.7046437   0.4591926  )
        28           C   tau(  28) = (   0.3770009   0.3650283   0.1457180  )
        29           C   tau(  29) = (   0.6673375   0.2078527   0.7488079  )
        30           C   tau(  30) = (   0.2036711   0.7807338   1.0604607  )
        31           C   tau(  31) = (   0.2345703   0.3220165   0.2153878  )
        32           C   tau(  32) = (   0.5249068   0.2508646   0.8184766  )
        33           C   tau(  33) = (   0.3461018   0.8237456   0.9907920  )
        34           C   tau(  34) = (   0.1932092   0.3703337   0.3561368  )
        35           C   tau(  35) = (   0.4835458   0.2025474   0.9592256  )
        36           C   tau(  36) = (   0.3874628   0.7754284   0.8500430  )
        37           C   tau(  37) = (   0.1358362   0.2299883   0.1383130  )
        38           C   tau(  38) = (   0.4261717   0.3428927   0.7414018  )
        39           C   tau(  39) = (   0.4448369   0.9157738   1.0678668  )
        40           C   tau(  40) = (   0.4860623   0.4399153   0.2282691  )
        41           C   tau(  41) = (  -0.2236023   0.1329657   0.8313590  )
        42           C   tau(  42) = (   0.0946097   0.7058468   0.9779096  )
        43           C   tau(  43) = (   0.0013961   0.1898414   0.2019386  )
        44           C   tau(  44) = (   0.2917326   0.3830396   0.8050274  )
        45           C   tau(  45) = (   0.5792759   0.9559207   1.0042401  )
        46           C   tau(  46) = (  -0.0372797   0.2390982   0.3399374  )
        47           C   tau(  47) = (   0.2530568   0.3337829   0.9430273  )
        48           C   tau(  48) = (   0.6179517   0.9066639   0.8662414  )
        49           C   tau(  49) = (   0.6164663   0.4790201   0.1623883  )
        50           C   tau(  50) = (  -0.0931982   0.0938610   0.7654772  )
        51           C   tau(  51) = (  -0.0357943   0.6667420   1.0437915  )
        52           C   tau(  52) = (   0.0599987   0.3280320   0.4136951  )
        53           C   tau(  53) = (   0.3503352   0.2448490   1.0167850  )
        54           C   tau(  54) = (   0.5206733   0.8177301   0.7924836  )
        55           C   tau(  55) = (   0.7318895   0.5875466   0.3768466  )
        56           C   tau(  56) = (   0.0222249   1.1310966   0.9799354  )
        57           C   tau(  57) = (  -0.1512174   0.5582155   0.8293322  )
        58           H   tau(  58) = (   0.6570312   0.6604177   0.3936966  )
        59           H   tau(  59) = (  -0.0526323   1.0582254   0.9967866  )
        60           H   tau(  60) = (  -0.0763591   0.4853444   0.8124821  )
        61           H   tau(  61) = (   0.8265642   0.6277629   0.4016574  )
        62           H   tau(  62) = (   0.1168997   1.0908802   1.0047473  )
        63           H   tau(  63) = (  -0.2458922   0.5179992   0.8045213  )
        64           H   tau(  64) = (   0.7126938   0.5027602   0.4372400  )
        65           H   tau(  65) = (   0.0030293   0.0701209   1.0403288  )
        66           H   tau(  66) = (  -0.1320218   0.6430019   0.7689387  )
        67           C   tau(  67) = (   0.8617322   0.5804426   0.1365398  )
        68           C   tau(  68) = (   0.1520677   1.1382005   0.7396286  )
        69           C   tau(  69) = (  -0.2810602   0.5653195   1.0696389  )
        70           H   tau(  70) = (   0.8507818   0.5418308   0.0385975  )
        71           H   tau(  71) = (   0.1411173   0.0310503   0.6416874  )
        72           H   tau(  72) = (  -0.2701098   0.6039313   1.1675812  )
        73           H   tau(  73) = (  -0.0529190   0.5375918   0.1821332  )
        74           H   tau(  74) = (   0.2374176   0.0352893   0.7852220  )
        75           H   tau(  75) = (   0.6335910   0.6081703   1.0240456  )
        76           H   tau(  76) = (   0.8733255   0.6856245   0.1319556  )
        77           H   tau(  77) = (   0.1636620   1.0330187   0.7350455  )
        78           H   tau(  78) = (  -0.2926534   0.4601376   1.0742231  )
        79           F   tau(  79) = (   0.0218952   0.3771509   0.5503672  )
        80           F   tau(  80) = (   0.3122306   0.1957301   1.1534571  )
        81           F   tau(  81) = (   0.5587768   0.7686112   0.6558115  )
        82           N   tau(  82) = (   0.7309179   0.5447751   0.2232758  )
        83           N   tau(  83) = (   0.0212545   0.0281059   0.8263646  )
        84           N   tau(  84) = (  -0.1502459   0.6009870   0.9829029  )
        85           O   tau(  85) = (   0.1679429   0.1795979   0.0022077  )
        86           O   tau(  86) = (   0.4582784   0.3932831   0.6052965  )
        87           O   tau(  87) = (   0.4127291   0.9661642   1.2039710  )
        88           H   tau(  88) = (  -0.1704770   0.2108202   1.1830198  )
        89           H   tau(  89) = (   0.5391875   0.3620608   0.5799310  )
        90           H   tau(  90) = (   0.7511491   0.9349419   0.0231590  )
        91           O   tau(  91) = (   0.3962098   0.3308154   0.0117366  )
        92           O   tau(  92) = (   0.6865464   0.2420657   0.6148254  )
        93           O   tau(  93) = (   0.1844622   0.8149467   1.1944432  )
        94           H   tau(  94) = (   0.2561159   0.4321817   0.4196301  )
        95           H   tau(  95) = (   0.5464513   0.1406994   1.0227189  )
        96           H   tau(  96) = (   0.3245561   0.7135804   0.7865497  )
        97           H   tau(  97) = (   0.4686068   0.4603670   0.3253060  )
        98           H   tau(  98) = (  -0.2410567   0.1125141   0.9283959  )
        99           H   tau(  99) = (   0.1120652   0.6853951   0.8808727  )
       100           H   tau( 100) = (   0.6268532   0.4595653   0.0665810  )
       101           H   tau( 101) = (  -0.0828114   0.1133158   0.6696709  )
       102           H   tau( 102) = (  -0.0461812   0.6861968   1.1395977  )
       103           H   tau( 103) = (  -0.1292980   0.2146016   0.3805496  )
       104           H   tau( 104) = (   0.1610386   0.3582795   0.9836384  )
       105           H   tau( 105) = (   0.7099700   0.9311605   0.8256291  )
       106           H   tau( 106) = (   0.9369743   0.1317626   0.1438974  )
       107           H   tau( 107) = (   0.2273097   0.4411184   0.7469862  )
       108           H   tau( 108) = (  -0.3563022   1.0139995   1.0622814  )

     number of k points=    30
                       cart. coord. in units 2pi/alat
        k(    1) = (   0.0000000   0.0000000   0.0000000), wk =   0.0312500
        k(    2) = (   0.0000000   0.0000000   0.2072661), wk =   0.0625000
        k(    3) = (   0.0000000   0.0000000  -0.4145322), wk =   0.0312500
        k(    4) = (   0.0000000   0.2181954   0.0000000), wk =   0.0625000
        k(    5) = (   0.0000000   0.2181954   0.2072661), wk =   0.1250000
        k(    6) = (   0.0000000   0.2181954  -0.4145322), wk =   0.0625000
        k(    7) = (   0.0000000  -0.4363908   0.0000000), wk =   0.0312500
        k(    8) = (   0.0000000  -0.4363908   0.2072661), wk =   0.0625000
        k(    9) = (   0.0000000  -0.4363908  -0.4145322), wk =   0.0312500
        k(   10) = (   0.2500000   0.0000000   0.0869125), wk =   0.0625000
        k(   11) = (   0.2500000   0.0000000   0.2941786), wk =   0.0625000
        k(   12) = (   0.2500000   0.0000000  -0.3276198), wk =   0.0625000
        k(   13) = (   0.2500000   0.0000000  -0.1203537), wk =   0.0625000
        k(   14) = (   0.2500000   0.2181954   0.0869125), wk =   0.1250000
        k(   15) = (   0.2500000   0.2181954   0.2941786), wk =   0.1250000
        k(   16) = (   0.2500000   0.2181954  -0.3276198), wk =   0.1250000
        k(   17) = (   0.2500000   0.2181954  -0.1203537), wk =   0.1250000
        k(   18) = (   0.2500000  -0.4363908   0.0869125), wk =   0.0625000
        k(   19) = (   0.2500000  -0.4363908   0.2941786), wk =   0.0625000
        k(   20) = (   0.2500000  -0.4363908  -0.3276198), wk =   0.0625000
        k(   21) = (   0.2500000  -0.4363908  -0.1203537), wk =   0.0625000
        k(   22) = (  -0.5000000   0.0000000  -0.1738249), wk =   0.0312500
        k(   23) = (  -0.5000000   0.0000000   0.0334412), wk =   0.0625000
        k(   24) = (  -0.5000000   0.0000000  -0.5883571), wk =   0.0312500
        k(   25) = (  -0.5000000   0.2181954  -0.1738249), wk =   0.0625000
        k(   26) = (  -0.5000000   0.2181954   0.0334412), wk =   0.1250000
        k(   27) = (  -0.5000000   0.2181954  -0.5883571), wk =   0.0625000
        k(   28) = (  -0.5000000  -0.4363908  -0.1738249), wk =   0.0312500
        k(   29) = (  -0.5000000  -0.4363908   0.0334412), wk =   0.0625000
        k(   30) = (  -0.5000000  -0.4363908  -0.5883571), wk =   0.0312500

     Dense  grid:   154425 G-vectors     FFT dimensions: (  60,  72,  80)

     Estimated max dynamical RAM per process >    2115.88MB

     Check: negative/imaginary core charge=   -0.000687    0.000000

     Initial potential from superposition of free atoms

     starting charge  315.37983, renormalised to  320.00000
     Starting wfc are  288 randomized atomic wfcs

     total cpu time spent up to now is      146.4 secs

     per-process dynamical memory:  1800.7 Mb

     Self-consistent Calculation

     iteration #  1     ecut=    30.00 Ry     beta=0.70
     Davidson diagonalization with overlap
     ethr =  1.00E-02,  avg # of iterations =  2.0

     total cpu time spent up to now is      447.2 secs

     total energy              =   -1081.73840597 Ry
     Harris-Foulkes estimate   =   -1101.35891113 Ry
     estimated scf accuracy    <      28.03246252 Ry

     iteration #  2     ecut=    30.00 Ry     beta=0.70
     Davidson diagonalization with overlap
     ethr =  8.76E-03,  avg # of iterations =  4.0

     total cpu time spent up to now is      764.7 secs

     total energy              =   -1085.42312252 Ry
     Harris-Foulkes estimate   =   -1093.47620668 Ry
     estimated scf accuracy    <      14.26458655 Ry

     iteration #  3     ecut=    30.00 Ry     beta=0.70
     Davidson diagonalization with overlap
     ethr =  4.46E-03,  avg # of iterations =  4.0

     total cpu time spent up to now is     1114.8 secs

     total energy              =   -1088.83082196 Ry
     Harris-Foulkes estimate   =   -1090.43028709 Ry
     estimated scf accuracy    <       3.22794241 Ry

     iteration #  4     ecut=    30.00 Ry     beta=0.70
     Davidson diagonalization with overlap
     ethr =  1.01E-03,  avg # of iterations =  4.0

     total cpu time spent up to now is     1442.3 secs

     total energy              =   -1089.49421792 Ry
     Harris-Foulkes estimate   =   -1089.76655385 Ry
     estimated scf accuracy    <       0.57548278 Ry

     iteration #  5     ecut=    30.00 Ry     beta=0.70
     Davidson diagonalization with overlap
     ethr =  1.80E-04,  avg # of iterations =  4.0

     total cpu time spent up to now is     1774.2 secs

     total energy              =   -1089.61362577 Ry
     Harris-Foulkes estimate   =   -1089.63741071 Ry
     estimated scf accuracy    <       0.04752981 Ry

     iteration #  6     ecut=    30.00 Ry     beta=0.70
     Davidson diagonalization with overlap
     ethr =  1.49E-05,  avg # of iterations =  4.0

     total cpu time spent up to now is     2121.5 secs

     total energy              =   -1089.62504115 Ry
     Harris-Foulkes estimate   =   -1089.62837375 Ry
     estimated scf accuracy    <       0.00684924 Ry

     iteration #  7     ecut=    30.00 Ry     beta=0.70
     Davidson diagonalization with overlap
     ethr =  2.14E-06,  avg # of iterations =  4.0

     total cpu time spent up to now is     2467.5 secs

     total energy              =   -1089.62648514 Ry
     Harris-Foulkes estimate   =   -1089.62713274 Ry
     estimated scf accuracy    <       0.00138941 Ry

     iteration #  8     ecut=    30.00 Ry     beta=0.70
     Davidson diagonalization with overlap
     ethr =  4.34E-07,  avg # of iterations =  3.0

     total cpu time spent up to now is     2787.9 secs

     total energy              =   -1089.62679225 Ry
     Harris-Foulkes estimate   =   -1089.62685522 Ry
     estimated scf accuracy    <       0.00013869 Ry

     iteration #  9     ecut=    30.00 Ry     beta=0.70
     Davidson diagonalization with overlap
     ethr =  4.33E-08,  avg # of iterations =  3.0

     total cpu time spent up to now is     3114.6 secs

     total energy              =   -1089.62682307 Ry
     Harris-Foulkes estimate   =   -1089.62683716 Ry
     estimated scf accuracy    <       0.00003016 Ry

     iteration # 10     ecut=    30.00 Ry     beta=0.70
     Davidson diagonalization with overlap
     ethr =  9.42E-09,  avg # of iterations =  3.4

     total cpu time spent up to now is     3429.6 secs

     total energy              =   -1089.62682953 Ry
     Harris-Foulkes estimate   =   -1089.62683085 Ry
     estimated scf accuracy    <       0.00000284 Ry

     iteration # 11     ecut=    30.00 Ry     beta=0.70
     Davidson diagonalization with overlap
     ethr =  8.88E-10,  avg # of iterations =  4.0

     total cpu time spent up to now is     3775.8 secs

     total energy              =   -1089.62683024 Ry
     Harris-Foulkes estimate   =   -1089.62683034 Ry
     estimated scf accuracy    <       0.00000024 Ry

     iteration # 12     ecut=    30.00 Ry     beta=0.70
     Davidson diagonalization with overlap
     ethr =  7.42E-11,  avg # of iterations =  4.0

     total cpu time spent up to now is     4113.2 secs

     End of self-consistent calculation

          k = 0.0000 0.0000 0.0000 ( 19295 PWs)   bands (ev):

   -24.6623 -24.6622 -24.6620 -24.6619 -21.4896 -21.4882 -21.4880 -21.4869
   -19.0373 -19.0359 -19.0248 -19.0223 -18.3953 -18.3932 -18.3880 -18.3864
   -15.6330 -15.6168 -15.6089 -15.5944 -13.7579 -13.7336 -13.6975 -13.6726
   -13.2264 -13.2149 -13.2082 -13.1961 -13.0156 -13.0147 -12.9476 -12.9462
   -12.6725 -12.6661 -12.6516 -12.6365 -11.7236 -11.6804 -11.6664 -11.6301
   -10.4045 -10.3972 -10.3942 -10.3745  -9.6564  -9.5918  -9.5356  -9.4674
    -9.2590  -9.2231  -9.1378  -9.1136  -8.3146  -8.3145  -8.2952  -8.2759
    -7.7308  -7.6758  -7.6366  -7.6253  -7.5579  -7.5537  -7.5377  -7.4555
    -6.8671  -6.8202  -6.7971  -6.7733  -6.3844  -6.3706  -6.3488  -6.3021
    -6.2394  -6.2085  -6.2024  -6.1586  -6.1457  -6.0849  -6.0497  -6.0336
    -5.3779  -5.3643  -5.3032  -5.2421  -5.2345  -5.2214  -5.2117  -5.1857
    -5.0897  -5.0430  -5.0111  -4.9382  -4.8074  -4.7721  -4.6839  -4.6523
    -4.6508  -4.6112  -4.5258  -4.5005  -4.4908  -4.4839  -4.4470  -4.3281
    -4.2853  -4.2659  -4.2256  -4.2192  -4.1726  -4.1630  -4.1178  -4.0992
    -3.9735  -3.9466  -3.9343  -3.9161  -3.9137  -3.8790  -3.8419  -3.8323
    -3.3489  -3.2902  -3.2763  -3.2553  -3.1828  -3.1584  -3.1105  -3.0549
    -2.7099  -2.6884  -2.6828  -2.6568  -2.6402  -2.4893  -2.2965  -2.2544
    -2.2105  -2.0789  -2.0754  -1.9983  -1.8733  -1.8566  -1.7654  -1.7291
    -0.6942  -0.6801  -0.4691  -0.4526   0.4007   0.4679   0.5231   0.5295
     0.5408   0.5770   0.5840   0.6000   0.8986   0.9937   1.0479   1.0667

          k = 0.0000 0.0000 0.2073 ( 19281 PWs)   bands (ev):

   -24.6623 -24.6622 -24.6620 -24.6619 -21.4894 -21.4883 -21.4879 -21.4870
   -19.0371 -19.0361 -19.0244 -19.0227 -18.3951 -18.3937 -18.3876 -18.3865
   -15.6306 -15.6192 -15.6067 -15.5965 -13.7553 -13.7388 -13.6923 -13.6754
   -13.2256 -13.2184 -13.2049 -13.1973 -13.0117 -13.0089 -12.9560 -12.9505
   -12.6704 -12.6643 -12.6495 -12.6390 -11.7177 -11.6904 -11.6572 -11.6345
   -10.4042 -10.3981 -10.3894 -10.3764  -9.6452  -9.5732  -9.5603  -9.4855
    -9.2390  -9.2087  -9.1486  -9.1354  -8.3141  -8.3034  -8.2997  -8.2766
    -7.7056  -7.6695  -7.6454  -7.6320  -7.5988  -7.5759  -7.4969  -7.4537
    -6.8583  -6.8350  -6.7884  -6.7807  -6.3725  -6.3507  -6.3456  -6.3092
    -6.2277  -6.1995  -6.1975  -6.1636  -6.1464  -6.0751  -6.0688  -6.0466
    -5.3779  -5.3650  -5.2979  -5.2539  -5.2393  -5.2245  -5.2038  -5.1778
    -5.0941  -5.0680  -5.0147  -4.9691  -4.7981  -4.7568  -4.7030  -4.6728
    -4.6347  -4.5768  -4.5372  -4.4992  -4.4711  -4.4590  -4.4343  -4.3534
    -4.2880  -4.2596  -4.2266  -4.2209  -4.1750  -4.1709  -4.1071  -4.0911
    -4.0080  -3.9717  -3.9562  -3.9286  -3.8823  -3.8684  -3.8268  -3.8196
    -3.3574  -3.2936  -3.2740  -3.2278  -3.1876  -3.1448  -3.1052  -3.0599
    -2.7226  -2.7006  -2.6765  -2.6617  -2.5906  -2.4450  -2.3510  -2.2780
    -2.2005  -2.1101  -2.0676  -2.0068  -1.8736  -1.8597  -1.7517  -1.7270
    -0.6893  -0.6793  -0.4668  -0.4552   0.4132   0.4603   0.5289   0.5377
     0.5469   0.5697   0.5776   0.5922   0.9111   0.9781   1.0511   1.0648

          k = 0.0000 0.0000-0.4145 ( 19300 PWs)   bands (ev):

   -24.6623 -24.6622 -24.6620 -24.6619 -21.4890 -21.4887 -21.4876 -21.4873
   -19.0367 -19.0366 -19.0236 -19.0235 -18.3946 -18.3946 -18.3869 -18.3869
   -15.6249 -15.6249 -15.6017 -15.6016 -13.7482 -13.7480 -13.6829 -13.6828
   -13.2230 -13.2229 -13.2005 -13.2004 -13.0043 -13.0043 -12.9609 -12.9609
   -12.6655 -12.6654 -12.6444 -12.6444 -11.7046 -11.7045 -11.6451 -11.6450
   -10.4013 -10.4012 -10.3817 -10.3816  -9.6092  -9.6092  -9.5294  -9.5293
    -9.1915  -9.1915  -9.1736  -9.1736  -8.3076  -8.3076  -8.2863  -8.2863
    -7.6590  -7.6589  -7.6513  -7.6512  -7.6170  -7.6170  -7.4643  -7.4642
    -6.8455  -6.8455  -6.7885  -6.7884  -6.3429  -6.3428  -6.3318  -6.3318
    -6.1939  -6.1938  -6.1852  -6.1851  -6.1275  -6.1275  -6.0578  -6.0577
    -5.3734  -5.3733  -5.2796  -5.2795  -5.2367  -5.2366  -5.1808  -5.1807
    -5.0945  -5.0944  -5.0099  -5.0098  -4.7719  -4.7719  -4.6984  -4.6983
    -4.5844  -4.5843  -4.5281  -4.5281  -4.4324  -4.4323  -4.4035  -4.4034
    -4.2749  -4.2748  -4.2376  -4.2375  -4.1632  -4.1631  -4.0923  -4.0922
    -4.0215  -4.0215  -3.9440  -3.9440  -3.8732  -3.8731  -3.8069  -3.8068
    -3.3425  -3.3425  -3.2259  -3.2258  -3.1634  -3.1634  -3.0803  -3.0803
    -2.7202  -2.7201  -2.6741  -2.6741  -2.4710  -2.4709  -2.3542  -2.3541
    -2.1665  -2.1665  -2.0378  -2.0378  -1.8677  -1.8677  -1.7322  -1.7321
    -0.6815  -0.6814  -0.4612  -0.4611   0.4392   0.4392   0.5449   0.5449
     0.5542   0.5542   0.5759   0.5759   0.9429   0.9430   1.0584   1.0585

          k = 0.0000 0.2182 0.0000 ( 19262 PWs)   bands (ev):

   -24.6623 -24.6622 -24.6620 -24.6619 -21.4894 -21.4886 -21.4876 -21.4870
   -19.0370 -19.0360 -19.0245 -19.0228 -18.3950 -18.3935 -18.3877 -18.3866
   -15.6295 -15.6136 -15.6125 -15.5977 -13.7494 -13.7249 -13.7068 -13.6818
   -13.2240 -13.2157 -13.2059 -13.1975 -13.0154 -13.0147 -12.9476 -12.9466
   -12.6701 -12.6615 -12.6551 -12.6408 -11.7151 -11.6746 -11.6736 -11.6381
   -10.4028 -10.3951 -10.3924 -10.3769  -9.6480  -9.6023  -9.5250  -9.4768
    -9.2544  -9.2293  -9.1336  -9.1166  -8.3171  -8.3168  -8.2921  -8.2786
    -7.7248  -7.6892  -7.6270  -7.6133  -7.5585  -7.5454  -7.5431  -7.4698
    -6.8602  -6.8270  -6.7915  -6.7749  -6.3795  -6.3600  -6.3548  -6.3114
    -6.2296  -6.2087  -6.2069  -6.1693  -6.1416  -6.1022  -6.0398  -6.0313
    -5.3648  -5.3435  -5.3109  -5.2543  -5.2381  -5.2244  -5.1927  -5.1799
    -5.0895  -5.0265  -5.0238  -4.9530  -4.8164  -4.7924  -4.6819  -4.6611
    -4.6293  -4.6085  -4.5479  -4.5131  -4.5102  -4.4778  -4.3761  -4.3722
    -4.2899  -4.2618  -4.2299  -4.1918  -4.1575  -4.1514  -4.1387  -4.1097
    -3.9761  -3.9562  -3.9271  -3.9160  -3.9102  -3.8893  -3.8353  -3.8287
    -3.3228  -3.2864  -3.2797  -3.2558  -3.1754  -3.1509  -3.1256  -3.0730
    -2.7034  -2.6857  -2.6839  -2.6621  -2.6148  -2.5100  -2.2888  -2.2622
    -2.1894  -2.0997  -2.0625  -2.0077  -1.8750  -1.8651  -1.7569  -1.7320
    -0.6628  -0.6444  -0.5040  -0.4835   0.4208   0.4855   0.5212   0.5243
     0.5284   0.5760   0.5800   0.5825   0.9194   1.0048   1.0235   1.0577

          k = 0.0000 0.2182 0.2073 ( 19291 PWs)   bands (ev):

   -24.6624 -24.6622 -24.6620 -24.6619 -21.4893 -21.4886 -21.4877 -21.4871
   -19.0369 -19.0361 -19.0242 -19.0230 -18.3949 -18.3939 -18.3874 -18.3866
   -15.6272 -15.6159 -15.6103 -15.5999 -13.7471 -13.7311 -13.7007 -13.6844
   -13.2231 -13.2170 -13.2050 -13.1988 -13.0113 -13.0093 -12.9552 -12.9513
   -12.6679 -12.6606 -12.6531 -12.6428 -11.7100 -11.6863 -11.6625 -11.6421
   -10.4019 -10.3942 -10.3905 -10.3786  -9.6357  -9.5848  -9.5493  -9.4963
    -9.2351  -9.2137  -9.1462  -9.1369  -8.3148  -8.3079  -8.2956  -8.2801
    -7.7014  -7.6776  -7.6367  -7.6230  -7.5987  -7.5821  -7.4928  -7.4618
    -6.8528  -6.8329  -6.7934  -6.7820  -6.3702  -6.3533  -6.3411  -6.3132
    -6.2210  -6.2023  -6.2000  -6.1782  -6.1345  -6.0885  -6.0620  -6.0451
    -5.3646  -5.3451  -5.3070  -5.2634  -5.2373  -5.2224  -5.1990  -5.1778
    -5.0927  -5.0529  -5.0280  -4.9825  -4.8029  -4.7747  -4.7005  -4.6822
    -4.6198  -4.5789  -4.5324  -4.5159  -4.4945  -4.4686  -4.4051  -4.3616
    -4.2767  -4.2517  -4.2238  -4.1994  -4.1825  -4.1553  -4.1272  -4.1031
    -4.0137  -3.9795  -3.9461  -3.9289  -3.8812  -3.8660  -3.8317  -3.8163
    -3.3300  -3.2818  -3.2711  -3.2375  -3.1799  -3.1432  -3.1219  -3.0777
    -2.7165  -2.6974  -2.6815  -2.6681  -2.5663  -2.4660  -2.3377  -2.2873
    -2.1820  -2.0973  -2.0861  -2.0217  -1.8730  -1.8637  -1.7475  -1.7300
    -0.6579  -0.6448  -0.5007  -0.4863   0.4325   0.4781   0.5294   0.5300
     0.5365   0.5678   0.5719   0.5749   0.9299   0.9886   1.0309   1.0535

          k = 0.0000 0.2182-0.4145 ( 19292 PWs)   bands (ev):

   -24.6623 -24.6622 -24.6620 -24.6619 -21.4890 -21.4887 -21.4877 -21.4874
   -19.0366 -19.0365 -19.0237 -19.0236 -18.3946 -18.3946 -18.3869 -18.3868
   -15.6216 -15.6215 -15.6051 -15.6050 -13.7404 -13.7403 -13.6914 -13.6913
   -13.2203 -13.2202 -13.2021 -13.2019 -13.0043 -13.0043 -12.9607 -12.9607
   -12.6627 -12.6627 -12.6478 -12.6478 -11.6986 -11.6984 -11.6516 -11.6515
   -10.3981 -10.3981 -10.3835 -10.3834  -9.5981  -9.5980  -9.5415  -9.5415
    -9.1908  -9.1908  -9.1742  -9.1741  -8.3064  -8.3063  -8.2897  -8.2896
    -7.6561  -7.6560  -7.6470  -7.6469  -7.6215  -7.6215  -7.4637  -7.4637
    -6.8401  -6.8400  -6.7947  -6.7946  -6.3424  -6.3423  -6.3326  -6.3325
    -6.1982  -6.1982  -6.1866  -6.1865  -6.1151  -6.1150  -6.0661  -6.0660
    -5.3562  -5.3561  -5.2894  -5.2893  -5.2280  -5.2279  -5.1872  -5.1871
    -5.0854  -5.0853  -5.0222  -5.0221  -4.7758  -4.7757  -4.7085  -4.7084
    -4.5773  -4.5772  -4.5231  -4.5231  -4.4612  -4.4611  -4.4039  -4.4038
    -4.2413  -4.2413  -4.2238  -4.2238  -4.1750  -4.1750  -4.1106  -4.1105
    -4.0178  -4.0178  -3.9484  -3.9484  -3.8653  -3.8652  -3.8111  -3.8110
    -3.3176  -3.3176  -3.2276  -3.2275  -3.1659  -3.1659  -3.0962  -3.0962
    -2.7148  -2.7148  -2.6797  -2.6797  -2.4561  -2.4560  -2.3650  -2.3649
    -2.1487  -2.1486  -2.0569  -2.0568  -1.8665  -1.8664  -1.7334  -1.7334
    -0.6491  -0.6490  -0.4933  -0.4932   0.4576   0.4576   0.5446   0.5446
     0.5498   0.5498   0.5600   0.5600   0.9573   0.9575   1.0429   1.0430

          k = 0.0000-0.4364 0.0000 ( 19270 PWs)   bands (ev):

   -24.6623 -24.6622 -24.6620 -24.6619 -21.4892 -21.4889 -21.4874 -21.4872
   -19.0365 -19.0363 -19.0238 -19.0237 -18.3943 -18.3942 -18.3872 -18.3872
   -15.6211 -15.6211 -15.6057 -15.6057 -13.7286 -13.7285 -13.7037 -13.7036
   -13.2191 -13.2190 -13.2013 -13.2012 -13.0150 -13.0150 -12.9474 -12.9474
   -12.6632 -12.6631 -12.6511 -12.6511 -11.6948 -11.6948 -11.6565 -11.6564
   -10.3984 -10.3983 -10.3837 -10.3837  -9.6265  -9.6264  -9.5005  -9.5004
    -9.2426  -9.2426  -9.1245  -9.1245  -8.3194  -8.3193  -8.2853  -8.2853
    -7.7090  -7.7090  -7.6109  -7.6109  -7.5588  -7.5587  -7.5059  -7.5059
    -6.8436  -6.8436  -6.7812  -6.7811  -6.3678  -6.3678  -6.3357  -6.3357
    -6.2154  -6.2153  -6.1947  -6.1947  -6.1271  -6.1271  -6.0311  -6.0310
    -5.3363  -5.3363  -5.2983  -5.2983  -5.2293  -5.2293  -5.1757  -5.1756
    -5.0641  -5.0640  -4.9885  -4.9885  -4.8187  -4.8186  -4.6769  -4.6768
    -4.6102  -4.6101  -4.5284  -4.5283  -4.5020  -4.5020  -4.3838  -4.3837
    -4.2531  -4.2531  -4.2113  -4.2113  -4.1537  -4.1537  -4.1301  -4.1301
    -3.9726  -3.9726  -3.9158  -3.9158  -3.9047  -3.9047  -3.8280  -3.8280
    -3.2903  -3.2903  -3.2685  -3.2685  -3.1533  -3.1533  -3.1196  -3.1196
    -2.6938  -2.6938  -2.6726  -2.6726  -2.5614  -2.5613  -2.2744  -2.2744
    -2.1461  -2.1461  -2.0341  -2.0340  -1.8749  -1.8748  -1.7420  -1.7419
    -0.5850  -0.5849  -0.5619  -0.5618   0.4704   0.4704   0.5228   0.5229
     0.5347   0.5347   0.5788   0.5788   0.9701   0.9702   1.0317   1.0318

          k = 0.0000-0.4364 0.2073 ( 19292 PWs)   bands (ev):

   -24.6623 -24.6622 -24.6620 -24.6619 -21.4891 -21.4888 -21.4875 -21.4873
   -19.0365 -19.0364 -19.0238 -19.0237 -18.3944 -18.3944 -18.3870 -18.3870
   -15.6189 -15.6188 -15.6079 -15.6079 -13.7283 -13.7283 -13.7041 -13.7040
   -13.2182 -13.2180 -13.2027 -13.2026 -13.0103 -13.0103 -12.9533 -12.9533
   -12.6611 -12.6611 -12.6517 -12.6516 -11.6925 -11.6925 -11.6584 -11.6583
   -10.3963 -10.3963 -10.3848 -10.3848  -9.6113  -9.6112  -9.5227  -9.5226
    -9.2248  -9.2248  -9.1411  -9.1410  -8.3135  -8.3134  -8.2880  -8.2879
    -7.6903  -7.6903  -7.6227  -7.6226  -7.5928  -7.5927  -7.4793  -7.4793
    -6.8397  -6.8396  -6.7904  -6.7903  -6.3627  -6.3627  -6.3261  -6.3260
    -6.2057  -6.2057  -6.1996  -6.1996  -6.1134  -6.1134  -6.0502  -6.0501
    -5.3344  -5.3343  -5.3010  -5.3010  -5.2281  -5.2280  -5.1817  -5.1816
    -5.0680  -5.0680  -5.0165  -5.0164  -4.7996  -4.7995  -4.6942  -4.6942
    -4.5925  -4.5924  -4.5319  -4.5319  -4.4875  -4.4875  -4.3866  -4.3866
    -4.2456  -4.2456  -4.2030  -4.2030  -4.1667  -4.1666  -4.1302  -4.1302
    -4.0041  -4.0041  -3.9324  -3.9324  -3.8723  -3.8723  -3.8238  -3.8238
    -3.2857  -3.2857  -3.2558  -3.2558  -3.1595  -3.1595  -3.1171  -3.1171
    -2.7026  -2.7025  -2.6798  -2.6798  -2.5146  -2.5145  -2.3104  -2.3104
    -2.1372  -2.1371  -2.0573  -2.0572  -1.8701  -1.8701  -1.7381  -1.7380
    -0.5806  -0.5805  -0.5639  -0.5638   0.4804   0.4805   0.5226   0.5226
     0.5342   0.5342   0.5707   0.5708   0.9751   0.9751   1.0255   1.0255

          k = 0.0000-0.4364-0.4145 ( 19320 PWs)   bands (ev):

   -24.6623 -24.6622 -24.6620 -24.6619 -21.4890 -21.4886 -21.4877 -21.4874
   -19.0365 -19.0364 -19.0238 -19.0237 -18.3946 -18.3946 -18.3869 -18.3869
   -15.6141 -15.6139 -15.6129 -15.6126 -13.7281 -13.7280 -13.7045 -13.7044
   -13.2170 -13.2169 -13.2043 -13.2042 -13.0042 -13.0042 -12.9605 -12.9605
   -12.6563 -12.6561 -12.6551 -12.6550 -11.6900 -11.6900 -11.6606 -11.6606
   -10.3936 -10.3935 -10.3867 -10.3866  -9.5718  -9.5716  -9.5688  -9.5686
    -9.1901  -9.1901  -9.1748  -9.1748  -8.3043  -8.3042  -8.2940  -8.2939
    -7.6530  -7.6529  -7.6417  -7.6417  -7.6277  -7.6277  -7.4635  -7.4635
    -6.8326  -6.8325  -6.8032  -6.8032  -6.3420  -6.3419  -6.3337  -6.3336
    -6.2021  -6.2020  -6.1880  -6.1879  -6.0927  -6.0926  -6.0848  -6.0848
    -5.3199  -5.3198  -5.3197  -5.3196  -5.2161  -5.2160  -5.1954  -5.1953
    -5.0634  -5.0633  -5.0500  -5.0499  -4.7786  -4.7785  -4.7176  -4.7175
    -4.5586  -4.5585  -4.5420  -4.5420  -4.4702  -4.4702  -4.4075  -4.4075
    -4.2093  -4.2093  -4.2040  -4.2040  -4.1905  -4.1905  -4.1341  -4.1341
    -4.0166  -4.0166  -3.9532  -3.9531  -3.8555  -3.8555  -3.8172  -3.8171
    -3.2849  -3.2849  -3.2347  -3.2347  -3.1686  -3.1685  -3.1150  -3.1150
    -2.7072  -2.7071  -2.6892  -2.6892  -2.4357  -2.4356  -2.3819  -2.3819
    -2.1143  -2.1142  -2.0933  -2.0932  -1.8654  -1.8653  -1.7346  -1.7346
    -0.5732  -0.5730  -0.5691  -0.5689   0.5007   0.5008   0.5058   0.5059
     0.5484   0.5484   0.5542   0.5542   0.9816   0.9817   1.0176   1.0177

          k = 0.2500 0.0000 0.0869 ( 19271 PWs)   bands (ev):

   -24.6623 -24.6622 -24.6620 -24.6619 -21.4893 -21.4883 -21.4879 -21.4871
   -19.0370 -19.0360 -19.0244 -19.0227 -18.3967 -18.3953 -18.3861 -18.3849
   -15.6317 -15.6202 -15.6070 -15.5968 -13.7372 -13.7262 -13.6914 -13.6817
   -13.2342 -13.2324 -13.2002 -13.1982 -13.0156 -13.0136 -12.9506 -12.9463
   -12.6742 -12.6687 -12.6504 -12.6407 -11.7090 -11.7005 -11.6501 -11.6375
   -10.4163 -10.3992 -10.3800 -10.3795  -9.6400  -9.5768  -9.5624  -9.4841
    -9.2320  -9.2098  -9.1504  -9.1295  -8.3171  -8.2930  -8.2893  -8.2786
    -7.7260  -7.6727  -7.6693  -7.5912  -7.5867  -7.5569  -7.4989  -7.4738
    -6.8570  -6.8324  -6.7959  -6.7878  -6.3745  -6.3586  -6.3379  -6.3135
    -6.2326  -6.2247  -6.1835  -6.1631  -6.1299  -6.1140  -6.0870  -6.0330
    -5.3558  -5.3292  -5.2944  -5.2806  -5.2601  -5.1868  -5.1635  -5.1559
    -5.1144  -5.0724  -4.9921  -4.9598  -4.8192  -4.7869  -4.6815  -4.6575
    -4.6065  -4.6039  -4.5793  -4.5552  -4.5051  -4.4709  -4.4071  -4.3295
    -4.3010  -4.2990  -4.2379  -4.1739  -4.1529  -4.1265  -4.1249  -4.1068
    -3.9586  -3.9469  -3.9278  -3.9116  -3.9085  -3.8728  -3.8529  -3.8285
    -3.3346  -3.2781  -3.2647  -3.2533  -3.2070  -3.1631  -3.1190  -3.0794
    -2.7764  -2.7315  -2.6984  -2.6745  -2.5318  -2.4183  -2.3178  -2.2595
    -2.1952  -2.1026  -2.0864  -2.0224  -1.8645  -1.8609  -1.7679  -1.7403
    -0.6917  -0.6857  -0.4572  -0.4458   0.4102   0.4578   0.5268   0.5375
     0.5443   0.5696   0.5728   0.5895   0.9465   1.0280   1.0645   1.0708

          k = 0.2500 0.0000 0.2942 ( 19293 PWs)   bands (ev):

   -24.6623 -24.6622 -24.6620 -24.6619 -21.4890 -21.4887 -21.4877 -21.4874
   -19.0367 -19.0364 -19.0236 -19.0235 -18.3961 -18.3961 -18.3855 -18.3853
   -15.6272 -15.6247 -15.6032 -15.6006 -13.7380 -13.7237 -13.6962 -13.6791
   -13.2391 -13.2266 -13.2138 -13.1859 -13.0107 -13.0084 -12.9543 -12.9532
   -12.6719 -12.6708 -12.6469 -12.6435 -11.7042 -11.7021 -11.6548 -11.6353
   -10.4323 -10.4008 -10.3786 -10.3588  -9.6086  -9.6040  -9.5309  -9.5307
    -9.2260  -9.2182  -9.1395  -9.1390  -8.3057  -8.3055  -8.2861  -8.2764
    -7.7047  -7.6855  -7.6369  -7.6269  -7.5838  -7.5387  -7.5083  -7.5019
    -6.8671  -6.8383  -6.7949  -6.7754  -6.3707  -6.3579  -6.3104  -6.2918
    -6.2254  -6.2163  -6.1900  -6.1637  -6.1373  -6.1036  -6.0814  -6.0682
    -5.3643  -5.3143  -5.3013  -5.2847  -5.2510  -5.1871  -5.1750  -5.1629
    -5.1142  -5.1007  -4.9940  -4.9700  -4.8144  -4.7640  -4.7069  -4.6844
    -4.6197  -4.6091  -4.5828  -4.5399  -4.5137  -4.4594  -4.3407  -4.3309
    -4.2842  -4.2777  -4.2181  -4.2023  -4.1718  -4.1572  -4.1227  -4.0905
    -3.9782  -3.9740  -3.9380  -3.9333  -3.8721  -3.8581  -3.8458  -3.8267
    -3.3270  -3.3020  -3.2476  -3.2331  -3.2041  -3.1658  -3.1197  -3.0786
    -2.7666  -2.7398  -2.7075  -2.6654  -2.4637  -2.4013  -2.3678  -2.3028
    -2.1674  -2.1562  -2.0667  -2.0423  -1.8627  -1.8589  -1.7619  -1.7355
    -0.6948  -0.6769  -0.4524  -0.4513   0.4336   0.4386   0.5187   0.5300
     0.5606   0.5722   0.5746   0.5821   0.9728   0.9944   1.0607   1.0794

          k = 0.2500 0.0000-0.3276 ( 19274 PWs)   bands (ev):

   -24.6623 -24.6622 -24.6620 -24.6619 -21.4893 -21.4883 -21.4879 -21.4871
   -19.0372 -19.0358 -19.0244 -19.0227 -18.3966 -18.3952 -18.3861 -18.3851
   -15.6299 -15.6219 -15.6051 -15.5986 -13.7358 -13.7275 -13.6939 -13.6803
   -13.2397 -13.2244 -13.2215 -13.1795 -13.0039 -13.0032 -12.9646 -12.9580
   -12.6728 -12.6660 -12.6477 -12.6431 -11.7027 -11.6914 -11.6738 -11.6278
   -10.4352 -10.4101 -10.3768 -10.3510  -9.6385  -9.5763  -9.5675  -9.4839
    -9.2084  -9.1941  -9.1711  -9.1526  -8.3200  -8.2984  -8.2794  -8.2722
    -7.7117  -7.6688  -7.6492  -7.6298  -7.6094  -7.5472  -7.4959  -7.4741
    -6.8779  -6.8195  -6.8176  -6.7792  -6.3840  -6.3656  -6.3283  -6.3018
    -6.2163  -6.1897  -6.1812  -6.1695  -6.1548  -6.0954  -6.0749  -6.0353
    -5.3696  -5.3256  -5.3053  -5.2920  -5.2151  -5.2092  -5.1815  -5.1805
    -5.1216  -5.0668  -4.9969  -4.9400  -4.7908  -4.7607  -4.7295  -4.6960
    -4.6587  -4.5772  -4.5504  -4.5465  -4.4971  -4.4298  -4.3972  -4.3261
    -4.2682  -4.2558  -4.2126  -4.2002  -4.1779  -4.1622  -4.1459  -4.0940
    -4.0017  -3.9818  -3.9786  -3.9497  -3.8642  -3.8546  -3.8309  -3.7978
    -3.3417  -3.3075  -3.2596  -3.2083  -3.1920  -3.1495  -3.1085  -3.0964
    -2.7408  -2.7219  -2.6987  -2.6392  -2.6189  -2.4958  -2.2905  -2.2226
    -2.2027  -2.1317  -2.0677  -2.0342  -1.8556  -1.8550  -1.7819  -1.7171
    -0.6997  -0.6684  -0.4586  -0.4491   0.4127   0.4659   0.5244   0.5346
     0.5557   0.5637   0.5685   0.5869   0.9600   1.0089   1.0582   1.0806

          k = 0.2500 0.0000-0.1204 ( 19274 PWs)   bands (ev):

   -24.6623 -24.6622 -24.6620 -24.6619 -21.4895 -21.4882 -21.4880 -21.4869
   -19.0374 -19.0356 -19.0248 -19.0224 -18.3968 -18.3948 -18.3865 -18.3849
   -15.6327 -15.6191 -15.6078 -15.5959 -13.7335 -13.7314 -13.6874 -13.6848
   -13.2377 -13.2277 -13.2150 -13.1843 -13.0119 -13.0081 -12.9553 -12.9538
   -12.6749 -12.6640 -12.6507 -12.6410 -11.7071 -11.6905 -11.6713 -11.6276
   -10.4229 -10.4013 -10.3937 -10.3598  -9.6500  -9.5958  -9.5455  -9.4643
    -9.2132  -9.1841  -9.1765  -9.1516  -8.3254  -8.2896  -8.2865  -8.2728
    -7.7217  -7.6949  -7.6433  -7.6313  -7.5843  -7.5574  -7.4825  -7.4604
    -6.8669  -6.8258  -6.8046  -6.7943  -6.3924  -6.3627  -6.3529  -6.3223
    -6.2228  -6.1903  -6.1851  -6.1739  -6.1400  -6.1176  -6.0570  -6.0166
    -5.3558  -5.3448  -5.2985  -5.2923  -5.2380  -5.1879  -5.1819  -5.1634
    -5.1189  -5.0419  -4.9968  -4.9278  -4.7976  -4.7897  -4.6946  -4.6818
    -4.6471  -4.5759  -4.5599  -4.5276  -4.4779  -4.4666  -4.4155  -4.3759
    -4.2815  -4.2714  -4.2273  -4.1874  -4.1531  -4.1503  -4.1218  -4.1156
    -3.9842  -3.9667  -3.9560  -3.9505  -3.8801  -3.8620  -3.8462  -3.7936
    -3.3521  -3.2809  -3.2743  -3.2329  -3.1921  -3.1364  -3.1243  -3.0912
    -2.7439  -2.7256  -2.6856  -2.6517  -2.6377  -2.5200  -2.2486  -2.2137
    -2.2114  -2.0973  -2.0847  -2.0143  -1.8587  -1.8547  -1.7902  -1.7211
    -0.7000  -0.6738  -0.4608  -0.4462   0.4012   0.4731   0.5326   0.5459
     0.5527   0.5529   0.5574   0.5944   0.9414   1.0354   1.0618   1.0716

          k = 0.2500 0.2182 0.0869 ( 19294 PWs)   bands (ev):

   -24.6623 -24.6622 -24.6620 -24.6619 -21.4892 -21.4886 -21.4877 -21.4871
   -19.0368 -19.0361 -19.0242 -19.0230 -18.3965 -18.3955 -18.3859 -18.3851
   -15.6281 -15.6169 -15.6106 -15.6003 -13.7312 -13.7208 -13.6970 -13.6875
   -13.2309 -13.2278 -13.2044 -13.2018 -13.0153 -13.0139 -12.9499 -12.9469
   -12.6710 -12.6646 -12.6542 -12.6449 -11.7053 -11.6983 -11.6516 -11.6418
   -10.4130 -10.3947 -10.3884 -10.3764  -9.6329  -9.5880  -9.5500  -9.4948
    -9.2300  -9.2149  -9.1457  -9.1314  -8.3155  -8.2994  -8.2868  -8.2783
    -7.7186  -7.6820  -7.6544  -7.6008  -7.5836  -7.5536  -7.5024  -7.4784
    -6.8530  -6.8347  -6.7960  -6.7880  -6.3711  -6.3551  -6.3411  -6.3175
    -6.2291  -6.2231  -6.1853  -6.1705  -6.1301  -6.1232  -6.0689  -6.0359
    -5.3464  -5.3251  -5.2970  -5.2865  -5.2559  -5.2011  -5.1648  -5.1593
    -5.0920  -5.0586  -5.0052  -4.9801  -4.8175  -4.7958  -4.6872  -4.6653
    -4.6177  -4.6100  -4.5569  -4.5470  -4.5116  -4.4645  -4.3983  -4.3634
    -4.2844  -4.2689  -4.2280  -4.1883  -4.1612  -4.1503  -4.1183  -4.1068
    -3.9587  -3.9476  -3.9300  -3.9168  -3.9029  -3.8837  -3.8369  -3.8255
    -3.3159  -3.2791  -3.2633  -3.2582  -3.1994  -3.1568  -3.1345  -3.0899
    -2.7646  -2.7321  -2.6987  -2.6795  -2.5142  -2.4343  -2.3070  -2.2670
    -2.1803  -2.1052  -2.0881  -2.0319  -1.8700  -1.8594  -1.7707  -1.7475
    -0.6591  -0.6482  -0.4932  -0.4785   0.4296   0.4756   0.5263   0.5274
     0.5355   0.5669   0.5691   0.5732   0.9607   1.0299   1.0469   1.0718

          k = 0.2500 0.2182 0.2942 ( 19317 PWs)   bands (ev):

   -24.6623 -24.6622 -24.6621 -24.6619 -21.4890 -21.4887 -21.4877 -21.4874
   -19.0366 -19.0364 -19.0237 -19.0235 -18.3961 -18.3961 -18.3854 -18.3854
   -15.6237 -15.6213 -15.6067 -15.6042 -13.7319 -13.7171 -13.7024 -13.6855
   -13.2359 -13.2244 -13.2137 -13.1913 -13.0103 -13.0087 -12.9543 -12.9534
   -12.6680 -12.6675 -12.6507 -12.6478 -11.7024 -11.6981 -11.6555 -11.6404
   -10.4273 -10.4051 -10.3751 -10.3610  -9.5980  -9.5938  -9.5430  -9.5419
    -9.2254  -9.2200  -9.1391  -9.1383  -8.3042  -8.3037  -8.2875  -8.2799
    -7.6958  -7.6813  -7.6429  -7.6359  -7.5739  -7.5328  -7.5208  -7.5021
    -6.8609  -6.8387  -6.7962  -6.7803  -6.3710  -6.3615  -6.3059  -6.2927
    -6.2243  -6.2142  -6.1935  -6.1695  -6.1299  -6.1039  -6.0788  -6.0692
    -5.3529  -5.3142  -5.2947  -5.2807  -5.2563  -5.2081  -5.1771  -5.1707
    -5.0984  -5.0753  -5.0136  -4.9859  -4.8108  -4.7816  -4.7135  -4.6839
    -4.6080  -4.6053  -4.5735  -4.5603  -4.5074  -4.4431  -4.3826  -4.3213
    -4.2837  -4.2421  -4.2249  -4.1949  -4.1776  -4.1508  -4.1411  -4.0953
    -3.9841  -3.9670  -3.9591  -3.9239  -3.8710  -3.8608  -3.8375  -3.8226
    -3.3134  -3.2846  -3.2498  -3.2371  -3.1988  -3.1682  -3.1301  -3.0911
    -2.7597  -2.7372  -2.7062  -2.6735  -2.4494  -2.3954  -2.3693  -2.3150
    -2.1553  -2.1363  -2.0836  -2.0553  -1.8632  -1.8604  -1.7635  -1.7453
    -0.6580  -0.6447  -0.4861  -0.4855   0.4519   0.4569   0.5198   0.5269
     0.5462   0.5516   0.5742   0.5788   0.9815   1.0024   1.0519   1.0707

          k = 0.2500 0.2182-0.3276 ( 19310 PWs)   bands (ev):

   -24.6624 -24.6622 -24.6620 -24.6619 -21.4892 -21.4886 -21.4877 -21.4871
   -19.0370 -19.0360 -19.0242 -19.0230 -18.3964 -18.3954 -18.3859 -18.3852
   -15.6263 -15.6186 -15.6088 -15.6020 -13.7302 -13.7214 -13.6992 -13.6867
   -13.2383 -13.2252 -13.2162 -13.1853 -13.0038 -13.0034 -12.9635 -12.9589
   -12.6694 -12.6629 -12.6517 -12.6466 -11.7017 -11.6892 -11.6699 -11.6349
   -10.4310 -10.4133 -10.3724 -10.3542  -9.6318  -9.5876  -9.5543  -9.4955
    -9.2072  -9.1972  -9.1674  -9.1546  -8.3173  -8.3007  -8.2806  -8.2733
    -7.7039  -7.6734  -7.6443  -7.6274  -7.6066  -7.5614  -7.4934  -7.4764
    -6.8719  -6.8359  -6.8044  -6.7810  -6.3799  -6.3672  -6.3232  -6.3042
    -6.2170  -6.2001  -6.1766  -6.1712  -6.1476  -6.1058  -6.0654  -6.0385
    -5.3617  -5.3195  -5.3062  -5.2878  -5.2250  -5.2201  -5.1881  -5.1839
    -5.1037  -5.0447  -5.0157  -4.9576  -4.7892  -4.7733  -4.7276  -4.6936
    -4.6347  -4.5831  -4.5666  -4.5483  -4.4868  -4.4268  -4.4075  -4.3402
    -4.2770  -4.2354  -4.2144  -4.1888  -4.1849  -4.1637  -4.1491  -4.0924
    -4.0103  -3.9972  -3.9629  -3.9343  -3.8677  -3.8610  -3.8273  -3.8027
    -3.3222  -3.2942  -3.2568  -3.2234  -3.1824  -3.1552  -3.1159  -3.1073
    -2.7411  -2.7203  -2.6888  -2.6469  -2.6022  -2.5126  -2.2794  -2.2321
    -2.1810  -2.1181  -2.0852  -2.0484  -1.8623  -1.8605  -1.7714  -1.7274
    -0.6648  -0.6355  -0.4946  -0.4805   0.4316   0.4824   0.5221   0.5294
     0.5400   0.5624   0.5669   0.5731   0.9717   1.0120   1.0506   1.0725

          k = 0.2500 0.2182-0.1204 ( 19286 PWs)   bands (ev):

   -24.6623 -24.6622 -24.6620 -24.6619 -21.4894 -21.4886 -21.4876 -21.4870
   -19.0371 -19.0358 -19.0245 -19.0228 -18.3965 -18.3951 -18.3862 -18.3852
   -15.6292 -15.6157 -15.6115 -15.5994 -13.7279 -13.7259 -13.6928 -13.6904
   -13.2361 -13.2220 -13.2169 -13.1896 -13.0114 -13.0088 -12.9548 -12.9538
   -12.6717 -12.6608 -12.6546 -12.6444 -11.7046 -11.6899 -11.6674 -11.6345
   -10.4202 -10.4054 -10.3865 -10.3631  -9.6448  -9.6063  -9.5322  -9.4750
    -9.2107  -9.1928  -9.1684  -9.1536  -8.3230  -8.3003  -8.2811  -8.2724
    -7.7154  -7.6932  -7.6398  -7.6213  -7.5924  -7.5682  -7.4815  -7.4637
    -6.8632  -6.8375  -6.7961  -6.7916  -6.3832  -6.3587  -6.3551  -6.3275
    -6.2201  -6.1953  -6.1846  -6.1789  -6.1395  -6.1232  -6.0476  -6.0201
    -5.3544  -5.3306  -5.3077  -5.2922  -5.2405  -5.1983  -5.1783  -5.1710
    -5.0985  -5.0257  -5.0110  -4.9469  -4.8077  -4.7823  -4.6907  -4.6826
    -4.6407  -4.5970  -4.5464  -4.5288  -4.4961  -4.4326  -4.4216  -4.3973
    -4.2691  -4.2489  -4.2417  -4.1956  -4.1727  -4.1387  -4.1320  -4.1110
    -3.9828  -3.9735  -3.9510  -3.9268  -3.8851  -3.8810  -3.8337  -3.7992
    -3.3302  -3.2794  -3.2714  -3.2429  -3.1832  -3.1387  -3.1345  -3.0997
    -2.7322  -2.7243  -2.6833  -2.6533  -2.6245  -2.5385  -2.2419  -2.2194
    -2.1904  -2.1044  -2.0835  -2.0255  -1.8695  -1.8597  -1.7779  -1.7301
    -0.6665  -0.6385  -0.4976  -0.4774   0.4208   0.4893   0.5177   0.5437
     0.5469   0.5538   0.5562   0.5766   0.9564   1.0329   1.0477   1.0726

          k = 0.2500-0.4364 0.0869 ( 19320 PWs)   bands (ev):

   -24.6623 -24.6622 -24.6620 -24.6619 -21.4891 -21.4888 -21.4875 -21.4873
   -19.0365 -19.0363 -19.0237 -19.0236 -18.3960 -18.3960 -18.3855 -18.3855
   -15.6195 -15.6195 -15.6086 -15.6085 -13.7182 -13.7181 -13.7001 -13.7000
   -13.2237 -13.2235 -13.2089 -13.2087 -13.0147 -13.0147 -12.9483 -12.9483
   -12.6630 -12.6629 -12.6550 -12.6549 -11.6987 -11.6987 -11.6498 -11.6498
   -10.4035 -10.4034 -10.3818 -10.3817  -9.6125  -9.6124  -9.5217  -9.5216
    -9.2239  -9.2239  -9.1373  -9.1373  -8.3094  -8.3094  -8.2816  -8.2816
    -7.7007  -7.7007  -7.6269  -7.6269  -7.5666  -7.5666  -7.4931  -7.4931
    -6.8434  -6.8433  -6.7919  -6.7919  -6.3619  -6.3618  -6.3305  -6.3305
    -6.2226  -6.2225  -6.1835  -6.1834  -6.1293  -6.1292  -6.0470  -6.0469
    -5.3254  -5.3253  -5.3027  -5.3027  -5.2300  -5.2299  -5.1625  -5.1625
    -5.0465  -5.0464  -5.0225  -5.0225  -4.8096  -4.8095  -4.6814  -4.6814
    -4.6170  -4.6169  -4.5544  -4.5544  -4.4758  -4.4758  -4.3905  -4.3905
    -4.2493  -4.2493  -4.2181  -4.2181  -4.1703  -4.1702  -4.1124  -4.1123
    -3.9489  -3.9489  -3.9321  -3.9320  -3.8925  -3.8924  -3.8247  -3.8246
    -3.2874  -3.2874  -3.2631  -3.2630  -3.1756  -3.1756  -3.1214  -3.1213
    -2.7429  -2.7429  -2.6911  -2.6911  -2.4735  -2.4734  -2.2849  -2.2848
    -2.1440  -2.1439  -2.0584  -2.0584  -1.8673  -1.8673  -1.7633  -1.7633
    -0.5802  -0.5801  -0.5588  -0.5586   0.4777   0.4777   0.5180   0.5180
     0.5339   0.5339   0.5698   0.5698   0.9963   0.9963   1.0581   1.0582

          k = 0.2500-0.4364 0.2942 ( 19304 PWs)   bands (ev):

   -24.6623 -24.6622 -24.6620 -24.6619 -21.4890 -21.4886 -21.4877 -21.4874
   -19.0365 -19.0363 -19.0237 -19.0236 -18.3961 -18.3961 -18.3854 -18.3854
   -15.6156 -15.6155 -15.6126 -15.6125 -13.7173 -13.7173 -13.7012 -13.7011
   -13.2286 -13.2285 -13.2041 -13.2040 -13.0093 -13.0093 -12.9539 -12.9539
   -12.6600 -12.6598 -12.6575 -12.6574 -11.6973 -11.6972 -11.6509 -11.6508
   -10.4158 -10.4158 -10.3674 -10.3673  -9.5724  -9.5723  -9.5672  -9.5670
    -9.2232  -9.2232  -9.1381  -9.1381  -8.3018  -8.3018  -8.2866  -8.2865
    -7.6787  -7.6787  -7.6496  -7.6495  -7.5500  -7.5500  -7.5129  -7.5129
    -6.8473  -6.8472  -6.7910  -6.7909  -6.3678  -6.3678  -6.2975  -6.2975
    -6.2183  -6.2182  -6.1857  -6.1856  -6.1132  -6.1131  -6.0729  -6.0728
    -5.3274  -5.3274  -5.2847  -5.2847  -5.2409  -5.2409  -5.1763  -5.1762
    -5.0595  -5.0595  -5.0275  -5.0274  -4.8013  -4.8012  -4.7019  -4.7018
    -4.5987  -4.5986  -4.5707  -4.5707  -4.4789  -4.4789  -4.3571  -4.3570
    -4.2431  -4.2430  -4.1999  -4.1999  -4.1870  -4.1869  -4.1175  -4.1175
    -3.9793  -3.9793  -3.9418  -3.9418  -3.8656  -3.8656  -3.8242  -3.8242
    -3.2834  -3.2834  -3.2458  -3.2457  -3.1839  -3.1838  -3.1210  -3.1210
    -2.7448  -2.7448  -2.6919  -2.6918  -2.4169  -2.4169  -2.3441  -2.3440
    -2.1207  -2.1206  -2.0926  -2.0925  -1.8624  -1.8623  -1.7601  -1.7600
    -0.5749  -0.5747  -0.5618  -0.5617   0.4970   0.4970   0.5019   0.5020
     0.5266   0.5267   0.5759   0.5759   1.0014   1.0015   1.0515   1.0516

          k = 0.2500-0.4364-0.3276 ( 19316 PWs)   bands (ev):

   -24.6624 -24.6622 -24.6620 -24.6619 -21.4891 -21.4889 -21.4875 -21.4872
   -19.0365 -19.0364 -19.0237 -19.0236 -18.3959 -18.3959 -18.3856 -18.3856
   -15.6177 -15.6177 -15.6103 -15.6103 -13.7178 -13.7177 -13.7011 -13.7010
   -13.2325 -13.2324 -13.2001 -13.2001 -13.0036 -13.0036 -12.9610 -12.9610
   -12.6611 -12.6610 -12.6548 -12.6548 -11.6953 -11.6953 -11.6525 -11.6525
   -10.4216 -10.4216 -10.3628 -10.3627  -9.6119  -9.6118  -9.5240  -9.5239
    -9.2030  -9.2029  -9.1603  -9.1603  -8.3093  -8.3093  -8.2776  -8.2776
    -7.6869  -7.6869  -7.6317  -7.6316  -7.5896  -7.5896  -7.4846  -7.4846
    -6.8561  -6.8561  -6.7900  -6.7899  -6.3719  -6.3718  -6.3124  -6.3123
    -6.2127  -6.2126  -6.1741  -6.1741  -6.1277  -6.1277  -6.0493  -6.0492
    -5.3364  -5.3364  -5.2931  -5.2931  -5.2316  -5.2316  -5.1889  -5.1888
    -5.0621  -5.0620  -4.9996  -4.9996  -4.7840  -4.7839  -4.7080  -4.7079
    -4.6077  -4.6076  -4.5571  -4.5570  -4.4646  -4.4646  -4.3782  -4.3781
    -4.2410  -4.2409  -4.2029  -4.2028  -4.1922  -4.1922  -4.1075  -4.1075
    -4.0107  -4.0107  -3.9400  -3.9400  -3.8672  -3.8672  -3.8159  -3.8158
    -3.2890  -3.2890  -3.2457  -3.2456  -3.1687  -3.1687  -3.1222  -3.1222
    -2.7307  -2.7307  -2.6651  -2.6651  -2.5566  -2.5566  -2.2546  -2.2545
    -2.1319  -2.1318  -2.0823  -2.0822  -1.8669  -1.8668  -1.7497  -1.7496
    -0.5802  -0.5801  -0.5574  -0.5573   0.4789   0.4789   0.5204   0.5204
     0.5349   0.5349   0.5679   0.5679   0.9984   0.9985   1.0546   1.0547

          k = 0.2500-0.4364-0.1204 ( 19298 PWs)   bands (ev):

   -24.6623 -24.6622 -24.6620 -24.6619 -21.4892 -21.4890 -21.4873 -21.4871
   -19.0365 -19.0363 -19.0237 -19.0236 -18.3958 -18.3958 -18.3857 -18.3857
   -15.6204 -15.6204 -15.6076 -15.6076 -13.7186 -13.7185 -13.7000 -13.6999
   -13.2290 -13.2290 -13.2034 -13.2033 -13.0102 -13.0102 -12.9541 -12.9541
   -12.6636 -12.6636 -12.6527 -12.6526 -11.6968 -11.6968 -11.6514 -11.6514
   -10.4132 -10.4131 -10.3732 -10.3732  -9.6282  -9.6282  -9.5023  -9.5022
    -9.2034  -9.2034  -9.1594  -9.1594  -8.3142  -8.3142  -8.2753  -8.2753
    -7.7015  -7.7014  -7.6196  -7.6196  -7.5938  -7.5938  -7.4733  -7.4733
    -6.8529  -6.8528  -6.7900  -6.7899  -6.3669  -6.3668  -6.3426  -6.3426
    -6.2090  -6.2090  -6.1836  -6.1836  -6.1339  -6.1338  -6.0310  -6.0310
    -5.3338  -5.3338  -5.3090  -5.3089  -5.2223  -5.2223  -5.1745  -5.1744
    -5.0544  -5.0544  -4.9879  -4.9879  -4.7951  -4.7950  -4.6852  -4.6852
    -4.6226  -4.6225  -4.5400  -4.5399  -4.4638  -4.4637  -4.4095  -4.4095
    -4.2547  -4.2546  -4.2178  -4.2178  -4.1715  -4.1715  -4.1118  -4.1117
    -3.9814  -3.9813  -3.9231  -3.9230  -3.8954  -3.8953  -3.8148  -3.8148
    -3.2927  -3.2927  -3.2588  -3.2587  -3.1640  -3.1640  -3.1223  -3.1223
    -2.7230  -2.7229  -2.6671  -2.6671  -2.5832  -2.5832  -2.2285  -2.2285
    -2.1475  -2.1474  -2.0543  -2.0543  -1.8721  -1.8721  -1.7525  -1.7525
    -0.5840  -0.5839  -0.5558  -0.5557   0.4692   0.4692   0.5300   0.5300
     0.5440   0.5440   0.5572   0.5572   0.9938   0.9939   1.0607   1.0608

          k =-0.5000 0.0000-0.1738 ( 19314 PWs)   bands (ev):

   -24.6623 -24.6622 -24.6620 -24.6619 -21.4889 -21.4886 -21.4877 -21.4874
   -19.0365 -19.0364 -19.0236 -19.0235 -18.3973 -18.3973 -18.3843 -18.3843
   -15.6270 -15.6270 -15.6022 -15.6021 -13.7049 -13.7048 -13.7005 -13.7004
   -13.2440 -13.2439 -13.1987 -13.1986 -13.0145 -13.0145 -12.9496 -12.9496
   -12.6735 -12.6735 -12.6472 -12.6471 -11.7021 -11.7020 -11.6449 -11.6449
   -10.4161 -10.4161 -10.3733 -10.3732  -9.6104  -9.6103  -9.5282  -9.5282
    -9.1863  -9.1863  -9.1686  -9.1685  -8.3006  -8.3006  -8.2778  -8.2778
    -7.6976  -7.6976  -7.6436  -7.6436  -7.5718  -7.5717  -7.4759  -7.4758
    -6.8413  -6.8412  -6.8049  -6.8048  -6.3533  -6.3533  -6.3209  -6.3208
    -6.2378  -6.2377  -6.1682  -6.1681  -6.1414  -6.1413  -6.0619  -6.0618
    -5.3370  -5.3369  -5.2875  -5.2875  -5.2086  -5.2085  -5.1743  -5.1742
    -5.0739  -5.0738  -4.9749  -4.9748  -4.8046  -4.8045  -4.6693  -4.6693
    -4.6441  -4.6440  -4.5798  -4.5797  -4.4407  -4.4407  -4.4183  -4.4182
    -4.2796  -4.2796  -4.2173  -4.2172  -4.1217  -4.1217  -4.1114  -4.1113
    -3.9491  -3.9491  -3.9258  -3.9258  -3.8786  -3.8785  -3.8332  -3.8332
    -3.3012  -3.3011  -3.2513  -3.2513  -3.1831  -3.1831  -3.1284  -3.1283
    -2.7848  -2.7847  -2.7056  -2.7056  -2.3976  -2.3975  -2.3127  -2.3126
    -2.1559  -2.1558  -2.0708  -2.0707  -1.8634  -1.8633  -1.7586  -1.7585
    -0.6892  -0.6891  -0.4429  -0.4428   0.4339   0.4339   0.5440   0.5440
     0.5487   0.5488   0.5695   0.5696   1.0236   1.0237   1.0821   1.0822

          k =-0.5000 0.0000 0.0334 ( 19317 PWs)   bands (ev):

   -24.6624 -24.6622 -24.6620 -24.6619 -21.4893 -21.4883 -21.4880 -21.4871
   -19.0371 -19.0357 -19.0244 -19.0227 -18.3978 -18.3965 -18.3850 -18.3839
   -15.6309 -15.6230 -15.6054 -15.5988 -13.7061 -13.7039 -13.7014 -13.7000
   -13.2558 -13.2318 -13.2149 -13.1826 -13.0114 -13.0072 -12.9563 -12.9534
   -12.6773 -12.6693 -12.6496 -12.6442 -11.7116 -11.6882 -11.6531 -11.6404
   -10.4469 -10.4010 -10.3810 -10.3505  -9.6426  -9.5728  -9.5669  -9.4841
    -9.2082  -9.1895  -9.1656  -9.1530  -8.3198  -8.2873  -8.2746  -8.2729
    -7.7263  -7.6578  -7.6557  -7.6151  -7.6140  -7.5339  -7.5106  -7.4731
    -6.8724  -6.8237  -6.8193  -6.7898  -6.3880  -6.3661  -6.3256  -6.3022
    -6.2351  -6.2047  -6.1797  -6.1732  -6.1528  -6.1032  -6.0776  -6.0320
    -5.3436  -5.3428  -5.2865  -5.2768  -5.2467  -5.1874  -5.1828  -5.1595
    -5.0818  -5.0613  -4.9938  -4.9339  -4.8063  -4.7954  -4.7100  -4.6811
    -4.6704  -4.6138  -4.5755  -4.5377  -4.4817  -4.4597  -4.4274  -4.3512
    -4.2684  -4.2448  -4.2201  -4.2012  -4.1413  -4.1387  -4.1222  -4.1184
    -3.9874  -3.9637  -3.9385  -3.9360  -3.8703  -3.8559  -3.8546  -3.8021
    -3.3254  -3.2834  -3.2773  -3.2153  -3.1968  -3.1639  -3.1311  -3.1250
    -2.7863  -2.7630  -2.7075  -2.6771  -2.5522  -2.4550  -2.2633  -2.2083
    -2.1988  -2.1274  -2.0843  -2.0468  -1.8576  -1.8538  -1.7920  -1.7318
    -0.7015  -0.6738  -0.4500  -0.4401   0.4089   0.4642   0.5245   0.5324
     0.5511   0.5616   0.5661   0.5845   1.0092   1.0466   1.0630   1.0934

          k =-0.5000 0.0000-0.5884 ( 19322 PWs)   bands (ev):

   -24.6624 -24.6622 -24.6620 -24.6619 -21.4894 -21.4883 -21.4880 -21.4870
   -19.0374 -19.0354 -19.0249 -19.0224 -18.3980 -18.3960 -18.3854 -18.3838
   -15.6325 -15.6213 -15.6067 -15.5975 -13.7066 -13.7037 -13.7020 -13.7000
   -13.2606 -13.2268 -13.2217 -13.1760 -13.0038 -13.0021 -12.9622 -12.9606
   -12.6776 -12.6686 -12.6505 -12.6428 -11.7155 -11.6791 -11.6565 -11.6415
   -10.4589 -10.4137 -10.3635 -10.3443  -9.6528  -9.5917  -9.5454  -9.4664
    -9.2196  -9.1955  -9.1635  -9.1450  -8.3276  -8.2870  -8.2702  -8.2678
    -7.7299  -7.6790  -7.6238  -7.6124  -7.6085  -7.5418  -7.5211  -7.4797
    -6.8896  -6.8312  -6.8044  -6.7936  -6.4109  -6.3841  -6.3174  -6.2975
    -6.2258  -6.1940  -6.1778  -6.1647  -6.1402  -6.1290  -6.0369  -6.0353
    -5.3491  -5.3463  -5.2827  -5.2688  -5.2643  -5.1944  -5.1841  -5.1500
    -5.0833  -5.0516  -4.9982  -4.9080  -4.8042  -4.7830  -4.7501  -4.6843
    -4.6811  -4.5830  -4.5788  -4.5251  -4.4912  -4.4776  -4.4374  -4.2976
    -4.2440  -4.2373  -4.2073  -4.1848  -4.1555  -4.1538  -4.1471  -4.1247
    -4.0219  -3.9809  -3.9715  -3.9409  -3.8585  -3.8415  -3.8355  -3.8025
    -3.3353  -3.2848  -3.2767  -3.2037  -3.2006  -3.1525  -3.1331  -3.1218
    -2.7641  -2.7504  -2.7074  -2.6408  -2.6051  -2.5747  -2.2188  -2.2064
    -2.1745  -2.1182  -2.0887  -2.0343  -1.8519  -1.8373  -1.8158  -1.7218
    -0.7056  -0.6666  -0.4541  -0.4406   0.4010   0.4781   0.5152   0.5265
     0.5422   0.5692   0.5734   0.5896   1.0056   1.0528   1.0606   1.0939

          k =-0.5000 0.2182-0.1738 ( 19308 PWs)   bands (ev):

   -24.6623 -24.6622 -24.6620 -24.6619 -21.4890 -21.4887 -21.4876 -21.4874
   -19.0365 -19.0364 -19.0236 -19.0235 -18.3973 -18.3973 -18.3843 -18.3842
   -15.6235 -15.6234 -15.6058 -15.6058 -13.7040 -13.7039 -13.7006 -13.7005
   -13.2382 -13.2380 -13.2057 -13.2056 -13.0144 -13.0144 -12.9494 -12.9494
   -12.6698 -12.6698 -12.6511 -12.6511 -11.7015 -11.7014 -11.6449 -11.6449
   -10.4113 -10.4112 -10.3776 -10.3775  -9.5989  -9.5988  -9.5405  -9.5405
    -9.1873  -9.1873  -9.1680  -9.1680  -8.2976  -8.2975  -8.2801  -8.2801
    -7.6881  -7.6881  -7.6489  -7.6489  -7.5780  -7.5780  -7.4725  -7.4724
    -6.8397  -6.8396  -6.8069  -6.8068  -6.3516  -6.3516  -6.3262  -6.3261
    -6.2337  -6.2336  -6.1738  -6.1737  -6.1292  -6.1291  -6.0676  -6.0675
    -5.3281  -5.3280  -5.2804  -5.2804  -5.2207  -5.2206  -5.1700  -5.1699
    -5.0674  -5.0673  -4.9961  -4.9960  -4.8086  -4.8086  -4.6825  -4.6825
    -4.6277  -4.6276  -4.5797  -4.5796  -4.4432  -4.4431  -4.4131  -4.4130
    -4.2734  -4.2733  -4.2140  -4.2140  -4.1398  -4.1398  -4.1065  -4.1065
    -3.9528  -3.9527  -3.9212  -3.9212  -3.8828  -3.8828  -3.8285  -3.8285
    -3.2941  -3.2940  -3.2493  -3.2493  -3.1878  -3.1878  -3.1309  -3.1308
    -2.7765  -2.7764  -2.7094  -2.7093  -2.3840  -2.3839  -2.3224  -2.3223
    -2.1434  -2.1434  -2.0808  -2.0808  -1.8618  -1.8617  -1.7711  -1.7710
    -0.6530  -0.6529  -0.4785  -0.4784   0.4522   0.4522   0.5368   0.5368
     0.5483   0.5483   0.5575   0.5575   1.0225   1.0226   1.0839   1.0840

          k =-0.5000 0.2182 0.0334 ( 19319 PWs)   bands (ev):

   -24.6623 -24.6622 -24.6620 -24.6619 -21.4892 -21.4886 -21.4877 -21.4871
   -19.0369 -19.0359 -19.0242 -19.0230 -18.3976 -18.3967 -18.3848 -18.3840
   -15.6272 -15.6195 -15.6092 -15.6024 -13.7049 -13.7033 -13.7015 -13.7003
   -13.2508 -13.2256 -13.2210 -13.1900 -13.0107 -13.0078 -12.9558 -12.9537
   -12.6735 -12.6657 -12.6539 -12.6479 -11.7082 -11.6919 -11.6503 -11.6416
   -10.4402 -10.4083 -10.3754 -10.3544  -9.6342  -9.5847  -9.5543  -9.4958
    -9.2059  -9.1925  -9.1638  -9.1548  -8.3158  -8.2928  -8.2745  -8.2706
    -7.7179  -7.6711  -7.6467  -7.6196  -7.6037  -7.5543  -7.4976  -7.4757
    -6.8686  -6.8397  -6.8062  -6.7899  -6.3836  -6.3680  -6.3224  -6.3051
    -6.2331  -6.2099  -6.1833  -6.1640  -6.1533  -6.1143  -6.0659  -6.0360
    -5.3496  -5.3117  -5.2853  -5.2767  -5.2564  -5.2047  -5.1733  -5.1600
    -5.0786  -5.0452  -5.0150  -4.9557  -4.8031  -4.7915  -4.7117  -4.6824
    -4.6670  -4.6124  -4.5770  -4.5586  -4.4750  -4.4476  -4.4054  -4.3681
    -4.2577  -4.2488  -4.2329  -4.1981  -4.1637  -4.1373  -4.1210  -4.1084
    -3.9845  -3.9543  -3.9415  -3.9278  -3.8879  -3.8690  -3.8322  -3.8061
    -3.3113  -3.2824  -3.2717  -3.2298  -3.1895  -3.1680  -3.1337  -3.1280
    -2.7739  -2.7577  -2.7087  -2.6817  -2.5373  -2.4678  -2.2533  -2.2147
    -2.1802  -2.1165  -2.0977  -2.0566  -1.8687  -1.8509  -1.7915  -1.7452
    -0.6656  -0.6384  -0.4878  -0.4730   0.4284   0.4802   0.5207   0.5276
     0.5365   0.5606   0.5638   0.5735   1.0118   1.0346   1.0745   1.0925

          k =-0.5000 0.2182-0.5884 ( 19308 PWs)   bands (ev):

   -24.6623 -24.6622 -24.6620 -24.6619 -21.4894 -21.4887 -21.4876 -21.4870
   -19.0371 -19.0357 -19.0245 -19.0228 -18.3977 -18.3963 -18.3851 -18.3840
   -15.6288 -15.6178 -15.6106 -15.6010 -13.7052 -13.7031 -13.7022 -13.7003
   -13.2559 -13.2284 -13.2193 -13.1835 -13.0034 -13.0022 -12.9619 -12.9608
   -12.6740 -12.6648 -12.6548 -12.6465 -11.7109 -11.6863 -11.6518 -11.6423
   -10.4518 -10.4199 -10.3604 -10.3468  -9.6461  -9.6028  -9.5329  -9.4771
    -9.2164  -9.1991  -9.1606  -9.1474  -8.3234  -8.2960  -8.2664  -8.2662
    -7.7233  -7.6871  -7.6217  -7.6068  -7.6002  -7.5553  -7.5162  -7.4859
    -6.8843  -6.8471  -6.7939  -6.7903  -6.4036  -6.3853  -6.3118  -6.2995
    -6.2263  -6.2053  -6.1717  -6.1652  -6.1428  -6.1337  -6.0347  -6.0336
    -5.3602  -5.3016  -5.2927  -5.2802  -5.2675  -5.2038  -5.1774  -5.1530
    -5.0826  -5.0286  -5.0191  -4.9301  -4.7891  -4.7780  -4.7389  -4.6891
    -4.6871  -4.5934  -4.5699  -4.5626  -4.4760  -4.4754  -4.3965  -4.3273
    -4.2468  -4.2333  -4.2277  -4.1974  -4.1635  -4.1622  -4.1249  -4.1125
    -4.0014  -3.9768  -3.9639  -3.9450  -3.8659  -3.8651  -3.8200  -3.8055
    -3.3183  -3.2791  -3.2772  -3.2307  -3.1816  -3.1563  -3.1337  -3.1270
    -2.7497  -2.7490  -2.6943  -2.6364  -2.6090  -2.5891  -2.1993  -2.1986
    -2.1767  -2.1056  -2.1054  -2.0442  -1.8672  -1.8518  -1.7944  -1.7340
    -0.6703  -0.6318  -0.4928  -0.4720   0.4205   0.4925   0.5114   0.5243
     0.5262   0.5683   0.5708   0.5796   1.0090   1.0365   1.0752   1.0933

          k =-0.5000-0.4364-0.1738 ( 19308 PWs)   bands (ev):

   -24.6623 -24.6622 -24.6620 -24.6619 -21.4890 -21.4887 -21.4876 -21.4874
   -19.0364 -19.0363 -19.0237 -19.0236 -18.3973 -18.3973 -18.3843 -18.3842
   -15.6157 -15.6155 -15.6139 -15.6137 -13.7030 -13.7029 -13.7009 -13.7008
   -13.2261 -13.2260 -13.2189 -13.2187 -13.0143 -13.0143 -12.9493 -12.9493
   -12.6618 -12.6617 -12.6596 -12.6595 -11.7008 -11.7008 -11.6449 -11.6449
   -10.4046 -10.4045 -10.3838 -10.3837  -9.5729  -9.5728  -9.5676  -9.5674
    -9.1883  -9.1883  -9.1675  -9.1675  -8.2932  -8.2931  -8.2839  -8.2838
    -7.6672  -7.6671  -7.6670  -7.6670  -7.5835  -7.5835  -7.4696  -7.4695
    -6.8379  -6.8378  -6.8095  -6.8094  -6.3483  -6.3482  -6.3330  -6.3329
    -6.2286  -6.2286  -6.1796  -6.1795  -6.1149  -6.1149  -6.0760  -6.0759
    -5.3168  -5.3167  -5.2755  -5.2755  -5.2309  -5.2307  -5.1674  -5.1673
    -5.0452  -5.0451  -5.0327  -5.0326  -4.8114  -4.8113  -4.6936  -4.6936
    -4.6180  -4.6179  -4.5753  -4.5752  -4.4285  -4.4285  -4.4285  -4.4284
    -4.2422  -4.2422  -4.2407  -4.2407  -4.1436  -4.1436  -4.1076  -4.1076
    -3.9546  -3.9545  -3.9208  -3.9207  -3.8848  -3.8848  -3.8243  -3.8243
    -3.2850  -3.2850  -3.2492  -3.2491  -3.1929  -3.1928  -3.1328  -3.1328
    -2.7669  -2.7669  -2.7142  -2.7141  -2.3622  -2.3621  -2.3399  -2.3398
    -2.1218  -2.1217  -2.1001  -2.0999  -1.8586  -1.8585  -1.7851  -1.7850
    -0.5753  -0.5751  -0.5558  -0.5557   0.4958   0.4959   0.4987   0.4988
     0.5439   0.5439   0.5552   0.5553   1.0214   1.0215   1.0856   1.0857

          k =-0.5000-0.4364 0.0334 ( 19312 PWs)   bands (ev):

   -24.6623 -24.6622 -24.6620 -24.6619 -21.4891 -21.4889 -21.4875 -21.4872
   -19.0365 -19.0363 -19.0237 -19.0236 -18.3972 -18.3972 -18.3844 -18.3844
   -15.6184 -15.6183 -15.6110 -15.6109 -13.7030 -13.7030 -13.7013 -13.7012
   -13.2373 -13.2373 -13.2074 -13.2074 -13.0092 -13.0092 -12.9547 -12.9546
   -12.6641 -12.6640 -12.6568 -12.6567 -11.7002 -11.7001 -11.6453 -11.6452
   -10.4242 -10.4242 -10.3643 -10.3643  -9.6112  -9.6111  -9.5247  -9.5246
    -9.1996  -9.1996  -9.1591  -9.1591  -8.3051  -8.3051  -8.2714  -8.2714
    -7.6954  -7.6954  -7.6308  -7.6308  -7.5828  -7.5827  -7.4839  -7.4838
    -6.8570  -6.8570  -6.7948  -6.7947  -6.3745  -6.3745  -6.3139  -6.3139
    -6.2236  -6.2235  -6.1742  -6.1741  -6.1347  -6.1347  -6.0481  -6.0481
    -5.3260  -5.3260  -5.2759  -5.2759  -5.2382  -5.2380  -5.1645  -5.1645
    -5.0563  -5.0562  -5.0033  -5.0033  -4.7938  -4.7938  -4.6962  -4.6962
    -4.6461  -4.6460  -4.5713  -4.5712  -4.4482  -4.4481  -4.3863  -4.3862
    -4.2594  -4.2593  -4.2178  -4.2178  -4.1558  -4.1557  -4.1103  -4.1103
    -3.9642  -3.9641  -3.9330  -3.9329  -3.8856  -3.8856  -3.8164  -3.8163
    -3.2870  -3.2870  -3.2559  -3.2559  -3.1784  -3.1784  -3.1343  -3.1342
    -2.7572  -2.7572  -2.6975  -2.6975  -2.5013  -2.5013  -2.2322  -2.2322
    -2.1393  -2.1393  -2.0834  -2.0834  -1.8659  -1.8659  -1.7729  -1.7729
    -0.5795  -0.5794  -0.5528  -0.5527   0.4760   0.4760   0.5162   0.5162
     0.5349   0.5349   0.5674   0.5675   1.0204   1.0204   1.0869   1.0869

          k =-0.5000-0.4364-0.5884 ( 19296 PWs)   bands (ev):

   -24.6623 -24.6622 -24.6620 -24.6619 -21.4892 -21.4890 -21.4873 -21.4871
   -19.0365 -19.0364 -19.0237 -19.0236 -18.3970 -18.3970 -18.3846 -18.3846
   -15.6198 -15.6198 -15.6095 -15.6094 -13.7031 -13.7030 -13.7016 -13.7016
   -13.2431 -13.2431 -13.2015 -13.2014 -13.0027 -13.0027 -12.9614 -12.9613
   -12.6648 -12.6647 -12.6556 -12.6555 -11.6995 -11.6995 -11.6456 -11.6455
   -10.4355 -10.4355 -10.3533 -10.3533  -9.6267  -9.6267  -9.5041  -9.5041
    -9.2079  -9.2079  -9.1538  -9.1538  -8.3115  -8.3115  -8.2644  -8.2643
    -7.7064  -7.7064  -7.6086  -7.6086  -7.5821  -7.5820  -7.5014  -7.5014
    -6.8689  -6.8689  -6.7872  -6.7872  -6.3907  -6.3907  -6.3042  -6.3042
    -6.2209  -6.2208  -6.1665  -6.1665  -6.1424  -6.1424  -6.0323  -6.0323
    -5.3346  -5.3345  -5.2771  -5.2770  -5.2419  -5.2418  -5.1634  -5.1634
    -5.0608  -5.0607  -4.9801  -4.9800  -4.7742  -4.7741  -4.7043  -4.7043
    -4.6633  -4.6632  -4.5684  -4.5684  -4.4591  -4.4590  -4.3602  -4.3602
    -4.2646  -4.2646  -4.2053  -4.2052  -4.1657  -4.1657  -4.1125  -4.1124
    -3.9756  -3.9756  -3.9513  -3.9513  -3.8785  -3.8785  -3.8115  -3.8115
    -3.2885  -3.2885  -3.2596  -3.2595  -3.1666  -3.1665  -3.1356  -3.1356
    -2.7443  -2.7442  -2.6463  -2.6462  -2.6151  -2.6150  -2.1866  -2.1866
    -2.1498  -2.1498  -2.0731  -2.0731  -1.8717  -1.8717  -1.7625  -1.7624
    -0.5830  -0.5829  -0.5506  -0.5505   0.4679   0.4679   0.5158   0.5159
     0.5377   0.5377   0.5741   0.5741   1.0194   1.0195   1.0880   1.0881

     highest occupied level (ev):     1.0939

!    total energy              =   -1089.62683029 Ry
     Harris-Foulkes estimate   =   -1089.62683031 Ry
     estimated scf accuracy    <       0.00000003 Ry

     The total energy is the sum of the following terms:

     one-electron contribution =    -889.42794367 Ry
     hartree contribution      =     556.06329860 Ry
     xc contribution           =    -313.13646851 Ry
     ewald contribution        =    -442.67595598 Ry
     Dispersion Correction     =      -0.44976073 Ry

     convergence has been achieved in  12 iterations

     Forces acting on atoms (cartesian axes, Ry/au):

     atom    1 type  1   force =    -0.01333193    0.00595507   -0.00254899
     atom    2 type  1   force =     0.00147432   -0.00373197    0.01064453
     atom    3 type  1   force =     0.09304267   -0.09353072    0.08886804
     atom    4 type  1   force =    -0.00071585    0.00479878   -0.00794813
     atom    5 type  1   force =    -0.05906490   -0.06587311    0.32286285
     atom    6 type  1   force =    -0.17725019    0.14604107   -0.11270526
     atom    7 type  1   force =    -0.23322339    0.05913085    0.11430407
     atom    8 type  1   force =     0.04747151    0.08550459   -0.41868183
     atom    9 type  1   force =    -0.00816145    0.00400535    0.00182575
     atom   10 type  1   force =    -0.00047610   -0.06322772    0.22079878
     atom   11 type  2   force =     0.18528575    0.18353827   -0.04494100
     atom   12 type  2   force =    -0.22921705    0.09734945   -0.05912268
     atom   13 type  2   force =     0.04574860   -0.20954921   -0.15001700
     atom   14 type  1   force =     0.19751312   -0.05102671   -0.12576099
     atom   15 type  2   force =     0.02964963   -0.09469044    0.23728616
     atom   16 type  2   force =    -0.20858990   -0.10834463   -0.11495365
     atom   17 type  2   force =    -0.02636505    0.25761834    0.01084499
     atom   18 type  5   force =     0.02010322   -0.01771578   -0.03514162
     atom   19 type  4   force =    -0.01523445    0.00364290    0.00185110
     atom   20 type  3   force =     0.53282346   -0.21624790   -0.15655655
     atom   21 type  2   force =    -0.52445857    0.20751152    0.16832399
     atom   22 type  3   force =    -0.00860171   -0.00942246    0.02341175
     atom   23 type  2   force =    -0.11403851    0.10682288   -0.09778823
     atom   24 type  2   force =     0.06604800    0.07896041   -0.37331673
     atom   25 type  2   force =    -0.05140199   -0.09785796    0.46358666
     atom   26 type  2   force =     0.27474688   -0.07402568   -0.12721609
     atom   27 type  2   force =     0.18291391   -0.16403314    0.15483555
     atom   28 type  1   force =    -0.00147432   -0.00373197   -0.01064453
     atom   29 type  1   force =    -0.00147432    0.00373197   -0.01064453
     atom   30 type  1   force =     0.00147432    0.00373197    0.01064453
     atom   31 type  1   force =     0.01333193    0.00595507    0.00254899
     atom   32 type  1   force =     0.01333193   -0.00595507    0.00254899
     atom   33 type  1   force =    -0.01333193   -0.00595507   -0.00254899
     atom   34 type  1   force =    -0.09304267   -0.09353072   -0.08886804
     atom   35 type  1   force =    -0.09304267    0.09353072   -0.08886804
     atom   36 type  1   force =     0.09304267    0.09353072    0.08886804
     atom   37 type  1   force =     0.00071585    0.00479878    0.00794813
     atom   38 type  1   force =     0.00071585   -0.00479878    0.00794813
     atom   39 type  1   force =    -0.00071585   -0.00479878   -0.00794813
     atom   40 type  1   force =     0.05906490   -0.06587311   -0.32286285
     atom   41 type  1   force =     0.05906490    0.06587311   -0.32286285
     atom   42 type  1   force =    -0.05906490    0.06587311    0.32286285
     atom   43 type  1   force =     0.17725019    0.14604107    0.11270526
     atom   44 type  1   force =     0.17725019   -0.14604107    0.11270526
     atom   45 type  1   force =    -0.17725019   -0.14604107   -0.11270526
     atom   46 type  1   force =     0.23322339    0.05913085   -0.11430407
     atom   47 type  1   force =     0.23322339   -0.05913085   -0.11430407
     atom   48 type  1   force =    -0.23322339   -0.05913085    0.11430407
     atom   49 type  1   force =    -0.04747151    0.08550459    0.41868183
     atom   50 type  1   force =    -0.04747151   -0.08550459    0.41868183
     atom   51 type  1   force =     0.04747151   -0.08550459   -0.41868183
     atom   52 type  1   force =     0.00816145    0.00400535   -0.00182575
     atom   53 type  1   force =     0.00816145   -0.00400535   -0.00182575
     atom   54 type  1   force =    -0.00816145   -0.00400535    0.00182575
     atom   55 type  1   force =     0.00047610   -0.06322772   -0.22079878
     atom   56 type  1   force =     0.00047610    0.06322772   -0.22079878
     atom   57 type  1   force =    -0.00047610    0.06322772    0.22079878
     atom   58 type  2   force =    -0.18528575    0.18353827    0.04494100
     atom   59 type  2   force =    -0.18528575   -0.18353827    0.04494100
     atom   60 type  2   force =     0.18528575   -0.18353827   -0.04494100
     atom   61 type  2   force =     0.22921705    0.09734945    0.05912268
     atom   62 type  2   force =     0.22921705   -0.09734945    0.05912268
     atom   63 type  2   force =    -0.22921705   -0.09734945   -0.05912268
     atom   64 type  2   force =    -0.04574860   -0.20954921    0.15001700
     atom   65 type  2   force =    -0.04574860    0.20954921    0.15001700
     atom   66 type  2   force =     0.04574860    0.20954921   -0.15001700
     atom   67 type  1   force =    -0.19751312   -0.05102671    0.12576099
     atom   68 type  1   force =    -0.19751312    0.05102671    0.12576099
     atom   69 type  1   force =     0.19751312    0.05102671   -0.12576099
     atom   70 type  2   force =    -0.02964963   -0.09469044   -0.23728616
     atom   71 type  2   force =    -0.02964963    0.09469044   -0.23728616
     atom   72 type  2   force =     0.02964963    0.09469044    0.23728616
     atom   73 type  2   force =     0.20858990   -0.10834463    0.11495365
     atom   74 type  2   force =     0.20858990    0.10834463    0.11495365
     atom   75 type  2   force =    -0.20858990    0.10834463   -0.11495365
     atom   76 type  2   force =     0.02636505    0.25761834   -0.01084499
     atom   77 type  2   force =     0.02636505   -0.25761834   -0.01084499
     atom   78 type  2   force =    -0.02636505   -0.25761834    0.01084499
     atom   79 type  5   force =    -0.02010322   -0.01771578    0.03514162
     atom   80 type  5   force =    -0.02010322    0.01771578    0.03514162
     atom   81 type  5   force =     0.02010322    0.01771578   -0.03514162
     atom   82 type  4   force =     0.01523445    0.00364290   -0.00185110
     atom   83 type  4   force =     0.01523445   -0.00364290   -0.00185110
     atom   84 type  4   force =    -0.01523445   -0.00364290    0.00185110
     atom   85 type  3   force =    -0.53282346   -0.21624790    0.15655655
     atom   86 type  3   force =    -0.53282346    0.21624790    0.15655655
     atom   87 type  3   force =     0.53282346    0.21624790   -0.15655655
     atom   88 type  2   force =     0.52445857    0.20751152   -0.16832399
     atom   89 type  2   force =     0.52445857   -0.20751152   -0.16832399
     atom   90 type  2   force =    -0.52445857   -0.20751152    0.16832399
     atom   91 type  3   force =     0.00860171   -0.00942246   -0.02341175
     atom   92 type  3   force =     0.00860171    0.00942246   -0.02341175
     atom   93 type  3   force =    -0.00860171    0.00942246    0.02341175
     atom   94 type  2   force =     0.11403851    0.10682288    0.09778823
     atom   95 type  2   force =     0.11403851   -0.10682288    0.09778823
     atom   96 type  2   force =    -0.11403851   -0.10682288   -0.09778823
     atom   97 type  2   force =    -0.06604800    0.07896041    0.37331673
     atom   98 type  2   force =    -0.06604800   -0.07896041    0.37331673
     atom   99 type  2   force =     0.06604800   -0.07896041   -0.37331673
     atom  100 type  2   force =     0.05140199   -0.09785796   -0.46358666
     atom  101 type  2   force =     0.05140199    0.09785796   -0.46358666
     atom  102 type  2   force =    -0.05140199    0.09785796    0.46358666
     atom  103 type  2   force =    -0.27474688   -0.07402568    0.12721609
     atom  104 type  2   force =    -0.27474688    0.07402568    0.12721609
     atom  105 type  2   force =     0.27474688    0.07402568   -0.12721609
     atom  106 type  2   force =    -0.18291391   -0.16403314   -0.15483555
     atom  107 type  2   force =    -0.18291391    0.16403314   -0.15483555
     atom  108 type  2   force =     0.18291391    0.16403314    0.15483555

     Total force =     3.014820     Total SCF correction =     0.000353

     BFGS Geometry Optimization

     number of scf cycles    =   1
     number of bfgs steps    =   0

     energy   new            =   -1089.6268302884 Ry

     new trust radius        =       0.5000000000 bohr
     new conv_thr            =       0.0000001000 Ry


ATOMIC_POSITIONS (angstrom)
C        0.499771067   8.117753855   3.514628334
C       -0.785245452   8.503493127   4.152255819
C        0.922077867   8.511735457   2.278874469
C        1.400722185   7.282710498   4.211161294
C        7.267097142   9.154994521   3.542280416
C        2.541476783   6.981357399   3.587682595
C        2.867336537   7.389442138   2.437067221
C        6.131865781   9.576811206   3.810489128
C        2.085116586   8.171438243   1.718270571
C        5.063898628   0.104918986   2.149647347
H        5.825190737   0.875284916   1.878857685
H        4.103815218   0.540899931   1.800371488
H        5.258490865   9.661097087   1.437357419
C        3.974359285   0.045915831   4.174936284
H        3.999133454  10.066390580   5.224267200
H        3.020092988  10.021888573   3.766284383
H        3.769824790   1.136754014   4.277144818
F        2.443205166   8.607214780   0.462488283
N        5.066146411  10.136747325   3.445051829
O        1.346445976   6.727623092   5.379414077
H        0.143347756   7.198888245   5.753670279
O       -0.963908873   8.190716741   5.372904040
H        0.259690678   9.161535824   1.620235263
H        7.480923124   9.404755806   2.353249730
H        5.993779216   9.318984306   5.070977129
H        3.927308517   7.108185050   1.961560269
H        3.285567720   6.317024715   4.232791857
C        3.418065452   3.308493127   1.316674181
C        6.050895452   1.886506873   6.785614181
C        1.847584548   7.081506873   9.621195819
C        2.133048933   2.922753855   1.954311666
C        4.765878933   2.272246145   7.423241666
C        3.132601067   7.467246145   8.983568334
C        1.710752133   3.316735457   3.190065531
C        4.343582133   1.878264543   8.658995531
C        3.554897867   7.073264543   7.747814469
C        1.232107815   2.087710498   1.257778706
C        3.864927815   3.107289502   6.726708706
C        4.033552185   8.302289502   9.680101294
C        4.433932858   3.959994521   1.926649584
C       -2.001447142   1.235005479   7.395589584
C        0.831717142   6.430005479   9.011220416
[...]
   -19.0102 -19.0101 -19.0027 -19.0026 -18.1618 -18.1618 -18.1545 -18.1544
   -15.1986 -15.1985 -15.1873 -15.1873 -13.3326 -13.3325 -13.3237 -13.3236
   -12.7866 -12.7865 -12.7538 -12.7538 -12.0621 -12.0621 -12.0435 -12.0435
   -11.9715 -11.9715 -11.9120 -11.9120 -11.1132 -11.1132 -11.0523 -11.0523
    -9.8842  -9.8841  -9.8038  -9.8038  -8.8686  -8.8686  -8.7500  -8.7500
    -8.4710  -8.4710  -8.4044  -8.4044  -7.4765  -7.4765  -7.3555  -7.3555
    -7.1591  -7.1591  -7.0746  -7.0746  -6.7081  -6.7080  -6.6044  -6.6043
    -6.3257  -6.3256  -6.2291  -6.2290  -6.1050  -6.1050  -6.0814  -6.0814
    -5.6972  -5.6972  -5.6268  -5.6267  -5.5433  -5.5433  -5.4390  -5.4390
    -4.9436  -4.9435  -4.8896  -4.8895  -4.8581  -4.8581  -4.8057  -4.8056
    -4.5192  -4.5192  -4.4366  -4.4366  -4.3397  -4.3397  -4.2911  -4.2911
    -4.1693  -4.1692  -4.0895  -4.0894  -3.9929  -3.9929  -3.8714  -3.8713
    -3.7593  -3.7593  -3.7173  -3.7173  -3.6707  -3.6707  -3.6077  -3.6077
    -3.5179  -3.5178  -3.4372  -3.4371  -3.1919  -3.1918  -3.1758  -3.1758
    -3.0849  -3.0849  -2.9726  -2.9726  -2.8952  -2.8952  -2.8196  -2.8195
    -2.4901  -2.4901  -2.4290  -2.4289  -2.2114  -2.2114  -1.9488  -1.9488
    -1.8208  -1.8207  -1.7212  -1.7211  -1.6443  -1.6442  -1.5515  -1.5514
    -0.4743  -0.4743  -0.4556  -0.4555   0.1947   0.1947   0.2328   0.2329
     0.6551   0.6551   0.7070   0.7070   1.0461   1.0462   1.1256   1.1256

          k =-0.5000-0.4364-0.5884 ( 19296 PWs)   bands (ev):

   -24.2854 -24.2853 -24.2851 -24.2850 -20.1713 -20.1711 -20.1669 -20.1668
   -19.0103 -19.0102 -19.0026 -19.0025 -18.1617 -18.1617 -18.1546 -18.1546
   -15.2008 -15.2008 -15.1850 -15.1850 -13.3342 -13.3341 -13.3225 -13.3225
   -12.7924 -12.7923 -12.7475 -12.7475 -12.0641 -12.0641 -12.0425 -12.0425
   -11.9580 -11.9580 -11.9254 -11.9254 -11.1096 -11.1096 -11.0547 -11.0547
    -9.8997  -9.8996  -9.7880  -9.7880  -8.8877  -8.8876  -8.7171  -8.7170
    -8.4903  -8.4903  -8.3981  -8.3980  -7.4665  -7.4665  -7.3602  -7.3602
    -7.1728  -7.1727  -7.0582  -7.0582  -6.7070  -6.7069  -6.6131  -6.6130
    -6.3540  -6.3540  -6.2477  -6.2476  -6.0966  -6.0965  -6.0582  -6.0581
    -5.7220  -5.7219  -5.6345  -5.6345  -5.5316  -5.5316  -5.3839  -5.3839
    -4.9614  -4.9613  -4.8854  -4.8853  -4.8545  -4.8545  -4.8202  -4.8201
    -4.5258  -4.5257  -4.4196  -4.4196  -4.2958  -4.2957  -4.2603  -4.2603
    -4.2019  -4.2019  -4.1114  -4.1114  -4.0246  -4.0246  -3.8885  -3.8885
    -3.7452  -3.7452  -3.7033  -3.7033  -3.6642  -3.6641  -3.6115  -3.6114
    -3.5065  -3.5064  -3.4521  -3.4520  -3.1905  -3.1904  -3.1768  -3.1768
    -3.0918  -3.0918  -2.9694  -2.9694  -2.8943  -2.8943  -2.7989  -2.7988
    -2.4932  -2.4932  -2.4172  -2.4172  -2.2903  -2.2903  -1.9056  -1.9056
    -1.8408  -1.8407  -1.6920  -1.6920  -1.6676  -1.6675  -1.5280  -1.5280
    -0.4776  -0.4775  -0.4535  -0.4534   0.1923   0.1923   0.2361   0.2361
     0.6439   0.6439   0.7173   0.7173   1.0443   1.0443   1.1292   1.1293

     highest occupied level (ev):     1.1401

!    total energy              =   -1091.60898284 Ry
     Harris-Foulkes estimate   =   -1091.60898284 Ry
     estimated scf accuracy    <          1.3E-10 Ry

     The total energy is the sum of the following terms:

     one-electron contribution =    -818.47692004 Ry
     hartree contribution      =     521.92923274 Ry
     xc contribution           =    -307.02773515 Ry
     ewald contribution        =    -487.56383211 Ry
     Dispersion Correction     =      -0.46972829 Ry

     convergence has been achieved in  10 iterations

     Forces acting on atoms (cartesian axes, Ry/au):

     atom    1 type  1   force =    -0.00010773    0.00010060   -0.00062860
     atom    2 type  1   force =     0.00014823    0.00067071   -0.00079249
     atom    3 type  1   force =     0.00056409   -0.00010282    0.00080180
     atom    4 type  1   force =    -0.00068047   -0.00008230   -0.00031965
     atom    5 type  1   force =    -0.00073326    0.00008989    0.00014245
     atom    6 type  1   force =    -0.00000538   -0.00045065    0.00026477
     atom    7 type  1   force =    -0.00035024    0.00039946    0.00043803
     atom    8 type  1   force =    -0.00076625    0.00015153   -0.00007190
     atom    9 type  1   force =     0.00033537    0.00054444   -0.00009573
     atom   10 type  1   force =    -0.00055740    0.00042983   -0.00090718
     atom   11 type  2   force =     0.00034669    0.00037021   -0.00011655
     atom   12 type  2   force =    -0.00083666    0.00022093   -0.00009109
     atom   13 type  2   force =    -0.00006847   -0.00040881   -0.00057168
     atom   14 type  1   force =    -0.00035650   -0.00003683    0.00009990
     atom   15 type  2   force =    -0.00004966   -0.00012709    0.00022080
     atom   16 type  2   force =    -0.00015940    0.00008519    0.00027427
     atom   17 type  2   force =    -0.00028266   -0.00025793   -0.00009613
     atom   18 type  5   force =     0.00014583   -0.00028828   -0.00023311
     atom   19 type  4   force =    -0.00023808   -0.00003152   -0.00031574
     atom   20 type  3   force =    -0.00060189    0.00028171    0.00008617
     atom   21 type  2   force =    -0.00093595   -0.00084415    0.00047620
     atom   22 type  3   force =    -0.00002548   -0.00028498    0.00018135
     atom   23 type  2   force =    -0.00064435   -0.00078690    0.00062008
     atom   24 type  2   force =     0.00002325    0.00049598   -0.00019880
     atom   25 type  2   force =    -0.00016118   -0.00003263    0.00060054
     atom   26 type  2   force =    -0.00075544    0.00073672   -0.00040501
     atom   27 type  2   force =     0.00013327    0.00052110    0.00040600
     atom   28 type  1   force =    -0.00014823    0.00067071    0.00079249
     atom   29 type  1   force =    -0.00014823   -0.00067071    0.00079249
     atom   30 type  1   force =     0.00014823   -0.00067071   -0.00079249
     atom   31 type  1   force =     0.00010773    0.00010060    0.00062860
     atom   32 type  1   force =     0.00010773   -0.00010060    0.00062860
     atom   33 type  1   force =    -0.00010773   -0.00010060   -0.00062860
     atom   34 type  1   force =    -0.00056409   -0.00010282   -0.00080180
     atom   35 type  1   force =    -0.00056409    0.00010282   -0.00080180
     atom   36 type  1   force =     0.00056409    0.00010282    0.00080180
     atom   37 type  1   force =     0.00068047   -0.00008230    0.00031965
     atom   38 type  1   force =     0.00068047    0.00008230    0.00031965
     atom   39 type  1   force =    -0.00068047    0.00008230   -0.00031965
     atom   40 type  1   force =     0.00073326    0.00008989   -0.00014245
     atom   41 type  1   force =     0.00073326   -0.00008989   -0.00014245
     atom   42 type  1   force =    -0.00073326   -0.00008989    0.00014245
     atom   43 type  1   force =     0.00000538   -0.00045065   -0.00026477
     atom   44 type  1   force =     0.00000538    0.00045065   -0.00026477
     atom   45 type  1   force =    -0.00000538    0.00045065    0.00026477
     atom   46 type  1   force =     0.00035024    0.00039946   -0.00043803
     atom   47 type  1   force =     0.00035024   -0.00039946   -0.00043803
     atom   48 type  1   force =    -0.00035024   -0.00039946    0.00043803
     atom   49 type  1   force =     0.00076625    0.00015153    0.00007190
     atom   50 type  1   force =     0.00076625   -0.00015153    0.00007190
     atom   51 type  1   force =    -0.00076625   -0.00015153   -0.00007190
     atom   52 type  1   force =    -0.00033537    0.00054444    0.00009573
     atom   53 type  1   force =    -0.00033537   -0.00054444    0.00009573
     atom   54 type  1   force =     0.00033537   -0.00054444   -0.00009573
     atom   55 type  1   force =     0.00055740    0.00042983    0.00090718
     atom   56 type  1   force =     0.00055740   -0.00042983    0.00090718
     atom   57 type  1   force =    -0.00055740   -0.00042983   -0.00090718
     atom   58 type  2   force =    -0.00034669    0.00037021    0.00011655
     atom   59 type  2   force =    -0.00034669   -0.00037021    0.00011655
     atom   60 type  2   force =     0.00034669   -0.00037021   -0.00011655
     atom   61 type  2   force =     0.00083666    0.00022093    0.00009109
     atom   62 type  2   force =     0.00083666   -0.00022093    0.00009109
     atom   63 type  2   force =    -0.00083666   -0.00022093   -0.00009109
     atom   64 type  2   force =     0.00006847   -0.00040881    0.00057168
     atom   65 type  2   force =     0.00006847    0.00040881    0.00057168
     atom   66 type  2   force =    -0.00006847    0.00040881   -0.00057168
     atom   67 type  1   force =     0.00035650   -0.00003683   -0.00009990
     atom   68 type  1   force =     0.00035650    0.00003683   -0.00009990
     atom   69 type  1   force =    -0.00035650    0.00003683    0.00009990
     atom   70 type  2   force =     0.00004966   -0.00012709   -0.00022080
     atom   71 type  2   force =     0.00004966    0.00012709   -0.00022080
     atom   72 type  2   force =    -0.00004966    0.00012709    0.00022080
     atom   73 type  2   force =     0.00015940    0.00008519   -0.00027427
     atom   74 type  2   force =     0.00015940   -0.00008519   -0.00027427
     atom   75 type  2   force =    -0.00015940   -0.00008519    0.00027427
     atom   76 type  2   force =     0.00028266   -0.00025793    0.00009613
     atom   77 type  2   force =     0.00028266    0.00025793    0.00009613
     atom   78 type  2   force =    -0.00028266    0.00025793   -0.00009613
     atom   79 type  5   force =    -0.00014583   -0.00028828    0.00023311
     atom   80 type  5   force =    -0.00014583    0.00028828    0.00023311
     atom   81 type  5   force =     0.00014583    0.00028828   -0.00023311
     atom   82 type  4   force =     0.00023808   -0.00003152    0.00031574
     atom   83 type  4   force =     0.00023808    0.00003152    0.00031574
     atom   84 type  4   force =    -0.00023808    0.00003152   -0.00031574
     atom   85 type  3   force =     0.00060189    0.00028171   -0.00008617
     atom   86 type  3   force =     0.00060189   -0.00028171   -0.00008617
     atom   87 type  3   force =    -0.00060189   -0.00028171    0.00008617
     atom   88 type  2   force =     0.00093595   -0.00084415   -0.00047620
     atom   89 type  2   force =     0.00093595    0.00084415   -0.00047620
     atom   90 type  2   force =    -0.00093595    0.00084415    0.00047620
     atom   91 type  3   force =     0.00002548   -0.00028498   -0.00018135
     atom   92 type  3   force =     0.00002548    0.00028498   -0.00018135
     atom   93 type  3   force =    -0.00002548    0.00028498    0.00018135
     atom   94 type  2   force =     0.00064435   -0.00078690   -0.00062008
     atom   95 type  2   force =     0.00064435    0.00078690   -0.00062008
     atom   96 type  2   force =    -0.00064435    0.00078690    0.00062008
     atom   97 type  2   force =    -0.00002325    0.00049598    0.00019880
     atom   98 type  2   force =    -0.00002325   -0.00049598    0.00019880
     atom   99 type  2   force =     0.00002325   -0.00049598   -0.00019880
     atom  100 type  2   force =     0.00016118   -0.00003263   -0.00060054
     atom  101 type  2   force =     0.00016118    0.00003263   -0.00060054
     atom  102 type  2   force =    -0.00016118    0.00003263    0.00060054
     atom  103 type  2   force =     0.00075544    0.00073672    0.00040501
     atom  104 type  2   force =     0.00075544   -0.00073672    0.00040501
     atom  105 type  2   force =    -0.00075544   -0.00073672   -0.00040501
     atom  106 type  2   force =    -0.00013327    0.00052110   -0.00040600
     atom  107 type  2   force =    -0.00013327   -0.00052110   -0.00040600
     atom  108 type  2   force =     0.00013327   -0.00052110    0.00040600

     Total force =     0.007808     Total SCF correction =     0.000022

     bfgs converged in  25 scf cycles and  24 bfgs steps
     (criteria: energy <  1.0E-04 Ry, force <  1.0E-03 Ry/Bohr)

     End of BFGS Geometry Optimization

     Final energy   =   -1091.6089828420 Ry
Begin final coordinates

ATOMIC_POSITIONS (angstrom)
C        0.509218539   8.109049082   3.507767670
C       -0.776577402   8.489021356   4.148481188
C        0.889053159   8.535614480   2.218168672
C        1.419140779   7.279048228   4.234352594
C        7.285320863   9.185744934   3.419702347
C        2.658785523   6.918032224   3.676491026
C        3.016043225   7.349390929   2.404030902
C        6.090114640   9.523815462   4.031461159
C        2.110548578   8.150763263   1.707614296
C        5.055344816   0.132364195   2.056765838
H        5.826797828   0.893399903   1.841938316
H        4.074967991   0.547156398   1.793540973
H        5.241846598   9.639709700   1.425370698
C        3.861201357   0.079822385   4.238048918
H        3.964715901  10.072867974   5.257203131
H        2.976713147  10.017592394   3.759458244
H        3.722939410   1.172696451   4.286693994
F        2.452548328   8.598736568   0.444889782
N        5.054706013  10.145713636   3.468293342
O        1.104716513   6.836735013   5.464227476
H        0.187241032   7.330324228   5.658987918
O       -0.939676759   8.149374623   5.383591084
H        0.249456946   9.166650139   1.602774724
H        7.453850835   9.427109102   2.374436215
H        5.957841536   9.257564173   5.083240910
H        3.974066509   7.086361939   1.947823144
H        3.337155908   6.302429652   4.273806471
C        3.409397402   3.294021356   1.320448812
C        6.042227402   1.900978644   6.789388812
C        1.856252598   7.095978644   9.617421188
C        2.123601461   2.914049082   1.961172330
C        4.756431461   2.280950918   7.430102330
C        3.142048539   7.475950918   8.976707670
C        1.743776841   3.340614480   3.250771328
C        4.376606841   1.854385520   8.719701328
C        3.521873159   7.049385520   7.687108672
C        1.213689221   2.084048228   1.234587406
C        3.846509221   3.110951772   6.703517406
C        4.051970779   8.305951772   9.703292594
C        4.415709137   3.990744934   2.049227653
C       -2.019670863   1.204255066   7.518167653
C        0.849940863   6.399255066   8.888642347
C       -0.025955523   1.723032224   1.792448974
C        2.606874477   3.471967776   7.261378974
C        5.291605523   8.666967776   9.145421026
C       -0.383223225   2.154390929   3.064909098
C        2.249606775   3.040609071   8.533849098
C        5.648873225   8.235609071   7.872960902
C        5.610915360   4.328815462   1.437478841
C       -0.824464640   0.866184538   6.906408841
C       -0.345265360   6.061184538   9.500401159
C        0.522271422   2.955763263   3.761315704
C        3.155101422   2.239236737   9.230255704
C        4.743378578   7.434236737   7.176554296
C        6.645685184   5.327364195   3.412174162
C        0.210305184  10.257635805   8.881104162
C       -1.380035184   5.062635805   7.525695838
H        5.874222172   6.088399903   3.626991684
H       -0.561147828   9.496600097   9.095931684
H       -0.608572172   4.301600097   7.310878316
H        7.626062009   5.742156398   3.675389027
H        1.190682009   9.842843602   9.144329027
H       -2.360412009   4.647843602   7.262480973
H        6.459183402   4.444709700   4.043569302
H        0.023803402   0.750290300   9.512499302
H       -1.193533402   5.945290300   6.894300698
C        7.839828643   5.274822385   1.230891082
C        1.404448643  10.310177615   6.699821082
C       -2.574178643   5.115177615   9.706978918
H        7.736314099   4.877867974   0.211726869
H        1.300934099   0.317132026   5.680666869
H       -2.470664099   5.512132026  10.726143131
H       -0.343893147   4.822592394   1.709481756
H        2.288936853   0.372407606   7.178411756
H        5.609543147   5.567407606   9.228388244
H        7.978080590   6.367696451   1.182236006
H        1.542710590   9.217303549   6.651176006
H       -2.712430590   4.022303549   9.755633994
F        0.180281672   3.403736568   5.024040218
F        2.813101672   1.791263432  10.492980218
F        5.085368328   6.986263432   5.913829782
N        6.646313987   4.950713636   2.000646658
N        0.210943987   0.244286364   7.469576658
N       -1.380663987   5.439286364   8.937223342
O        1.528113487   1.641735013   0.004712524
O        4.160933487   3.553264987   5.473642524
O        3.737536513   8.748264987  10.933157476
H       -1.356971032   2.135324228  10.747812082
H        5.078408968   3.059675772   5.278882082
H        6.622621032   8.254675772   0.190057918
O        3.572496759   2.954374623   0.085348916
O        6.205326759   2.240625377   5.554278916
O        1.693153241   7.435625377  10.852531084
H        2.383373054   3.971650139   3.866165276
H        5.016193054   1.223349861   9.335095276
H        2.882276946   6.418349861   7.071714724
H        4.247169165   4.232109102   3.094493785
H       -2.188200835   0.962890898   8.563433785
H        1.018480835   6.157890898   7.843376215
H        5.743188464   4.062564173   0.385689090
H       -0.692191536   1.132435827   5.854629090
H       -0.477538464   6.327435827  10.552180910
H       -1.341236509   1.891361939   3.521116856
H        1.291593491   3.303638061   8.990046856
H        6.606886509   8.498638061   7.416753144
H        8.363874092   1.107429652   1.195133529
H        1.928494092   4.087570348   6.664063529
H       -3.098224092   9.282570348   9.742736471
End final coordinates



     Writing output data file 2HP-4.save
 
     init_run     :    144.42s CPU    146.18s WALL (       1 calls)
     electrons    :  87975.69s CPU  89042.99s WALL (      25 calls)
     update_pot   :     16.29s CPU     16.30s WALL (      24 calls)
     forces       :   1545.36s CPU   1552.61s WALL (      25 calls)

     Called by init_run:
     wfcinit      :    140.39s CPU    141.98s WALL (       1 calls)
     potinit      :      1.47s CPU      1.49s WALL (       1 calls)

     Called by electrons:
     c_bands      :  79694.39s CPU  80692.28s WALL (     257 calls)
     sum_band     :   7983.16s CPU   8019.19s WALL (     257 calls)
     v_of_rho     :     39.86s CPU     39.88s WALL (     282 calls)
     newd         :     92.05s CPU    126.53s WALL (     282 calls)
     mix_rho      :      7.68s CPU      8.32s WALL (     257 calls)

     Called by c_bands:
     init_us_2    :    701.45s CPU    701.58s WALL (   16200 calls)
     cegterg      :  77107.50s CPU  78103.10s WALL (    7710 calls)

     Called by sum_band:
     sum_band:bec :      5.32s CPU      5.33s WALL (    7710 calls)
     addusdens    :     99.87s CPU    132.10s WALL (     257 calls)

     Called by *egterg:
     h_psi        :  44221.11s CPU  44243.75s WALL (   38514 calls)
     s_psi        :   9621.18s CPU   9621.07s WALL (   38514 calls)
     g_psi        :    280.31s CPU    280.34s WALL (   30774 calls)
     cdiaghg      :   2616.68s CPU   2616.87s WALL (   37764 calls)

     Called by h_psi:
     h_psi:pot    :  43791.86s CPU  43813.78s WALL (   38514 calls)
     h_psi:calbec :   9143.37s CPU   9143.29s WALL (   38514 calls)
     vloc_psi     :  25028.60s CPU  25050.62s WALL (   38514 calls)
     add_vuspsi   :   9619.86s CPU   9619.69s WALL (   38514 calls)

     General routines
     calbec       :  13178.79s CPU  13178.60s WALL (   49224 calls)
     fft          :     16.27s CPU     16.28s WALL (    3892 calls)
     fftw         :  25882.69s CPU  25903.72s WALL ( 8777748 calls)
     davcio       :      0.03s CPU      1.77s WALL (      30 calls)
 
     Parallel routines
     fft_scatter  :   2768.24s CPU   2773.03s WALL ( 8781640 calls)
 
     PWSCF        :     1d    0h54m CPU        1d    1h13m WALL

 
   This run was terminated on:  11: 9:15  10Oct2017            

=------------------------------------------------------------------------------=
   JOB DONE.
=------------------------------------------------------------------------------=
