 Entering Gaussian System, Link 0=g09
 Input=2hp_4_888-mega_dimer_1_mon-0.com
 Output=2hp_4_888-mega_dimer_1_mon-0.out
 Initial command:
 /share/apps/gaussian/g09_D01/g09/l1.exe "/tmp/161007.1.all.q/Gau-16104.inp" -scrdir="/tmp/161007.1.all.q/"
 Entering Link 1 = /share/apps/gaussian/g09_D01/g09/l1.exe PID=     16105.
  
 Copyright (c) 1988,1990,1992,1993,1995,1998,2003,2009,2013,
            Gaussian, Inc.  All Rights Reserved.
  
 This is part of the Gaussian(R) 09 program.  It is based on
 the Gaussian(R) 03 system (copyright 2003, Gaussian, Inc.),
 the Gaussian(R) 98 system (copyright 1998, Gaussian, Inc.),
 the Gaussian(R) 94 system (copyright 1995, Gaussian, Inc.),
 the Gaussian 92(TM) system (copyright 1992, Gaussian, Inc.),
 the Gaussian 90(TM) system (copyright 1990, Gaussian, Inc.),
 the Gaussian 88(TM) system (copyright 1988, Gaussian, Inc.),
 the Gaussian 86(TM) system (copyright 1986, Carnegie Mellon
 University), and the Gaussian 82(TM) system (copyright 1983,
 Carnegie Mellon University). Gaussian is a federally registered
 trademark of Gaussian, Inc.
  
 This software contains proprietary and confidential information,
 including trade secrets, belonging to Gaussian, Inc.
  
 This software is provided under written license and may be
 used, copied, transmitted, or stored only in accord with that
 written license.
  
 The following legend is applicable only to US Government
 contracts under FAR:
  
                    RESTRICTED RIGHTS LEGEND
  
 Use, reproduction and disclosure by the US Government is
 subject to restrictions as set forth in subparagraphs (a)
 and (c) of the Commercial Computer Software - Restricted
 Rights clause in FAR 52.227-19.
  
 Gaussian, Inc.
 340 Quinnipiac St., Bldg. 40, Wallingford CT 06492
  
  
 ---------------------------------------------------------------
 Warning -- This program may not be used in any manner that
 competes with the business of Gaussian, Inc. or will provide
 assistance to any competitor of Gaussian, Inc.  The licensee
 of this program is prohibited from giving any competitor of
 Gaussian, Inc. access to this program.  By using this program,
 the user acknowledges that Gaussian, Inc. is engaged in the
 business of creating and licensing software in the field of
 computational chemistry and represents and warrants to the
 licensee that it is not a competitor of Gaussian, Inc. and that
 it will not use this program in any manner prohibited above.
 ---------------------------------------------------------------
  

 Cite this work as:
 Gaussian 09, Revision D.01,
 M. J. Frisch, G. W. Trucks, H. B. Schlegel, G. E. Scuseria, 
 M. A. Robb, J. R. Cheeseman, G. Scalmani, V. Barone, B. Mennucci, 
 G. A. Petersson, H. Nakatsuji, M. Caricato, X. Li, H. P. Hratchian, 
 A. F. Izmaylov, J. Bloino, G. Zheng, J. L. Sonnenberg, M. Hada, 
 M. Ehara, K. Toyota, R. Fukuda, J. Hasegawa, M. Ishida, T. Nakajima, 
 Y. Honda, O. Kitao, H. Nakai, T. Vreven, J. A. Montgomery, Jr., 
 J. E. Peralta, F. Ogliaro, M. Bearpark, J. J. Heyd, E. Brothers, 
 K. N. Kudin, V. N. Staroverov, T. Keith, R. Kobayashi, J. Normand, 
 K. Raghavachari, A. Rendell, J. C. Burant, S. S. Iyengar, J. Tomasi, 
 M. Cossi, N. Rega, J. M. Millam, M. Klene, J. E. Knox, J. B. Cross, 
 V. Bakken, C. Adamo, J. Jaramillo, R. Gomperts, R. E. Stratmann, 
 O. Yazyev, A. J. Austin, R. Cammi, C. Pomelli, J. W. Ochterski, 
 R. L. Martin, K. Morokuma, V. G. Zakrzewski, G. A. Voth, 
 P. Salvador, J. J. Dannenberg, S. Dapprich, A. D. Daniels, 
 O. Farkas, J. B. Foresman, J. V. Ortiz, J. Cioslowski, 
 and D. J. Fox, Gaussian, Inc., Wallingford CT, 2013.
 
 ******************************************
 Gaussian 09:  ES64L-G09RevD.01 24-Apr-2013
                 3-Nov-2017 
 ******************************************
 %chk=2hp_4_888-mega_dimer_1_mon-0.chk
 %nproc=4
 Will use up to    4 processors via shared memory.
 %mem=28GB
 ------------------------------------------
 #p wb97xd 6-311++G** td=(nstates=4) nosymm
 ------------------------------------------
 1/38=1/1;
 2/12=2,15=1,17=6,18=5,40=1/2;
 3/5=4,6=6,7=1111,11=9,16=1,25=1,30=1,74=-58/1,2,8,3;
 4//1;
 5/5=2,38=5/2;
 8/6=1,10=2,108=4/1;
 9/41=4,42=1,70=2/14;
 6/7=2,8=2,9=2,10=2/1;
 99/5=1,9=1/99;
 Leave Link    1 at Fri Nov  3 01:10:27 2017, MaxMem=  3758096384 cpu:         0.5
 (Enter /share/apps/gaussian/g09_D01/g09/l101.exe)
 -----
 Title
 -----
 Symbolic Z-matrix:
 Charge =  0 Multiplicity = 1
 C                     2.01967  -1.20426  -7.51817 
 C                     0.82446  -0.86619  -6.90641 
 H                     2.1882   -0.96289  -8.56344 
 C                     3.02597  -1.90098  -6.78939 
 N                    -0.21095  -0.24429  -7.46958 
 H                     0.69219  -1.13244  -5.85463 
 C                     4.31177  -2.28095  -7.4301 
 O                     2.86287  -2.24063  -5.55428 
 C                    -0.21031   0.13236  -8.8811 
 C                    -1.40445   0.07982  -6.69982 
 C                     4.6916   -1.85439  -8.7197 
 C                     5.22169  -3.11095  -6.70352 
 H                     3.98979  -3.05968  -5.27888 
 H                    -0.02381  -0.75029  -9.5125 
 H                     0.56115   0.8934   -9.09593 
 H                    -1.19068   0.54716  -9.14433 
 H                    -1.30094  -0.31713  -5.68067 
 H                    -2.28894  -0.37241  -7.17841 
 H                    -1.54271   1.1727   -6.65118 
 C                     5.9131   -2.23924  -9.23026 
 H                     4.05201  -1.22335  -9.3351 
 C                     6.46133  -3.47197  -7.26138 
 O                     4.90727  -3.55327  -5.47364 
 C                     6.81859  -3.04061  -8.53384 
 F                     6.2551   -1.79126  -10.49298 
 H                     7.13971  -4.08757  -6.66406 
 H                     7.77662  -3.30364  -8.99005 
 
 NAtoms=     27 NQM=       27 NQMF=       0 NMMI=      0 NMMIF=      0
                NMic=       0 NMicF=      0.
                    Isotopes and Nuclear Properties:
 (Nuclear quadrupole moments (NQMom) in fm**2, nuclear magnetic moments (NMagM)
  in nuclear magnetons)

  Atom         1           2           3           4           5           6           7           8           9          10
 IAtWgt=          12          12           1          12          14           1          12          16          12          12
 AtmWgt=  12.0000000  12.0000000   1.0078250  12.0000000  14.0030740   1.0078250  12.0000000  15.9949146  12.0000000  12.0000000
 NucSpn=           0           0           1           0           2           1           0           0           0           0
 AtZEff=   0.0000000   0.0000000   0.0000000   0.0000000   0.0000000   0.0000000   0.0000000   0.0000000   0.0000000   0.0000000
 NQMom=    0.0000000   0.0000000   0.0000000   0.0000000   2.0440000   0.0000000   0.0000000   0.0000000   0.0000000   0.0000000
 NMagM=    0.0000000   0.0000000   2.7928460   0.0000000   0.4037610   2.7928460   0.0000000   0.0000000   0.0000000   0.0000000
 AtZNuc=   6.0000000   6.0000000   1.0000000   6.0000000   7.0000000   1.0000000   6.0000000   8.0000000   6.0000000   6.0000000

  Atom        11          12          13          14          15          16          17          18          19          20
 IAtWgt=          12          12           1           1           1           1           1           1           1          12
 AtmWgt=  12.0000000  12.0000000   1.0078250   1.0078250   1.0078250   1.0078250   1.0078250   1.0078250   1.0078250  12.0000000
 NucSpn=           0           0           1           1           1           1           1           1           1           0
 AtZEff=   0.0000000   0.0000000   0.0000000   0.0000000   0.0000000   0.0000000   0.0000000   0.0000000   0.0000000   0.0000000
 NQMom=    0.0000000   0.0000000   0.0000000   0.0000000   0.0000000   0.0000000   0.0000000   0.0000000   0.0000000   0.0000000
 NMagM=    0.0000000   0.0000000   2.7928460   2.7928460   2.7928460   2.7928460   2.7928460   2.7928460   2.7928460   0.0000000
 AtZNuc=   6.0000000   6.0000000   1.0000000   1.0000000   1.0000000   1.0000000   1.0000000   1.0000000   1.0000000   6.0000000

  Atom        21          22          23          24          25          26          27
 IAtWgt=           1          12          16          12          19           1           1
 AtmWgt=   1.0078250  12.0000000  15.9949146  12.0000000  18.9984033   1.0078250   1.0078250
 NucSpn=           1           0           0           0           1           1           1
 AtZEff=   0.0000000   0.0000000   0.0000000   0.0000000   0.0000000   0.0000000   0.0000000
 NQMom=    0.0000000   0.0000000   0.0000000   0.0000000   0.0000000   0.0000000   0.0000000
 NMagM=    2.7928460   0.0000000   0.0000000   0.0000000   2.6288670   2.7928460   2.7928460
 AtZNuc=   1.0000000   6.0000000   8.0000000   6.0000000   9.0000000   1.0000000   1.0000000
 Leave Link  101 at Fri Nov  3 01:10:27 2017, MaxMem=  3758096384 cpu:         0.4
 (Enter /share/apps/gaussian/g09_D01/g09/l202.exe)
                          Input orientation:                          
 ---------------------------------------------------------------------
 Center     Atomic      Atomic             Coordinates (Angstroms)
 Number     Number       Type             X           Y           Z
 ---------------------------------------------------------------------
      1          6           0        2.019670   -1.204255   -7.518169
      2          6           0        0.824463   -0.866185   -6.906410
      3          1           0        2.188200   -0.962891   -8.563435
      4          6           0        3.025971   -1.900979   -6.789390
      5          7           0       -0.210945   -0.244287   -7.469578
      6          1           0        0.692190   -1.132436   -5.854630
      7          6           0        4.311767   -2.280951   -7.430103
      8          8           0        2.862872   -2.240626   -5.554280
      9          6           0       -0.210306    0.132364   -8.881105
     10          6           0       -1.404450    0.079822   -6.699822
     11          6           0        4.691602   -1.854386   -8.719702
     12          6           0        5.221690   -3.110952   -6.703518
     13          1           0        3.989790   -3.059676   -5.278883
     14          1           0       -0.023805   -0.750291   -9.512500
     15          1           0        0.561147    0.893400   -9.095933
     16          1           0       -1.190683    0.547156   -9.144330
     17          1           0       -1.300935   -0.317132   -5.680668
     18          1           0       -2.288938   -0.372408   -7.178413
     19          1           0       -1.542712    1.172696   -6.651177
     20          6           0        5.913097   -2.239237   -9.230257
     21          1           0        4.052006   -1.223350   -9.335096
     22          6           0        6.461334   -3.471968   -7.261380
     23          8           0        4.907265   -3.553265   -5.473643
     24          6           0        6.818592   -3.040609   -8.533840
     25          9           0        6.255097   -1.791264  -10.492981
     26          1           0        7.139705   -4.087571   -6.664064
     27          1           0        7.776615   -3.303638   -8.990048
 ---------------------------------------------------------------------
                    Distance matrix (angstroms):
                    1          2          3          4          5
     1  C    0.000000
     2  C    1.384579   0.000000
     3  H    1.085928   2.148223   0.000000
     4  C    1.424495   2.435391   2.174651   0.000000
     5  N    2.428897   1.332661   2.732913   3.699312   0.000000
     6  H    2.129489   1.092990   3.099099   2.628872   2.052442
     7  C    2.533918   3.799619   2.744314   1.485989   4.960291
     8  O    2.375271   2.805790   3.338084   1.291301   4.135467
     9  C    2.935462   2.442799   2.655810   4.356976   1.460916
    10  C    3.747418   2.430157   4.179406   4.853888   1.456717
    11  C    3.000929   4.383986   2.661993   2.550020   5.309444
    12  C    3.814719   4.941230   4.156383   2.508504   6.190165
    13  H    3.512600   4.180854   4.293078   2.133813   5.511056
    14  H    2.891233   2.743118   2.416379   4.247416   2.112958
    15  H    3.002796   2.821256   2.525207   4.382243   2.129669
    16  H    4.002275   3.326655   3.746269   5.414728   2.095486
    17  H    3.897411   2.514204   4.571806   4.739193   2.096088
    18  H    4.401307   3.164027   4.723528   5.544017   2.102201
    19  H    4.369455   3.134597   4.705015   5.508125   2.109792
    20  C    4.377352   5.760185   3.993566   3.795754   6.677103
    21  H    2.726165   4.055011   2.033979   2.827109   4.755152
    22  C    4.993680   6.220163   5.123523   3.806902   7.414889
    23  O    4.246898   5.093377   4.863144   2.828517   6.413202
    24  C    5.237694   6.580747   5.075265   4.327336   7.639795
    25  F    5.208928   6.573511   4.577008   4.914863   7.303684
    26  H    5.937825   7.093542   6.155375   4.660440   8.333771
    27  H    6.302083   7.656053   6.073835   5.420237   8.687495
                    6          7          8          9         10
     6  H    0.000000
     7  C    4.111270   0.000000
     8  O    2.455638   2.370577   0.000000
     9  C    3.402024   5.327161   5.113049   0.000000
    10  C    2.565116   6.227495   4.990670   2.487315   0.000000
    11  C    4.972439   1.410425   3.676048   5.291685   6.706931
    12  C    5.015128   1.429961   2.764460   6.690857   7.354372
    13  H    3.862629   2.310374   1.420081   6.387952   6.401042
    14  H    3.746825   5.047423   5.120694   1.101146   3.241362
    15  H    3.824556   5.188318   5.259597   1.104747   3.204189
    16  H    4.145885   6.419791   6.090279   1.096576   2.497943
    17  H    2.160447   6.198349   4.588365   3.410911   1.098619
    18  H    3.349204   6.875696   5.715697   2.733984   1.102670
    19  H    3.308007   6.841734   5.680063   2.798245   1.102659
    20  C    6.314882   2.409679   4.776681   6.575900   8.082551
    21  H    4.838416   2.194309   4.091877   4.495706   6.198051
    22  C    6.382427   2.463255   4.168851   7.754063   8.648764
    23  O    4.875697   2.408555   2.430857   7.168277   7.385160
    24  C    6.953567   2.842444   5.016520   7.719699   8.984383
    25  F    7.272846   3.660266   6.008318   6.935411   8.749724
    26  H    7.138519   3.442081   4.788959   8.760467   9.506368
    27  H    8.045747   3.935034   6.089283   8.695337  10.049124
                   11         12         13         14         15
    11  C    0.000000
    12  C    2.434122   0.000000
    13  H    3.712748   1.884089   0.000000
    14  H    4.907404   6.401431   6.274210   0.000000
    15  H    4.975192   6.593872   6.477057   1.793716   0.000000
    16  H    6.367809   7.775464   7.401906   1.783402   1.786375
    17  H    6.892705   7.169121   5.972834   4.062219   4.073914
    18  H    7.300669   8.008413   7.088868   3.274383   3.660893
    19  H    7.232475   8.006842   7.099630   3.767244   3.237447
    20  C    1.378705   2.760859   4.470524   6.127269   6.202808
    21  H    1.089036   3.443313   4.452957   4.107005   4.089490
    22  C    2.806283   1.406506   3.195123   7.384585   7.565331
    23  O    3.670095   1.344283   1.059869   6.963080   7.196010
    24  C    2.442490   2.430046   4.312451   7.281602   7.412691
    25  F    2.364957   4.143614   5.824715   6.439688   6.448273
    26  H    3.899483   2.152701   3.591275   8.400411   8.602412
    27  H    3.419170   3.434092   5.307759   8.224299   8.348013
                   16         17         18         19         20
    16  H    0.000000
    17  H    3.571569   0.000000
    18  H    2.432404   1.795117   0.000000
    19  H    2.594424   1.794417   1.795042   0.000000
    20  C    7.631190   8.266579   8.658435   8.595466   0.000000
    21  H    5.536865   6.544467   6.751515   6.651716   2.122894
    22  C    8.846029   8.526691   9.283395   9.274158   2.386769
    23  O    8.214156   7.004082   8.050430   8.082295   4.104938
    24  C    8.797343   9.026884   9.586636   9.550276   1.395391
    25  F    7.920019   9.078824   9.273621   9.184244   1.382793
    26  H    9.850268   9.296649  10.147231  10.151598   3.392087
    27  H    9.760371  10.113018  10.639055  10.599893   2.159479
                   21         22         23         24         25
    21  H    0.000000
    22  C    3.893770   0.000000
    23  O    4.590293   2.370178   0.000000
    24  C    3.405648   1.390273   3.644282   0.000000
    25  F    2.552809   3.648362   5.487718   2.390946   0.000000
    26  H    4.987189   1.093591   2.585802   2.166865   4.551501
    27  H    4.280113   2.178668   4.545392   1.093215   2.619370
                   26         27
    26  H    0.000000
    27  H    2.535825   0.000000
 Symmetry turned off by external request.
 Stoichiometry    C11H12FNO2
 Framework group  C1[X(C11H12FNO2)]
 Deg. of freedom    75
 Full point group                 C1      NOp   1
 Rotational constants (GHZ):      1.0519138      0.2895423      0.2281347
 Leave Link  202 at Fri Nov  3 01:10:27 2017, MaxMem=  3758096384 cpu:         0.0
 (Enter /share/apps/gaussian/g09_D01/g09/l301.exe)
 Standard basis: 6-311++G(d,p) (5D, 7F)
 Ernie: Thresh=  0.10000D-02 Tol=  0.10000D-05 Strict=F.
   414 basis functions,   648 primitive gaussians,   429 cartesian basis functions
    55 alpha electrons       55 beta electrons
       nuclear repulsion energy       939.2273431636 Hartrees.
 IExCor= 4639 DFT=T Ex+Corr=wB97XD ExCW=0 ScaHFX=  1.000000
 ScaDFX=  1.000000  1.000000  1.000000  1.000000 ScalE2=  1.000000  1.000000
 IRadAn=      0 IRanWt=     -1 IRanGd=            0 ICorTp=0 IEmpDi=121
  HFx wShort=  0.000000 wLong=  0.200000 cFull=  0.222036 cShort=  0.000000 cLong=  0.777964
  DFx wShort=  0.000000 wLong=  0.200000 cFull=  0.000000 cShort=  0.000000 cLong=  1.000000
 NAtoms=   27 NActive=   27 NUniq=   27 SFac= 1.00D+00 NAtFMM=   60 NAOKFM=F Big=F
 Integral buffers will be    131072 words long.
 Raffenetti 1 integral format.
 Two-electron integral symmetry is turned off.
 R6Disp:  Grimme-D2 Dispersion energy=       -0.0151176016 Hartrees.
 Nuclear repulsion after empirical dispersion term =      939.2122255621 Hartrees.
 Leave Link  301 at Fri Nov  3 01:10:28 2017, MaxMem=  3758096384 cpu:         0.2
 (Enter /share/apps/gaussian/g09_D01/g09/l302.exe)
 NPDir=0 NMtPBC=     1 NCelOv=     1 NCel=       1 NClECP=     1 NCelD=      1
         NCelK=      1 NCelE2=     1 NClLst=     1 CellRange=     0.0.
 One-electron integrals computed using PRISM.
 NBasis=   414 RedAO= T EigKep=  1.00D-06  NBF=   414
 NBsUse=   412 1.00D-06 EigRej=  7.94D-07 NBFU=   412
 Precomputing XC quadrature grid using
 IXCGrd= 4 IRadAn=           0 IRanWt=          -1 IRanGd=           0 AccXCQ= 0.00D+00.
 Generated NRdTot=       0 NPtTot=           0 NUsed=           0 NTot=          32
 NSgBfM=   428   428   428   428   428 MxSgAt=    27 MxSgA2=    27.
 Leave Link  302 at Fri Nov  3 01:10:28 2017, MaxMem=  3758096384 cpu:         1.8
 (Enter /share/apps/gaussian/g09_D01/g09/l308.exe)
 Leave Link  308 at Fri Nov  3 01:10:29 2017, MaxMem=  3758096384 cpu:         0.8
 (Enter /share/apps/gaussian/g09_D01/g09/l303.exe)
 DipDrv:  MaxL=1.
 Leave Link  303 at Fri Nov  3 01:10:30 2017, MaxMem=  3758096384 cpu:         1.1
 (Enter /share/apps/gaussian/g09_D01/g09/l401.exe)
 ExpMin= 3.60D-02 ExpMax= 1.14D+04 ExpMxC= 1.72D+03 IAcc=3 IRadAn=         5 AccDes= 0.00D+00
 Harris functional with IExCor= 4639 and IRadAn=       5 diagonalized for initial guess.
 HarFok:  IExCor= 4639 AccDes= 0.00D+00 IRadAn=         5 IDoV= 1 UseB2=F ITyADJ=14
 ICtDFT=  3500011 ScaDFX=  1.000000  1.000000  1.000000  1.000000
 FoFCou: FMM=F IPFlag=           0 FMFlag=      100000 FMFlg1=           0
         NFxFlg=           0 DoJE=T BraDBF=F KetDBF=T FulRan=T
         wScrn=  0.000000 ICntrl=     500 IOpCl=  0 I1Cent=   200000004 NGrid=           0
         NMat0=    1 NMatS0=      1 NMatT0=    0 NMatD0=    1 NMtDS0=    0 NMtDT0=    0
 Symmetry not used in FoFCou.
 Harris En= -701.380706670807    
 JPrj=0 DoOrth=F DoCkMO=F.
 Leave Link  401 at Fri Nov  3 01:10:37 2017, MaxMem=  3758096384 cpu:        27.0
 (Enter /share/apps/gaussian/g09_D01/g09/l502.exe)
 Closed shell SCF:
 Using DIIS extrapolation, IDIIS=  1040.
 Two-electron integral symmetry not used.
 IVT=      575875 IEndB=      575875 NGot=  3758096384 MDV=  3757721620
 LenX=  3757721620 LenY=  3757537138
 Requested convergence on RMS density matrix=1.00D-08 within 128 cycles.
 Requested convergence on MAX density matrix=1.00D-06.
 Requested convergence on             energy=1.00D-06.
 No special actions if energy rises.
 Fock matrices will be formed incrementally for  20 cycles.

 Cycle   1  Pass 1  IDiag  1:
 FoFJK:  IHMeth= 1 ICntrl=       0 DoSepK=T KAlg= 0 I1Cent=   0 FoldK=F
 IRaf=         1 NMat=   1 IRICut=       1 DoRegI=T DoRafI=F ISym2E= 0.
 FoFCou: FMM=F IPFlag=           0 FMFlag=      100000 FMFlg1=           0
         NFxFlg=           0 DoJE=T BraDBF=F KetDBF=F FulRan=T
         wScrn=  0.000000 ICntrl=     500 IOpCl=  0 I1Cent=           0 NGrid=           0
         NMat0=    1 NMatS0=      1 NMatT0=    0 NMatD0=    1 NMtDS0=    0 NMtDT0=    0
 Symmetry not used in FoFCou.
 E= -731.054205717238    
 DIIS: error= 8.14D-02 at cycle   1 NSaved=   1.
 NSaved= 1 IEnMin= 1 EnMin= -731.054205717238     IErMin= 1 ErrMin= 8.14D-02
 ErrMax= 8.14D-02  0.00D+00 EMaxC= 1.00D-01 BMatC= 1.73D+00 BMatP= 1.73D+00
 IDIUse=3 WtCom= 1.86D-01 WtEn= 8.14D-01
 Coeff-Com:  0.100D+01
 Coeff-En:   0.100D+01
 Coeff:      0.100D+01
 Gap=     0.321 Goal=   None    Shift=    0.000
 GapD=    0.321 DampG=1.000 DampE=0.500 DampFc=0.5000 IDamp=-1.
 Damping current iteration by 5.00D-01
 RMSDP=5.36D-02 MaxDP=5.75D+00              OVMax= 1.65D-01

 Cycle   2  Pass 1  IDiag  1:
 RMSU=  6.76D-03    CP:  8.25D-01
 E= -731.204531992629     Delta-E=       -0.150326275391 Rises=F Damp=T
 DIIS: error= 3.58D-02 at cycle   2 NSaved=   2.
 NSaved= 2 IEnMin= 2 EnMin= -731.204531992629     IErMin= 2 ErrMin= 3.58D-02
 ErrMax= 3.58D-02  0.00D+00 EMaxC= 1.00D-01 BMatC= 3.20D-01 BMatP= 1.73D+00
 IDIUse=3 WtCom= 6.42D-01 WtEn= 3.58D-01
 Coeff-Com: -0.381D+00 0.138D+01
 Coeff-En:   0.000D+00 0.100D+01
 Coeff:     -0.245D+00 0.125D+01
 Gap=     0.312 Goal=   None    Shift=    0.000
 RMSDP=1.72D-02 MaxDP=2.16D+00 DE=-1.50D-01 OVMax= 1.40D-01

 Cycle   3  Pass 1  IDiag  1:
 RMSU=  6.29D-03    CP:  7.18D-01  1.30D+00
 E= -731.323690529369     Delta-E=       -0.119158536741 Rises=F Damp=F
 DIIS: error= 1.84D-02 at cycle   3 NSaved=   3.
 NSaved= 3 IEnMin= 3 EnMin= -731.323690529369     IErMin= 3 ErrMin= 1.84D-02
 ErrMax= 1.84D-02  0.00D+00 EMaxC= 1.00D-01 BMatC= 8.56D-02 BMatP= 3.20D-01
 IDIUse=3 WtCom= 8.16D-01 WtEn= 1.84D-01
 Coeff-Com: -0.267D+00 0.593D+00 0.674D+00
 Coeff-En:   0.000D+00 0.000D+00 0.100D+01
 Coeff:     -0.218D+00 0.484D+00 0.734D+00
 Gap=     0.281 Goal=   None    Shift=    0.000
 RMSDP=1.52D-02 MaxDP=1.54D+00 DE=-1.19D-01 OVMax= 7.77D-02

 Cycle   4  Pass 1  IDiag  1:
 RMSU=  3.59D-03    CP:  6.20D-01  1.51D+00  6.37D-01
 E= -731.375704150661     Delta-E=       -0.052013621292 Rises=F Damp=F
 DIIS: error= 5.28D-03 at cycle   4 NSaved=   4.
 NSaved= 4 IEnMin= 4 EnMin= -731.375704150661     IErMin= 4 ErrMin= 5.28D-03
 ErrMax= 5.28D-03  0.00D+00 EMaxC= 1.00D-01 BMatC= 1.15D-02 BMatP= 8.56D-02
 IDIUse=3 WtCom= 9.47D-01 WtEn= 5.28D-02
 Coeff-Com: -0.108D+00 0.238D+00 0.413D+00 0.458D+00
 Coeff-En:   0.000D+00 0.000D+00 0.921D-01 0.908D+00
 Coeff:     -0.103D+00 0.225D+00 0.396D+00 0.481D+00
 Gap=     0.270 Goal=   None    Shift=    0.000
 RMSDP=3.36D-03 MaxDP=3.66D-01 DE=-5.20D-02 OVMax= 1.94D-02

 Cycle   5  Pass 1  IDiag  1:
 RMSU=  1.01D-03    CP:  6.41D-01  1.54D+00  7.34D-01  7.99D-01
 E= -731.384416854377     Delta-E=       -0.008712703716 Rises=F Damp=F
 DIIS: error= 7.57D-04 at cycle   5 NSaved=   5.
 NSaved= 5 IEnMin= 5 EnMin= -731.384416854377     IErMin= 5 ErrMin= 7.57D-04
 ErrMax= 7.57D-04  0.00D+00 EMaxC= 1.00D-01 BMatC= 1.64D-04 BMatP= 1.15D-02
 IDIUse=3 WtCom= 9.92D-01 WtEn= 7.57D-03
 Coeff-Com: -0.214D-03-0.530D-03 0.560D-01 0.164D+00 0.780D+00
 Coeff-En:   0.000D+00 0.000D+00 0.000D+00 0.000D+00 0.100D+01
 Coeff:     -0.212D-03-0.526D-03 0.555D-01 0.163D+00 0.782D+00
 Gap=     0.271 Goal=   None    Shift=    0.000
 RMSDP=9.81D-04 MaxDP=1.08D-01 DE=-8.71D-03 OVMax= 4.11D-03

 Cycle   6  Pass 1  IDiag  1:
 RMSU=  3.08D-04    CP:  6.35D-01  1.54D+00  7.57D-01  9.27D-01  1.13D+00
 E= -731.384574102663     Delta-E=       -0.000157248287 Rises=F Damp=F
 DIIS: error= 4.25D-04 at cycle   6 NSaved=   6.
 NSaved= 6 IEnMin= 6 EnMin= -731.384574102663     IErMin= 6 ErrMin= 4.25D-04
 ErrMax= 4.25D-04  0.00D+00 EMaxC= 1.00D-01 BMatC= 3.20D-05 BMatP= 1.64D-04
 IDIUse=3 WtCom= 9.96D-01 WtEn= 4.25D-03
 Coeff-Com:  0.166D-01-0.365D-01-0.396D-01-0.884D-02 0.347D+00 0.721D+00
 Coeff-En:   0.000D+00 0.000D+00 0.000D+00 0.000D+00 0.000D+00 0.100D+01
 Coeff:      0.165D-01-0.363D-01-0.394D-01-0.880D-02 0.345D+00 0.723D+00
 Gap=     0.271 Goal=   None    Shift=    0.000
 RMSDP=2.96D-04 MaxDP=2.98D-02 DE=-1.57D-04 OVMax= 3.66D-03

 Cycle   7  Pass 1  IDiag  1:
 RMSU=  1.05D-04    CP:  6.34D-01  1.54D+00  7.64D-01  9.65D-01  1.22D+00
                    CP:  1.01D+00
 E= -731.384612324256     Delta-E=       -0.000038221593 Rises=F Damp=F
 DIIS: error= 1.23D-04 at cycle   7 NSaved=   7.
 NSaved= 7 IEnMin= 7 EnMin= -731.384612324256     IErMin= 7 ErrMin= 1.23D-04
 ErrMax= 1.23D-04  0.00D+00 EMaxC= 1.00D-01 BMatC= 4.03D-06 BMatP= 3.20D-05
 IDIUse=3 WtCom= 9.99D-01 WtEn= 1.23D-03
 Coeff-Com:  0.569D-02-0.123D-01-0.204D-01-0.240D-01 0.356D-01 0.291D+00
 Coeff-Com:  0.725D+00
 Coeff-En:   0.000D+00 0.000D+00 0.000D+00 0.000D+00 0.000D+00 0.000D+00
 Coeff-En:   0.100D+01
 Coeff:      0.568D-02-0.123D-01-0.203D-01-0.240D-01 0.355D-01 0.290D+00
 Coeff:      0.725D+00
 Gap=     0.271 Goal=   None    Shift=    0.000
 RMSDP=1.54D-04 MaxDP=1.47D-02 DE=-3.82D-05 OVMax= 8.63D-04

 Cycle   8  Pass 1  IDiag  1:
 RMSU=  3.27D-05    CP:  6.33D-01  1.55D+00  7.65D-01  9.84D-01  1.27D+00
                    CP:  1.12D+00  1.11D+00
 E= -731.384617795144     Delta-E=       -0.000005470887 Rises=F Damp=F
 DIIS: error= 7.42D-05 at cycle   8 NSaved=   8.
 NSaved= 8 IEnMin= 8 EnMin= -731.384617795144     IErMin= 8 ErrMin= 7.42D-05
 ErrMax= 7.42D-05  0.00D+00 EMaxC= 1.00D-01 BMatC= 6.64D-07 BMatP= 4.03D-06
 IDIUse=1 WtCom= 1.00D+00 WtEn= 0.00D+00
 Coeff-Com: -0.588D-03 0.135D-02-0.139D-02-0.929D-02-0.464D-01 0.700D-02
 Coeff-Com:  0.305D+00 0.745D+00
 Coeff:     -0.588D-03 0.135D-02-0.139D-02-0.929D-02-0.464D-01 0.700D-02
 Coeff:      0.305D+00 0.745D+00
 Gap=     0.271 Goal=   None    Shift=    0.000
 RMSDP=4.25D-05 MaxDP=3.20D-03 DE=-5.47D-06 OVMax= 8.16D-04

 Cycle   9  Pass 1  IDiag  1:
 RMSU=  2.20D-05    CP:  6.33D-01  1.55D+00  7.65D-01  9.89D-01  1.29D+00
                    CP:  1.16D+00  1.17D+00  1.02D+00
 E= -731.384619001263     Delta-E=       -0.000001206119 Rises=F Damp=F
 DIIS: error= 1.99D-05 at cycle   9 NSaved=   9.
 NSaved= 9 IEnMin= 9 EnMin= -731.384619001263     IErMin= 9 ErrMin= 1.99D-05
 ErrMax= 1.99D-05  0.00D+00 EMaxC= 1.00D-01 BMatC= 1.19D-07 BMatP= 6.64D-07
 IDIUse=1 WtCom= 1.00D+00 WtEn= 0.00D+00
 Coeff-Com: -0.129D-02 0.281D-02 0.352D-02 0.921D-03-0.257D-01-0.490D-01
 Coeff-Com: -0.364D-01 0.262D+00 0.843D+00
 Coeff:     -0.129D-02 0.281D-02 0.352D-02 0.921D-03-0.257D-01-0.490D-01
 Coeff:     -0.364D-01 0.262D+00 0.843D+00
 Gap=     0.271 Goal=   None    Shift=    0.000
 RMSDP=1.71D-05 MaxDP=1.41D-03 DE=-1.21D-06 OVMax= 3.09D-04

 Cycle  10  Pass 1  IDiag  1:
 RMSU=  7.78D-06    CP:  6.33D-01  1.55D+00  7.65D-01  9.90D-01  1.30D+00
                    CP:  1.16D+00  1.19D+00  1.29D+00  1.23D+00
 E= -731.384619249434     Delta-E=       -0.000000248171 Rises=F Damp=F
 DIIS: error= 6.70D-06 at cycle  10 NSaved=  10.
 NSaved=10 IEnMin=10 EnMin= -731.384619249434     IErMin=10 ErrMin= 6.70D-06
 ErrMax= 6.70D-06  0.00D+00 EMaxC= 1.00D-01 BMatC= 1.36D-08 BMatP= 1.19D-07
 IDIUse=1 WtCom= 1.00D+00 WtEn= 0.00D+00
 Coeff-Com: -0.137D-03 0.294D-03 0.891D-03 0.141D-02-0.358D-03-0.104D-01
 Coeff-Com: -0.596D-01-0.304D-01 0.256D+00 0.843D+00
 Coeff:     -0.137D-03 0.294D-03 0.891D-03 0.141D-02-0.358D-03-0.104D-01
 Coeff:     -0.596D-01-0.304D-01 0.256D+00 0.843D+00
 Gap=     0.271 Goal=   None    Shift=    0.000
 RMSDP=6.62D-06 MaxDP=6.75D-04 DE=-2.48D-07 OVMax= 1.29D-04

 Cycle  11  Pass 1  IDiag  1:
 RMSU=  2.55D-06    CP:  6.33D-01  1.55D+00  7.65D-01  9.90D-01  1.30D+00
                    CP:  1.16D+00  1.20D+00  1.35D+00  1.35D+00  1.35D+00
 E= -731.384619281929     Delta-E=       -0.000000032495 Rises=F Damp=F
 DIIS: error= 3.28D-06 at cycle  11 NSaved=  11.
 NSaved=11 IEnMin=11 EnMin= -731.384619281929     IErMin=11 ErrMin= 3.28D-06
 ErrMax= 3.28D-06  0.00D+00 EMaxC= 1.00D-01 BMatC= 1.39D-09 BMatP= 1.36D-08
 IDIUse=1 WtCom= 1.00D+00 WtEn= 0.00D+00
 Coeff-Com:  0.101D-03-0.222D-03-0.130D-03 0.340D-03 0.291D-02 0.344D-02
 Coeff-Com: -0.137D-01-0.394D-01-0.390D-01 0.202D+00 0.884D+00
 Coeff:      0.101D-03-0.222D-03-0.130D-03 0.340D-03 0.291D-02 0.344D-02
 Coeff:     -0.137D-01-0.394D-01-0.390D-01 0.202D+00 0.884D+00
 Gap=     0.271 Goal=   None    Shift=    0.000
 RMSDP=2.65D-06 MaxDP=2.54D-04 DE=-3.25D-08 OVMax= 4.85D-05

 Cycle  12  Pass 1  IDiag  1:
 RMSU=  8.48D-07    CP:  6.33D-01  1.55D+00  7.65D-01  9.90D-01  1.30D+00
                    CP:  1.16D+00  1.20D+00  1.38D+00  1.42D+00  1.50D+00
                    CP:  1.20D+00
 E= -731.384619286346     Delta-E=       -0.000000004417 Rises=F Damp=F
 DIIS: error= 1.59D-06 at cycle  12 NSaved=  12.
 NSaved=12 IEnMin=12 EnMin= -731.384619286346     IErMin=12 ErrMin= 1.59D-06
 ErrMax= 1.59D-06  0.00D+00 EMaxC= 1.00D-01 BMatC= 2.68D-10 BMatP= 1.39D-09
 IDIUse=1 WtCom= 1.00D+00 WtEn= 0.00D+00
 Coeff-Com:  0.357D-04-0.782D-04-0.113D-03-0.136D-04 0.962D-03 0.213D-02
 Coeff-Com:  0.267D-02-0.963D-02-0.426D-01-0.447D-01 0.276D+00 0.815D+00
 Coeff:      0.357D-04-0.782D-04-0.113D-03-0.136D-04 0.962D-03 0.213D-02
 Coeff:      0.267D-02-0.963D-02-0.426D-01-0.447D-01 0.276D+00 0.815D+00
 Gap=     0.271 Goal=   None    Shift=    0.000
 RMSDP=9.96D-07 MaxDP=8.17D-05 DE=-4.42D-09 OVMax= 2.30D-05

 Cycle  13  Pass 1  IDiag  1:
 RMSU=  2.36D-07    CP:  6.33D-01  1.55D+00  7.65D-01  9.89D-01  1.30D+00
                    CP:  1.16D+00  1.20D+00  1.38D+00  1.44D+00  1.55D+00
                    CP:  1.32D+00  1.20D+00
 E= -731.384619286972     Delta-E=       -0.000000000626 Rises=F Damp=F
 DIIS: error= 5.37D-07 at cycle  13 NSaved=  13.
 NSaved=13 IEnMin=13 EnMin= -731.384619286972     IErMin=13 ErrMin= 5.37D-07
 ErrMax= 5.37D-07  0.00D+00 EMaxC= 1.00D-01 BMatC= 5.51D-11 BMatP= 2.68D-10
 IDIUse=1 WtCom= 1.00D+00 WtEn= 0.00D+00
 Coeff-Com: -0.679D-05 0.150D-04-0.147D-04-0.640D-04-0.238D-03 0.813D-04
 Coeff-Com:  0.394D-02 0.406D-02-0.476D-02-0.574D-01-0.762D-01 0.307D+00
 Coeff-Com:  0.824D+00
 Coeff:     -0.679D-05 0.150D-04-0.147D-04-0.640D-04-0.238D-03 0.813D-04
 Coeff:      0.394D-02 0.406D-02-0.476D-02-0.574D-01-0.762D-01 0.307D+00
 Coeff:      0.824D+00
 Gap=     0.271 Goal=   None    Shift=    0.000
 RMSDP=5.32D-07 MaxDP=3.96D-05 DE=-6.26D-10 OVMax= 9.91D-06

 Cycle  14  Pass 1  IDiag  1:
 RMSU=  1.61D-07    CP:  6.33D-01  1.55D+00  7.65D-01  9.89D-01  1.30D+00
                    CP:  1.16D+00  1.21D+00  1.38D+00  1.44D+00  1.57D+00
                    CP:  1.36D+00  1.35D+00  1.32D+00
 E= -731.384619287254     Delta-E=       -0.000000000282 Rises=F Damp=F
 DIIS: error= 3.21D-07 at cycle  14 NSaved=  14.
 NSaved=14 IEnMin=14 EnMin= -731.384619287254     IErMin=14 ErrMin= 3.21D-07
 ErrMax= 3.21D-07  0.00D+00 EMaxC= 1.00D-01 BMatC= 6.67D-12 BMatP= 5.51D-11
 IDIUse=1 WtCom= 1.00D+00 WtEn= 0.00D+00
 Coeff-Com: -0.387D-05 0.865D-05 0.714D-05-0.124D-04-0.186D-03-0.213D-03
 Coeff-Com:  0.719D-03 0.133D-02 0.438D-02-0.104D-01-0.496D-01-0.168D-01
 Coeff-Com:  0.169D+00 0.902D+00
 Coeff:     -0.387D-05 0.865D-05 0.714D-05-0.124D-04-0.186D-03-0.213D-03
 Coeff:      0.719D-03 0.133D-02 0.438D-02-0.104D-01-0.496D-01-0.168D-01
 Coeff:      0.169D+00 0.902D+00
 Gap=     0.271 Goal=   None    Shift=    0.000
 RMSDP=1.54D-07 MaxDP=1.36D-05 DE=-2.82D-10 OVMax= 4.72D-06

 Cycle  15  Pass 1  IDiag  1:
 RMSU=  4.16D-08    CP:  6.33D-01  1.55D+00  7.65D-01  9.89D-01  1.30D+00
                    CP:  1.16D+00  1.21D+00  1.38D+00  1.44D+00  1.57D+00
                    CP:  1.36D+00  1.38D+00  1.53D+00  1.32D+00
 E= -731.384619287191     Delta-E=        0.000000000063 Rises=F Damp=F
 DIIS: error= 1.06D-07 at cycle  15 NSaved=  15.
 NSaved=15 IEnMin=14 EnMin= -731.384619287254     IErMin=15 ErrMin= 1.06D-07
 ErrMax= 1.06D-07  0.00D+00 EMaxC= 1.00D-01 BMatC= 1.77D-12 BMatP= 6.67D-12
 IDIUse=1 WtCom= 1.00D+00 WtEn= 0.00D+00
 Coeff-Com: -0.535D-06 0.116D-05 0.745D-05 0.101D-04-0.352D-04-0.112D-03
 Coeff-Com: -0.420D-03-0.367D-03 0.330D-02 0.670D-02-0.421D-02-0.587D-01
 Coeff-Com: -0.123D+00 0.296D+00 0.881D+00
 Coeff:     -0.535D-06 0.116D-05 0.745D-05 0.101D-04-0.352D-04-0.112D-03
 Coeff:     -0.420D-03-0.367D-03 0.330D-02 0.670D-02-0.421D-02-0.587D-01
 Coeff:     -0.123D+00 0.296D+00 0.881D+00
 Gap=     0.271 Goal=   None    Shift=    0.000
 RMSDP=9.00D-08 MaxDP=7.14D-06 DE= 6.25D-11 OVMax= 2.07D-06

 Cycle  16  Pass 1  IDiag  1:
 RMSU=  1.89D-08    CP:  6.33D-01  1.55D+00  7.65D-01  9.89D-01  1.30D+00
                    CP:  1.16D+00  1.21D+00  1.38D+00  1.45D+00  1.56D+00
                    CP:  1.36D+00  1.39D+00  1.63D+00  1.55D+00  1.16D+00
 E= -731.384619287228     Delta-E=       -0.000000000037 Rises=F Damp=F
 DIIS: error= 4.77D-08 at cycle  16 NSaved=  16.
 NSaved=16 IEnMin=14 EnMin= -731.384619287254     IErMin=16 ErrMin= 4.77D-08
 ErrMax= 4.77D-08  0.00D+00 EMaxC= 1.00D-01 BMatC= 2.47D-13 BMatP= 1.77D-12
 IDIUse=1 WtCom= 1.00D+00 WtEn= 0.00D+00
 Coeff-Com:  0.147D-06-0.362D-06 0.147D-05 0.548D-05 0.167D-04-0.116D-04
 Coeff-Com: -0.214D-03-0.419D-03 0.231D-03 0.353D-02 0.656D-02-0.108D-01
 Coeff-Com: -0.668D-01-0.582D-01 0.232D+00 0.894D+00
 Coeff:      0.147D-06-0.362D-06 0.147D-05 0.548D-05 0.167D-04-0.116D-04
 Coeff:     -0.214D-03-0.419D-03 0.231D-03 0.353D-02 0.656D-02-0.108D-01
 Coeff:     -0.668D-01-0.582D-01 0.232D+00 0.894D+00
 Gap=     0.271 Goal=   None    Shift=    0.000
 RMSDP=3.68D-08 MaxDP=2.62D-06 DE=-3.71D-11 OVMax= 7.78D-07

 Cycle  17  Pass 1  IDiag  1:
 RMSU=  5.61D-09    CP:  6.33D-01  1.55D+00  7.65D-01  9.89D-01  1.30D+00
                    CP:  1.16D+00  1.21D+00  1.38D+00  1.45D+00  1.56D+00
                    CP:  1.36D+00  1.40D+00  1.65D+00  1.64D+00  1.36D+00
                    CP:  1.25D+00
 E= -731.384619287180     Delta-E=        0.000000000048 Rises=F Damp=F
 DIIS: error= 1.78D-08 at cycle  17 NSaved=  17.
 NSaved=17 IEnMin=14 EnMin= -731.384619287254     IErMin=17 ErrMin= 1.78D-08
 ErrMax= 1.78D-08  0.00D+00 EMaxC= 1.00D-01 BMatC= 6.66D-14 BMatP= 2.47D-13
 IDIUse=1 WtCom= 1.00D+00 WtEn= 0.00D+00
 Coeff-Com:  0.148D-06-0.331D-06-0.793D-06 0.711D-06 0.158D-04 0.176D-04
 Coeff-Com: -0.171D-05-0.118D-03-0.490D-03 0.341D-03 0.356D-02 0.797D-02
 Coeff-Com: -0.688D-02-0.829D-01-0.681D-01 0.417D+00 0.730D+00
 Coeff:      0.148D-06-0.331D-06-0.793D-06 0.711D-06 0.158D-04 0.176D-04
 Coeff:     -0.171D-05-0.118D-03-0.490D-03 0.341D-03 0.356D-02 0.797D-02
 Coeff:     -0.688D-02-0.829D-01-0.681D-01 0.417D+00 0.730D+00
 Gap=     0.271 Goal=   None    Shift=    0.000
 RMSDP=1.59D-08 MaxDP=1.23D-06 DE= 4.80D-11 OVMax= 2.32D-07

 Cycle  18  Pass 1  IDiag  1:
 RMSU=  2.86D-09    CP:  6.33D-01  1.55D+00  7.65D-01  9.89D-01  1.30D+00
                    CP:  1.16D+00  1.21D+00  1.38D+00  1.45D+00  1.56D+00
                    CP:  1.36D+00  1.39D+00  1.65D+00  1.66D+00  1.39D+00
                    CP:  1.44D+00  1.30D+00
 E= -731.384619287206     Delta-E=       -0.000000000026 Rises=F Damp=F
 DIIS: error= 5.44D-09 at cycle  18 NSaved=  18.
 NSaved=18 IEnMin=14 EnMin= -731.384619287254     IErMin=18 ErrMin= 5.44D-09
 ErrMax= 5.44D-09  0.00D+00 EMaxC= 1.00D-01 BMatC= 4.60D-15 BMatP= 6.66D-14
 IDIUse=1 WtCom= 1.00D+00 WtEn= 0.00D+00
 Coeff-Com: -0.323D-08 0.928D-08-0.313D-06-0.464D-06 0.135D-05 0.553D-05
 Coeff-Com:  0.256D-04 0.143D-04-0.158D-03-0.344D-03-0.658D-04 0.304D-02
 Coeff-Com:  0.521D-02-0.113D-01-0.437D-01-0.227D-01 0.175D+00 0.895D+00
 Coeff:     -0.323D-08 0.928D-08-0.313D-06-0.464D-06 0.135D-05 0.553D-05
 Coeff:      0.256D-04 0.143D-04-0.158D-03-0.344D-03-0.658D-04 0.304D-02
 Coeff:      0.521D-02-0.113D-01-0.437D-01-0.227D-01 0.175D+00 0.895D+00
 Gap=     0.271 Goal=   None    Shift=    0.000
 RMSDP=6.25D-09 MaxDP=5.66D-07 DE=-2.57D-11 OVMax= 9.02D-08

 SCF Done:  E(RwB97XD) =  -731.384619287     A.U. after   18 cycles
            NFock= 18  Conv=0.63D-08     -V/T= 2.0044
 KE= 7.281648009511D+02 PE=-3.589028526266D+03 EE= 1.190266880465D+03
 Leave Link  502 at Fri Nov  3 01:15:41 2017, MaxMem=  3758096384 cpu:      1209.4
 (Enter /share/apps/gaussian/g09_D01/g09/l801.exe)
 DoSCS=F DFT=T ScalE2(SS,OS)=  1.000000  1.000000
 ExpMin= 3.60D-02 ExpMax= 1.14D+04 ExpMxC= 1.72D+03 IAcc=3 IRadAn=         5 AccDes= 0.00D+00
 HarFok:  IExCor=  205 AccDes= 0.00D+00 IRadAn=         5 IDoV=-2 UseB2=F ITyADJ=14
 ICtDFT= 12500011 ScaDFX=  1.000000  1.000000  1.000000  1.000000
 Largest valence mixing into a core orbital is  5.73D-05
 Largest core mixing into a valence orbital is  1.58D-05
 Range of M.O.s used for correlation:    16   412
 NBasis=   414 NAE=    55 NBE=    55 NFC=    15 NFV=     0
 NROrb=    397 NOA=    40 NOB=    40 NVA=   357 NVB=   357

 **** Warning!!: The largest alpha MO coefficient is  0.18015366D+03

 Leave Link  801 at Fri Nov  3 01:15:41 2017, MaxMem=  3758096384 cpu:         0.9
 (Enter /share/apps/gaussian/g09_D01/g09/l914.exe)
 RHF ground state
 MDV=  3758096384 DFT=T DoStab=F Mixed=T DoRPA=T DoScal=F NonHer=T
 Would need an additional         18445000000 words for in-memory AO integral storage.
 Making orbital integer symmetry assigments:
    16 initial guesses have been made.
 Convergence on wavefunction:    0.001000000000000
 Davidson Disk Diagonalization:  ConvIn= 1.00D-03 SkipCon=T Conv= 1.00D-03.
 Max sub-space:   200 roots to seek:    16 dimension of matrix:        28560
 Iteration     1 Dimension    16 NMult     0 NNew     16
 CISAX will form    16 AO SS matrices at one time.
 NMat=    16 NSing=    16 JSym2X= 0.
 FoFJK:  IHMeth= 1 ICntrl=       0 DoSepK=T KAlg= 0 I1Cent=   0 FoldK=F
 IRaf=         1 NMat=  32 IRICut=       1 DoRegI=T DoRafI=F ISym2E= 0.
 FoFCou: FMM=F IPFlag=           0 FMFlag=      100000 FMFlg1=           0
         NFxFlg=           0 DoJE=F BraDBF=F KetDBF=F FulRan=T
         wScrn=  0.000000 ICntrl=     500 IOpCl=  0 I1Cent=           0 NGrid=           0
         NMat0=   16 NMatS0=     16 NMatT0=    0 NMatD0=   16 NMtDS0=    0 NMtDT0=    0
 Symmetry not used in FoFCou.
 New state      2 was old state      5
 New state      3 was old state      2
 New state      4 was old state      3
 Excitation Energies [eV] at current iteration:
 Root      1 :     4.309048139779183
 Root      2 :     4.440124841117203
 Root      3 :     5.183689536302815
 Root      4 :     5.883549849702941
 Root      5 :     5.936945919454623
 Root      6 :     6.334665561492232
 Root      7 :     6.502300279378716
 Root      8 :     6.540419624969077
 Root      9 :     6.688263159610099
 Root     10 :     6.761706385434697
 Root     11 :     6.960583394860417
 Root     12 :     7.037093400898468
 Root     13 :     7.289125614535488
 Root     14 :     7.460946603719857
 Root     15 :     7.635116770521959
 Root     16 :     7.694278019798254
 Iteration     2 Dimension    24 NMult    16 NNew      8
 CISAX will form     8 AO SS matrices at one time.
 NMat=     8 NSing=     8 JSym2X= 0.
 Root      1 not converged, maximum delta is    0.178696598034856
 Root      2 not converged, maximum delta is    0.160361354738198
 Root      3 not converged, maximum delta is    0.072668412256205
 Root      4 not converged, maximum delta is    0.085114427602369
 Excitation Energies [eV] at current iteration:
 Root      1 :     3.767345798594008   Change is   -0.541702341185175
 Root      2 :     4.151660312693025   Change is   -0.288464528424178
 Root      3 :     4.477831121450635   Change is   -0.705858414852180
 Root      4 :     5.613563686741677   Change is   -0.269986162961264
 Iteration     3 Dimension    32 NMult    24 NNew      8
 CISAX will form     8 AO SS matrices at one time.
 NMat=     8 NSing=     8 JSym2X= 0.
 Root      1 not converged, maximum delta is    0.029357342149268
 Root      2 not converged, maximum delta is    0.013027075117609
 Root      3 not converged, maximum delta is    0.034342417109891
 Root      4 not converged, maximum delta is    0.356368296255795
 Excitation Energies [eV] at current iteration:
 Root      1 :     3.721960699882350   Change is   -0.045385098711657
 Root      2 :     4.134928523057487   Change is   -0.016731789635537
 Root      3 :     4.423580042118965   Change is   -0.054251079331670
 Root      4 :     5.425127189651138   Change is   -0.188436497090539
 Iteration     4 Dimension    40 NMult    32 NNew      8
 CISAX will form     8 AO SS matrices at one time.
 NMat=     8 NSing=     8 JSym2X= 0.
 Root      1 not converged, maximum delta is    0.012278225649655
 Root      2 not converged, maximum delta is    0.005465033089075
 Root      3 not converged, maximum delta is    0.009955780315150
 Root      4 not converged, maximum delta is    0.099913222618506
 Excitation Energies [eV] at current iteration:
 Root      1 :     3.713678586963142   Change is   -0.008282112919208
 Root      2 :     4.133314189707430   Change is   -0.001614333350057
 Root      3 :     4.414562685090720   Change is   -0.009017357028244
 Root      4 :     5.225774493357732   Change is   -0.199352696293406
 Iteration     5 Dimension    48 NMult    40 NNew      8
 CISAX will form     8 AO SS matrices at one time.
 NMat=     8 NSing=     8 JSym2X= 0.
 Root      1 not converged, maximum delta is    0.002816909811141
 Root      2 not converged, maximum delta is    0.001855580633536
 Root      3 not converged, maximum delta is    0.003609631377093
 Root      4 not converged, maximum delta is    0.027075578030602
 Excitation Energies [eV] at current iteration:
 Root      1 :     3.712687873104120   Change is   -0.000990713859022
 Root      2 :     4.133128289826153   Change is   -0.000185899881277
 Root      3 :     4.413488721795773   Change is   -0.001073963294948
 Root      4 :     5.193944382578296   Change is   -0.031830110779436
 Iteration     6 Dimension    56 NMult    48 NNew      8
 CISAX will form     8 AO SS matrices at one time.
 NMat=     8 NSing=     8 JSym2X= 0.
 Root      1 has converged.
 Root      2 has converged.
 Root      3 has converged.
 Root      4 not converged, maximum delta is    0.009719772998299
 Excitation Energies [eV] at current iteration:
 Root      1 :     3.712605095912245   Change is   -0.000082777191876
 Root      2 :     4.133112107686676   Change is   -0.000016182139477
 Root      3 :     4.413402187706763   Change is   -0.000086534089010
 Root      4 :     5.189741202607047   Change is   -0.004203179971249
 Iteration     7 Dimension    58 NMult    56 NNew      2
 CISAX will form     2 AO SS matrices at one time.
 NMat=     2 NSing=     2 JSym2X= 0.
 Root      1 has converged.
 Root      2 has converged.
 Root      3 has converged.
 Root      4 not converged, maximum delta is    0.002788035559791
 Excitation Energies [eV] at current iteration:
 Root      1 :     3.712604540610544   Change is   -0.000000555301701
 Root      2 :     4.133112104355164   Change is   -0.000000003331512
 Root      3 :     4.413401135615279   Change is   -0.000001052091484
 Root      4 :     5.189229102716946   Change is   -0.000512099890102
 Iteration     8 Dimension    60 NMult    58 NNew      2
 CISAX will form     2 AO SS matrices at one time.
 NMat=     2 NSing=     2 JSym2X= 0.
 Root      1 has converged.
 Root      2 has converged.
 Root      3 has converged.
 Root      4 has converged.
 Excitation Energies [eV] at current iteration:
 Root      1 :     3.712604315282857   Change is   -0.000000225327687
 Root      2 :     4.133112080881589   Change is   -0.000000023473575
 Root      3 :     4.413400706043453   Change is   -0.000000429571825
 Root      4 :     5.189169565783607   Change is   -0.000059536933338
 Convergence achieved on expansion vectors.
 ***********************************************************************
 Excited states from <AA,BB:AA,BB> singles matrix:
 ***********************************************************************
 
 1PDM for each excited state written to RWF  633
 Ground to excited state transition densities written to RWF  633
 Ground to excited state transition electric dipole moments (Au):
       state          X           Y           Z        Dip. S.      Osc.
         1         1.8581     -0.9751      0.1788      4.4355      0.4034
         2         0.2098     -0.0810      0.0044      0.0506      0.0051
         3        -1.6099      0.6986     -0.0785      3.0859      0.3337
         4         0.1502      0.0554     -0.3658      0.1595      0.0203
 Ground to excited state transition velocity dipole moments (Au):
       state          X           Y           Z        Dip. S.      Osc.
         1        -0.2527      0.1349     -0.0290      0.0829      0.4050
         2        -0.0318      0.0118     -0.0017      0.0012      0.0051
         3         0.2560     -0.1102      0.0099      0.0778      0.3196
         4        -0.0197     -0.0137      0.0660      0.0049      0.0173
 Ground to excited state transition magnetic dipole moments (Au):
       state          X           Y           Z
         1         2.2068      4.1068      0.1607
         2         0.1274      0.2785      0.3783
         3        -1.2382     -2.9186      0.5243
         4        -0.4947     -0.3191     -0.2239
 Ground to excited state transition velocity quadrupole moments (Au):
       state          XX          YY          ZZ          XY          XZ          YZ
         1        -3.0922     -0.9840      0.7297      1.7596      3.3222     -1.7002
         2        -0.3761     -0.0745      0.0148      0.2015      0.4260     -0.1781
         3         1.6136      0.3243     -0.0151     -0.7343     -3.8389      1.5323
         4        -0.3993      0.0425     -1.8083      0.0398      0.6583     -0.0168
 <0|del|b> * <b|rxdel|0> + <0|del|b> * <b|delr+rdel|0>
 Rotatory Strengths (R) in cgs (10**-40 erg-esu-cm/Gauss)
       state          XX          YY          ZZ    R(velocity)    E-M Angle
         1       129.9462   -211.4357     39.3797    -14.0366       90.35
         2        -6.3114      3.0660     -3.2522     -2.1659       94.84
         3      -225.5384    191.3139     76.7488     14.1748       89.38
         4         2.3195    -13.5566      8.8649     -0.7907       90.83
 1/2[<0|r|b>*<b|rxdel|0> + (<0|rxdel|b>*<b|r|0>)*]
 Rotatory Strengths (R) in cgs (10**-40 erg-esu-cm/Gauss)
       state          XX          YY          ZZ     R(length)
         1     -2899.6936   2832.0229    -20.3197    -29.3301
         2       -18.8950     15.9546     -1.1792     -1.3732
         3     -1409.5974   1441.8189     29.1011     20.4409
         4        52.5381     12.4983    -57.9234      2.3710
  1/2[<0|del|b>*<b|r|0> + (<0|r|b>*<b|del|0>)*] (Au)
       state          X           Y           Z        Dip. S.   Osc.(frdel)
         1        -0.4695     -0.1316     -0.0052      0.6062      0.4041
         2        -0.0067     -0.0010      0.0000      0.0076      0.0051
         3        -0.4121     -0.0770     -0.0008      0.4898      0.3265
         4        -0.0030     -0.0008     -0.0242      0.0279      0.0186

 Excitation energies and oscillator strengths:
 
 Excited state symmetry could not be determined.
 Excited State   1:      Singlet-?Sym    3.7126 eV  333.95 nm  f=0.4034  <S**2>=0.000
      55 -> 56         0.68198
      55 -> 59         0.11806
 This state for optimization and/or second-order correction.
 Total Energy, E(TD-HF/TD-KS) =  -731.248183583    
 Copying the excited state density for this state as the 1-particle RhoCI density.
 
 Excited state symmetry could not be determined.
 Excited State   2:      Singlet-?Sym    4.1331 eV  299.98 nm  f=0.0051  <S**2>=0.000
      52 -> 56        -0.12081
      53 -> 56         0.67342
 
 Excited state symmetry could not be determined.
 Excited State   3:      Singlet-?Sym    4.4134 eV  280.93 nm  f=0.3337  <S**2>=0.000
      54 -> 56         0.68149
      55 -> 59         0.11470
 
 Excited state symmetry could not be determined.
 Excited State   4:      Singlet-?Sym    5.1892 eV  238.93 nm  f=0.0203  <S**2>=0.000
      52 -> 56         0.47838
      54 -> 59        -0.13517
      55 -> 59        -0.34622
      55 -> 61        -0.19192
      55 -> 67         0.16745
 SavETr:  write IOETrn=   770 NScale= 10 NData=  16 NLR=1 NState=    4 LETran=      82.
 Leave Link  914 at Fri Nov  3 01:27:28 2017, MaxMem=  3758096384 cpu:      2817.3
 (Enter /share/apps/gaussian/g09_D01/g09/l601.exe)
 Copying SCF densities to generalized density rwf, IOpCl= 0 IROHF=0.

 **********************************************************************

            Population analysis using the SCF density.

 **********************************************************************

 Alpha  occ. eigenvalues --  -24.80425 -19.23729 -19.23166 -14.50794 -10.38451
 Alpha  occ. eigenvalues --  -10.36636 -10.36456 -10.35453 -10.35299 -10.35106
 Alpha  occ. eigenvalues --  -10.30607 -10.30578 -10.30441 -10.29169 -10.28723
 Alpha  occ. eigenvalues --   -1.30889  -1.14841  -1.10874  -1.10055  -0.96355
 Alpha  occ. eigenvalues --   -0.90453  -0.87322  -0.86118  -0.83776  -0.81434
 Alpha  occ. eigenvalues --   -0.75058  -0.71036  -0.69238  -0.66166  -0.64044
 Alpha  occ. eigenvalues --   -0.61634  -0.60528  -0.59679  -0.59498  -0.58028
 Alpha  occ. eigenvalues --   -0.54773  -0.54595  -0.52979  -0.52676  -0.52312
 Alpha  occ. eigenvalues --   -0.52074  -0.50925  -0.50491  -0.50320  -0.49121
 Alpha  occ. eigenvalues --   -0.47604  -0.46561  -0.44836  -0.43399  -0.42680
 Alpha  occ. eigenvalues --   -0.41149  -0.34482  -0.34284  -0.30901  -0.28428
 Alpha virt. eigenvalues --   -0.01278   0.02230   0.04065   0.04939   0.05168
 Alpha virt. eigenvalues --    0.05548   0.05666   0.06857   0.07478   0.07781
 Alpha virt. eigenvalues --    0.07837   0.08263   0.08478   0.10258   0.10857
 Alpha virt. eigenvalues --    0.11593   0.11680   0.12432   0.12685   0.13674
 Alpha virt. eigenvalues --    0.14093   0.14376   0.14555   0.15162   0.15609
 Alpha virt. eigenvalues --    0.15818   0.16140   0.16619   0.16816   0.17128
 Alpha virt. eigenvalues --    0.17296   0.17893   0.18323   0.18709   0.19181
 Alpha virt. eigenvalues --    0.19496   0.19662   0.20152   0.20958   0.21115
 Alpha virt. eigenvalues --    0.21494   0.21536   0.21955   0.22399   0.22905
 Alpha virt. eigenvalues --    0.23170   0.23789   0.24119   0.25152   0.25464
 Alpha virt. eigenvalues --    0.26022   0.26518   0.26704   0.27015   0.27183
 Alpha virt. eigenvalues --    0.27813   0.28046   0.28588   0.28886   0.29762
 Alpha virt. eigenvalues --    0.30136   0.30537   0.31432   0.31825   0.32461
 Alpha virt. eigenvalues --    0.33198   0.33611   0.34318   0.34416   0.35244
 Alpha virt. eigenvalues --    0.36236   0.36607   0.37171   0.37415   0.37784
 Alpha virt. eigenvalues --    0.38205   0.38786   0.39091   0.39579   0.40064
 Alpha virt. eigenvalues --    0.40452   0.41798   0.42067   0.42212   0.42962
 Alpha virt. eigenvalues --    0.43427   0.44686   0.45057   0.46140   0.47184
 Alpha virt. eigenvalues --    0.47483   0.48654   0.49076   0.50345   0.50667
 Alpha virt. eigenvalues --    0.51343   0.51760   0.52904   0.54984   0.55544
 Alpha virt. eigenvalues --    0.55865   0.56919   0.59949   0.61177   0.61618
 Alpha virt. eigenvalues --    0.62282   0.62807   0.63966   0.64931   0.65696
 Alpha virt. eigenvalues --    0.66030   0.66450   0.67292   0.68747   0.69149
 Alpha virt. eigenvalues --    0.69357   0.69431   0.69604   0.70270   0.70438
 Alpha virt. eigenvalues --    0.71322   0.73302   0.73852   0.73919   0.75386
 Alpha virt. eigenvalues --    0.76827   0.77001   0.77480   0.78556   0.79421
 Alpha virt. eigenvalues --    0.80139   0.81478   0.82281   0.84557   0.85914
 Alpha virt. eigenvalues --    0.86531   0.87114   0.89479   0.92180   0.92815
 Alpha virt. eigenvalues --    0.93990   0.94399   0.94737   0.96087   0.97907
 Alpha virt. eigenvalues --    0.98519   0.99899   1.01089   1.01480   1.03660
 Alpha virt. eigenvalues --    1.04078   1.04552   1.05583   1.06493   1.07939
 Alpha virt. eigenvalues --    1.10278   1.11066   1.11558   1.12247   1.13849
 Alpha virt. eigenvalues --    1.14162   1.15301   1.17934   1.19112   1.19694
 Alpha virt. eigenvalues --    1.20191   1.21009   1.24502   1.25438   1.28648
 Alpha virt. eigenvalues --    1.31267   1.32956   1.34252   1.34737   1.35946
 Alpha virt. eigenvalues --    1.37966   1.38252   1.41791   1.42680   1.48063
 Alpha virt. eigenvalues --    1.49160   1.49753   1.52685   1.52976   1.54505
 Alpha virt. eigenvalues --    1.54841   1.55796   1.56317   1.57593   1.58992
 Alpha virt. eigenvalues --    1.60062   1.60888   1.61954   1.62717   1.63961
 Alpha virt. eigenvalues --    1.64976   1.65242   1.65936   1.68378   1.68534
 Alpha virt. eigenvalues --    1.69614   1.71438   1.71997   1.73883   1.75219
 Alpha virt. eigenvalues --    1.75620   1.77206   1.78115   1.79396   1.81059
 Alpha virt. eigenvalues --    1.81849   1.82185   1.83960   1.85990   1.86901
 Alpha virt. eigenvalues --    1.89384   1.92304   1.93585   1.95170   1.95892
 Alpha virt. eigenvalues --    1.98415   1.99644   2.01682   2.03214   2.03312
 Alpha virt. eigenvalues --    2.04235   2.05484   2.05589   2.07137   2.07956
 Alpha virt. eigenvalues --    2.09934   2.10529   2.12404   2.14902   2.17241
 Alpha virt. eigenvalues --    2.18596   2.19436   2.20810   2.22288   2.22729
 Alpha virt. eigenvalues --    2.22857   2.26156   2.28433   2.30027   2.34841
 Alpha virt. eigenvalues --    2.39158   2.40456   2.41587   2.44715   2.45140
 Alpha virt. eigenvalues --    2.48043   2.49899   2.51119   2.53197   2.54429
 Alpha virt. eigenvalues --    2.56349   2.57581   2.59852   2.62160   2.64017
 Alpha virt. eigenvalues --    2.67940   2.69242   2.70261   2.72171   2.73590
 Alpha virt. eigenvalues --    2.73925   2.75335   2.77439   2.79100   2.80472
 Alpha virt. eigenvalues --    2.81235   2.82733   2.84274   2.84936   2.85195
 Alpha virt. eigenvalues --    2.86226   2.90906   2.92203   2.93490   2.94044
 Alpha virt. eigenvalues --    2.96330   2.96853   2.97782   3.00646   3.03000
 Alpha virt. eigenvalues --    3.06693   3.09884   3.13724   3.14696   3.16956
 Alpha virt. eigenvalues --    3.17883   3.20931   3.22697   3.24592   3.28542
 Alpha virt. eigenvalues --    3.31233   3.31455   3.35023   3.37474   3.40377
 Alpha virt. eigenvalues --    3.46027   3.49732   3.53594   3.57107   3.60808
 Alpha virt. eigenvalues --    3.63830   3.66439   3.69591   3.73072   3.76952
 Alpha virt. eigenvalues --    3.77836   3.79966   3.80259   3.82348   3.87359
 Alpha virt. eigenvalues --    3.89297   3.90560   3.91694   3.96140   4.03324
 Alpha virt. eigenvalues --    4.06360   4.06869   4.12421   4.16347   4.19935
 Alpha virt. eigenvalues --    4.27876   4.29942   4.39621   4.64115   4.93220
 Alpha virt. eigenvalues --    4.94405   4.95166   5.15613   5.16189   5.18662
 Alpha virt. eigenvalues --    5.36540   5.66132   5.83806   5.98699   6.45943
 Alpha virt. eigenvalues --    6.59272   6.84825  23.69598  23.90817  24.00244
 Alpha virt. eigenvalues --   24.01027  24.03223  24.04094  24.07229  24.12754
 Alpha virt. eigenvalues --   24.21063  24.22918  24.29162  35.68619  50.14288
 Alpha virt. eigenvalues --   50.17745  66.96424
          Condensed to atoms (all electrons):
               1          2          3          4          5          6
     1  C   31.113918  -8.853467   1.198465   0.669594  -0.340999   0.084669
     2  C   -8.853467  18.356608  -0.295440  -3.762055   0.303703   0.340449
     3  H    1.198465  -0.295440   0.870988   0.034113  -0.014026  -0.000399
     4  C    0.669594  -3.762055   0.034113  21.463537  -0.026591   0.045084
     5  N   -0.340999   0.303703  -0.014026  -0.026591   6.833195  -0.064080
     6  H    0.084669   0.340449  -0.000399   0.045084  -0.064080   0.460111
     7  C  -13.283273   2.649645  -0.270957  -6.995187   0.007878  -0.075789
     8  O   -0.489844   0.222416  -0.015581   0.825534   0.003902   0.008607
     9  C    0.772898  -0.334997   0.034456  -0.375601   0.234464   0.007977
    10  C   -0.146210  -0.011786  -0.005204  -0.141512   0.276549  -0.033555
    11  C   -0.866517  -1.377590  -0.702471  -2.820592  -0.026568   0.042015
    12  C   -2.425542  -1.254826   0.117337   1.339144   0.001728  -0.051799
    13  H   -0.000264  -0.034846  -0.004524   0.038329  -0.000224   0.000489
    14  H   -0.097144   0.075340  -0.025703   0.014135  -0.047985   0.002059
    15  H   -0.026130   0.000769   0.007147  -0.002076  -0.037240  -0.001363
    16  H    0.033729   0.018460   0.000852  -0.027251  -0.048448  -0.000599
    17  H   -0.056093   0.076008  -0.002882   0.038438  -0.092785  -0.009712
    18  H    0.038020  -0.046327   0.001742   0.001529  -0.047963   0.002545
    19  H    0.034713  -0.035052   0.000935  -0.010374  -0.045056   0.002637
    20  C    0.692927  -0.639692   0.076058   2.092049  -0.000537   0.001002
    21  H   -0.257796  -0.066304  -0.148415  -0.126156  -0.009838   0.002283
    22  C   -1.256845   0.500262  -0.118813  -5.729789   0.000967  -0.000281
    23  O   -0.083672   0.022996  -0.002558  -0.242754  -0.000064  -0.000202
    24  C   -0.259031  -0.270237   0.159672   0.559405   0.002159  -0.003379
    25  F    0.006675  -0.000651   0.013329   0.011964   0.000004  -0.000043
    26  H   -0.006899   0.003668  -0.001640  -0.056538  -0.000020  -0.000085
    27  H   -0.008151  -0.003030   0.002548   0.015946   0.000020  -0.000051
               7          8          9         10         11         12
     1  C  -13.283273  -0.489844   0.772898  -0.146210  -0.866517  -2.425542
     2  C    2.649645   0.222416  -0.334997  -0.011786  -1.377590  -1.254826
     3  H   -0.270957  -0.015581   0.034456  -0.005204  -0.702471   0.117337
     4  C   -6.995187   0.825534  -0.375601  -0.141512  -2.820592   1.339144
     5  N    0.007878   0.003902   0.234464   0.276549  -0.026568   0.001728
     6  H   -0.075789   0.008607   0.007977  -0.033555   0.042015  -0.051799
     7  C   30.489441  -0.088930  -0.318163   0.018963  -3.884097  -2.634680
     8  O   -0.088930   8.162902  -0.001998   0.001600  -0.128302  -0.177029
     9  C   -0.318163  -0.001998   5.289240  -0.063784   0.010615  -0.019010
    10  C    0.018963   0.001600  -0.063784   5.219607  -0.019879  -0.000871
    11  C   -3.884097  -0.128302   0.010615  -0.019879  26.114508  -8.797179
    12  C   -2.634680  -0.177029  -0.019010  -0.000871  -8.797179  22.185332
    13  H   -0.094615   0.087553  -0.001118  -0.000422   0.078864  -0.036846
    14  H    0.005864   0.000549   0.409563   0.001229   0.014110  -0.002918
    15  H    0.008333   0.000190   0.409929  -0.000293  -0.001226  -0.002609
    16  H   -0.008988   0.000048   0.388020   0.009280  -0.003792   0.000161
    17  H    0.023576   0.001260  -0.007033   0.402471  -0.004702   0.004263
    18  H   -0.001803  -0.000020  -0.002194   0.405342   0.000949  -0.000198
    19  H   -0.003740  -0.000084   0.007421   0.400890   0.000806  -0.000559
    20  C   -4.299138  -0.003230   0.017606   0.001796  -2.042736   2.021998
    21  H   -0.326958   0.002633  -0.000419  -0.002785   1.619731  -0.113220
    22  C    1.897683  -0.038536  -0.005224  -0.000505   5.781231  -5.901580
    23  O    0.226661   0.018101  -0.000207   0.000205   0.005461   0.348234
    24  C    0.792391  -0.026821  -0.004950  -0.000185  -5.300366   1.562840
    25  F    0.100423  -0.000002  -0.000101   0.000000  -0.130586   0.015039
    26  H   -0.047638   0.000476   0.000028   0.000014   0.124272  -0.230893
    27  H    0.113097  -0.000281  -0.000123   0.000006  -0.207533   0.092109
              13         14         15         16         17         18
     1  C   -0.000264  -0.097144  -0.026130   0.033729  -0.056093   0.038020
     2  C   -0.034846   0.075340   0.000769   0.018460   0.076008  -0.046327
     3  H   -0.004524  -0.025703   0.007147   0.000852  -0.002882   0.001742
     4  C    0.038329   0.014135  -0.002076  -0.027251   0.038438   0.001529
     5  N   -0.000224  -0.047985  -0.037240  -0.048448  -0.092785  -0.047963
     6  H    0.000489   0.002059  -0.001363  -0.000599  -0.009712   0.002545
     7  C   -0.094615   0.005864   0.008333  -0.008988   0.023576  -0.001803
     8  O    0.087553   0.000549   0.000190   0.000048   0.001260  -0.000020
     9  C   -0.001118   0.409563   0.409929   0.388020  -0.007033  -0.002194
    10  C   -0.000422   0.001229  -0.000293   0.009280   0.402471   0.405342
    11  C    0.078864   0.014110  -0.001226  -0.003792  -0.004702   0.000949
    12  C   -0.036846  -0.002918  -0.002609   0.000161   0.004263  -0.000198
    13  H    0.270374   0.000104   0.000010  -0.000116   0.000144   0.000034
    14  H    0.000104   0.527045  -0.049287  -0.018430  -0.001632  -0.001902
    15  H    0.000010  -0.049287   0.514750  -0.020725  -0.001271   0.002984
    16  H   -0.000116  -0.018430  -0.020725   0.484724   0.002981  -0.004368
    17  H    0.000144  -0.001632  -0.001271   0.002981   0.528804  -0.024542
    18  H    0.000034  -0.001902   0.002984  -0.004368  -0.024542   0.553979
    19  H    0.000006   0.001955  -0.000777  -0.006901  -0.026678  -0.062257
    20  C    0.017227  -0.005485   0.000427  -0.000184  -0.001174   0.000410
    21  H    0.004576   0.005163  -0.004109   0.000167   0.000268  -0.000223
    22  C    0.038236   0.001193   0.000454   0.000099   0.001029  -0.000236
    23  O    0.222370   0.000078   0.000018  -0.000007  -0.000004   0.000009
    24  C   -0.005440  -0.002243   0.000825  -0.000358  -0.000023   0.000072
    25  F    0.000178  -0.000135   0.000034  -0.000007   0.000000   0.000000
    26  H    0.000296   0.000003  -0.000009   0.000003   0.000005  -0.000001
    27  H   -0.000365  -0.000019   0.000014  -0.000007   0.000000   0.000001
              19         20         21         22         23         24
     1  C    0.034713   0.692927  -0.257796  -1.256845  -0.083672  -0.259031
     2  C   -0.035052  -0.639692  -0.066304   0.500262   0.022996  -0.270237
     3  H    0.000935   0.076058  -0.148415  -0.118813  -0.002558   0.159672
     4  C   -0.010374   2.092049  -0.126156  -5.729789  -0.242754   0.559405
     5  N   -0.045056  -0.000537  -0.009838   0.000967  -0.000064   0.002159
     6  H    0.002637   0.001002   0.002283  -0.000281  -0.000202  -0.003379
     7  C   -0.003740  -4.299138  -0.326958   1.897683   0.226661   0.792391
     8  O   -0.000084  -0.003230   0.002633  -0.038536   0.018101  -0.026821
     9  C    0.007421   0.017606  -0.000419  -0.005224  -0.000207  -0.004950
    10  C    0.400890   0.001796  -0.002785  -0.000505   0.000205  -0.000185
    11  C    0.000806  -2.042736   1.619731   5.781231   0.005461  -5.300366
    12  C   -0.000559   2.021998  -0.113220  -5.901580   0.348234   1.562840
    13  H    0.000006   0.017227   0.004576   0.038236   0.222370  -0.005440
    14  H    0.001955  -0.005485   0.005163   0.001193   0.000078  -0.002243
    15  H   -0.000777   0.000427  -0.004109   0.000454   0.000018   0.000825
    16  H   -0.006901  -0.000184   0.000167   0.000099  -0.000007  -0.000358
    17  H   -0.026678  -0.001174   0.000268   0.001029  -0.000004  -0.000023
    18  H   -0.062257   0.000410  -0.000223  -0.000236   0.000009   0.000072
    19  H    0.551408   0.000119   0.000078  -0.000032  -0.000008  -0.000029
    20  C    0.000119  11.392849  -0.193018  -1.764401  -0.017472  -0.877553
    21  H    0.000078  -0.193018   0.689224   0.221174  -0.000620  -0.407795
    22  C   -0.000032  -1.764401   0.221174  14.076520  -0.298906  -1.428195
    23  O   -0.000008  -0.017472  -0.000620  -0.298906   8.169143   0.021985
    24  C   -0.000029  -0.877553  -0.407795  -1.428195   0.021985  10.968692
    25  F    0.000000   0.350776  -0.064693  -0.007454   0.000140  -0.229105
    26  H    0.000001   0.027700   0.005297   0.626254  -0.021237  -0.112270
    27  H    0.000000  -0.213403  -0.011148  -0.107435   0.001365   0.637308
              25         26         27
     1  C    0.006675  -0.006899  -0.008151
     2  C   -0.000651   0.003668  -0.003030
     3  H    0.013329  -0.001640   0.002548
     4  C    0.011964  -0.056538   0.015946
     5  N    0.000004  -0.000020   0.000020
     6  H   -0.000043  -0.000085  -0.000051
     7  C    0.100423  -0.047638   0.113097
     8  O   -0.000002   0.000476  -0.000281
     9  C   -0.000101   0.000028  -0.000123
    10  C    0.000000   0.000014   0.000006
    11  C   -0.130586   0.124272  -0.207533
    12  C    0.015039  -0.230893   0.092109
    13  H    0.000178   0.000296  -0.000365
    14  H   -0.000135   0.000003  -0.000019
    15  H    0.000034  -0.000009   0.000014
    16  H   -0.000007   0.000003  -0.000007
    17  H    0.000000   0.000005   0.000000
    18  H    0.000000  -0.000001   0.000001
    19  H    0.000000   0.000001   0.000000
    20  C    0.350776   0.027700  -0.213403
    21  H   -0.064693   0.005297  -0.011148
    22  C   -0.007454   0.626254  -0.107435
    23  O    0.000140  -0.021237   0.001365
    24  C   -0.229105  -0.112270   0.637308
    25  F    9.129469   0.000814  -0.019657
    26  H    0.000814   0.460789  -0.013476
    27  H   -0.019657  -0.013476   0.469201
 Mulliken charges:
               1
     1  C   -0.187732
     2  C    0.415973
     3  H    0.090969
     4  C   -0.832327
     5  N    0.137854
     6  H    0.241410
     7  C    2.000003
     8  O   -0.365112
     9  C   -0.447296
    10  C   -0.310959
    11  C   -1.478424
    12  C   -0.038427
    13  H    0.419986
    14  H    0.194494
    15  H    0.201233
    16  H    0.201658
    17  H    0.149287
    18  H    0.184416
    19  H    0.190580
    20  C   -0.634924
    21  H    0.182901
    22  C   -0.486870
    23  O   -0.369056
    24  C    0.222631
    25  F   -0.176414
    26  H    0.241084
    27  H    0.253063
 Sum of Mulliken charges =   0.00000
 Mulliken charges with hydrogens summed into heavy atoms:
               1
     1  C   -0.096762
     2  C    0.657383
     4  C   -0.832327
     5  N    0.137854
     7  C    2.000003
     8  O   -0.365112
     9  C    0.150089
    10  C    0.213324
    11  C   -1.295524
    12  C   -0.038427
    20  C   -0.634924
    22  C   -0.245787
    23  O    0.050930
    24  C    0.475695
    25  F   -0.176414
 Electronic spatial extent (au):  <R**2>=          32688.2551
 Charge=              0.0000 electrons
 Dipole moment (field-independent basis, Debye):
    X=             -6.7608    Y=              3.7398    Z=             -2.0562  Tot=              7.9951
 Quadrupole moment (field-independent basis, Debye-Ang):
   XX=           -105.9198   YY=            -99.8838   ZZ=            -67.1505
   XY=             10.4457   XZ=             45.7944   YZ=            -21.5245
 Traceless Quadrupole moment (field-independent basis, Debye-Ang):
   XX=            -14.9351   YY=             -8.8991   ZZ=             23.8342
   XY=             10.4457   XZ=             45.7944   YZ=            -21.5245
 Octapole moment (field-independent basis, Debye-Ang**2):
  XXX=           -916.0030  YYY=            516.5872  ZZZ=           1880.0824  XYY=           -320.6240
  XXY=            167.5391  XXZ=            799.6927  XZZ=           -669.0587  YZZ=            303.0185
  YYZ=            727.8037  XYZ=            -49.8762
 Hexadecapole moment (field-independent basis, Debye-Ang**3):
 XXXX=          -9387.9637 YYYY=          -2764.7101 ZZZZ=         -31426.0902 XXXY=           2061.3347
 XXXZ=           7212.3381 YYYX=           2451.5190 YYYZ=          -3713.4983 ZZZX=          10530.9609
 ZZZY=          -4692.4921 XXYY=          -2010.5719 XXZZ=          -8208.2389 YYZZ=          -6001.1870
 XXYZ=          -1110.6467 YYXZ=           2373.4011 ZZXY=           1106.8784
 N-N= 9.392122255621D+02 E-N=-3.589028526315D+03  KE= 7.281648009511D+02
 Leave Link  601 at Fri Nov  3 01:27:28 2017, MaxMem=  3758096384 cpu:         0.3
 (Enter /share/apps/gaussian/g09_D01/g09/l9999.exe)
 1\1\GINC-NXV30\SP\RwB97XD TD-FC\6-311++G(d,p)\C11H12F1N1O2\BTX008\03-N
 ov-2017\0\\#p wb97xd 6-311++G** td=(nstates=4) nosymm\\Title\\0,1\C,0,
 2.01967,-1.204255,-7.518169\C,0,0.824463,-0.866185,-6.90641\H,0,2.1882
 ,-0.962891,-8.563435\C,0,3.025971,-1.900979,-6.78939\N,0,-0.210945,-0.
 244287,-7.469578\H,0,0.69219,-1.132436,-5.85463\C,0,4.311767,-2.280951
 ,-7.430103\O,0,2.862872,-2.240626,-5.55428\C,0,-0.210306,0.132364,-8.8
 81105\C,0,-1.40445,0.079822,-6.699822\C,0,4.691602,-1.854386,-8.719702
 \C,0,5.22169,-3.110952,-6.703518\H,0,3.98979,-3.059676,-5.278883\H,0,-
 0.023805,-0.750291,-9.5125\H,0,0.561147,0.8934,-9.095933\H,0,-1.190683
 ,0.547156,-9.14433\H,0,-1.300935,-0.317132,-5.680668\H,0,-2.288938,-0.
 372408,-7.178413\H,0,-1.542712,1.172696,-6.651177\C,0,5.913097,-2.2392
 37,-9.230257\H,0,4.052006,-1.22335,-9.335096\C,0,6.461334,-3.471968,-7
 .26138\O,0,4.907265,-3.553265,-5.473643\C,0,6.818592,-3.040609,-8.5338
 4\F,0,6.255097,-1.791264,-10.492981\H,0,7.139705,-4.087571,-6.664064\H
 ,0,7.776615,-3.303638,-8.990048\\Version=ES64L-G09RevD.01\HF=-731.3846
 193\RMSD=6.253e-09\PG=C01 [X(C11H12F1N1O2)]\\@


 THAT'S WHAT MAKES US A GREAT COUNTRY.
 THE LITTLE THINGS ARE SERIOUS AND THE BIG ONES ARE NOT.
           WILL ROGERS
 Job cpu time:       0 days  1 hours  7 minutes 40.7 seconds.
 File lengths (MBytes):  RWF=    262 Int=      0 D2E=      0 Chk=     30 Scr=      1
 Normal termination of Gaussian 09 at Fri Nov  3 01:27:29 2017.
