 Entering Gaussian System, Link 0=g09
 Input=2hp_4_888-mega_dimer_2_mon-0.com
 Output=2hp_4_888-mega_dimer_2_mon-0.out
 Initial command:
 /share/apps/gaussian/g09_D01/g09/l1.exe "/tmp/161010.1.all.q/Gau-33679.inp" -scrdir="/tmp/161010.1.all.q/"
 Entering Link 1 = /share/apps/gaussian/g09_D01/g09/l1.exe PID=     33680.
  
 Copyright (c) 1988,1990,1992,1993,1995,1998,2003,2009,2013,
            Gaussian, Inc.  All Rights Reserved.
  
 This is part of the Gaussian(R) 09 program.  It is based on
 the Gaussian(R) 03 system (copyright 2003, Gaussian, Inc.),
 the Gaussian(R) 98 system (copyright 1998, Gaussian, Inc.),
 the Gaussian(R) 94 system (copyright 1995, Gaussian, Inc.),
 the Gaussian 92(TM) system (copyright 1992, Gaussian, Inc.),
 the Gaussian 90(TM) system (copyright 1990, Gaussian, Inc.),
 the Gaussian 88(TM) system (copyright 1988, Gaussian, Inc.),
 the Gaussian 86(TM) system (copyright 1986, Carnegie Mellon
 University), and the Gaussian 82(TM) system (copyright 1983,
 Carnegie Mellon University). Gaussian is a federally registered
 trademark of Gaussian, Inc.
  
 This software contains proprietary and confidential information,
 including trade secrets, belonging to Gaussian, Inc.
  
 This software is provided under written license and may be
 used, copied, transmitted, or stored only in accord with that
 written license.
  
 The following legend is applicable only to US Government
 contracts under FAR:
  
                    RESTRICTED RIGHTS LEGEND
  
 Use, reproduction and disclosure by the US Government is
 subject to restrictions as set forth in subparagraphs (a)
 and (c) of the Commercial Computer Software - Restricted
 Rights clause in FAR 52.227-19.
  
 Gaussian, Inc.
 340 Quinnipiac St., Bldg. 40, Wallingford CT 06492
  
  
 ---------------------------------------------------------------
 Warning -- This program may not be used in any manner that
 competes with the business of Gaussian, Inc. or will provide
 assistance to any competitor of Gaussian, Inc.  The licensee
 of this program is prohibited from giving any competitor of
 Gaussian, Inc. access to this program.  By using this program,
 the user acknowledges that Gaussian, Inc. is engaged in the
 business of creating and licensing software in the field of
 computational chemistry and represents and warrants to the
 licensee that it is not a competitor of Gaussian, Inc. and that
 it will not use this program in any manner prohibited above.
 ---------------------------------------------------------------
  

 Cite this work as:
 Gaussian 09, Revision D.01,
 M. J. Frisch, G. W. Trucks, H. B. Schlegel, G. E. Scuseria, 
 M. A. Robb, J. R. Cheeseman, G. Scalmani, V. Barone, B. Mennucci, 
 G. A. Petersson, H. Nakatsuji, M. Caricato, X. Li, H. P. Hratchian, 
 A. F. Izmaylov, J. Bloino, G. Zheng, J. L. Sonnenberg, M. Hada, 
 M. Ehara, K. Toyota, R. Fukuda, J. Hasegawa, M. Ishida, T. Nakajima, 
 Y. Honda, O. Kitao, H. Nakai, T. Vreven, J. A. Montgomery, Jr., 
 J. E. Peralta, F. Ogliaro, M. Bearpark, J. J. Heyd, E. Brothers, 
 K. N. Kudin, V. N. Staroverov, T. Keith, R. Kobayashi, J. Normand, 
 K. Raghavachari, A. Rendell, J. C. Burant, S. S. Iyengar, J. Tomasi, 
 M. Cossi, N. Rega, J. M. Millam, M. Klene, J. E. Knox, J. B. Cross, 
 V. Bakken, C. Adamo, J. Jaramillo, R. Gomperts, R. E. Stratmann, 
 O. Yazyev, A. J. Austin, R. Cammi, C. Pomelli, J. W. Ochterski, 
 R. L. Martin, K. Morokuma, V. G. Zakrzewski, G. A. Voth, 
 P. Salvador, J. J. Dannenberg, S. Dapprich, A. D. Daniels, 
 O. Farkas, J. B. Foresman, J. V. Ortiz, J. Cioslowski, 
 and D. J. Fox, Gaussian, Inc., Wallingford CT, 2013.
 
 ******************************************
 Gaussian 09:  ES64L-G09RevD.01 24-Apr-2013
                 3-Nov-2017 
 ******************************************
 %chk=2hp_4_888-mega_dimer_2_mon-0.chk
 %nproc=4
 Will use up to    4 processors via shared memory.
 %mem=28GB
 ------------------------------------------
 #p wb97xd 6-311++G** td=(nstates=4) nosymm
 ------------------------------------------
 1/38=1/1;
 2/12=2,15=1,17=6,18=5,40=1/2;
 3/5=4,6=6,7=1111,11=9,16=1,25=1,30=1,74=-58/1,2,8,3;
 4//1;
 5/5=2,38=5/2;
 8/6=1,10=2,108=4/1;
 9/41=4,42=1,70=2/14;
 6/7=2,8=2,9=2,10=2/1;
 99/5=1,9=1/99;
 Leave Link    1 at Fri Nov  3 01:34:12 2017, MaxMem=  3758096384 cpu:         0.3
 (Enter /share/apps/gaussian/g09_D01/g09/l101.exe)
 -----
 Title
 -----
 Symbolic Z-matrix:
 Charge =  0 Multiplicity = 1
 H                     0.34389  -4.82259  -1.70948 
 C                     1.22837  -5.27482  -1.23089 
 H                     1.33189  -4.87787  -0.21173 
 H                     1.09012  -6.3677   -1.18224 
 N                     2.42189  -4.95071  -2.00065 
 C                     3.45728  -4.32882  -1.43747 
 C                     2.42251  -5.32737  -3.41218 
 C                     4.65249  -3.99075  -2.04923 
 H                     3.32501  -4.06257  -0.38569 
 H                     3.19398  -6.0884   -3.62699 
 H                     1.44214  -5.74216  -3.67539 
 H                     2.60902  -4.44471  -4.04357 
 C                     5.6588   -3.29402  -1.32045 
 H                     4.82103  -4.23211  -3.0945 
 C                     6.9446   -2.91405  -1.96116 
 O                     5.4957   -2.95438  -0.08534 
 C                     7.32442  -3.34062  -3.25076 
 C                     7.85452  -2.08405  -1.23458 
 H                     6.62262  -2.13532   0.19006 
 C                     8.54593  -2.95576  -3.76132 
 H                     6.68483  -3.97165  -3.86616 
 C                     9.09415  -1.72303  -1.79245 
 O                     7.54009  -1.64174  -0.00471 
 C                     9.45142  -2.15439  -3.06491 
 F                     8.88792  -3.40374  -5.02404 
 H                     9.77252  -1.10743  -1.19513 
 H                     10.40944  -1.89136  -3.52112 
 
 NAtoms=     27 NQM=       27 NQMF=       0 NMMI=      0 NMMIF=      0
                NMic=       0 NMicF=      0.
                    Isotopes and Nuclear Properties:
 (Nuclear quadrupole moments (NQMom) in fm**2, nuclear magnetic moments (NMagM)
  in nuclear magnetons)

  Atom         1           2           3           4           5           6           7           8           9          10
 IAtWgt=           1          12           1           1          14          12          12          12           1           1
 AtmWgt=   1.0078250  12.0000000   1.0078250   1.0078250  14.0030740  12.0000000  12.0000000  12.0000000   1.0078250   1.0078250
 NucSpn=           1           0           1           1           2           0           0           0           1           1
 AtZEff=   0.0000000   0.0000000   0.0000000   0.0000000   0.0000000   0.0000000   0.0000000   0.0000000   0.0000000   0.0000000
 NQMom=    0.0000000   0.0000000   0.0000000   0.0000000   2.0440000   0.0000000   0.0000000   0.0000000   0.0000000   0.0000000
 NMagM=    2.7928460   0.0000000   2.7928460   2.7928460   0.4037610   0.0000000   0.0000000   0.0000000   2.7928460   2.7928460
 AtZNuc=   1.0000000   6.0000000   1.0000000   1.0000000   7.0000000   6.0000000   6.0000000   6.0000000   1.0000000   1.0000000

  Atom        11          12          13          14          15          16          17          18          19          20
 IAtWgt=           1           1          12           1          12          16          12          12           1          12
 AtmWgt=   1.0078250   1.0078250  12.0000000   1.0078250  12.0000000  15.9949146  12.0000000  12.0000000   1.0078250  12.0000000
 NucSpn=           1           1           0           1           0           0           0           0           1           0
 AtZEff=   0.0000000   0.0000000   0.0000000   0.0000000   0.0000000   0.0000000   0.0000000   0.0000000   0.0000000   0.0000000
 NQMom=    0.0000000   0.0000000   0.0000000   0.0000000   0.0000000   0.0000000   0.0000000   0.0000000   0.0000000   0.0000000
 NMagM=    2.7928460   2.7928460   0.0000000   2.7928460   0.0000000   0.0000000   0.0000000   0.0000000   2.7928460   0.0000000
 AtZNuc=   1.0000000   1.0000000   6.0000000   1.0000000   6.0000000   8.0000000   6.0000000   6.0000000   1.0000000   6.0000000

  Atom        21          22          23          24          25          26          27
 IAtWgt=           1          12          16          12          19           1           1
 AtmWgt=   1.0078250  12.0000000  15.9949146  12.0000000  18.9984033   1.0078250   1.0078250
 NucSpn=           1           0           0           0           1           1           1
 AtZEff=   0.0000000   0.0000000   0.0000000   0.0000000   0.0000000   0.0000000   0.0000000
 NQMom=    0.0000000   0.0000000   0.0000000   0.0000000   0.0000000   0.0000000   0.0000000
 NMagM=    2.7928460   0.0000000   0.0000000   0.0000000   2.6288670   2.7928460   2.7928460
 AtZNuc=   1.0000000   6.0000000   8.0000000   6.0000000   9.0000000   1.0000000   1.0000000
 Leave Link  101 at Fri Nov  3 01:34:12 2017, MaxMem=  3758096384 cpu:         0.7
 (Enter /share/apps/gaussian/g09_D01/g09/l202.exe)
                          Input orientation:                          
 ---------------------------------------------------------------------
 Center     Atomic      Atomic             Coordinates (Angstroms)
 Number     Number       Type             X           Y           Z
 ---------------------------------------------------------------------
      1          1           0        0.343892   -4.822593   -1.709483
      2          6           0        1.228370   -5.274823   -1.230892
      3          1           0        1.331885   -4.877868   -0.211728
      4          1           0        1.090118   -6.367697   -1.182237
      5          7           0        2.421885   -4.950714   -2.000648
      6          6           0        3.457284   -4.328816   -1.437470
      7          6           0        2.422514   -5.327365   -3.412175
      8          6           0        4.652490   -3.990745   -2.049229
      9          1           0        3.325010   -4.062565   -0.385690
     10          1           0        3.193977   -6.088400   -3.626993
     11          1           0        1.442137   -5.742157   -3.675390
     12          1           0        2.609015   -4.444710   -4.043570
     13          6           0        5.658801   -3.294022   -1.320450
     14          1           0        4.821030   -4.232109   -3.094495
     15          6           0        6.944597   -2.914049   -1.961163
     16          8           0        5.495702   -2.954375   -0.085340
     17          6           0        7.324422   -3.340615   -3.250762
     18          6           0        7.854520   -2.084049   -1.234578
     19          1           0        6.622621   -2.135325    0.190058
     20          6           0        8.545927   -2.955764   -3.761317
     21          1           0        6.684826   -3.971650   -3.866156
     22          6           0        9.094154   -1.723033   -1.792450
     23          8           0        7.540085   -1.641735   -0.004713
     24          6           0        9.451422   -2.154391   -3.064910
     25          9           0        8.887917   -3.403737   -5.024041
     26          1           0        9.772525   -1.107430   -1.195134
     27          1           0       10.409435   -1.891362   -3.521118
 ---------------------------------------------------------------------
                    Distance matrix (angstroms):
                    1          2          3          4          5
     1  H    0.000000
     2  C    1.102662   0.000000
     3  H    1.795120   1.098628   0.000000
     4  H    1.795045   1.102658   1.794416   0.000000
     5  N    2.102201   1.456725   2.096101   2.109796   0.000000
     6  C    3.164019   2.430157   2.514204   3.134590   1.332658
     7  C    2.733976   2.487315   3.410921   2.798248   1.460916
     8  C    4.401297   3.747416   3.897411   4.369447   2.428888
     9  H    3.349199   2.565119   2.160446   3.308000   2.052446
    10  H    3.660887   3.204188   4.073918   3.237447   2.129660
    11  H    2.432392   2.497933   3.571569   2.594423   2.095483
    12  H    3.274376   3.241362   4.062228   3.767247   2.112957
    13  C    5.544018   4.853897   4.739202   5.508125   3.699314
    14  H    4.723526   4.179411   4.571814   4.705016   2.732909
    15  C    6.875696   6.227504   6.198358   6.841735   4.960291
    16  O    5.715700   4.990680   4.588373   5.680063   4.135472
    17  C    7.300657   6.706928   6.892704   7.232466   5.309432
    18  C    8.008414   7.354381   7.169129   8.006842   6.190166
    19  H    7.088872   6.401054   5.972844   7.099631   5.511061
    20  C    8.658432   8.082557   8.266587   8.595466   6.677101
    21  H    6.751503   6.198047   6.544467   6.651708   4.755140
    22  C    9.283385   8.648764   8.526693   9.274150   7.414880
    23  O    8.050422   7.385160   7.004082   8.082286   6.413195
    24  C    9.586636   8.984392   9.026896   9.550278   7.639795
    25  F    9.273608   8.749720   9.078824   9.184236   7.303671
    26  H   10.147222   9.506368   9.296650  10.151589   8.333762
    27  H   10.639046  10.049124  10.113021  10.599887   8.687486
                    6          7          8          9         10
     6  C    0.000000
     7  C    2.442808   0.000000
     8  C    1.384579   2.935467   0.000000
     9  H    1.092990   3.402033   2.129489   0.000000
    10  H    2.821255   1.104752   3.002791   3.824555   0.000000
    11  H    3.326655   1.096574   4.002276   4.145885   1.786385
    12  H    2.743128   1.101146   2.891240   3.746835   1.793721
    13  C    2.435399   4.356989   1.424501   2.628881   4.382242
    14  H    2.148229   2.655821   1.085930   3.099104   2.525207
    15  C    3.799628   5.327172   2.533927   4.111279   5.188318
    16  O    2.805796   5.113061   2.375275   2.455646   5.259597
    17  C    4.383985   5.291685   3.000928   4.972439   4.975183
    18  C    4.941238   6.690868   3.814727   5.015137   6.593871
    19  H    4.180862   6.387965   3.512607   3.862639   6.477058
    20  C    5.760193   6.575909   4.377360   6.314890   6.202807
    21  H    4.055011   4.495705   2.726165   4.838416   4.089481
    22  C    6.220162   7.754063   4.993679   6.382429   7.565320
    23  O    5.093374   7.168277   4.246893   4.875697   7.195999
    24  C    6.580758   7.719709   5.237705   6.953580   7.412691
    25  F    6.573510   6.935409   5.208928   7.272846   6.448264
    26  H    7.093541   8.760467   5.937823   7.138520   8.602400
    27  H    7.656055   8.695337   6.302086   8.045751   8.348004
                   11         12         13         14         15
    11  H    0.000000
    12  H    1.783404   0.000000
    13  C    5.414736   4.247430   0.000000
    14  H    3.746278   2.416393   2.174650   0.000000
    15  C    6.419800   5.047436   1.485989   2.744314   0.000000
    16  O    6.090285   5.120707   1.291301   3.338083   2.370577
    17  C    6.367809   4.907406   2.550013   2.661983   1.410422
    18  C    7.775473   6.401444   2.508504   4.156382   1.429960
    19  H    7.401915   6.274225   2.133814   4.293078   2.310375
    20  C    7.631199   6.127279   3.795754   3.993566   2.409679
    21  H    5.536865   4.107006   2.827106   2.033970   2.194311
    22  C    8.846027   7.384585   3.806894   5.123512   2.463246
    23  O    8.214152   6.963080   2.828506   4.863132   2.408544
    24  C    8.797352   7.281612   4.327340   5.075265   2.842448
    25  F    7.920019   6.439686   4.914856   4.576999   3.660261
    26  H    9.850265   8.400411   4.660431   6.155363   3.442071
    27  H    9.760372   8.224299   5.420232   6.073827   3.935029
                   16         17         18         19         20
    16  O    0.000000
    17  C    3.676043   0.000000
    18  C    2.764460   2.434124   0.000000
    19  H    1.420082   3.712747   1.884089   0.000000
    20  C    4.776681   1.378714   2.760859   4.470525   0.000000
    21  H    4.091874   1.089035   3.443316   4.452958   2.122902
    22  C    4.168847   2.806278   1.406501   3.195121   2.386758
    23  O    2.430849   3.670087   1.344276   1.059862   4.104932
    24  C    5.016526   2.442498   2.430053   4.312458   1.395386
    25  F    6.008312   2.364957   4.143611   5.824711   1.382790
    26  H    4.788952   3.899478   2.152692   3.591270   3.392076
    27  H    6.089281   3.419171   3.434091   5.307759   2.159470
                   21         22         23         24         25
    21  H    0.000000
    22  C    3.893764   0.000000
    23  O    4.590285   2.370178   0.000000
    24  C    3.405654   1.390275   3.644287   0.000000
    25  F    2.552809   3.648353   5.487710   2.390941   0.000000
    26  H    4.987184   1.093591   2.585802   2.166863   4.551493
    27  H    4.280112   2.178667   4.545392   1.093206   2.619365
                   26         27
    26  H    0.000000
    27  H    2.535824   0.000000
 Symmetry turned off by external request.
 Stoichiometry    C11H12FNO2
 Framework group  C1[X(C11H12FNO2)]
 Deg. of freedom    75
 Full point group                 C1      NOp   1
 Rotational constants (GHZ):      1.0519144      0.2895422      0.2281347
 Leave Link  202 at Fri Nov  3 01:34:12 2017, MaxMem=  3758096384 cpu:         0.0
 (Enter /share/apps/gaussian/g09_D01/g09/l301.exe)
 Standard basis: 6-311++G(d,p) (5D, 7F)
 Ernie: Thresh=  0.10000D-02 Tol=  0.10000D-05 Strict=F.
   414 basis functions,   648 primitive gaussians,   429 cartesian basis functions
    55 alpha electrons       55 beta electrons
       nuclear repulsion energy       939.2274914574 Hartrees.
 IExCor= 4639 DFT=T Ex+Corr=wB97XD ExCW=0 ScaHFX=  1.000000
 ScaDFX=  1.000000  1.000000  1.000000  1.000000 ScalE2=  1.000000  1.000000
 IRadAn=      0 IRanWt=     -1 IRanGd=            0 ICorTp=0 IEmpDi=121
  HFx wShort=  0.000000 wLong=  0.200000 cFull=  0.222036 cShort=  0.000000 cLong=  0.777964
  DFx wShort=  0.000000 wLong=  0.200000 cFull=  0.000000 cShort=  0.000000 cLong=  1.000000
 NAtoms=   27 NActive=   27 NUniq=   27 SFac= 1.00D+00 NAtFMM=   60 NAOKFM=F Big=F
 Integral buffers will be    131072 words long.
 Raffenetti 1 integral format.
 Two-electron integral symmetry is turned off.
 R6Disp:  Grimme-D2 Dispersion energy=       -0.0151176049 Hartrees.
 Nuclear repulsion after empirical dispersion term =      939.2123738525 Hartrees.
 Leave Link  301 at Fri Nov  3 01:34:13 2017, MaxMem=  3758096384 cpu:         1.3
 (Enter /share/apps/gaussian/g09_D01/g09/l302.exe)
 NPDir=0 NMtPBC=     1 NCelOv=     1 NCel=       1 NClECP=     1 NCelD=      1
         NCelK=      1 NCelE2=     1 NClLst=     1 CellRange=     0.0.
 One-electron integrals computed using PRISM.
 NBasis=   414 RedAO= T EigKep=  1.00D-06  NBF=   414
 NBsUse=   412 1.00D-06 EigRej=  7.94D-07 NBFU=   412
 Precomputing XC quadrature grid using
 IXCGrd= 4 IRadAn=           0 IRanWt=          -1 IRanGd=           0 AccXCQ= 0.00D+00.
 Generated NRdTot=       0 NPtTot=           0 NUsed=           0 NTot=          32
 NSgBfM=   423   423   423   423   423 MxSgAt=    27 MxSgA2=    27.
 Leave Link  302 at Fri Nov  3 01:34:14 2017, MaxMem=  3758096384 cpu:         4.1
 (Enter /share/apps/gaussian/g09_D01/g09/l308.exe)
 Leave Link  308 at Fri Nov  3 01:34:14 2017, MaxMem=  3758096384 cpu:         0.5
 (Enter /share/apps/gaussian/g09_D01/g09/l303.exe)
 DipDrv:  MaxL=1.
 Leave Link  303 at Fri Nov  3 01:34:15 2017, MaxMem=  3758096384 cpu:         0.8
 (Enter /share/apps/gaussian/g09_D01/g09/l401.exe)
 ExpMin= 3.60D-02 ExpMax= 1.14D+04 ExpMxC= 1.72D+03 IAcc=3 IRadAn=         5 AccDes= 0.00D+00
 Harris functional with IExCor= 4639 and IRadAn=       5 diagonalized for initial guess.
 HarFok:  IExCor= 4639 AccDes= 0.00D+00 IRadAn=         5 IDoV= 1 UseB2=F ITyADJ=14
 ICtDFT=  3500011 ScaDFX=  1.000000  1.000000  1.000000  1.000000
 FoFCou: FMM=F IPFlag=           0 FMFlag=      100000 FMFlg1=           0
         NFxFlg=           0 DoJE=T BraDBF=F KetDBF=T FulRan=T
         wScrn=  0.000000 ICntrl=     500 IOpCl=  0 I1Cent=   200000004 NGrid=           0
         NMat0=    1 NMatS0=      1 NMatT0=    0 NMatD0=    1 NMtDS0=    0 NMtDT0=    0
 Symmetry not used in FoFCou.
 Harris En= -701.380705458012    
 JPrj=0 DoOrth=F DoCkMO=F.
 Leave Link  401 at Fri Nov  3 01:34:33 2017, MaxMem=  3758096384 cpu:        61.7
 (Enter /share/apps/gaussian/g09_D01/g09/l502.exe)
 Closed shell SCF:
 Using DIIS extrapolation, IDIIS=  1040.
 Two-electron integral symmetry not used.
 IVT=      575875 IEndB=      575875 NGot=  3758096384 MDV=  3757721620
 LenX=  3757721620 LenY=  3757537138
 Requested convergence on RMS density matrix=1.00D-08 within 128 cycles.
 Requested convergence on MAX density matrix=1.00D-06.
 Requested convergence on             energy=1.00D-06.
 No special actions if energy rises.
 Fock matrices will be formed incrementally for  20 cycles.

 Cycle   1  Pass 1  IDiag  1:
 FoFJK:  IHMeth= 1 ICntrl=       0 DoSepK=T KAlg= 0 I1Cent=   0 FoldK=F
 IRaf=         1 NMat=   1 IRICut=       1 DoRegI=T DoRafI=F ISym2E= 0.
 FoFCou: FMM=F IPFlag=           0 FMFlag=      100000 FMFlg1=           0
         NFxFlg=           0 DoJE=T BraDBF=F KetDBF=F FulRan=T
         wScrn=  0.000000 ICntrl=     500 IOpCl=  0 I1Cent=           0 NGrid=           0
         NMat0=    1 NMatS0=      1 NMatT0=    0 NMatD0=    1 NMtDS0=    0 NMtDT0=    0
 Symmetry not used in FoFCou.
 E= -731.054206912757    
 DIIS: error= 8.14D-02 at cycle   1 NSaved=   1.
 NSaved= 1 IEnMin= 1 EnMin= -731.054206912757     IErMin= 1 ErrMin= 8.14D-02
 ErrMax= 8.14D-02  0.00D+00 EMaxC= 1.00D-01 BMatC= 1.73D+00 BMatP= 1.73D+00
 IDIUse=3 WtCom= 1.86D-01 WtEn= 8.14D-01
 Coeff-Com:  0.100D+01
 Coeff-En:   0.100D+01
 Coeff:      0.100D+01
 Gap=     0.321 Goal=   None    Shift=    0.000
 GapD=    0.321 DampG=1.000 DampE=0.500 DampFc=0.5000 IDamp=-1.
 Damping current iteration by 5.00D-01
 RMSDP=5.36D-02 MaxDP=5.75D+00              OVMax= 1.65D-01

 Cycle   2  Pass 1  IDiag  1:
 RMSU=  6.76D-03    CP:  8.25D-01
 E= -731.204532969323     Delta-E=       -0.150326056566 Rises=F Damp=T
 DIIS: error= 3.57D-02 at cycle   2 NSaved=   2.
 NSaved= 2 IEnMin= 2 EnMin= -731.204532969323     IErMin= 2 ErrMin= 3.57D-02
 ErrMax= 3.57D-02  0.00D+00 EMaxC= 1.00D-01 BMatC= 3.20D-01 BMatP= 1.73D+00
 IDIUse=3 WtCom= 6.43D-01 WtEn= 3.57D-01
 Coeff-Com: -0.381D+00 0.138D+01
 Coeff-En:   0.000D+00 0.100D+01
 Coeff:     -0.245D+00 0.125D+01
 Gap=     0.312 Goal=   None    Shift=    0.000
 RMSDP=1.72D-02 MaxDP=2.16D+00 DE=-1.50D-01 OVMax= 1.40D-01

 Cycle   3  Pass 1  IDiag  1:
 RMSU=  6.29D-03    CP:  7.18D-01  1.30D+00
 E= -731.323689990471     Delta-E=       -0.119157021148 Rises=F Damp=F
 DIIS: error= 1.84D-02 at cycle   3 NSaved=   3.
 NSaved= 3 IEnMin= 3 EnMin= -731.323689990471     IErMin= 3 ErrMin= 1.84D-02
 ErrMax= 1.84D-02  0.00D+00 EMaxC= 1.00D-01 BMatC= 8.56D-02 BMatP= 3.20D-01
 IDIUse=3 WtCom= 8.16D-01 WtEn= 1.84D-01
 Coeff-Com: -0.267D+00 0.593D+00 0.674D+00
 Coeff-En:   0.000D+00 0.000D+00 0.100D+01
 Coeff:     -0.218D+00 0.484D+00 0.734D+00
 Gap=     0.281 Goal=   None    Shift=    0.000
 RMSDP=1.52D-02 MaxDP=1.54D+00 DE=-1.19D-01 OVMax= 7.77D-02

 Cycle   4  Pass 1  IDiag  1:
 RMSU=  3.59D-03    CP:  6.20D-01  1.51D+00  6.37D-01
 E= -731.375704826571     Delta-E=       -0.052014836100 Rises=F Damp=F
 DIIS: error= 5.28D-03 at cycle   4 NSaved=   4.
 NSaved= 4 IEnMin= 4 EnMin= -731.375704826571     IErMin= 4 ErrMin= 5.28D-03
 ErrMax= 5.28D-03  0.00D+00 EMaxC= 1.00D-01 BMatC= 1.15D-02 BMatP= 8.56D-02
 IDIUse=3 WtCom= 9.47D-01 WtEn= 5.28D-02
 Coeff-Com: -0.108D+00 0.238D+00 0.413D+00 0.458D+00
 Coeff-En:   0.000D+00 0.000D+00 0.921D-01 0.908D+00
 Coeff:     -0.103D+00 0.225D+00 0.396D+00 0.481D+00
 Gap=     0.270 Goal=   None    Shift=    0.000
 RMSDP=3.36D-03 MaxDP=3.66D-01 DE=-5.20D-02 OVMax= 1.94D-02

 Cycle   5  Pass 1  IDiag  1:
 RMSU=  1.01D-03    CP:  6.41D-01  1.54D+00  7.34D-01  7.99D-01
 E= -731.384417276890     Delta-E=       -0.008712450319 Rises=F Damp=F
 DIIS: error= 7.57D-04 at cycle   5 NSaved=   5.
 NSaved= 5 IEnMin= 5 EnMin= -731.384417276890     IErMin= 5 ErrMin= 7.57D-04
 ErrMax= 7.57D-04  0.00D+00 EMaxC= 1.00D-01 BMatC= 1.64D-04 BMatP= 1.15D-02
 IDIUse=3 WtCom= 9.92D-01 WtEn= 7.57D-03
 Coeff-Com: -0.214D-03-0.530D-03 0.560D-01 0.164D+00 0.780D+00
 Coeff-En:   0.000D+00 0.000D+00 0.000D+00 0.000D+00 0.100D+01
 Coeff:     -0.212D-03-0.526D-03 0.555D-01 0.163D+00 0.782D+00
 Gap=     0.271 Goal=   None    Shift=    0.000
 RMSDP=9.81D-04 MaxDP=1.08D-01 DE=-8.71D-03 OVMax= 4.11D-03

 Cycle   6  Pass 1  IDiag  1:
 RMSU=  3.08D-04    CP:  6.35D-01  1.54D+00  7.57D-01  9.27D-01  1.13D+00
 E= -731.384574525194     Delta-E=       -0.000157248304 Rises=F Damp=F
 DIIS: error= 4.25D-04 at cycle   6 NSaved=   6.
 NSaved= 6 IEnMin= 6 EnMin= -731.384574525194     IErMin= 6 ErrMin= 4.25D-04
 ErrMax= 4.25D-04  0.00D+00 EMaxC= 1.00D-01 BMatC= 3.20D-05 BMatP= 1.64D-04
 IDIUse=3 WtCom= 9.96D-01 WtEn= 4.25D-03
 Coeff-Com:  0.166D-01-0.365D-01-0.396D-01-0.883D-02 0.347D+00 0.721D+00
 Coeff-En:   0.000D+00 0.000D+00 0.000D+00 0.000D+00 0.000D+00 0.100D+01
 Coeff:      0.165D-01-0.363D-01-0.394D-01-0.880D-02 0.345D+00 0.723D+00
 Gap=     0.271 Goal=   None    Shift=    0.000
 RMSDP=2.96D-04 MaxDP=2.98D-02 DE=-1.57D-04 OVMax= 3.66D-03

 Cycle   7  Pass 1  IDiag  1:
 RMSU=  1.05D-04    CP:  6.34D-01  1.54D+00  7.64D-01  9.65D-01  1.22D+00
                    CP:  1.01D+00
 E= -731.384612747255     Delta-E=       -0.000038222061 Rises=F Damp=F
 DIIS: error= 1.23D-04 at cycle   7 NSaved=   7.
 NSaved= 7 IEnMin= 7 EnMin= -731.384612747255     IErMin= 7 ErrMin= 1.23D-04
 ErrMax= 1.23D-04  0.00D+00 EMaxC= 1.00D-01 BMatC= 4.03D-06 BMatP= 3.20D-05
 IDIUse=3 WtCom= 9.99D-01 WtEn= 1.23D-03
 Coeff-Com:  0.569D-02-0.123D-01-0.204D-01-0.240D-01 0.356D-01 0.291D+00
 Coeff-Com:  0.725D+00
 Coeff-En:   0.000D+00 0.000D+00 0.000D+00 0.000D+00 0.000D+00 0.000D+00
 Coeff-En:   0.100D+01
 Coeff:      0.568D-02-0.123D-01-0.203D-01-0.240D-01 0.355D-01 0.290D+00
 Coeff:      0.725D+00
 Gap=     0.271 Goal=   None    Shift=    0.000
 RMSDP=1.54D-04 MaxDP=1.47D-02 DE=-3.82D-05 OVMax= 8.63D-04

 Cycle   8  Pass 1  IDiag  1:
 RMSU=  3.27D-05    CP:  6.33D-01  1.55D+00  7.65D-01  9.84D-01  1.27D+00
                    CP:  1.12D+00  1.11D+00
 E= -731.384618218235     Delta-E=       -0.000005470980 Rises=F Damp=F
 DIIS: error= 7.42D-05 at cycle   8 NSaved=   8.
 NSaved= 8 IEnMin= 8 EnMin= -731.384618218235     IErMin= 8 ErrMin= 7.42D-05
 ErrMax= 7.42D-05  0.00D+00 EMaxC= 1.00D-01 BMatC= 6.64D-07 BMatP= 4.03D-06
 IDIUse=1 WtCom= 1.00D+00 WtEn= 0.00D+00
 Coeff-Com: -0.588D-03 0.135D-02-0.139D-02-0.929D-02-0.464D-01 0.700D-02
 Coeff-Com:  0.305D+00 0.745D+00
 Coeff:     -0.588D-03 0.135D-02-0.139D-02-0.929D-02-0.464D-01 0.700D-02
 Coeff:      0.305D+00 0.745D+00
 Gap=     0.271 Goal=   None    Shift=    0.000
 RMSDP=4.25D-05 MaxDP=3.20D-03 DE=-5.47D-06 OVMax= 8.16D-04

 Cycle   9  Pass 1  IDiag  1:
 RMSU=  2.20D-05    CP:  6.33D-01  1.55D+00  7.65D-01  9.89D-01  1.29D+00
                    CP:  1.16D+00  1.17D+00  1.02D+00
 E= -731.384619424415     Delta-E=       -0.000001206180 Rises=F Damp=F
 DIIS: error= 1.99D-05 at cycle   9 NSaved=   9.
 NSaved= 9 IEnMin= 9 EnMin= -731.384619424415     IErMin= 9 ErrMin= 1.99D-05
 ErrMax= 1.99D-05  0.00D+00 EMaxC= 1.00D-01 BMatC= 1.19D-07 BMatP= 6.64D-07
 IDIUse=1 WtCom= 1.00D+00 WtEn= 0.00D+00
 Coeff-Com: -0.129D-02 0.281D-02 0.352D-02 0.921D-03-0.257D-01-0.490D-01
 Coeff-Com: -0.364D-01 0.262D+00 0.843D+00
 Coeff:     -0.129D-02 0.281D-02 0.352D-02 0.921D-03-0.257D-01-0.490D-01
 Coeff:     -0.364D-01 0.262D+00 0.843D+00
 Gap=     0.271 Goal=   None    Shift=    0.000
 RMSDP=1.71D-05 MaxDP=1.41D-03 DE=-1.21D-06 OVMax= 3.09D-04

 Cycle  10  Pass 1  IDiag  1:
 RMSU=  7.78D-06    CP:  6.33D-01  1.55D+00  7.65D-01  9.90D-01  1.30D+00
                    CP:  1.16D+00  1.19D+00  1.29D+00  1.23D+00
 E= -731.384619672588     Delta-E=       -0.000000248173 Rises=F Damp=F
 DIIS: error= 6.70D-06 at cycle  10 NSaved=  10.
 NSaved=10 IEnMin=10 EnMin= -731.384619672588     IErMin=10 ErrMin= 6.70D-06
 ErrMax= 6.70D-06  0.00D+00 EMaxC= 1.00D-01 BMatC= 1.36D-08 BMatP= 1.19D-07
 IDIUse=1 WtCom= 1.00D+00 WtEn= 0.00D+00
 Coeff-Com: -0.137D-03 0.294D-03 0.891D-03 0.141D-02-0.358D-03-0.104D-01
 Coeff-Com: -0.596D-01-0.305D-01 0.256D+00 0.843D+00
 Coeff:     -0.137D-03 0.294D-03 0.891D-03 0.141D-02-0.358D-03-0.104D-01
 Coeff:     -0.596D-01-0.305D-01 0.256D+00 0.843D+00
 Gap=     0.271 Goal=   None    Shift=    0.000
 RMSDP=6.62D-06 MaxDP=6.75D-04 DE=-2.48D-07 OVMax= 1.29D-04

 Cycle  11  Pass 1  IDiag  1:
 RMSU=  2.55D-06    CP:  6.33D-01  1.55D+00  7.65D-01  9.90D-01  1.30D+00
                    CP:  1.16D+00  1.20D+00  1.35D+00  1.35D+00  1.35D+00
 E= -731.384619705200     Delta-E=       -0.000000032613 Rises=F Damp=F
 DIIS: error= 3.28D-06 at cycle  11 NSaved=  11.
 NSaved=11 IEnMin=11 EnMin= -731.384619705200     IErMin=11 ErrMin= 3.28D-06
 ErrMax= 3.28D-06  0.00D+00 EMaxC= 1.00D-01 BMatC= 1.39D-09 BMatP= 1.36D-08
 IDIUse=1 WtCom= 1.00D+00 WtEn= 0.00D+00
 Coeff-Com:  0.101D-03-0.222D-03-0.130D-03 0.340D-03 0.291D-02 0.344D-02
 Coeff-Com: -0.137D-01-0.394D-01-0.390D-01 0.202D+00 0.884D+00
 Coeff:      0.101D-03-0.222D-03-0.130D-03 0.340D-03 0.291D-02 0.344D-02
 Coeff:     -0.137D-01-0.394D-01-0.390D-01 0.202D+00 0.884D+00
 Gap=     0.271 Goal=   None    Shift=    0.000
 RMSDP=2.65D-06 MaxDP=2.54D-04 DE=-3.26D-08 OVMax= 4.85D-05

 Cycle  12  Pass 1  IDiag  1:
 RMSU=  8.49D-07    CP:  6.33D-01  1.55D+00  7.65D-01  9.90D-01  1.30D+00
                    CP:  1.16D+00  1.20D+00  1.38D+00  1.42D+00  1.50D+00
                    CP:  1.20D+00
 E= -731.384619709443     Delta-E=       -0.000000004243 Rises=F Damp=F
 DIIS: error= 1.59D-06 at cycle  12 NSaved=  12.
 NSaved=12 IEnMin=12 EnMin= -731.384619709443     IErMin=12 ErrMin= 1.59D-06
 ErrMax= 1.59D-06  0.00D+00 EMaxC= 1.00D-01 BMatC= 2.68D-10 BMatP= 1.39D-09
 IDIUse=1 WtCom= 1.00D+00 WtEn= 0.00D+00
 Coeff-Com:  0.357D-04-0.782D-04-0.113D-03-0.137D-04 0.962D-03 0.213D-02
 Coeff-Com:  0.267D-02-0.962D-02-0.426D-01-0.447D-01 0.276D+00 0.815D+00
 Coeff:      0.357D-04-0.782D-04-0.113D-03-0.137D-04 0.962D-03 0.213D-02
 Coeff:      0.267D-02-0.962D-02-0.426D-01-0.447D-01 0.276D+00 0.815D+00
 Gap=     0.271 Goal=   None    Shift=    0.000
 RMSDP=9.96D-07 MaxDP=8.17D-05 DE=-4.24D-09 OVMax= 2.30D-05

 Cycle  13  Pass 1  IDiag  1:
 RMSU=  2.36D-07    CP:  6.33D-01  1.55D+00  7.65D-01  9.89D-01  1.30D+00
                    CP:  1.16D+00  1.20D+00  1.38D+00  1.43D+00  1.55D+00
                    CP:  1.32D+00  1.20D+00
 E= -731.384619710154     Delta-E=       -0.000000000711 Rises=F Damp=F
 DIIS: error= 5.36D-07 at cycle  13 NSaved=  13.
 NSaved=13 IEnMin=13 EnMin= -731.384619710154     IErMin=13 ErrMin= 5.36D-07
 ErrMax= 5.36D-07  0.00D+00 EMaxC= 1.00D-01 BMatC= 5.51D-11 BMatP= 2.68D-10
 IDIUse=1 WtCom= 1.00D+00 WtEn= 0.00D+00
 Coeff-Com: -0.679D-05 0.150D-04-0.147D-04-0.640D-04-0.238D-03 0.812D-04
 Coeff-Com:  0.394D-02 0.406D-02-0.476D-02-0.574D-01-0.762D-01 0.307D+00
 Coeff-Com:  0.824D+00
 Coeff:     -0.679D-05 0.150D-04-0.147D-04-0.640D-04-0.238D-03 0.812D-04
 Coeff:      0.394D-02 0.406D-02-0.476D-02-0.574D-01-0.762D-01 0.307D+00
 Coeff:      0.824D+00
 Gap=     0.271 Goal=   None    Shift=    0.000
 RMSDP=5.31D-07 MaxDP=3.95D-05 DE=-7.11D-10 OVMax= 9.91D-06

 Cycle  14  Pass 1  IDiag  1:
 RMSU=  1.60D-07    CP:  6.33D-01  1.55D+00  7.65D-01  9.89D-01  1.30D+00
                    CP:  1.16D+00  1.21D+00  1.38D+00  1.44D+00  1.57D+00
                    CP:  1.36D+00  1.35D+00  1.32D+00
 E= -731.384619710273     Delta-E=       -0.000000000118 Rises=F Damp=F
 DIIS: error= 3.21D-07 at cycle  14 NSaved=  14.
 NSaved=14 IEnMin=14 EnMin= -731.384619710273     IErMin=14 ErrMin= 3.21D-07
 ErrMax= 3.21D-07  0.00D+00 EMaxC= 1.00D-01 BMatC= 6.67D-12 BMatP= 5.51D-11
 IDIUse=1 WtCom= 1.00D+00 WtEn= 0.00D+00
 Coeff-Com: -0.387D-05 0.865D-05 0.714D-05-0.124D-04-0.186D-03-0.213D-03
 Coeff-Com:  0.718D-03 0.133D-02 0.438D-02-0.104D-01-0.496D-01-0.168D-01
 Coeff-Com:  0.169D+00 0.902D+00
 Coeff:     -0.387D-05 0.865D-05 0.714D-05-0.124D-04-0.186D-03-0.213D-03
 Coeff:      0.718D-03 0.133D-02 0.438D-02-0.104D-01-0.496D-01-0.168D-01
 Coeff:      0.169D+00 0.902D+00
 Gap=     0.271 Goal=   None    Shift=    0.000
 RMSDP=1.54D-07 MaxDP=1.35D-05 DE=-1.18D-10 OVMax= 4.72D-06

 Cycle  15  Pass 1  IDiag  1:
 RMSU=  4.16D-08    CP:  6.33D-01  1.55D+00  7.65D-01  9.89D-01  1.30D+00
                    CP:  1.16D+00  1.21D+00  1.38D+00  1.44D+00  1.57D+00
                    CP:  1.36D+00  1.38D+00  1.53D+00  1.32D+00
 E= -731.384619710345     Delta-E=       -0.000000000073 Rises=F Damp=F
 DIIS: error= 1.06D-07 at cycle  15 NSaved=  15.
 NSaved=15 IEnMin=15 EnMin= -731.384619710345     IErMin=15 ErrMin= 1.06D-07
 ErrMax= 1.06D-07  0.00D+00 EMaxC= 1.00D-01 BMatC= 1.77D-12 BMatP= 6.67D-12
 IDIUse=1 WtCom= 1.00D+00 WtEn= 0.00D+00
 Coeff-Com: -0.535D-06 0.116D-05 0.745D-05 0.101D-04-0.352D-04-0.112D-03
 Coeff-Com: -0.420D-03-0.367D-03 0.330D-02 0.670D-02-0.420D-02-0.587D-01
 Coeff-Com: -0.123D+00 0.296D+00 0.881D+00
 Coeff:     -0.535D-06 0.116D-05 0.745D-05 0.101D-04-0.352D-04-0.112D-03
 Coeff:     -0.420D-03-0.367D-03 0.330D-02 0.670D-02-0.420D-02-0.587D-01
 Coeff:     -0.123D+00 0.296D+00 0.881D+00
 Gap=     0.271 Goal=   None    Shift=    0.000
 RMSDP=9.01D-08 MaxDP=7.14D-06 DE=-7.28D-11 OVMax= 2.07D-06

 Cycle  16  Pass 1  IDiag  1:
 RMSU=  1.89D-08    CP:  6.33D-01  1.55D+00  7.65D-01  9.89D-01  1.30D+00
                    CP:  1.16D+00  1.21D+00  1.38D+00  1.45D+00  1.56D+00
                    CP:  1.36D+00  1.39D+00  1.63D+00  1.55D+00  1.16D+00
 E= -731.384619710390     Delta-E=       -0.000000000045 Rises=F Damp=F
 DIIS: error= 4.77D-08 at cycle  16 NSaved=  16.
 NSaved=16 IEnMin=16 EnMin= -731.384619710390     IErMin=16 ErrMin= 4.77D-08
 ErrMax= 4.77D-08  0.00D+00 EMaxC= 1.00D-01 BMatC= 2.47D-13 BMatP= 1.77D-12
 IDIUse=1 WtCom= 1.00D+00 WtEn= 0.00D+00
 Coeff-Com:  0.147D-06-0.363D-06 0.147D-05 0.548D-05 0.167D-04-0.116D-04
 Coeff-Com: -0.214D-03-0.419D-03 0.231D-03 0.353D-02 0.656D-02-0.108D-01
 Coeff-Com: -0.668D-01-0.582D-01 0.232D+00 0.894D+00
 Coeff:      0.147D-06-0.363D-06 0.147D-05 0.548D-05 0.167D-04-0.116D-04
 Coeff:     -0.214D-03-0.419D-03 0.231D-03 0.353D-02 0.656D-02-0.108D-01
 Coeff:     -0.668D-01-0.582D-01 0.232D+00 0.894D+00
 Gap=     0.271 Goal=   None    Shift=    0.000
 RMSDP=3.68D-08 MaxDP=2.60D-06 DE=-4.46D-11 OVMax= 7.78D-07

 Cycle  17  Pass 1  IDiag  1:
 RMSU=  5.58D-09    CP:  6.33D-01  1.55D+00  7.65D-01  9.89D-01  1.30D+00
                    CP:  1.16D+00  1.21D+00  1.38D+00  1.45D+00  1.56D+00
                    CP:  1.36D+00  1.40D+00  1.65D+00  1.64D+00  1.36D+00
                    CP:  1.25D+00
 E= -731.384619710382     Delta-E=        0.000000000008 Rises=F Damp=F
 DIIS: error= 1.78D-08 at cycle  17 NSaved=  17.
 NSaved=17 IEnMin=16 EnMin= -731.384619710390     IErMin=17 ErrMin= 1.78D-08
 ErrMax= 1.78D-08  0.00D+00 EMaxC= 1.00D-01 BMatC= 6.66D-14 BMatP= 2.47D-13
 IDIUse=1 WtCom= 1.00D+00 WtEn= 0.00D+00
 Coeff-Com:  0.148D-06-0.331D-06-0.793D-06 0.711D-06 0.158D-04 0.176D-04
 Coeff-Com: -0.170D-05-0.118D-03-0.490D-03 0.341D-03 0.356D-02 0.797D-02
 Coeff-Com: -0.688D-02-0.829D-01-0.681D-01 0.417D+00 0.730D+00
 Coeff:      0.148D-06-0.331D-06-0.793D-06 0.711D-06 0.158D-04 0.176D-04
 Coeff:     -0.170D-05-0.118D-03-0.490D-03 0.341D-03 0.356D-02 0.797D-02
 Coeff:     -0.688D-02-0.829D-01-0.681D-01 0.417D+00 0.730D+00
 Gap=     0.271 Goal=   None    Shift=    0.000
 RMSDP=1.59D-08 MaxDP=1.22D-06 DE= 8.41D-12 OVMax= 2.31D-07

 Cycle  18  Pass 1  IDiag  1:
 RMSU=  2.89D-09    CP:  6.33D-01  1.55D+00  7.65D-01  9.89D-01  1.30D+00
                    CP:  1.16D+00  1.21D+00  1.38D+00  1.45D+00  1.56D+00
                    CP:  1.36D+00  1.39D+00  1.65D+00  1.66D+00  1.39D+00
                    CP:  1.44D+00  1.30D+00
 E= -731.384619710322     Delta-E=        0.000000000060 Rises=F Damp=F
 DIIS: error= 5.44D-09 at cycle  18 NSaved=  18.
 NSaved=18 IEnMin=16 EnMin= -731.384619710390     IErMin=18 ErrMin= 5.44D-09
 ErrMax= 5.44D-09  0.00D+00 EMaxC= 1.00D-01 BMatC= 4.60D-15 BMatP= 6.66D-14
 IDIUse=1 WtCom= 1.00D+00 WtEn= 0.00D+00
 Coeff-Com: -0.323D-08 0.928D-08-0.313D-06-0.464D-06 0.135D-05 0.553D-05
 Coeff-Com:  0.256D-04 0.143D-04-0.158D-03-0.344D-03-0.658D-04 0.304D-02
 Coeff-Com:  0.521D-02-0.113D-01-0.437D-01-0.227D-01 0.175D+00 0.895D+00
 Coeff:     -0.323D-08 0.928D-08-0.313D-06-0.464D-06 0.135D-05 0.553D-05
 Coeff:      0.256D-04 0.143D-04-0.158D-03-0.344D-03-0.658D-04 0.304D-02
 Coeff:      0.521D-02-0.113D-01-0.437D-01-0.227D-01 0.175D+00 0.895D+00
 Gap=     0.271 Goal=   None    Shift=    0.000
 RMSDP=5.91D-09 MaxDP=5.37D-07 DE= 5.96D-11 OVMax= 9.02D-08

 SCF Done:  E(RwB97XD) =  -731.384619710     A.U. after   18 cycles
            NFock= 18  Conv=0.59D-08     -V/T= 2.0044
 KE= 7.281648194812D+02 PE=-3.589028854401D+03 EE= 1.190267041357D+03
 Leave Link  502 at Fri Nov  3 01:46:32 2017, MaxMem=  3758096384 cpu:      2862.8
 (Enter /share/apps/gaussian/g09_D01/g09/l801.exe)
 DoSCS=F DFT=T ScalE2(SS,OS)=  1.000000  1.000000
 ExpMin= 3.60D-02 ExpMax= 1.14D+04 ExpMxC= 1.72D+03 IAcc=3 IRadAn=         5 AccDes= 0.00D+00
 HarFok:  IExCor=  205 AccDes= 0.00D+00 IRadAn=         5 IDoV=-2 UseB2=F ITyADJ=14
 ICtDFT= 12500011 ScaDFX=  1.000000  1.000000  1.000000  1.000000
 Largest valence mixing into a core orbital is  5.73D-05
 Largest core mixing into a valence orbital is  1.58D-05
 Range of M.O.s used for correlation:    16   412
 NBasis=   414 NAE=    55 NBE=    55 NFC=    15 NFV=     0
 NROrb=    397 NOA=    40 NOB=    40 NVA=   357 NVB=   357

 **** Warning!!: The largest alpha MO coefficient is  0.18014837D+03

 Leave Link  801 at Fri Nov  3 01:46:36 2017, MaxMem=  3758096384 cpu:         7.3
 (Enter /share/apps/gaussian/g09_D01/g09/l914.exe)
 RHF ground state
 MDV=  3758096384 DFT=T DoStab=F Mixed=T DoRPA=T DoScal=F NonHer=T
 Would need an additional         18445000000 words for in-memory AO integral storage.
 Making orbital integer symmetry assigments:
    16 initial guesses have been made.
 Convergence on wavefunction:    0.001000000000000
 Davidson Disk Diagonalization:  ConvIn= 1.00D-03 SkipCon=T Conv= 1.00D-03.
 Max sub-space:   200 roots to seek:    16 dimension of matrix:        28560
 Iteration     1 Dimension    16 NMult     0 NNew     16
 CISAX will form    16 AO SS matrices at one time.
 NMat=    16 NSing=    16 JSym2X= 0.
 FoFJK:  IHMeth= 1 ICntrl=       0 DoSepK=T KAlg= 0 I1Cent=   0 FoldK=F
 IRaf=         1 NMat=  32 IRICut=       1 DoRegI=T DoRafI=F ISym2E= 0.
 FoFCou: FMM=F IPFlag=           0 FMFlag=      100000 FMFlg1=           0
         NFxFlg=           0 DoJE=F BraDBF=F KetDBF=F FulRan=T
         wScrn=  0.000000 ICntrl=     500 IOpCl=  0 I1Cent=           0 NGrid=           0
         NMat0=   16 NMatS0=     16 NMatT0=    0 NMatD0=   16 NMtDS0=    0 NMtDT0=    0
 Symmetry not used in FoFCou.
 New state      2 was old state      5
 New state      3 was old state      2
 New state      4 was old state      3
 Excitation Energies [eV] at current iteration:
 Root      1 :     4.309039715285584
 Root      2 :     4.440113894097891
 Root      3 :     5.183665606148249
 Root      4 :     5.883534627769642
 Root      5 :     5.936958181982162
 Root      6 :     6.334649191037901
 Root      7 :     6.502285074232073
 Root      8 :     6.540426903531546
 Root      9 :     6.688242865770641
 Root     10 :     6.761683852203626
 Root     11 :     6.960570356768325
 Root     12 :     7.037074388515928
 Root     13 :     7.289125483369358
 Root     14 :     7.460932080106994
 Root     15 :     7.635094731635983
 Root     16 :     7.694271584836548
 Iteration     2 Dimension    24 NMult    16 NNew      8
 CISAX will form     8 AO SS matrices at one time.
 NMat=     8 NSing=     8 JSym2X= 0.
 Root      1 not converged, maximum delta is    0.178695241565575
 Root      2 not converged, maximum delta is    0.160358749899865
 Root      3 not converged, maximum delta is    0.072667576991365
 Root      4 not converged, maximum delta is    0.085102549527942
 Excitation Energies [eV] at current iteration:
 Root      1 :     3.767337759836836   Change is   -0.541701955448748
 Root      2 :     4.151649361940143   Change is   -0.288464532157749
 Root      3 :     4.477810719707161   Change is   -0.705854886441088
 Root      4 :     5.613545969715283   Change is   -0.269988658054358
 Iteration     3 Dimension    32 NMult    24 NNew      8
 CISAX will form     8 AO SS matrices at one time.
 NMat=     8 NSing=     8 JSym2X= 0.
 Root      1 not converged, maximum delta is    0.029359309655454
 Root      2 not converged, maximum delta is    0.013027091108224
 Root      3 not converged, maximum delta is    0.034340771773960
 Root      4 not converged, maximum delta is    0.356373136251465
 Excitation Energies [eV] at current iteration:
 Root      1 :     3.721952165077319   Change is   -0.045385594759517
 Root      2 :     4.134917371156661   Change is   -0.016731990783481
 Root      3 :     4.423560514205444   Change is   -0.054250205501718
 Root      4 :     5.425153711494465   Change is   -0.188392258220819
 Iteration     4 Dimension    40 NMult    32 NNew      8
 CISAX will form     8 AO SS matrices at one time.
 NMat=     8 NSing=     8 JSym2X= 0.
 Root      1 not converged, maximum delta is    0.012278847929384
 Root      2 not converged, maximum delta is    0.005465076237605
 Root      3 not converged, maximum delta is    0.009955087412716
 Root      4 not converged, maximum delta is    0.099943542628934
 Excitation Energies [eV] at current iteration:
 Root      1 :     3.713670089218106   Change is   -0.008282075859213
 Root      2 :     4.133303008112493   Change is   -0.001614363044168
 Root      3 :     4.414543397597373   Change is   -0.009017116608071
 Root      4 :     5.225788707764651   Change is   -0.199365003729814
 Iteration     5 Dimension    48 NMult    40 NNew      8
 CISAX will form     8 AO SS matrices at one time.
 NMat=     8 NSing=     8 JSym2X= 0.
 Root      1 not converged, maximum delta is    0.002816980599384
 Root      2 not converged, maximum delta is    0.001855594678161
 Root      3 not converged, maximum delta is    0.003609560948662
 Root      4 not converged, maximum delta is    0.027077269309576
 Excitation Energies [eV] at current iteration:
 Root      1 :     3.712679388034425   Change is   -0.000990701183681
 Root      2 :     4.133117106806568   Change is   -0.000185901305924
 Root      3 :     4.413469487489555   Change is   -0.001073910107818
 Root      4 :     5.193954768948240   Change is   -0.031833938816411
 Iteration     6 Dimension    56 NMult    48 NNew      8
 CISAX will form     8 AO SS matrices at one time.
 NMat=     8 NSing=     8 JSym2X= 0.
 Root      1 has converged.
 Root      2 has converged.
 Root      3 has converged.
 Root      4 not converged, maximum delta is    0.009719853571807
 Excitation Energies [eV] at current iteration:
 Root      1 :     3.712596617032013   Change is   -0.000082771002411
 Root      2 :     4.133100925855653   Change is   -0.000016180950915
 Root      3 :     4.413382959356437   Change is   -0.000086528133117
 Root      4 :     5.189750701564681   Change is   -0.004204067383559
 Iteration     7 Dimension    58 NMult    56 NNew      2
 CISAX will form     2 AO SS matrices at one time.
 NMat=     2 NSing=     2 JSym2X= 0.
 Root      1 has converged.
 Root      2 has converged.
 Root      3 has converged.
 Root      4 not converged, maximum delta is    0.002788298739440
 Excitation Energies [eV] at current iteration:
 Root      1 :     3.712596061773108   Change is   -0.000000555258905
 Root      2 :     4.133100922505297   Change is   -0.000000003350357
 Root      3 :     4.413381906609528   Change is   -0.000001052746909
 Root      4 :     5.189238495347554   Change is   -0.000512206217127
 Iteration     8 Dimension    60 NMult    58 NNew      2
 CISAX will form     2 AO SS matrices at one time.
 NMat=     2 NSing=     2 JSym2X= 0.
 Root      1 has converged.
 Root      2 has converged.
 Root      3 has converged.
 Root      4 has converged.
 Excitation Energies [eV] at current iteration:
 Root      1 :     3.712595836656326   Change is   -0.000000225116782
 Root      2 :     4.133100899066327   Change is   -0.000000023438970
 Root      3 :     4.413381477444542   Change is   -0.000000429164986
 Root      4 :     5.189178953600726   Change is   -0.000059541746828
 Convergence achieved on expansion vectors.
 ***********************************************************************
 Excited states from <AA,BB:AA,BB> singles matrix:
 ***********************************************************************
 
 1PDM for each excited state written to RWF  633
 Ground to excited state transition densities written to RWF  633
 Ground to excited state transition electric dipole moments (Au):
       state          X           Y           Z        Dip. S.      Osc.
         1         1.8581      0.9751      0.1788      4.4354      0.4034
         2         0.2098      0.0810      0.0044      0.0506      0.0051
         3        -1.6099     -0.6986     -0.0785      3.0859      0.3337
         4         0.1502     -0.0554     -0.3658      0.1595      0.0203
 Ground to excited state transition velocity dipole moments (Au):
       state          X           Y           Z        Dip. S.      Osc.
         1        -0.2526     -0.1349     -0.0290      0.0829      0.4050
         2        -0.0318     -0.0118     -0.0017      0.0012      0.0051
         3         0.2560      0.1102      0.0099      0.0778      0.3196
         4        -0.0197      0.0137      0.0660      0.0049      0.0173
 Ground to excited state transition magnetic dipole moments (Au):
       state          X           Y           Z
         1        -0.5275      1.6401     -3.3123
         2         0.0110     -0.0418     -0.7492
         3         0.0026     -0.3225      2.5367
         4        -0.2952     -0.8516      0.0983
 Ground to excited state transition velocity quadrupole moments (Au):
       state          XX          YY          ZZ          XY          XZ          YZ
         1        -5.6062      1.6650      0.1300      0.0495      0.5667      0.5907
         2        -0.6926      0.1572     -0.0198      0.0519      0.0891      0.0725
         3         4.1607     -1.8385      0.1895     -1.2305     -1.1443     -0.4911
         4        -0.5958     -0.2268     -0.4437      0.2222      0.7828     -0.4896
 <0|del|b> * <b|rxdel|0> + <0|del|b> * <b|delr+rdel|0>
 Rotatory Strengths (R) in cgs (10**-40 erg-esu-cm/Gauss)
       state          XX          YY          ZZ    R(velocity)    E-M Angle
         1      -129.9469    211.4315    -39.3801     14.0349       89.57
         2         6.3117     -3.0661      3.2520      2.1658       86.86
         3       225.5358   -191.3111    -76.7480    -14.1744       90.78
         4        -2.3197     13.5562     -8.8637      0.7909       89.42
 1/2[<0|r|b>*<b|rxdel|0> + (<0|rxdel|b>*<b|r|0>)*]
 Rotatory Strengths (R) in cgs (10**-40 erg-esu-cm/Gauss)
       state          XX          YY          ZZ     R(length)
         1       693.1784  -1130.9647    418.8180     -6.3227
         2        -1.6378      2.3933      2.3359      1.0305
         3         2.9339   -159.2941    140.8012     -5.1863
         4        31.3457    -33.3543     25.4426      7.8113
  1/2[<0|del|b>*<b|r|0> + (<0|r|b>*<b|del|0>)*] (Au)
       state          X           Y           Z        Dip. S.   Osc.(frdel)
         1        -0.4694     -0.1316     -0.0052      0.6062      0.4041
         2        -0.0067     -0.0010      0.0000      0.0076      0.0051
         3        -0.4121     -0.0770     -0.0008      0.4898      0.3265
         4        -0.0030     -0.0008     -0.0242      0.0279      0.0186

 Excitation energies and oscillator strengths:
 
 Excited state symmetry could not be determined.
 Excited State   1:      Singlet-?Sym    3.7126 eV  333.96 nm  f=0.4034  <S**2>=0.000
      55 -> 56         0.68198
      55 -> 59         0.11806
 This state for optimization and/or second-order correction.
 Total Energy, E(TD-HF/TD-KS) =  -731.248184318    
 Copying the excited state density for this state as the 1-particle RhoCI density.
 
 Excited state symmetry could not be determined.
 Excited State   2:      Singlet-?Sym    4.1331 eV  299.98 nm  f=0.0051  <S**2>=0.000
      52 -> 56        -0.12079
      53 -> 56         0.67343
 
 Excited state symmetry could not be determined.
 Excited State   3:      Singlet-?Sym    4.4134 eV  280.93 nm  f=0.3337  <S**2>=0.000
      54 -> 56         0.68149
      55 -> 59         0.11470
 
 Excited state symmetry could not be determined.
 Excited State   4:      Singlet-?Sym    5.1892 eV  238.93 nm  f=0.0203  <S**2>=0.000
      52 -> 56         0.47838
      54 -> 59        -0.13517
      55 -> 59        -0.34621
      55 -> 61        -0.19193
      55 -> 67         0.16745
 SavETr:  write IOETrn=   770 NScale= 10 NData=  16 NLR=1 NState=    4 LETran=      82.
 Leave Link  914 at Fri Nov  3 02:14:15 2017, MaxMem=  3758096384 cpu:      6615.6
 (Enter /share/apps/gaussian/g09_D01/g09/l601.exe)
 Copying SCF densities to generalized density rwf, IOpCl= 0 IROHF=0.

 **********************************************************************

            Population analysis using the SCF density.

 **********************************************************************

 Alpha  occ. eigenvalues --  -24.80425 -19.23729 -19.23166 -14.50794 -10.38451
 Alpha  occ. eigenvalues --  -10.36636 -10.36456 -10.35453 -10.35299 -10.35106
 Alpha  occ. eigenvalues --  -10.30607 -10.30578 -10.30441 -10.29169 -10.28723
 Alpha  occ. eigenvalues --   -1.30889  -1.14842  -1.10875  -1.10055  -0.96355
 Alpha  occ. eigenvalues --   -0.90453  -0.87322  -0.86118  -0.83776  -0.81434
 Alpha  occ. eigenvalues --   -0.75058  -0.71036  -0.69238  -0.66166  -0.64044
 Alpha  occ. eigenvalues --   -0.61634  -0.60528  -0.59679  -0.59498  -0.58028
 Alpha  occ. eigenvalues --   -0.54773  -0.54595  -0.52979  -0.52676  -0.52312
 Alpha  occ. eigenvalues --   -0.52074  -0.50925  -0.50491  -0.50320  -0.49121
 Alpha  occ. eigenvalues --   -0.47604  -0.46561  -0.44836  -0.43399  -0.42680
 Alpha  occ. eigenvalues --   -0.41149  -0.34482  -0.34284  -0.30901  -0.28428
 Alpha virt. eigenvalues --   -0.01278   0.02230   0.04065   0.04939   0.05168
 Alpha virt. eigenvalues --    0.05548   0.05666   0.06857   0.07478   0.07781
 Alpha virt. eigenvalues --    0.07837   0.08263   0.08478   0.10258   0.10857
 Alpha virt. eigenvalues --    0.11593   0.11680   0.12432   0.12685   0.13674
 Alpha virt. eigenvalues --    0.14093   0.14376   0.14555   0.15162   0.15609
 Alpha virt. eigenvalues --    0.15818   0.16140   0.16619   0.16816   0.17128
 Alpha virt. eigenvalues --    0.17296   0.17893   0.18323   0.18709   0.19181
 Alpha virt. eigenvalues --    0.19496   0.19662   0.20152   0.20958   0.21115
 Alpha virt. eigenvalues --    0.21494   0.21536   0.21955   0.22399   0.22905
 Alpha virt. eigenvalues --    0.23170   0.23789   0.24119   0.25152   0.25464
 Alpha virt. eigenvalues --    0.26022   0.26518   0.26704   0.27015   0.27183
 Alpha virt. eigenvalues --    0.27813   0.28046   0.28588   0.28886   0.29762
 Alpha virt. eigenvalues --    0.30136   0.30537   0.31432   0.31825   0.32461
 Alpha virt. eigenvalues --    0.33198   0.33611   0.34318   0.34416   0.35244
 Alpha virt. eigenvalues --    0.36237   0.36607   0.37172   0.37415   0.37784
 Alpha virt. eigenvalues --    0.38205   0.38786   0.39091   0.39579   0.40064
 Alpha virt. eigenvalues --    0.40452   0.41798   0.42067   0.42212   0.42962
 Alpha virt. eigenvalues --    0.43427   0.44686   0.45057   0.46140   0.47183
 Alpha virt. eigenvalues --    0.47484   0.48654   0.49076   0.50345   0.50667
 Alpha virt. eigenvalues --    0.51343   0.51760   0.52904   0.54984   0.55544
 Alpha virt. eigenvalues --    0.55865   0.56919   0.59949   0.61177   0.61618
 Alpha virt. eigenvalues --    0.62282   0.62807   0.63966   0.64931   0.65697
 Alpha virt. eigenvalues --    0.66030   0.66450   0.67292   0.68747   0.69149
 Alpha virt. eigenvalues --    0.69357   0.69431   0.69604   0.70270   0.70439
 Alpha virt. eigenvalues --    0.71322   0.73302   0.73852   0.73919   0.75386
 Alpha virt. eigenvalues --    0.76827   0.77001   0.77480   0.78556   0.79421
 Alpha virt. eigenvalues --    0.80139   0.81478   0.82281   0.84557   0.85914
 Alpha virt. eigenvalues --    0.86531   0.87114   0.89479   0.92180   0.92815
 Alpha virt. eigenvalues --    0.93990   0.94399   0.94736   0.96087   0.97907
 Alpha virt. eigenvalues --    0.98519   0.99899   1.01089   1.01480   1.03660
 Alpha virt. eigenvalues --    1.04078   1.04552   1.05583   1.06493   1.07939
 Alpha virt. eigenvalues --    1.10278   1.11066   1.11558   1.12247   1.13849
 Alpha virt. eigenvalues --    1.14162   1.15302   1.17934   1.19113   1.19694
 Alpha virt. eigenvalues --    1.20191   1.21009   1.24502   1.25438   1.28648
 Alpha virt. eigenvalues --    1.31267   1.32956   1.34252   1.34737   1.35946
 Alpha virt. eigenvalues --    1.37966   1.38252   1.41791   1.42680   1.48063
 Alpha virt. eigenvalues --    1.49160   1.49753   1.52685   1.52976   1.54506
 Alpha virt. eigenvalues --    1.54841   1.55796   1.56317   1.57594   1.58992
 Alpha virt. eigenvalues --    1.60062   1.60887   1.61954   1.62717   1.63961
 Alpha virt. eigenvalues --    1.64976   1.65242   1.65936   1.68378   1.68534
 Alpha virt. eigenvalues --    1.69614   1.71438   1.71997   1.73883   1.75219
 Alpha virt. eigenvalues --    1.75620   1.77206   1.78115   1.79396   1.81059
 Alpha virt. eigenvalues --    1.81849   1.82185   1.83960   1.85990   1.86901
 Alpha virt. eigenvalues --    1.89384   1.92304   1.93585   1.95170   1.95892
 Alpha virt. eigenvalues --    1.98415   1.99644   2.01682   2.03214   2.03312
 Alpha virt. eigenvalues --    2.04235   2.05484   2.05589   2.07137   2.07956
 Alpha virt. eigenvalues --    2.09934   2.10530   2.12404   2.14902   2.17241
 Alpha virt. eigenvalues --    2.18596   2.19436   2.20810   2.22288   2.22730
 Alpha virt. eigenvalues --    2.22856   2.26156   2.28433   2.30027   2.34841
 Alpha virt. eigenvalues --    2.39158   2.40456   2.41587   2.44715   2.45141
 Alpha virt. eigenvalues --    2.48042   2.49899   2.51119   2.53197   2.54429
 Alpha virt. eigenvalues --    2.56350   2.57581   2.59852   2.62160   2.64017
 Alpha virt. eigenvalues --    2.67940   2.69242   2.70262   2.72171   2.73590
 Alpha virt. eigenvalues --    2.73924   2.75335   2.77439   2.79100   2.80472
 Alpha virt. eigenvalues --    2.81235   2.82732   2.84274   2.84936   2.85195
 Alpha virt. eigenvalues --    2.86225   2.90906   2.92203   2.93490   2.94044
 Alpha virt. eigenvalues --    2.96330   2.96854   2.97781   3.00646   3.03000
 Alpha virt. eigenvalues --    3.06692   3.09884   3.13724   3.14697   3.16956
 Alpha virt. eigenvalues --    3.17883   3.20931   3.22697   3.24592   3.28542
 Alpha virt. eigenvalues --    3.31233   3.31456   3.35023   3.37474   3.40377
 Alpha virt. eigenvalues --    3.46027   3.49732   3.53594   3.57107   3.60808
 Alpha virt. eigenvalues --    3.63830   3.66439   3.69591   3.73073   3.76953
 Alpha virt. eigenvalues --    3.77836   3.79966   3.80258   3.82348   3.87359
 Alpha virt. eigenvalues --    3.89297   3.90560   3.91694   3.96140   4.03325
 Alpha virt. eigenvalues --    4.06360   4.06869   4.12421   4.16348   4.19935
 Alpha virt. eigenvalues --    4.27876   4.29942   4.39621   4.64115   4.93220
 Alpha virt. eigenvalues --    4.94404   4.95166   5.15613   5.16189   5.18662
 Alpha virt. eigenvalues --    5.36540   5.66132   5.83806   5.98700   6.45943
 Alpha virt. eigenvalues --    6.59272   6.84826  23.69598  23.90817  24.00244
 Alpha virt. eigenvalues --   24.01026  24.03223  24.04094  24.07229  24.12756
 Alpha virt. eigenvalues --   24.21062  24.22918  24.29162  35.68619  50.14289
 Alpha virt. eigenvalues --   50.17745  66.96424
          Condensed to atoms (all electrons):
               1          2          3          4          5          6
     1  H    0.553976   0.405341  -0.024542  -0.062254  -0.047962  -0.046330
     2  C    0.405341   5.219611   0.402471   0.400889   0.276547  -0.011761
     3  H   -0.024542   0.402471   0.528807  -0.026680  -0.092786   0.076016
     4  H   -0.062254   0.400889  -0.026680   0.551406  -0.045054  -0.035053
     5  N   -0.047962   0.276547  -0.092786  -0.045054   6.833197   0.303695
     6  C   -0.046330  -0.011761   0.076016  -0.035053   0.303695  18.357483
     7  C   -0.002194  -0.063785  -0.007034   0.007420   0.234465  -0.335018
     8  C    0.038022  -0.146243  -0.056099   0.034713  -0.340985  -8.854530
     9  H    0.002546  -0.033556  -0.009712   0.002637  -0.064080   0.340442
    10  H    0.002984  -0.000293  -0.001271  -0.000777  -0.037242   0.000772
    11  H   -0.004368   0.009280   0.002981  -0.006901  -0.048448   0.018463
    12  H   -0.001902   0.001229  -0.001632   0.001955  -0.047986   0.075331
    13  C    0.001530  -0.141503   0.038435  -0.010374  -0.026596  -3.762491
    14  H    0.001742  -0.005205  -0.002883   0.000935  -0.014025  -0.295465
    15  C   -0.001803   0.018969   0.023577  -0.003740   0.007874   2.650236
    16  O   -0.000020   0.001600   0.001261  -0.000084   0.003902   0.222439
    17  C    0.000949  -0.019881  -0.004702   0.000805  -0.026567  -1.377527
    18  C   -0.000198  -0.000870   0.004262  -0.000559   0.001727  -1.254712
    19  H    0.000034  -0.000422   0.000144   0.000006  -0.000224  -0.034842
    20  C    0.000410   0.001795  -0.001174   0.000119  -0.000537  -0.639845
    21  H   -0.000223  -0.002785   0.000268   0.000078  -0.009838  -0.066289
    22  C   -0.000236  -0.000505   0.001029  -0.000032   0.000967   0.500281
    23  O    0.000009   0.000205  -0.000004  -0.000008  -0.000064   0.022991
    24  C    0.000072  -0.000185  -0.000023  -0.000029   0.002159  -0.270223
    25  F    0.000000   0.000000   0.000000   0.000000   0.000004  -0.000651
    26  H   -0.000001   0.000014   0.000005   0.000001  -0.000020   0.003668
    27  H    0.000001   0.000006   0.000000   0.000000   0.000020  -0.003030
               7          8          9         10         11         12
     1  H   -0.002194   0.038022   0.002546   0.002984  -0.004368  -0.001902
     2  C   -0.063785  -0.146243  -0.033556  -0.000293   0.009280   0.001229
     3  H   -0.007034  -0.056099  -0.009712  -0.001271   0.002981  -0.001632
     4  H    0.007420   0.034713   0.002637  -0.000777  -0.006901   0.001955
     5  N    0.234465  -0.340985  -0.064080  -0.037242  -0.048448  -0.047986
     6  C   -0.335018  -8.854530   0.340442   0.000772   0.018463   0.075331
     7  C    5.289222   0.772870   0.007977   0.409930   0.388020   0.409564
     8  C    0.772870  31.113956   0.084682  -0.026130   0.033723  -0.097132
     9  H    0.007977   0.084682   0.460110  -0.001363  -0.000599   0.002058
    10  H    0.409930  -0.026130  -0.001363   0.514752  -0.020725  -0.049287
    11  H    0.388020   0.033723  -0.000599  -0.020725   0.484724  -0.018431
    12  H    0.409564  -0.097132   0.002058  -0.049287  -0.018431   0.527045
    13  C   -0.375561   0.670275   0.045080  -0.002079  -0.027249   0.014133
    14  H    0.034454   1.198450  -0.000397   0.007147   0.000852  -0.025703
    15  C   -0.318141 -13.283039  -0.075794   0.008332  -0.008987   0.005862
    16  O   -0.001997  -0.489856   0.008607   0.000190   0.000048   0.000549
    17  C    0.010610  -0.866694   0.042012  -0.001226  -0.003793   0.014111
    18  C   -0.019006  -2.425474  -0.051795  -0.002609   0.000162  -0.002918
    19  H   -0.001118  -0.000270   0.000489   0.000010  -0.000116   0.000104
    20  C    0.017606   0.693020   0.001002   0.000427  -0.000184  -0.005484
    21  H   -0.000419  -0.257798   0.002283  -0.004109   0.000167   0.005163
    22  C   -0.005221  -1.256580  -0.000282   0.000454   0.000099   0.001193
    23  O   -0.000207  -0.083682  -0.000203   0.000018  -0.000007   0.000078
    24  C   -0.004951  -0.259116  -0.003379   0.000825  -0.000358  -0.002243
    25  F   -0.000101   0.006675  -0.000043   0.000034  -0.000007  -0.000135
    26  H    0.000028  -0.006897  -0.000085  -0.000009   0.000003   0.000003
    27  H   -0.000123  -0.008152  -0.000051   0.000014  -0.000007  -0.000019
              13         14         15         16         17         18
     1  H    0.001530   0.001742  -0.001803  -0.000020   0.000949  -0.000198
     2  C   -0.141503  -0.005205   0.018969   0.001600  -0.019881  -0.000870
     3  H    0.038435  -0.002883   0.023577   0.001261  -0.004702   0.004262
     4  H   -0.010374   0.000935  -0.003740  -0.000084   0.000805  -0.000559
     5  N   -0.026596  -0.014025   0.007874   0.003902  -0.026567   0.001727
     6  C   -3.762491  -0.295465   2.650236   0.222439  -1.377527  -1.254712
     7  C   -0.375561   0.034454  -0.318141  -0.001997   0.010610  -0.019006
     8  C    0.670275   1.198450 -13.283039  -0.489856  -0.866694  -2.425474
     9  H    0.045080  -0.000397  -0.075794   0.008607   0.042012  -0.051795
    10  H   -0.002079   0.007147   0.008332   0.000190  -0.001226  -0.002609
    11  H   -0.027249   0.000852  -0.008987   0.000048  -0.003793   0.000162
    12  H    0.014133  -0.025703   0.005862   0.000549   0.014111  -0.002918
    13  C   21.464013   0.034155  -6.995779   0.825498  -2.821476   1.339026
    14  H    0.034155   0.870992  -0.270945  -0.015582  -0.702504   0.117332
    15  C   -6.995779  -0.270945  30.489165  -0.088909  -3.883972  -2.634255
    16  O    0.825498  -0.015582  -0.088909   8.162901  -0.128301  -0.177032
    17  C   -2.821476  -0.702504  -3.883972  -0.128301  26.116476  -8.797249
    18  C    1.339026   0.117332  -2.634255  -0.177032  -8.797249  22.183783
    19  H    0.038325  -0.004524  -0.094610   0.087554   0.078869  -0.036849
    20  C    2.092649   0.076077  -4.299225  -0.003235  -2.043881   2.022242
    21  H   -0.126183  -0.148415  -0.326966   0.002634   1.619786  -0.113215
    22  C   -5.729366  -0.118798   1.896982  -0.038522   5.781166  -5.900274
    23  O   -0.242771  -0.002559   0.226686   0.018097   0.005474   0.348221
    24  C    0.559207   0.159661   0.792642  -0.026822  -5.300172   1.562353
    25  F    0.011964   0.013329   0.100427  -0.000002  -0.130592   0.015040
    26  H   -0.056532  -0.001639  -0.047649   0.000476   0.124268  -0.230864
    27  H    0.015944   0.002548   0.113102  -0.000281  -0.207537   0.092100
              19         20         21         22         23         24
     1  H    0.000034   0.000410  -0.000223  -0.000236   0.000009   0.000072
     2  C   -0.000422   0.001795  -0.002785  -0.000505   0.000205  -0.000185
     3  H    0.000144  -0.001174   0.000268   0.001029  -0.000004  -0.000023
     4  H    0.000006   0.000119   0.000078  -0.000032  -0.000008  -0.000029
     5  N   -0.000224  -0.000537  -0.009838   0.000967  -0.000064   0.002159
     6  C   -0.034842  -0.639845  -0.066289   0.500281   0.022991  -0.270223
     7  C   -0.001118   0.017606  -0.000419  -0.005221  -0.000207  -0.004951
     8  C   -0.000270   0.693020  -0.257798  -1.256580  -0.083682  -0.259116
     9  H    0.000489   0.001002   0.002283  -0.000282  -0.000203  -0.003379
    10  H    0.000010   0.000427  -0.004109   0.000454   0.000018   0.000825
    11  H   -0.000116  -0.000184   0.000167   0.000099  -0.000007  -0.000358
    12  H    0.000104  -0.005484   0.005163   0.001193   0.000078  -0.002243
    13  C    0.038325   2.092649  -0.126183  -5.729366  -0.242771   0.559207
    14  H   -0.004524   0.076077  -0.148415  -0.118798  -0.002559   0.159661
    15  C   -0.094610  -4.299225  -0.326966   1.896982   0.226686   0.792642
    16  O    0.087554  -0.003235   0.002634  -0.038522   0.018097  -0.026822
    17  C    0.078869  -2.043881   1.619786   5.781166   0.005474  -5.300172
    18  C   -0.036849   2.022242  -0.113215  -5.900274   0.348221   1.562353
    19  H    0.270372   0.017226   0.004577   0.038236   0.222371  -0.005441
    20  C    0.017226  11.393434  -0.193053  -1.764584  -0.017478  -0.877485
    21  H    0.004577  -0.193053   0.689223   0.221158  -0.000620  -0.407780
    22  C    0.038236  -1.764584   0.221158  14.074957  -0.298900  -1.427673
    23  O    0.222371  -0.017478  -0.000620  -0.298900   8.169150   0.021987
    24  C   -0.005441  -0.877485  -0.407780  -1.427673   0.021987  10.968420
    25  F    0.000178   0.350776  -0.064693  -0.007454   0.000140  -0.229104
    26  H    0.000296   0.027695   0.005297   0.626225  -0.021237  -0.112258
    27  H   -0.000365  -0.213399  -0.011148  -0.107422   0.001365   0.637304
              25         26         27
     1  H    0.000000  -0.000001   0.000001
     2  C    0.000000   0.000014   0.000006
     3  H    0.000000   0.000005   0.000000
     4  H    0.000000   0.000001   0.000000
     5  N    0.000004  -0.000020   0.000020
     6  C   -0.000651   0.003668  -0.003030
     7  C   -0.000101   0.000028  -0.000123
     8  C    0.006675  -0.006897  -0.008152
     9  H   -0.000043  -0.000085  -0.000051
    10  H    0.000034  -0.000009   0.000014
    11  H   -0.000007   0.000003  -0.000007
    12  H   -0.000135   0.000003  -0.000019
    13  C    0.011964  -0.056532   0.015944
    14  H    0.013329  -0.001639   0.002548
    15  C    0.100427  -0.047649   0.113102
    16  O   -0.000002   0.000476  -0.000281
    17  C   -0.130592   0.124268  -0.207537
    18  C    0.015040  -0.230864   0.092100
    19  H    0.000178   0.000296  -0.000365
    20  C    0.350776   0.027695  -0.213399
    21  H   -0.064693   0.005297  -0.011148
    22  C   -0.007454   0.626225  -0.107422
    23  O    0.000140  -0.021237   0.001365
    24  C   -0.229104  -0.112258   0.637304
    25  F    9.129468   0.000814  -0.019657
    26  H    0.000814   0.460791  -0.013476
    27  H   -0.019657  -0.013476   0.469200
 Mulliken charges:
               1
     1  H    0.184417
     2  C   -0.310964
     3  H    0.149286
     4  H    0.190581
     5  N    0.137853
     6  C    0.415948
     7  C   -0.447290
     8  C   -0.187708
     9  H    0.241411
    10  H    0.201230
    11  H    0.201658
    12  H    0.194494
    13  C   -0.832274
    14  H    0.090967
    15  C    1.999960
    16  O   -0.365113
    17  C   -1.478449
    18  C   -0.038369
    19  H    0.419986
    20  C   -0.634914
    21  H    0.182902
    22  C   -0.486900
    23  O   -0.369055
    24  C    0.222611
    25  F   -0.176412
    26  H    0.241082
    27  H    0.253062
 Sum of Mulliken charges =   0.00000
 Mulliken charges with hydrogens summed into heavy atoms:
               1
     2  C    0.213320
     5  N    0.137853
     6  C    0.657359
     7  C    0.150092
     8  C   -0.096741
    13  C   -0.832274
    15  C    1.999960
    16  O   -0.365113
    17  C   -1.295547
    18  C   -0.038369
    20  C   -0.634914
    22  C   -0.245818
    23  O    0.050931
    24  C    0.475673
    25  F   -0.176412
 Electronic spatial extent (au):  <R**2>=          24743.2214
 Charge=              0.0000 electrons
 Dipole moment (field-independent basis, Debye):
    X=             -6.7608    Y=             -3.7398    Z=             -2.0561  Tot=              7.9951
 Quadrupole moment (field-independent basis, Debye-Ang):
   XX=           -141.5194   YY=            -61.0275   ZZ=            -89.6404
   XY=             14.8303   XZ=              3.4068   YZ=             11.7535
 Traceless Quadrupole moment (field-independent basis, Debye-Ang):
   XX=            -44.1236   YY=             36.3683   ZZ=              7.7554
   XY=             14.8303   XZ=              3.4068   YZ=             11.7535
 Octapole moment (field-independent basis, Debye-Ang**2):
  XXX=          -1893.1973  YYY=            737.3150  ZZZ=            593.8617  XYY=           -555.2279
  XXY=            486.7277  XXZ=            252.6149  XZZ=           -606.3816  YZZ=            286.2421
  YYZ=            114.9178  XYZ=            -22.1270
 Hexadecapole moment (field-independent basis, Debye-Ang**3):
 XXXX=         -23933.4476 YYYY=          -6106.7272 ZZZZ=          -3693.7381 XXXY=           6165.0493
 XXXZ=           4089.6688 YYYX=           4588.7806 YYYZ=          -1566.0132 ZZZX=           4120.5315
 ZZZY=          -2044.5683 XXYY=          -5629.0106 XXZZ=          -5200.9014 YYZZ=          -1582.8504
 XXYZ=          -1148.7010 YYXZ=           1235.8633 ZZXY=           1803.9589
 N-N= 9.392123738525D+02 E-N=-3.589028854451D+03  KE= 7.281648194812D+02
 Leave Link  601 at Fri Nov  3 02:14:15 2017, MaxMem=  3758096384 cpu:         0.7
 (Enter /share/apps/gaussian/g09_D01/g09/l9999.exe)
 1\1\GINC-SM10\SP\RwB97XD TD-FC\6-311++G(d,p)\C11H12F1N1O2\BTX008\03-No
 v-2017\0\\#p wb97xd 6-311++G** td=(nstates=4) nosymm\\Title\\0,1\H,0,0
 .343892,-4.822593,-1.709483\C,0,1.22837,-5.274823,-1.230892\H,0,1.3318
 85,-4.877868,-0.211728\H,0,1.090118,-6.367697,-1.182237\N,0,2.421885,-
 4.950714,-2.000648\C,0,3.457284,-4.328816,-1.43747\C,0,2.422514,-5.327
 365,-3.412175\C,0,4.65249,-3.990745,-2.049229\H,0,3.32501,-4.062565,-0
 .38569\H,0,3.193977,-6.0884,-3.626993\H,0,1.442137,-5.742157,-3.67539\
 H,0,2.609015,-4.44471,-4.04357\C,0,5.658801,-3.294022,-1.32045\H,0,4.8
 2103,-4.232109,-3.094495\C,0,6.944597,-2.914049,-1.961163\O,0,5.495702
 ,-2.954375,-0.08534\C,0,7.324422,-3.340615,-3.250762\C,0,7.85452,-2.08
 4049,-1.234578\H,0,6.622621,-2.135325,0.190058\C,0,8.545927,-2.955764,
 -3.761317\H,0,6.684826,-3.97165,-3.866156\C,0,9.094154,-1.723033,-1.79
 245\O,0,7.540085,-1.641735,-0.004713\C,0,9.451422,-2.154391,-3.06491\F
 ,0,8.887917,-3.403737,-5.024041\H,0,9.772525,-1.10743,-1.195134\H,0,10
 .409435,-1.891362,-3.521118\\Version=ES64L-G09RevD.01\HF=-731.3846197\
 RMSD=5.908e-09\PG=C01 [X(C11H12F1N1O2)]\\@


 I DO NOT KNOW WHAT I MAY APPEAR TO THE WORLD; BUT TO MYSELF
 I SEEM TO HAVE BEEN ONLY LIKE A BOY PLAYING ON THE SEASHORE,
 AND DIVERTING MYSELF IN NOW AND THEN FINDING A SMOOTHER PEBBLE
 OR A PRETTIER SHELL THAN ORDINARY, WHILST THE GREAT OCEAN OF
 TRUTH LAY ALL UNDISCOVERED BEFORE ME.
                                          -- NEWTON (1642-1726)
 Job cpu time:       0 days  2 hours 39 minutes 16.7 seconds.
 File lengths (MBytes):  RWF=    262 Int=      0 D2E=      0 Chk=     30 Scr=      1
 Normal termination of Gaussian 09 at Fri Nov  3 02:14:16 2017.
