 Entering Gaussian System, Link 0=g09
 Input=H_opt.com
 Output=H_opt.out
 Initial command:
 /share/apps/gaussian/g09/l1.exe /tmp/3499141.1.serial.q/Gau-19728.inp -scrdir=/tmp/3499141.1.serial.q/
 Entering Link 1 = /share/apps/gaussian/g09/l1.exe PID=     19729.
  
 Copyright (c) 1988,1990,1992,1993,1995,1998,2003,2009,2011,
            Gaussian, Inc.  All Rights Reserved.
  
 This is part of the Gaussian(R) 09 program.  It is based on
 the Gaussian(R) 03 system (copyright 2003, Gaussian, Inc.),
 the Gaussian(R) 98 system (copyright 1998, Gaussian, Inc.),
 the Gaussian(R) 94 system (copyright 1995, Gaussian, Inc.),
 the Gaussian 92(TM) system (copyright 1992, Gaussian, Inc.),
 the Gaussian 90(TM) system (copyright 1990, Gaussian, Inc.),
 the Gaussian 88(TM) system (copyright 1988, Gaussian, Inc.),
 the Gaussian 86(TM) system (copyright 1986, Carnegie Mellon
 University), and the Gaussian 82(TM) system (copyright 1983,
 Carnegie Mellon University). Gaussian is a federally registered
 trademark of Gaussian, Inc.
  
 This software contains proprietary and confidential information,
 including trade secrets, belonging to Gaussian, Inc.
  
 This software is provided under written license and may be
 used, copied, transmitted, or stored only in accord with that
 written license.
  
 The following legend is applicable only to US Government
 contracts under FAR:
  
                    RESTRICTED RIGHTS LEGEND
  
 Use, reproduction and disclosure by the US Government is
 subject to restrictions as set forth in subparagraphs (a)
 and (c) of the Commercial Computer Software - Restricted
 Rights clause in FAR 52.227-19.
  
 Gaussian, Inc.
 340 Quinnipiac St., Bldg. 40, Wallingford CT 06492
  
  
 ---------------------------------------------------------------
 Warning -- This program may not be used in any manner that
 competes with the business of Gaussian, Inc. or will provide
 assistance to any competitor of Gaussian, Inc.  The licensee
 of this program is prohibited from giving any competitor of
 Gaussian, Inc. access to this program.  By using this program,
 the user acknowledges that Gaussian, Inc. is engaged in the
 business of creating and licensing software in the field of
 computational chemistry and represents and warrants to the
 licensee that it is not a competitor of Gaussian, Inc. and that
 it will not use this program in any manner prohibited above.
 ---------------------------------------------------------------
  

 Cite this work as:
 Gaussian 09, Revision C.01,
 M. J. Frisch, G. W. Trucks, H. B. Schlegel, G. E. Scuseria, 
 M. A. Robb, J. R. Cheeseman, G. Scalmani, V. Barone, B. Mennucci, 
 G. A. Petersson, H. Nakatsuji, M. Caricato, X. Li, H. P. Hratchian, 
 A. F. Izmaylov, J. Bloino, G. Zheng, J. L. Sonnenberg, M. Hada, 
 M. Ehara, K. Toyota, R. Fukuda, J. Hasegawa, M. Ishida, T. Nakajima, 
 Y. Honda, O. Kitao, H. Nakai, T. Vreven, J. A. Montgomery, Jr., 
 J. E. Peralta, F. Ogliaro, M. Bearpark, J. J. Heyd, E. Brothers, 
 K. N. Kudin, V. N. Staroverov, T. Keith, R. Kobayashi, J. Normand, 
 K. Raghavachari, A. Rendell, J. C. Burant, S. S. Iyengar, J. Tomasi, 
 M. Cossi, N. Rega, J. M. Millam, M. Klene, J. E. Knox, J. B. Cross, 
 V. Bakken, C. Adamo, J. Jaramillo, R. Gomperts, R. E. Stratmann, 
 O. Yazyev, A. J. Austin, R. Cammi, C. Pomelli, J. W. Ochterski, 
 R. L. Martin, K. Morokuma, V. G. Zakrzewski, G. A. Voth, 
 P. Salvador, J. J. Dannenberg, S. Dapprich, A. D. Daniels, 
 O. Farkas, J. B. Foresman, J. V. Ortiz, J. Cioslowski, 
 and D. J. Fox, Gaussian, Inc., Wallingford CT, 2010.
 
 ******************************************
 Gaussian 09:  EM64L-G09RevC.01 23-Sep-2011
                16-Oct-2015 
 ******************************************
 %chk=H_opt.chk
 %mem=2GB
 %nproc=4
 Will use up to    4 processors via shared memory.
 ---------------------------
 #wb97xd 6-311++g** opt freq
 ---------------------------
 1/14=-1,18=20,19=15,26=3,38=1/1,3;
 2/9=110,12=2,17=6,18=5,40=1/2;
 3/5=4,6=6,7=1111,11=2,16=1,25=1,30=1,71=1,74=-58/1,2,3;
 4//1;
 5/5=2,38=5/2;
 6/7=2,8=2,9=2,10=2,28=1/1;
 7//1,2,3,16;
 1/14=-1,18=20,19=15/3(2);
 2/9=110/2;
 99//99;
 2/9=110/2;
 3/5=4,6=6,7=1111,11=2,16=1,25=1,30=1,71=1,74=-58/1,2,3;
 4/5=5,16=3/1;
 5/5=2,38=5/2;
 7//1,2,3,16;
 1/14=-1,18=20,19=15/3(-5);
 2/9=110/2;
 6/7=2,8=2,9=2,10=2,19=2,28=1/1;
 99/9=1/99;
 -----------------
 Geom Opt H bigbas
 -----------------
 Charge =  0 Multiplicity = 1
 Symbolic Z-Matrix:
 C                     4.93029   3.44445   4.515 
 C                     3.70421   2.84483   4.26301 
 H                     2.99707   2.97751   4.85187 
 C                     3.52674   2.057     3.15332 
 H                     2.70172   1.66      2.99321 
 C                     4.57172   1.85346   2.27369 
 H                     4.4554    1.30517   1.53146 
 C                     5.78021   2.46038   2.49632 
 H                     6.47214   2.3275    1.89015 
 C                     5.99865   3.27474   3.61299 
 C                     7.2796    3.95376   3.877 
 C                     8.41179   3.76153   2.98927 
 H                     8.33273   3.16984   2.27583 
 C                     9.57192   4.41535   3.17008 
 H                     9.586     5.03348   3.86463 
 C                     10.79853   4.27743   2.42155 
 C                     10.97155   3.35486   1.38337 
 H                     10.25406   2.81809   1.13454 
 C                     12.16053   3.21777   0.72413 
 H                     12.23827   2.58359   0.04835 
 C                     13.27412   4.02349   1.05088 
 C                     13.10637   4.94513   2.09614 
 H                     13.81728   5.48808   2.35004 
 C                     11.90434   5.05405   2.74808 
 H                     11.82646   5.67321   3.43735 
 C                     14.61113   2.94933  -0.69332 
 H                     14.45579   2.06523  -0.35419 
 H                     15.50321   3.00528  -1.04459 
 H                     13.9798   3.14001  -1.39091 
 C                     15.5599   4.80927   0.64204 
 H                     15.26877   5.71743   0.53298 
 H                     16.27372   4.62619   0.02699 
 H                     15.86994   4.67865   1.54158 
 N                     14.45349   3.91231   0.37825 
 O                     5.04615   4.17838   5.63897 
 H                     5.78768   4.52643   5.66258 
 O                     7.38437   4.68872   4.88729 
 

 GradGradGradGradGradGradGradGradGradGradGradGradGradGradGradGradGradGrad
 Berny optimization.
 Initialization pass.
                           ----------------------------
                           !    Initial Parameters    !
                           ! (Angstroms and Degrees)  !
 --------------------------                            --------------------------
 ! Name  Definition              Value          Derivative Info.                !
 --------------------------------------------------------------------------------
 ! R1    R(1,2)                  1.3879         estimate D2E/DX2                !
 ! R2    R(1,10)                 1.4085         estimate D2E/DX2                !
 ! R3    R(1,35)                 1.3474         estimate D2E/DX2                !
 ! R4    R(2,3)                  0.9297         estimate D2E/DX2                !
 ! R5    R(2,4)                  1.3724         estimate D2E/DX2                !
 ! R6    R(4,5)                  0.9295         estimate D2E/DX2                !
 ! R7    R(4,6)                  1.381          estimate D2E/DX2                !
 ! R8    R(6,7)                  0.9301         estimate D2E/DX2                !
 ! R9    R(6,8)                  1.3705         estimate D2E/DX2                !
 ! R10   R(8,9)                  0.9294         estimate D2E/DX2                !
 ! R11   R(8,10)                 1.3992         estimate D2E/DX2                !
 ! R12   R(10,11)                1.4736         estimate D2E/DX2                !
 ! R13   R(11,12)                1.4515         estimate D2E/DX2                !
 ! R14   R(11,37)                1.2537         estimate D2E/DX2                !
 ! R15   R(12,13)                0.9302         estimate D2E/DX2                !
 ! R16   R(12,14)                1.3439         estimate D2E/DX2                !
 ! R17   R(14,15)                0.9299         estimate D2E/DX2                !
 ! R18   R(14,16)                1.4436         estimate D2E/DX2                !
 ! R19   R(16,17)                1.3996         estimate D2E/DX2                !
 ! R20   R(16,24)                1.3902         estimate D2E/DX2                !
 ! R21   R(17,18)                0.93           estimate D2E/DX2                !
 ! R22   R(17,19)                1.3664         estimate D2E/DX2                !
 ! R23   R(19,20)                0.93           estimate D2E/DX2                !
 ! R24   R(19,21)                1.4128         estimate D2E/DX2                !
 ! R25   R(21,22)                1.4036         estimate D2E/DX2                !
 ! R26   R(21,34)                1.3622         estimate D2E/DX2                !
 ! R27   R(22,23)                0.9299         estimate D2E/DX2                !
 ! R28   R(22,24)                1.3718         estimate D2E/DX2                !
 ! R29   R(24,25)                0.9298         estimate D2E/DX2                !
 ! R30   R(26,27)                0.9596         estimate D2E/DX2                !
 ! R31   R(26,28)                0.9604         estimate D2E/DX2                !
 ! R32   R(26,29)                0.96           estimate D2E/DX2                !
 ! R33   R(26,34)                1.4493         estimate D2E/DX2                !
 ! R34   R(30,31)                0.9599         estimate D2E/DX2                !
 ! R35   R(30,32)                0.9599         estimate D2E/DX2                !
 ! R36   R(30,33)                0.9604         estimate D2E/DX2                !
 ! R37   R(30,34)                1.4485         estimate D2E/DX2                !
 ! R38   R(35,36)                0.8195         estimate D2E/DX2                !
 ! A1    A(2,1,10)             120.1154         estimate D2E/DX2                !
 ! A2    A(2,1,35)             117.5649         estimate D2E/DX2                !
 ! A3    A(10,1,35)            122.3196         estimate D2E/DX2                !
 ! A4    A(1,2,3)              119.6861         estimate D2E/DX2                !
 ! A5    A(1,2,4)              120.5995         estimate D2E/DX2                !
 ! A6    A(3,2,4)              119.7144         estimate D2E/DX2                !
 ! A7    A(2,4,5)              119.9503         estimate D2E/DX2                !
 ! A8    A(2,4,6)              120.117          estimate D2E/DX2                !
 ! A9    A(5,4,6)              119.9326         estimate D2E/DX2                !
 ! A10   A(4,6,7)              120.0366         estimate D2E/DX2                !
 ! A11   A(4,6,8)              119.8997         estimate D2E/DX2                !
 ! A12   A(7,6,8)              120.0636         estimate D2E/DX2                !
 ! A13   A(6,8,9)              119.1556         estimate D2E/DX2                !
 ! A14   A(6,8,10)             121.6699         estimate D2E/DX2                !
 ! A15   A(9,8,10)             119.1744         estimate D2E/DX2                !
 ! A16   A(1,10,8)             117.5679         estimate D2E/DX2                !
 ! A17   A(1,10,11)            119.2805         estimate D2E/DX2                !
 ! A18   A(8,10,11)            123.1514         estimate D2E/DX2                !
 ! A19   A(10,11,12)           120.4926         estimate D2E/DX2                !
 ! A20   A(10,11,37)           119.1519         estimate D2E/DX2                !
 ! A21   A(12,11,37)           120.3508         estimate D2E/DX2                !
 ! A22   A(11,12,13)           119.1436         estimate D2E/DX2                !
 ! A23   A(11,12,14)           121.7782         estimate D2E/DX2                !
 ! A24   A(13,12,14)           119.0781         estimate D2E/DX2                !
 ! A25   A(12,14,15)           115.9103         estimate D2E/DX2                !
 ! A26   A(12,14,16)           128.1169         estimate D2E/DX2                !
 ! A27   A(15,14,16)           115.9727         estimate D2E/DX2                !
 ! A28   A(14,16,17)           123.5487         estimate D2E/DX2                !
 ! A29   A(14,16,24)           120.0483         estimate D2E/DX2                !
 ! A30   A(17,16,24)           116.3683         estimate D2E/DX2                !
 ! A31   A(16,17,18)           118.9185         estimate D2E/DX2                !
 ! A32   A(16,17,19)           122.1121         estimate D2E/DX2                !
 ! A33   A(18,17,19)           118.9694         estimate D2E/DX2                !
 ! A34   A(17,19,20)           119.4544         estimate D2E/DX2                !
 ! A35   A(17,19,21)           121.1354         estimate D2E/DX2                !
 ! A36   A(20,19,21)           119.4102         estimate D2E/DX2                !
 ! A37   A(19,21,22)           116.904          estimate D2E/DX2                !
 ! A38   A(19,21,34)           121.4433         estimate D2E/DX2                !
 ! A39   A(22,21,34)           121.6523         estimate D2E/DX2                !
 ! A40   A(21,22,23)           119.694          estimate D2E/DX2                !
 ! A41   A(21,22,24)           120.7157         estimate D2E/DX2                !
 ! A42   A(23,22,24)           119.5903         estimate D2E/DX2                !
 ! A43   A(16,24,22)           122.7539         estimate D2E/DX2                !
 ! A44   A(16,24,25)           118.6533         estimate D2E/DX2                !
 ! A45   A(22,24,25)           118.5928         estimate D2E/DX2                !
 ! A46   A(27,26,28)           109.4702         estimate D2E/DX2                !
 ! A47   A(27,26,29)           109.473          estimate D2E/DX2                !
 ! A48   A(27,26,34)           109.4676         estimate D2E/DX2                !
 ! A49   A(28,26,29)           109.4824         estimate D2E/DX2                !
 ! A50   A(28,26,34)           109.4364         estimate D2E/DX2                !
 ! A51   A(29,26,34)           109.4978         estimate D2E/DX2                !
 ! A52   A(31,30,32)           109.4632         estimate D2E/DX2                !
 ! A53   A(31,30,33)           109.4512         estimate D2E/DX2                !
 ! A54   A(31,30,34)           109.4809         estimate D2E/DX2                !
 ! A55   A(32,30,33)           109.5208         estimate D2E/DX2                !
 ! A56   A(32,30,34)           109.4647         estimate D2E/DX2                !
 ! A57   A(33,30,34)           109.4466         estimate D2E/DX2                !
 ! A58   A(21,34,26)           120.8957         estimate D2E/DX2                !
 ! A59   A(21,34,30)           121.3871         estimate D2E/DX2                !
 ! A60   A(26,34,30)           117.5811         estimate D2E/DX2                !
 ! A61   A(1,35,36)            109.4627         estimate D2E/DX2                !
 ! D1    D(10,1,2,3)          -178.5349         estimate D2E/DX2                !
 ! D2    D(10,1,2,4)             1.5263         estimate D2E/DX2                !
 ! D3    D(35,1,2,3)             1.5316         estimate D2E/DX2                !
 ! D4    D(35,1,2,4)          -178.4072         estimate D2E/DX2                !
 ! D5    D(2,1,10,8)            -1.7311         estimate D2E/DX2                !
 ! D6    D(2,1,10,11)          178.1108         estimate D2E/DX2                !
 ! D7    D(35,1,10,8)          178.1992         estimate D2E/DX2                !
 ! D8    D(35,1,10,11)          -1.959          estimate D2E/DX2                !
 ! D9    D(2,1,35,36)         -176.0939         estimate D2E/DX2                !
 ! D10   D(10,1,35,36)           3.9742         estimate D2E/DX2                !
 ! D11   D(1,2,4,5)           -179.9826         estimate D2E/DX2                !
 ! D12   D(1,2,4,6)             -0.0109         estimate D2E/DX2                !
 ! D13   D(3,2,4,5)              0.0787         estimate D2E/DX2                !
 ! D14   D(3,2,4,6)           -179.9497         estimate D2E/DX2                !
 ! D15   D(2,4,6,7)            178.7329         estimate D2E/DX2                !
 ! D16   D(2,4,6,8)             -1.2555         estimate D2E/DX2                !
 ! D17   D(5,4,6,7)             -1.2954         estimate D2E/DX2                !
 ! D18   D(5,4,6,8)            178.7161         estimate D2E/DX2                !
 ! D19   D(4,6,8,9)           -178.996          estimate D2E/DX2                !
 ! D20   D(4,6,8,10)             1.0107         estimate D2E/DX2                !
 ! D21   D(7,6,8,9)              1.0156         estimate D2E/DX2                !
 ! D22   D(7,6,8,10)          -178.9777         estimate D2E/DX2                !
 ! D23   D(6,8,10,1)             0.4778         estimate D2E/DX2                !
 ! D24   D(6,8,10,11)         -179.3574         estimate D2E/DX2                !
 ! D25   D(9,8,10,1)          -179.5155         estimate D2E/DX2                !
 ! D26   D(9,8,10,11)            0.6493         estimate D2E/DX2                !
 ! D27   D(1,10,11,12)         177.9229         estimate D2E/DX2                !
 ! D28   D(1,10,11,37)          -1.2861         estimate D2E/DX2                !
 ! D29   D(8,10,11,12)          -2.2446         estimate D2E/DX2                !
 ! D30   D(8,10,11,37)         178.5464         estimate D2E/DX2                !
 ! D31   D(10,11,12,13)         -3.135          estimate D2E/DX2                !
 ! D32   D(10,11,12,14)        176.8705         estimate D2E/DX2                !
 ! D33   D(37,11,12,13)        176.0645         estimate D2E/DX2                !
 ! D34   D(37,11,12,14)         -3.9301         estimate D2E/DX2                !
 ! D35   D(11,12,14,15)         -3.5724         estimate D2E/DX2                !
 ! D36   D(11,12,14,16)        176.3909         estimate D2E/DX2                !
 ! D37   D(13,12,14,15)        176.433          estimate D2E/DX2                !
 ! D38   D(13,12,14,16)         -3.6037         estimate D2E/DX2                !
 ! D39   D(12,14,16,17)         -2.8141         estimate D2E/DX2                !
 ! D40   D(12,14,16,24)        179.4097         estimate D2E/DX2                !
 ! D41   D(15,14,16,17)        177.1491         estimate D2E/DX2                !
 ! D42   D(15,14,16,24)         -0.627          estimate D2E/DX2                !
 ! D43   D(14,16,17,18)          2.273          estimate D2E/DX2                !
 ! D44   D(14,16,17,19)       -177.7248         estimate D2E/DX2                !
 ! D45   D(24,16,17,18)       -179.8754         estimate D2E/DX2                !
 ! D46   D(24,16,17,19)          0.1267         estimate D2E/DX2                !
 ! D47   D(14,16,24,22)        178.3432         estimate D2E/DX2                !
 ! D48   D(14,16,24,25)         -1.6384         estimate D2E/DX2                !
 ! D49   D(17,16,24,22)          0.4117         estimate D2E/DX2                !
 ! D50   D(17,16,24,25)       -179.5699         estimate D2E/DX2                !
 ! D51   D(16,17,19,20)        179.063          estimate D2E/DX2                !
 ! D52   D(16,17,19,21)         -0.9712         estimate D2E/DX2                !
 ! D53   D(18,17,19,20)         -0.9349         estimate D2E/DX2                !
 ! D54   D(18,17,19,21)        179.0309         estimate D2E/DX2                !
 ! D55   D(17,19,21,22)          1.2376         estimate D2E/DX2                !
 ! D56   D(17,19,21,34)       -178.5489         estimate D2E/DX2                !
 ! D57   D(20,19,21,22)       -178.7965         estimate D2E/DX2                !
 ! D58   D(20,19,21,34)          1.417          estimate D2E/DX2                !
 ! D59   D(19,21,22,23)        179.2867         estimate D2E/DX2                !
 ! D60   D(19,21,22,24)         -0.711          estimate D2E/DX2                !
 ! D61   D(34,21,22,23)         -0.9273         estimate D2E/DX2                !
 ! D62   D(34,21,22,24)        179.0751         estimate D2E/DX2                !
 ! D63   D(19,21,34,26)         -0.5944         estimate D2E/DX2                !
 ! D64   D(19,21,34,30)        175.0625         estimate D2E/DX2                !
 ! D65   D(22,21,34,26)        179.6293         estimate D2E/DX2                !
 ! D66   D(22,21,34,30)         -4.7138         estimate D2E/DX2                !
 ! D67   D(21,22,24,16)         -0.1028         estimate D2E/DX2                !
 ! D68   D(21,22,24,25)        179.8788         estimate D2E/DX2                !
 ! D69   D(23,22,24,16)        179.8996         estimate D2E/DX2                !
 ! D70   D(23,22,24,25)         -0.1188         estimate D2E/DX2                !
 ! D71   D(27,26,34,21)        -59.5025         estimate D2E/DX2                !
 ! D72   D(27,26,34,30)        124.6801         estimate D2E/DX2                !
 ! D73   D(28,26,34,21)       -179.4777         estimate D2E/DX2                !
 ! D74   D(28,26,34,30)          4.7049         estimate D2E/DX2                !
 ! D75   D(29,26,34,21)         60.5136         estimate D2E/DX2                !
 ! D76   D(29,26,34,30)       -115.3037         estimate D2E/DX2                !
 ! D77   D(31,30,34,21)        -55.3668         estimate D2E/DX2                !
 ! D78   D(31,30,34,26)        120.4288         estimate D2E/DX2                !
 ! D79   D(32,30,34,21)       -175.3589         estimate D2E/DX2                !
 ! D80   D(32,30,34,26)          0.4367         estimate D2E/DX2                !
 ! D81   D(33,30,34,21)         64.5995         estimate D2E/DX2                !
 ! D82   D(33,30,34,26)       -119.6049         estimate D2E/DX2                !
 --------------------------------------------------------------------------------
 Trust Radius=3.00D-01 FncErr=1.00D-07 GrdErr=1.00D-06
 Number of steps in this run=    191 maximum allowed number of steps=    222.
 GradGradGradGradGradGradGradGradGradGradGradGradGradGradGradGradGradGrad

                          Input orientation:                          
 ---------------------------------------------------------------------
 Center     Atomic      Atomic             Coordinates (Angstroms)
 Number     Number       Type             X           Y           Z
 ---------------------------------------------------------------------
      1          6           0        4.930290    3.444450    4.515000
      2          6           0        3.704210    2.844830    4.263010
      3          1           0        2.997070    2.977510    4.851870
      4          6           0        3.526740    2.057000    3.153320
      5          1           0        2.701720    1.660000    2.993210
      6          6           0        4.571720    1.853460    2.273690
      7          1           0        4.455400    1.305170    1.531460
      8          6           0        5.780210    2.460380    2.496320
      9          1           0        6.472140    2.327500    1.890150
     10          6           0        5.998650    3.274740    3.612990
     11          6           0        7.279600    3.953760    3.877000
     12          6           0        8.411790    3.761530    2.989270
     13          1           0        8.332730    3.169840    2.275830
     14          6           0        9.571920    4.415350    3.170080
     15          1           0        9.586000    5.033480    3.864630
     16          6           0       10.798530    4.277430    2.421550
     17          6           0       10.971550    3.354860    1.383370
     18          1           0       10.254060    2.818090    1.134540
     19          6           0       12.160530    3.217770    0.724130
     20          1           0       12.238270    2.583590    0.048350
     21          6           0       13.274120    4.023490    1.050880
     22          6           0       13.106370    4.945130    2.096140
     23          1           0       13.817280    5.488080    2.350040
     24          6           0       11.904340    5.054050    2.748080
     25          1           0       11.826460    5.673210    3.437350
     26          6           0       14.611130    2.949330   -0.693320
     27          1           0       14.455790    2.065230   -0.354190
     28          1           0       15.503210    3.005280   -1.044590
     29          1           0       13.979800    3.140010   -1.390910
     30          6           0       15.559900    4.809270    0.642040
     31          1           0       15.268770    5.717430    0.532980
     32          1           0       16.273720    4.626190    0.026990
     33          1           0       15.869940    4.678650    1.541580
     34          7           0       14.453490    3.912310    0.378250
     35          8           0        5.046150    4.178380    5.638970
     36          1           0        5.787680    4.526430    5.662580
     37          8           0        7.384370    4.688720    4.887290
 ---------------------------------------------------------------------
                    Distance matrix (angstroms):
                    1          2          3          4          5
     1  C    0.000000
     2  C    1.387918   0.000000
     3  H    2.017140   0.929735   0.000000
     4  C    2.397737   1.372437   2.003238   0.000000
     5  H    3.235217   2.005293   2.297320   0.929463   0.000000
     6  C    2.771875   2.385955   3.223356   1.381000   2.012967
     7  H    3.701831   3.224315   3.993566   2.014470   2.310414
     8  C    2.401214   2.752957   3.682650   2.381699   3.219411
     9  H    3.242640   3.682327   4.611985   3.216232   3.984767
    10  C    1.408480   2.423180   3.260775   2.793658   3.723071
    11  C    2.487106   3.763262   4.499278   4.266775   5.196095
    12  C    3.814346   4.962264   5.779547   5.176490   6.084517
    13  H    4.082388   5.047545   5.928089   5.010583   5.873885
    14  C    4.929116   6.171795   6.937179   6.488936   7.404248
    15  H    4.962221   6.288430   6.972493   6.788227   7.715766
    16  C    6.285907   7.468112   8.273997   7.638372   8.528544
    17  C    6.805289   7.833689   8.704322   7.761595   8.593848
    18  H    6.337378   7.258690   8.155235   7.064812   7.863439
    19  C    8.166912   9.174536  10.053107   9.043820   9.851115
    20  H    8.608055   9.521648  10.422512   9.263309  10.023523
    21  C    9.052895  10.163178  11.007241  10.163599  11.006106
    22  C    8.657437   9.874573  10.661310  10.061224  10.947765
    23  H    9.372410  10.626402  11.385915  10.877168  11.773850
    24  C    7.372258   8.626575   9.384957   8.906779   9.811620
    25  H    7.327064   8.640162   9.339475   9.057759   9.978176
    26  C   11.004109  11.980694  12.869977  11.766758  12.533432
    27  H   10.786399  11.727011  12.618937  11.478102  12.228142
    28  H   11.953600  12.938808  13.826516  12.726253  13.490432
    29  H   10.810462  11.732080  12.634044  11.449428  12.190407
    30  C   11.395225  12.551009  13.375452  12.596764  13.445397
    31  H   11.309602  12.486152  13.294909  12.575381  13.433027
    32  H   12.256107  13.383187  14.222062  13.373862  14.205489
    33  H   11.403527  12.600558  13.400100  12.721059  13.587549
    34  N   10.393408  11.479455  12.334370  11.425281  12.248062
    35  O    1.347362   2.339321   2.502068   3.603792   4.340350
    36  H    1.795199   3.021162   3.293009   4.184055   4.986492
    37  O    2.776566   4.163320   4.709341   4.981356   5.889643
                    6          7          8          9         10
     6  C    0.000000
     7  H    0.930085   0.000000
     8  C    1.370534   2.005140   0.000000
     9  H    1.995849   2.289336   0.929444   0.000000
    10  C    2.418655   3.254780   1.399232   2.022284   0.000000
    11  C    3.783448   4.526886   2.526783   2.691521   1.473636
    12  C    4.347289   4.879748   2.976778   2.650802   2.539535
    13  H    3.984728   4.366322   2.658441   2.078480   2.692012
    14  C    5.689358   6.207823   4.318903   3.950440   3.776959
    15  H    6.147082   6.757739   4.793449   4.573513   4.003195
    16  C    6.683611   7.061295   5.337677   4.775172   5.046163
    17  C    6.633604   6.832523   5.384121   4.642950   5.450446
    18  H    5.875131   6.005908   4.690174   3.887743   4.945681
    19  C    7.864637   7.979903   6.665042   5.874518   6.805698
    20  H    8.016309   8.025400   6.907552   6.058553   7.219225
    21  C    9.051854   9.240673   7.790462   7.060290   7.749677
    22  C    9.079108   9.402524   7.746402   7.134944   7.457260
    23  H    9.934620  10.286477   8.589695   8.009485   8.223436
    24  C    8.014745   8.427394   6.655485   6.138315   6.228257
    25  H    8.281054   8.777512   6.911219   6.500488   6.304512
    26  C   10.525865  10.525766   9.402022   8.561784   9.634574
    27  H   10.229635  10.204958   9.140418   8.297259   9.419376
    28  H   11.481949  11.470855  10.362031   9.520100  10.587838
    29  H   10.178235  10.130206   9.099765   8.233498   9.421036
    30  C   11.495181  11.678172  10.227315   9.502860  10.129108
    31  H   11.505964  11.721517  10.222321   9.524402  10.069177
    32  H   12.234071  12.367914  10.995548  10.238472  10.966443
    33  H   11.669081  11.902613  10.374724   9.693712  10.183519
    34  N   10.270391  10.396580   9.045447   8.276437   9.074930
    35  O    4.117699   5.047372   3.656038   4.417336   2.414211
    36  H    4.484184   5.405334   3.780717   4.419842   2.410820
    37  O    4.772903   5.593646   3.640819   3.923056   2.354443
                   11         12         13         14         15
    11  C    0.000000
    12  C    1.451507   0.000000
    13  H    2.070594   0.930239   0.000000
    14  C    2.442853   1.343903   1.971439   0.000000
    15  H    2.546651   1.939815   2.751023   0.929883   0.000000
    16  C    3.821775   2.506988   2.707057   1.443569   2.030842
    17  C    4.495260   3.049044   2.791789   2.505182   3.300631
    18  H    4.202172   2.779220   2.262251   2.675813   3.578778
    19  C    5.857111   4.413568   4.130632   3.757362   4.448342
    20  H    6.412826   4.967746   4.534159   4.495549   5.253617
    21  C    6.627676   5.241014   5.162030   4.283789   4.747578
    22  C    6.172967   4.923177   5.096232   3.731803   3.940605
    23  H    6.886727   5.710421   5.954833   4.454918   4.517120
    24  C    4.886033   3.731848   4.065669   2.454833   2.573287
    25  H    4.880956   3.938942   4.452206   2.595495   2.368857
    26  C    8.697588   7.256236   6.948581   6.516802   7.097219
    27  H    8.542085   7.112390   6.754927   6.464962   7.093927
    28  H    9.630650   8.193423   7.903673   7.411609   7.951567
    29  H    8.561877   7.111610   6.733147   6.469817   7.107138
    30  C    8.930858   7.596231   7.588741   6.511687   6.791380
    31  H    8.838543   7.541689   7.591864   6.411225   6.622806
    32  H    9.806576   8.445868   8.380785   7.405241   7.721332
    33  H    8.931606   7.652510   7.721733   6.510483   6.708977
    34  N    7.981708   6.583487   6.451029   5.645980   6.091332
    35  O    2.853645   4.303743   4.809311   5.160830   4.948709
    36  H    2.396262   3.823299   4.448336   4.532700   4.232843
    37  O    1.253726   2.348990   3.166403   2.794444   2.451911
                   16         17         18         19         20
    16  C    0.000000
    17  C    1.399603   0.000000
    18  H    2.020524   0.929963   0.000000
    19  C    2.420570   1.366406   1.990680   0.000000
    20  H    3.251772   1.995424   2.274179   0.930003   0.000000
    21  C    2.841086   2.420629   3.252807   1.412810   2.037490
    22  C    2.424426   2.755804   3.685735   2.400166   3.244058
    23  H    3.253250   3.685547   4.615498   3.246954   4.028289
    24  C    1.390171   2.370607   3.213480   2.744801   3.674673
    25  H    2.009152   3.213168   3.990875   3.674555   4.604417
    26  C    5.099234   4.209945   4.726770   2.843706   2.512828
    27  H    5.096480   4.101486   4.520802   2.785559   2.312603
    28  H    5.980511   5.152974   5.686583   3.787748   3.468742
    29  H    5.094021   4.097848   4.512501   2.790911   2.326800
    30  C    5.110788   4.870096   5.688523   3.754374   4.042196
    31  H    5.061950   4.977047   5.823690   3.993244   4.386314
    32  H    5.986089   5.618634   6.382178   4.403179   4.523000
    33  H    5.162802   5.076581   5.930048   4.069658   4.450622
    34  N    4.203227   3.666732   4.405054   2.420678   2.604137
    35  O    6.591774   7.341572   7.018732   8.700162   9.247972
    36  H    5.972846   6.823249   6.585600   8.167870   8.769511
    37  O    4.231492   5.188882   5.081093   6.504406   7.169885
                   21         22         23         24         25
    21  C    0.000000
    22  C    1.403613   0.000000
    23  H    2.031714   0.929867   0.000000
    24  C    2.412227   1.371775   2.001539   0.000000
    25  H    3.242304   1.991762   2.275935   0.929794   0.000000
    26  C    2.446150   3.745478   4.041966   4.857962   5.677706
    27  H    2.684278   4.014832   4.408680   5.006698   5.857190
    28  H    3.224374   4.401369   4.531023   5.615485   6.381546
    29  H    2.690885   4.022543   4.419791   5.010222   5.862258
    30  C    2.451406   2.855289   2.532740   4.225925   4.743282
    31  H    2.667636   2.777749   2.336906   4.082417   4.504089
    32  H    3.226329   3.796737   3.489056   5.165160   5.701309
    33  H    2.721820   2.831231   2.349936   4.162037   4.575240
    34  N    1.362243   2.415077   2.603031   3.663036   4.400017
    35  O    9.421998   8.837799   9.458599   7.493918   7.283835
    36  H    8.807242   8.152179   8.739117   6.796045   6.537095
    37  O    7.060434   6.371621   6.961246   5.013962   4.775323
                   26         27         28         29         30
    26  C    0.000000
    27  H    0.959569   0.000000
    28  H    0.960379   1.567621   0.000000
    29  H    0.959983   1.567325   1.568078   0.000000
    30  C    2.478453   3.121104   2.470286   3.068555   0.000000
    31  H    3.098174   3.845331   3.146339   3.464952   0.959899
    32  H    2.468787   3.163650   2.090292   3.079162   0.959867
    33  H    3.093530   3.524731   3.102085   3.813075   0.960395
    34  N    1.449291   1.987002   1.987232   1.987651   1.448539
    35  O   11.536780  11.354501  12.465803  11.415232  11.657884
    36  H   10.988084  10.834905  11.903426  10.898840  10.990091
    37  O    9.294877   9.184813  10.194937   9.236558   9.212816
                   31         32         33         34         35
    31  H    0.000000
    32  H    1.567404   0.000000
    33  H    1.567719   1.568366   0.000000
    34  N    1.986726   1.986516   1.986692   0.000000
    35  O   11.530038  12.559983  11.584183  10.781652   0.000000
    36  H   10.845384  11.904909  10.893015  10.168459   0.819489
    37  O    9.065430  10.131484   9.121336   8.420612   2.508534
                   36         37
    36  H    0.000000
    37  O    1.782367   0.000000
 Stoichiometry    C17H17NO2
 Framework group  C1[X(C17H17NO2)]
 Deg. of freedom   105
 Full point group                 C1      NOp   1
 Largest Abelian subgroup         C1      NOp   1
 Largest concise Abelian subgroup C1      NOp   1
                         Standard orientation:                         
 ---------------------------------------------------------------------
 Center     Atomic      Atomic             Coordinates (Angstroms)
 Number     Number       Type             X           Y           Z
 ---------------------------------------------------------------------
      1          6           0        4.758063   -0.463507    0.081278
      2          6           0        5.883795    0.346565    0.028116
      3          1           0        6.729611   -0.037229    0.069407
      4          6           0        5.759589    1.708800   -0.083571
      5          1           0        6.519584    2.242728   -0.118657
      6          6           0        4.507286    2.287751   -0.144519
      7          1           0        4.424130    3.212298   -0.202444
      8          6           0        3.387512    1.497920   -0.119277
      9          1           0        2.550200    1.897501   -0.175042
     10          6           0        3.472966    0.105460   -0.011557
     11          6           0        2.291795   -0.775544    0.004799
     12          6           0        0.953905   -0.214711   -0.044080
     13          1           0        0.849809    0.709681   -0.041488
     14          6           0       -0.139224   -0.994942   -0.092899
     15          1           0        0.016808   -1.910133   -0.145453
     16          6           0       -1.524673   -0.589929   -0.073224
     17          6           0       -1.939944    0.739918    0.060740
     18          1           0       -1.296215    1.409259    0.110006
     19          6           0       -3.260425    1.085906    0.121459
     20          1           0       -3.494641    1.980087    0.223880
     21          6           0       -4.276596    0.108576    0.030602
     22          6           0       -3.863809   -1.226889   -0.096956
     23          1           0       -4.500304   -1.902710   -0.149806
     24          6           0       -2.530686   -1.546708   -0.144539
     25          1           0       -2.290323   -2.441036   -0.227730
     26          6           0       -6.003062    1.833046    0.201380
     27          1           0       -5.655075    2.187377    1.022432
     28          1           0       -6.962032    1.884026    0.211705
     29          1           0       -5.663223    2.343725   -0.537054
     30          6           0       -6.634805   -0.539431   -0.137713
     31          1           0       -6.490003   -0.993017   -0.971198
     32          1           0       -7.490527   -0.104919   -0.154504
     33          1           0       -6.612203   -1.176068    0.580995
     34          7           0       -5.595152    0.449436    0.061105
     35          8           0        4.950224   -1.789427    0.224086
     36          1           0        4.227903   -2.175100    0.191349
     37          8           0        2.456331   -2.016350    0.076618
 ---------------------------------------------------------------------
 Rotational constants (GHZ):      1.1252962      0.1079274      0.0987141
 Standard basis: 6-311++G(d,p) (5D, 7F)
 There are   559 symmetry adapted basis functions of A   symmetry.
 Integral buffers will be    131072 words long.
 Raffenetti 2 integral format.
 Two-electron integral symmetry is turned on.
   559 basis functions,   873 primitive gaussians,   579 cartesian basis functions
    71 alpha electrons       71 beta electrons
       nuclear repulsion energy      1378.9403891085 Hartrees.
 NAtoms=   37 NActive=   37 NUniq=   37 SFac= 1.00D+00 NAtFMM=   60 NAOKFM=F Big=F
 Nuclear repulsion after empirical dispersion term =     1378.9171546193 Hartrees.
 One-electron integrals computed using PRISM.
 NBasis=   559 RedAO= T  NBF=   559
 NBsUse=   553 1.00D-06 NBFU=   553
 Harris functional with IExCor= 4639 diagonalized for initial guess.
 ExpMin= 3.60D-02 ExpMax= 8.59D+03 ExpMxC= 1.30D+03 IAcc=3 IRadAn=         5 AccDes= 0.00D+00
 HarFok:  IExCor= 4639 AccDes= 0.00D+00 IRadAn=         5 IDoV= 1
 ScaDFX=  1.000000  1.000000  1.000000  1.000000
 FoFCou: FMM=F IPFlag=           0 FMFlag=      100000 FMFlg1=           0
         NFxFlg=           0 DoJE=T BraDBF=F KetDBF=T FulRan=T
         Omega=  0.000000  0.000000  1.000000  0.000000  0.000000 ICntrl=     500 IOpCl=  0
         NMat0=    1 NMatS0=    1 NMatT0=    0 NMatD0=    1 NMtDS0=    0 NMtDT0=    0
         I1Cent=           4 NGrid=           0.
 Petite list used in FoFCou.
 Initial guess orbital symmetries:
       Occupied  (A) (A) (A) (A) (A) (A) (A) (A) (A) (A) (A) (A)
                 (A) (A) (A) (A) (A) (A) (A) (A) (A) (A) (A) (A)
                 (A) (A) (A) (A) (A) (A) (A) (A) (A) (A) (A) (A)
                 (A) (A) (A) (A) (A) (A) (A) (A) (A) (A) (A) (A)
                 (A) (A) (A) (A) (A) (A) (A) (A) (A) (A) (A) (A)
                 (A) (A) (A) (A) (A) (A) (A) (A) (A) (A) (A)
       Virtual   (A) (A) (A) (A) (A) (A) (A) (A) (A) (A) (A) (A)
                 (A) (A) (A) (A) (A) (A) (A) (A) (A) (A) (A) (A)
                 (A) (A) (A) (A) (A) (A) (A) (A) (A) (A) (A) (A)
                 (A) (A) (A) (A) (A) (A) (A) (A) (A) (A) (A) (A)
                 (A) (A) (A) (A) (A) (A) (A) (A) (A) (A) (A) (A)
                 (A) (A) (A) (A) (A) (A) (A) (A) (A) (A) (A) (A)
                 (A) (A) (A) (A) (A) (A) (A) (A) (A) (A) (A) (A)
                 (A) (A) (A) (A) (A) (A) (A) (A) (A) (A) (A) (A)
                 (A) (A) (A) (A) (A) (A) (A) (A) (A) (A) (A) (A)
                 (A) (A) (A) (A) (A) (A) (A) (A) (A) (A) (A) (A)
                 (A) (A) (A) (A) (A) (A) (A) (A) (A) (A) (A) (A)
                 (A) (A) (A) (A) (A) (A) (A) (A) (A) (A) (A) (A)
                 (A) (A) (A) (A) (A) (A) (A) (A) (A) (A) (A) (A)
                 (A) (A) (A) (A) (A) (A) (A) (A) (A) (A) (A) (A)
                 (A) (A) (A) (A) (A) (A) (A) (A) (A) (A) (A) (A)
                 (A) (A) (A) (A) (A) (A) (A) (A) (A) (A) (A) (A)
                 (A) (A) (A) (A) (A) (A) (A) (A) (A) (A) (A) (A)
                 (A) (A) (A) (A) (A) (A) (A) (A) (A) (A) (A) (A)
                 (A) (A) (A) (A) (A) (A) (A) (A) (A) (A) (A) (A)
                 (A) (A) (A) (A) (A) (A) (A) (A) (A) (A) (A) (A)
                 (A) (A) (A) (A) (A) (A) (A) (A) (A) (A) (A) (A)
                 (A) (A) (A) (A) (A) (A) (A) (A) (A) (A) (A) (A)
                 (A) (A) (A) (A) (A) (A) (A) (A) (A) (A) (A) (A)
                 (A) (A) (A) (A) (A) (A) (A) (A) (A) (A) (A) (A)
                 (A) (A) (A) (A) (A) (A) (A) (A) (A) (A) (A) (A)
                 (A) (A) (A) (A) (A) (A) (A) (A) (A) (A) (A) (A)
                 (A) (A) (A) (A) (A) (A) (A) (A) (A) (A) (A) (A)
                 (A) (A) (A) (A) (A) (A) (A) (A) (A) (A) (A) (A)
                 (A) (A) (A) (A) (A) (A) (A) (A) (A) (A) (A) (A)
                 (A) (A) (A) (A) (A) (A) (A) (A) (A) (A) (A) (A)
                 (A) (A) (A) (A) (A) (A) (A) (A) (A) (A) (A) (A)
                 (A) (A) (A) (A) (A) (A) (A) (A) (A) (A) (A) (A)
                 (A) (A) (A) (A) (A) (A) (A) (A) (A) (A) (A) (A)
                 (A) (A) (A) (A) (A) (A) (A) (A) (A) (A) (A) (A)
                 (A) (A) (A) (A) (A) (A) (A) (A) (A) (A) (A) (A)
                 (A) (A) (A) (A) (A) (A) (A) (A) (A) (A) (A) (A)
                 (A) (A) (A) (A) (A) (A) (A) (A) (A) (A) (A) (A)
                 (A) (A) (A) (A) (A) (A) (A) (A) (A) (A) (A) (A)
                 (A) (A) (A) (A) (A) (A) (A) (A) (A) (A) (A) (A)
                 (A) (A) (A) (A) (A) (A) (A) (A) (A) (A) (A) (A)
                 (A) (A)
 The electronic state of the initial guess is 1-A.
 Requested convergence on RMS density matrix=1.00D-08 within 128 cycles.
 Requested convergence on MAX density matrix=1.00D-06.
 Requested convergence on             energy=1.00D-06.
 No special actions if energy rises.
 FoFJK:  IHMeth= 1 ICntrl=     0 DoSepK=T KAlg= 1 I1Cent= 0 FoldK=F
 FoFJK:  IHMeth= 1 ICntrl=     0 DoSepK=T KAlg= 1 I1Cent= 0 FoldK=F
 FoFJK:  IHMeth= 1 ICntrl=     0 DoSepK=T KAlg= 1 I1Cent= 0 FoldK=F
 FoFJK:  IHMeth= 1 ICntrl=     0 DoSepK=T KAlg= 1 I1Cent= 0 FoldK=F
 FoFJK:  IHMeth= 1 ICntrl=     0 DoSepK=T KAlg= 1 I1Cent= 0 FoldK=F
 FoFJK:  IHMeth= 1 ICntrl=     0 DoSepK=T KAlg= 1 I1Cent= 0 FoldK=F
 FoFJK:  IHMeth= 1 ICntrl=     0 DoSepK=T KAlg= 1 I1Cent= 0 FoldK=F
 FoFJK:  IHMeth= 1 ICntrl=     0 DoSepK=T KAlg= 1 I1Cent= 0 FoldK=F
 FoFJK:  IHMeth= 1 ICntrl=     0 DoSepK=T KAlg= 1 I1Cent= 0 FoldK=F
 FoFJK:  IHMeth= 1 ICntrl=     0 DoSepK=T KAlg= 1 I1Cent= 0 FoldK=F
 FoFJK:  IHMeth= 1 ICntrl=     0 DoSepK=T KAlg= 1 I1Cent= 0 FoldK=F
 FoFJK:  IHMeth= 1 ICntrl=     0 DoSepK=T KAlg= 1 I1Cent= 0 FoldK=F
 FoFJK:  IHMeth= 1 ICntrl=     0 DoSepK=T KAlg= 1 I1Cent= 0 FoldK=F
 FoFJK:  IHMeth= 1 ICntrl=     0 DoSepK=T KAlg= 1 I1Cent= 0 FoldK=F
 FoFJK:  IHMeth= 1 ICntrl=     0 DoSepK=T KAlg= 1 I1Cent= 0 FoldK=F
 FoFJK:  IHMeth= 1 ICntrl=     0 DoSepK=T KAlg= 1 I1Cent= 0 FoldK=F
 FoFJK:  IHMeth= 1 ICntrl=     0 DoSepK=T KAlg= 1 I1Cent= 0 FoldK=F
 SCF Done:  E(RwB97XD) =  -862.841444430     A.U. after   17 cycles
             Convg  =    0.6644D-08             -V/T =  1.9984

 **********************************************************************

            Population analysis using the SCF density.

 **********************************************************************

 Orbital symmetries:
       Occupied  (A) (A) (A) (A) (A) (A) (A) (A) (A) (A) (A) (A)
                 (A) (A) (A) (A) (A) (A) (A) (A) (A) (A) (A) (A)
                 (A) (A) (A) (A) (A) (A) (A) (A) (A) (A) (A) (A)
                 (A) (A) (A) (A) (A) (A) (A) (A) (A) (A) (A) (A)
                 (A) (A) (A) (A) (A) (A) (A) (A) (A) (A) (A) (A)
                 (A) (A) (A) (A) (A) (A) (A) (A) (A) (A) (A)
       Virtual   (A) (A) (A) (A) (A) (A) (A) (A) (A) (A) (A) (A)
                 (A) (A) (A) (A) (A) (A) (A) (A) (A) (A) (A) (A)
                 (A) (A) (A) (A) (A) (A) (A) (A) (A) (A) (A) (A)
                 (A) (A) (A) (A) (A) (A) (A) (A) (A) (A) (A) (A)
                 (A) (A) (A) (A) (A) (A) (A) (A) (A) (A) (A) (A)
                 (A) (A) (A) (A) (A) (A) (A) (A) (A) (A) (A) (A)
                 (A) (A) (A) (A) (A) (A) (A) (A) (A) (A) (A) (A)
                 (A) (A) (A) (A) (A) (A) (A) (A) (A) (A) (A) (A)
                 (A) (A) (A) (A) (A) (A) (A) (A) (A) (A) (A) (A)
                 (A) (A) (A) (A) (A) (A) (A) (A) (A) (A) (A) (A)
                 (A) (A) (A) (A) (A) (A) (A) (A) (A) (A) (A) (A)
                 (A) (A) (A) (A) (A) (A) (A) (A) (A) (A) (A) (A)
                 (A) (A) (A) (A) (A) (A) (A) (A) (A) (A) (A) (A)
                 (A) (A) (A) (A) (A) (A) (A) (A) (A) (A) (A) (A)
                 (A) (A) (A) (A) (A) (A) (A) (A) (A) (A) (A) (A)
                 (A) (A) (A) (A) (A) (A) (A) (A) (A) (A) (A) (A)
                 (A) (A) (A) (A) (A) (A) (A) (A) (A) (A) (A) (A)
                 (A) (A) (A) (A) (A) (A) (A) (A) (A) (A) (A) (A)
                 (A) (A) (A) (A) (A) (A) (A) (A) (A) (A) (A) (A)
                 (A) (A) (A) (A) (A) (A) (A) (A) (A) (A) (A) (A)
                 (A) (A) (A) (A) (A) (A) (A) (A) (A) (A) (A) (A)
                 (A) (A) (A) (A) (A) (A) (A) (A) (A) (A) (A) (A)
                 (A) (A) (A) (A) (A) (A) (A) (A) (A) (A) (A) (A)
                 (A) (A) (A) (A) (A) (A) (A) (A) (A) (A) (A) (A)
                 (A) (A) (A) (A) (A) (A) (A) (A) (A) (A) (A) (A)
                 (A) (A) (A) (A) (A) (A) (A) (A) (A) (A) (A) (A)
                 (A) (A) (A) (A) (A) (A) (A) (A) (A) (A) (A) (A)
                 (A) (A) (A) (A) (A) (A) (A) (A) (A) (A) (A) (A)
                 (A) (A) (A) (A) (A) (A) (A) (A) (A) (A) (A) (A)
                 (A) (A) (A) (A) (A) (A) (A) (A) (A) (A) (A) (A)
                 (A) (A) (A) (A) (A) (A) (A) (A) (A) (A) (A) (A)
                 (A) (A) (A) (A) (A) (A) (A) (A) (A) (A) (A) (A)
                 (A) (A) (A) (A) (A) (A) (A) (A) (A) (A) (A) (A)
                 (A) (A) (A) (A) (A) (A) (A) (A) (A) (A) (A) (A)
                 (A) (A) (A) (A) (A) (A) (A) (A) (A) (A) (A) (A)
                 (A) (A) (A) (A) (A) (A) (A) (A) (A) (A) (A) (A)
                 (A) (A) (A) (A) (A) (A) (A) (A) (A) (A) (A) (A)
                 (A) (A) (A) (A) (A) (A) (A) (A) (A) (A) (A) (A)
                 (A) (A) (A) (A) (A) (A) (A) (A) (A) (A) (A) (A)
                 (A) (A) (A) (A) (A) (A) (A) (A) (A) (A) (A) (A)
                 (A) (A)
 The electronic state is 1-A.
 Alpha  occ. eigenvalues --  -19.24809 -19.21929 -14.46200 -10.37026 -10.35409
 Alpha  occ. eigenvalues --  -10.33979 -10.29298 -10.28734 -10.28558 -10.28502
 Alpha  occ. eigenvalues --  -10.28486 -10.27938 -10.27786 -10.27654 -10.27490
 Alpha  occ. eigenvalues --  -10.27082 -10.26759 -10.26342 -10.26268 -10.26266
 Alpha  occ. eigenvalues --   -1.19197  -1.12067  -1.07629  -0.97367  -0.97097
 Alpha  occ. eigenvalues --   -0.91550  -0.88746  -0.88290  -0.86597  -0.86323
 Alpha  occ. eigenvalues --   -0.85845  -0.80390  -0.76453  -0.74419  -0.73443
 Alpha  occ. eigenvalues --   -0.72463  -0.69915  -0.67226  -0.65337  -0.64132
 Alpha  occ. eigenvalues --   -0.62758  -0.59835  -0.59660  -0.59634  -0.57978
 Alpha  occ. eigenvalues --   -0.56506  -0.55640  -0.54557  -0.54485  -0.53971
 Alpha  occ. eigenvalues --   -0.53611  -0.51831  -0.51609  -0.51265  -0.50350
 Alpha  occ. eigenvalues --   -0.48469  -0.48320  -0.48184  -0.46815  -0.46667
 Alpha  occ. eigenvalues --   -0.45974  -0.43585  -0.43325  -0.43031  -0.41050
 Alpha  occ. eigenvalues --   -0.34651  -0.34326  -0.33746  -0.33654  -0.30396
 Alpha  occ. eigenvalues --   -0.26444
 Alpha virt. eigenvalues --   -0.01716   0.02908   0.03858   0.04057   0.04531
 Alpha virt. eigenvalues --    0.05016   0.05205   0.05771   0.06272   0.06631
 Alpha virt. eigenvalues --    0.06779   0.06946   0.08109   0.08161   0.08548
 Alpha virt. eigenvalues --    0.09090   0.09570   0.10044   0.10545   0.10987
 Alpha virt. eigenvalues --    0.11274   0.11596   0.12462   0.12843   0.13689
 Alpha virt. eigenvalues --    0.13865   0.14024   0.14535   0.14902   0.15168
 Alpha virt. eigenvalues --    0.15537   0.16099   0.16286   0.16394   0.16577
 Alpha virt. eigenvalues --    0.16837   0.17262   0.17488   0.17726   0.17800
 Alpha virt. eigenvalues --    0.17932   0.18491   0.18688   0.18929   0.19429
 Alpha virt. eigenvalues --    0.20243   0.20463   0.20594   0.20815   0.21130
 Alpha virt. eigenvalues --    0.21178   0.21500   0.21734   0.22264   0.22548
 Alpha virt. eigenvalues --    0.22634   0.22816   0.23149   0.23402   0.24042
 Alpha virt. eigenvalues --    0.24423   0.24667   0.24912   0.25289   0.25906
 Alpha virt. eigenvalues --    0.26242   0.26422   0.26779   0.27074   0.27219
 Alpha virt. eigenvalues --    0.27506   0.27922   0.28226   0.28643   0.29058
 Alpha virt. eigenvalues --    0.29191   0.29546   0.30051   0.30144   0.31079
 Alpha virt. eigenvalues --    0.31564   0.31772   0.31889   0.32300   0.32651
 Alpha virt. eigenvalues --    0.33062   0.33159   0.33982   0.34441   0.34753
 Alpha virt. eigenvalues --    0.35093   0.35274   0.35627   0.36358   0.36796
 Alpha virt. eigenvalues --    0.37081   0.37211   0.37597   0.37806   0.38280
 Alpha virt. eigenvalues --    0.39069   0.39421   0.40037   0.40107   0.40734
 Alpha virt. eigenvalues --    0.41199   0.41548   0.41854   0.41976   0.42168
 Alpha virt. eigenvalues --    0.42713   0.43170   0.43483   0.43805   0.44423
 Alpha virt. eigenvalues --    0.44866   0.45153   0.46611   0.46930   0.47132
 Alpha virt. eigenvalues --    0.47793   0.48535   0.48984   0.49678   0.50040
 Alpha virt. eigenvalues --    0.50509   0.50842   0.52250   0.53586   0.54646
 Alpha virt. eigenvalues --    0.55151   0.55692   0.57462   0.58678   0.60475
 Alpha virt. eigenvalues --    0.61478   0.61708   0.62314   0.62483   0.63506
 Alpha virt. eigenvalues --    0.64171   0.64611   0.64881   0.65352   0.65547
 Alpha virt. eigenvalues --    0.66048   0.66614   0.66939   0.67519   0.67701
 Alpha virt. eigenvalues --    0.68375   0.68605   0.69284   0.69777   0.70311
 Alpha virt. eigenvalues --    0.71267   0.72256   0.72544   0.73518   0.74053
 Alpha virt. eigenvalues --    0.74252   0.75385   0.75980   0.76551   0.76738
 Alpha virt. eigenvalues --    0.77001   0.77843   0.78054   0.78787   0.79185
 Alpha virt. eigenvalues --    0.79605   0.80273   0.81114   0.81757   0.82483
 Alpha virt. eigenvalues --    0.83650   0.84500   0.85012   0.86001   0.86329
 Alpha virt. eigenvalues --    0.86477   0.87062   0.89097   0.89606   0.90904
 Alpha virt. eigenvalues --    0.91134   0.91788   0.92793   0.94233   0.94888
 Alpha virt. eigenvalues --    0.95736   0.96635   0.96842   0.97091   0.97148
 Alpha virt. eigenvalues --    0.97506   0.97558   0.99174   0.99795   1.01393
 Alpha virt. eigenvalues --    1.01480   1.01873   1.02443   1.03308   1.04128
 Alpha virt. eigenvalues --    1.04876   1.05311   1.05649   1.06341   1.06756
 Alpha virt. eigenvalues --    1.07429   1.08290   1.08786   1.09164   1.09834
 Alpha virt. eigenvalues --    1.10433   1.11726   1.13247   1.13987   1.14063
 Alpha virt. eigenvalues --    1.14999   1.16665   1.17471   1.18199   1.18321
 Alpha virt. eigenvalues --    1.18769   1.19942   1.20357   1.21227   1.22195
 Alpha virt. eigenvalues --    1.22370   1.23470   1.23656   1.24322   1.25986
 Alpha virt. eigenvalues --    1.28474   1.31722   1.32859   1.33440   1.35164
 Alpha virt. eigenvalues --    1.35960   1.37864   1.40250   1.41893   1.44427
 Alpha virt. eigenvalues --    1.46515   1.48387   1.50417   1.51039   1.53846
 Alpha virt. eigenvalues --    1.55397   1.56864   1.58223   1.58995   1.60173
 Alpha virt. eigenvalues --    1.61204   1.61737   1.61904   1.62278   1.62761
 Alpha virt. eigenvalues --    1.63746   1.64491   1.65360   1.66386   1.66820
 Alpha virt. eigenvalues --    1.67386   1.68038   1.69347   1.69698   1.69948
 Alpha virt. eigenvalues --    1.70338   1.70573   1.72828   1.73663   1.73737
 Alpha virt. eigenvalues --    1.76061   1.77456   1.77728   1.79139   1.79810
 Alpha virt. eigenvalues --    1.80015   1.81149   1.82624   1.83402   1.84854
 Alpha virt. eigenvalues --    1.85850   1.86911   1.87386   1.88721   1.89669
 Alpha virt. eigenvalues --    1.90323   1.91405   1.92395   1.92959   1.93358
 Alpha virt. eigenvalues --    1.93939   1.95301   1.97269   1.99474   1.99865
 Alpha virt. eigenvalues --    2.00644   2.01371   2.02154   2.02403   2.03301
 Alpha virt. eigenvalues --    2.04039   2.04670   2.05414   2.06601   2.07865
 Alpha virt. eigenvalues --    2.08535   2.09494   2.09882   2.11259   2.11831
 Alpha virt. eigenvalues --    2.12665   2.13293   2.15049   2.16550   2.18095
 Alpha virt. eigenvalues --    2.20412   2.21872   2.22844   2.23588   2.25827
 Alpha virt. eigenvalues --    2.26197   2.27315   2.28252   2.29348   2.29561
 Alpha virt. eigenvalues --    2.33834   2.35624   2.37401   2.38937   2.41196
 Alpha virt. eigenvalues --    2.42878   2.43972   2.45319   2.46396   2.46955
 Alpha virt. eigenvalues --    2.47402   2.49327   2.50476   2.52115   2.52333
 Alpha virt. eigenvalues --    2.53902   2.55187   2.58937   2.59761   2.62367
 Alpha virt. eigenvalues --    2.64167   2.64864   2.66501   2.67442   2.68196
 Alpha virt. eigenvalues --    2.69006   2.69489   2.73163   2.75367   2.76425
 Alpha virt. eigenvalues --    2.79076   2.79413   2.80694   2.81399   2.81770
 Alpha virt. eigenvalues --    2.84526   2.85897   2.87693   2.87995   2.89681
 Alpha virt. eigenvalues --    2.90349   2.91295   2.92207   2.92372   2.93829
 Alpha virt. eigenvalues --    2.95297   2.95952   2.96980   2.97711   2.98000
 Alpha virt. eigenvalues --    2.99575   3.00320   3.02613   3.03951   3.04289
 Alpha virt. eigenvalues --    3.04922   3.05137   3.05835   3.06002   3.07846
 Alpha virt. eigenvalues --    3.08226   3.09431   3.11178   3.11372   3.11463
 Alpha virt. eigenvalues --    3.12047   3.12825   3.17075   3.19014   3.19307
 Alpha virt. eigenvalues --    3.20268   3.20985   3.21560   3.26133   3.26787
 Alpha virt. eigenvalues --    3.28041   3.30260   3.33203   3.33676   3.34728
 Alpha virt. eigenvalues --    3.38257   3.39354   3.40456   3.43831   3.44100
 Alpha virt. eigenvalues --    3.46526   3.51371   3.52858   3.53476   3.55970
 Alpha virt. eigenvalues --    3.67264   3.68801   3.73144   3.74709   3.76094
 Alpha virt. eigenvalues --    3.78892   3.81455   3.84367   3.84944   3.86870
 Alpha virt. eigenvalues --    3.90997   3.92193   3.95215   3.98170   4.02781
 Alpha virt. eigenvalues --    4.14382   4.23727   4.24135   4.25688   4.25839
 Alpha virt. eigenvalues --    4.29076   4.30206   4.34666   4.44065   4.44663
 Alpha virt. eigenvalues --    4.46383   4.47523   4.54217   4.58477   4.62321
 Alpha virt. eigenvalues --    4.70787   4.81220   4.97074   4.97742   5.12380
 Alpha virt. eigenvalues --    5.14187   5.19851   5.26024   5.47168   5.70150
 Alpha virt. eigenvalues --    5.92479   6.26444  23.85064  23.95710  24.02489
 Alpha virt. eigenvalues --   24.13588  24.14837  24.19365  24.20821  24.25006
 Alpha virt. eigenvalues --   24.27598  24.31980  24.39059  24.40226  24.41990
 Alpha virt. eigenvalues --   24.46615  24.47963  24.49657  24.50612  35.76457
 Alpha virt. eigenvalues --   50.19070  50.23305
          Condensed to atoms (all electrons):
              1          2          3          4          5          6
     1  C   16.444707  -1.041287  -0.148779  -0.566699   0.018513   0.471247
     2  C   -1.041287   9.849947   0.674987   0.534704  -0.157783  -0.922740
     3  H   -0.148779   0.674987   0.495705  -0.100904  -0.024335   0.007088
     4  C   -0.566699   0.534704  -0.100904   7.414007   0.519994  -0.860051
     5  H    0.018513  -0.157783  -0.024335   0.519994   0.505338  -0.069555
     6  C    0.471247  -0.922740   0.007088  -0.860051  -0.069555  10.805398
     7  H    0.038150   0.029362   0.002875  -0.145706  -0.017808   0.495883
     8  C   -3.560682   2.351925   0.015298   2.320412  -0.034956  -4.685619
     9  H    0.017871   0.089495  -0.000923   0.101218   0.003215  -0.419566
    10  C    2.758899  -2.114691  -0.135471   0.058652   0.120891  -2.257813
    11  C   -4.702004  -1.867247   0.020016  -1.844214  -0.021952   1.782508
    12  C   -3.239310  -0.450738   0.014631  -0.814868  -0.014669   1.328522
    13  H   -0.025060  -0.051095   0.000674  -0.032082  -0.001681   0.086991
    14  C   -1.140080  -0.161576   0.005442  -0.270980  -0.004832   0.688860
    15  H   -0.092602  -0.000168  -0.000075  -0.005957  -0.000026   0.017841
    16  C    0.129468   0.032567  -0.001284   0.047778   0.001055  -0.156845
    17  C    0.032465   0.042805   0.000695  -0.024475  -0.000596   0.048056
    18  H    0.019466   0.005051   0.000016  -0.000540   0.000017  -0.015505
    19  C    0.038884   0.008403  -0.000014   0.001415   0.000072  -0.049494
    20  H   -0.001455  -0.000284  -0.000003   0.000230   0.000004   0.000410
    21  C    0.006035   0.001286   0.000013  -0.000434  -0.000005  -0.002403
    22  C   -0.032929  -0.004813  -0.000014  -0.000336   0.000000   0.016122
    23  H   -0.000801  -0.000043  -0.000002   0.000012   0.000001   0.000122
    24  C   -0.053692  -0.019905  -0.000038  -0.001938   0.000005   0.048673
    25  H    0.011593   0.000690   0.000014   0.000246   0.000000  -0.001957
    26  C    0.000071   0.000001   0.000000   0.000005   0.000000  -0.000224
    27  H    0.000004   0.000001   0.000000  -0.000002   0.000000   0.000033
    28  H    0.000004   0.000000   0.000000   0.000000   0.000000  -0.000017
    29  H    0.000003   0.000002   0.000000  -0.000004   0.000000   0.000013
    30  C   -0.000022  -0.000002   0.000000   0.000000   0.000000   0.000032
    31  H    0.000012   0.000001   0.000000   0.000000   0.000000  -0.000002
    32  H   -0.000004   0.000000   0.000000   0.000000   0.000000   0.000005
    33  H    0.000010   0.000001   0.000000   0.000000   0.000000  -0.000007
    34  N    0.000012  -0.000001   0.000000   0.000001   0.000000  -0.000001
    35  O    0.333981  -0.454444  -0.045359   0.028461   0.002444   0.001689
    36  H    0.079462   0.072276   0.004842  -0.007543  -0.000997   0.007100
    37  O    0.032707  -0.095038   0.002036  -0.031543  -0.000549   0.017938
              7          8          9         10         11         12
     1  C    0.038150  -3.560682   0.017871   2.758899  -4.702004  -3.239310
     2  C    0.029362   2.351925   0.089495  -2.114691  -1.867247  -0.450738
     3  H    0.002875   0.015298  -0.000923  -0.135471   0.020016   0.014631
     4  C   -0.145706   2.320412   0.101218   0.058652  -1.844214  -0.814868
     5  H   -0.017808  -0.034956   0.003215   0.120891  -0.021952  -0.014669
     6  C    0.495883  -4.685619  -0.419566  -2.257813   1.782508   1.328522
     7  H    0.502667  -0.192480  -0.031985   0.027787   0.037713   0.034650
     8  C   -0.192480  19.279938   1.000004  -2.044945  -2.001377  -2.999631
     9  H   -0.031985   1.000004   0.606077   0.060375  -0.046241  -0.254702
    10  C    0.027787  -2.044945   0.060375  21.697886  -1.511267  -7.520567
    11  C    0.037713  -2.001377  -0.046241  -1.511267  19.037701   0.286391
    12  C    0.034650  -2.999631  -0.254702  -7.520567   0.286391  15.967232
    13  H    0.007521  -0.183519  -0.039427  -0.021329  -0.159831   0.892416
    14  C    0.016817  -1.782709  -0.191280  -4.130933  -4.103122   5.653988
    15  H   -0.000169   0.039285   0.001766  -0.244720   0.006573   0.124790
    16  C   -0.005385   0.290659   0.041763   0.584004   2.103630  -1.756948
    17  C    0.001709  -0.252004  -0.028585  -0.724911  -1.389694  -0.578080
    18  H   -0.000302  -0.020968  -0.001799  -0.000278  -0.001347  -0.171163
    19  C   -0.001590  -0.003135   0.017547   0.101256   0.458996  -0.719369
    20  H    0.000002   0.004165   0.000255   0.003362   0.011088   0.057378
    21  C   -0.000235  -0.011340   0.001974  -0.057329  -0.152904  -0.440865
    22  C    0.000104   0.042413  -0.002841  -0.156811  -0.455342   0.542165
    23  H   -0.000003   0.001445   0.000047  -0.004049  -0.001944  -0.016124
    24  C    0.000470   0.045366  -0.002396  -0.131078  -0.184857   0.186258
    25  H   -0.000003  -0.007709   0.000225   0.040442   0.051062   0.015673
    26  C   -0.000004  -0.000509   0.000108   0.001934   0.006322   0.013520
    27  H    0.000000   0.000038   0.000005  -0.000233  -0.000646  -0.002255
    28  H    0.000000  -0.000041   0.000008   0.000158   0.000645   0.001330
    29  H    0.000001  -0.000053  -0.000011  -0.000172  -0.000911  -0.001882
    30  C    0.000000   0.000156  -0.000009  -0.000835  -0.002376  -0.007474
    31  H    0.000000  -0.000022  -0.000001   0.000100   0.000155   0.000659
    32  H    0.000000   0.000022  -0.000004  -0.000087  -0.000414  -0.000426
    33  H    0.000000  -0.000037   0.000003   0.000107   0.000315   0.000254
    34  N    0.000001  -0.000059  -0.000013   0.000534   0.002281   0.006741
    35  O    0.000267  -0.030014  -0.002887   0.192481  -0.048498  -0.048134
    36  H    0.000609   0.024103   0.000766  -0.166999   0.028121  -0.003464
    37  O    0.001382  -0.300888  -0.007906  -0.050973   0.954119  -0.301518
             13         14         15         16         17         18
     1  C   -0.025060  -1.140080  -0.092602   0.129468   0.032465   0.019466
     2  C   -0.051095  -0.161576  -0.000168   0.032567   0.042805   0.005051
     3  H    0.000674   0.005442  -0.000075  -0.001284   0.000695   0.000016
     4  C   -0.032082  -0.270980  -0.005957   0.047778  -0.024475  -0.000540
     5  H   -0.001681  -0.004832  -0.000026   0.001055  -0.000596   0.000017
     6  C    0.086991   0.688860   0.017841  -0.156845   0.048056  -0.015505
     7  H    0.007521   0.016817  -0.000169  -0.005385   0.001709  -0.000302
     8  C   -0.183519  -1.782709   0.039285   0.290659  -0.252004  -0.020968
     9  H   -0.039427  -0.191280   0.001766   0.041763  -0.028585  -0.001799
    10  C   -0.021329  -4.130933  -0.244720   0.584004  -0.724911  -0.000278
    11  C   -0.159831  -4.103122   0.006573   2.103630  -1.389694  -0.001347
    12  C    0.892416   5.653988   0.124790  -1.756948  -0.578080  -0.171163
    13  H    0.767841   0.225612   0.001185  -0.097913  -0.085554  -0.045976
    14  C    0.225612  11.819778   0.462898  -1.938763   1.331000  -0.065590
    15  H    0.001185   0.462898   0.527197  -0.180896   0.057789  -0.000963
    16  C   -0.097913  -1.938763  -0.180896  11.117818   0.031622  -0.076755
    17  C   -0.085554   1.331000   0.057789   0.031622  10.058461   0.393766
    18  H   -0.045976  -0.065590  -0.000963  -0.076755   0.393766   0.597364
    19  C   -0.169026  -0.657901   0.003267  -0.400697   1.225502   0.056506
    20  H    0.012010   0.019140   0.000001   0.157292   0.059771  -0.055995
    21  C   -0.059329  -0.170197   0.018288  -1.924940  -1.031944   0.194751
    22  C    0.041543   0.742342   0.064451  -2.604492  -1.180506  -0.004364
    23  H   -0.001513   0.003394   0.005126  -0.071985  -0.013205   0.004598
    24  C    0.028101  -0.489433   0.030499  -0.045467  -1.190787   0.070486
    25  H    0.003614  -0.025895  -0.027533   0.023496  -0.058149  -0.008095
    26  C   -0.000268  -0.014586  -0.000567   0.003200  -0.039490   0.003463
    27  H   -0.000445   0.000418   0.000179  -0.013410  -0.006464   0.003514
    28  H    0.000023  -0.002044  -0.000107   0.007102   0.000880  -0.000238
    29  H   -0.000219   0.000598   0.000124  -0.010496  -0.016622   0.002413
    30  C   -0.000080   0.013843  -0.000527  -0.146317  -0.047385   0.001744
    31  H    0.000022  -0.001085  -0.000160   0.002754  -0.006139  -0.000291
    32  H    0.000047   0.002439   0.000052  -0.008684   0.004852  -0.000499
    33  H    0.000062  -0.001423  -0.000220   0.013297  -0.002260  -0.000470
    34  N   -0.000147  -0.002175  -0.000793  -0.010863  -0.032790  -0.002792
    35  O   -0.000320   0.018233  -0.001422   0.000908   0.000253   0.000099
    36  H    0.001023  -0.018382  -0.000690   0.000408  -0.005038  -0.000174
    37  O    0.008922  -0.028444  -0.019216   0.011379  -0.012179   0.000667
             19         20         21         22         23         24
     1  C    0.038884  -0.001455   0.006035  -0.032929  -0.000801  -0.053692
     2  C    0.008403  -0.000284   0.001286  -0.004813  -0.000043  -0.019905
     3  H   -0.000014  -0.000003   0.000013  -0.000014  -0.000002  -0.000038
     4  C    0.001415   0.000230  -0.000434  -0.000336   0.000012  -0.001938
     5  H    0.000072   0.000004  -0.000005   0.000000   0.000001   0.000005
     6  C   -0.049494   0.000410  -0.002403   0.016122   0.000122   0.048673
     7  H   -0.001590   0.000002  -0.000235   0.000104  -0.000003   0.000470
     8  C   -0.003135   0.004165  -0.011340   0.042413   0.001445   0.045366
     9  H    0.017547   0.000255   0.001974  -0.002841   0.000047  -0.002396
    10  C    0.101256   0.003362  -0.057329  -0.156811  -0.004049  -0.131078
    11  C    0.458996   0.011088  -0.152904  -0.455342  -0.001944  -0.184857
    12  C   -0.719369   0.057378  -0.440865   0.542165  -0.016124   0.186258
    13  H   -0.169026   0.012010  -0.059329   0.041543  -0.001513   0.028101
    14  C   -0.657901   0.019140  -0.170197   0.742342   0.003394  -0.489433
    15  H    0.003267   0.000001   0.018288   0.064451   0.005126   0.030499
    16  C   -0.400697   0.157292  -1.924940  -2.604492  -0.071985  -0.045467
    17  C    1.225502   0.059771  -1.031944  -1.180506  -0.013205  -1.190787
    18  H    0.056506  -0.055995   0.194751  -0.004364   0.004598   0.070486
    19  C    8.645720   0.388207   0.558361  -1.759804  -0.025671  -1.152545
    20  H    0.388207   0.591006  -0.332366  -0.035598  -0.003744  -0.048641
    21  C    0.558361  -0.332366  11.415475   0.421488  -0.109442  -1.928444
    22  C   -1.759804  -0.035598   0.421488   9.723363   0.573925   0.630379
    23  H   -0.025671  -0.003744  -0.109442   0.573925   0.555074  -0.002553
    24  C   -1.152545  -0.048641  -1.928444   0.630379  -0.002553  10.161405
    25  H    0.015708   0.003440   0.026775  -0.088090  -0.030891   0.331428
    26  C    0.093715   0.025229  -0.115983  -0.180263  -0.008493  -0.010744
    27  H    0.033069  -0.022554   0.016167  -0.012825   0.000311  -0.008612
    28  H    0.026195   0.012046  -0.033604  -0.002592   0.001223   0.015531
    29  H   -0.001712  -0.020035   0.034170   0.005324   0.000543  -0.001317
    30  C   -0.163909  -0.010051  -0.029823   0.219010   0.022526  -0.092716
    31  H   -0.006331  -0.000083   0.013513   0.008797  -0.018181  -0.013885
    32  H    0.002747   0.001887  -0.003972   0.036282   0.009230  -0.020823
    33  H    0.001401   0.000966  -0.012440   0.002120  -0.014573   0.007021
    34  N   -0.282920  -0.034668   0.266300  -0.254710  -0.032049   0.052701
    35  O    0.000140  -0.000001  -0.000027  -0.000142   0.000002  -0.000633
    36  H    0.000258   0.000022  -0.000302  -0.000331   0.000002   0.001509
    37  O   -0.002143   0.000065  -0.000835   0.001262   0.000008  -0.003968
             25         26         27         28         29         30
     1  C    0.011593   0.000071   0.000004   0.000004   0.000003  -0.000022
     2  C    0.000690   0.000001   0.000001   0.000000   0.000002  -0.000002
     3  H    0.000014   0.000000   0.000000   0.000000   0.000000   0.000000
     4  C    0.000246   0.000005  -0.000002   0.000000  -0.000004   0.000000
     5  H    0.000000   0.000000   0.000000   0.000000   0.000000   0.000000
     6  C   -0.001957  -0.000224   0.000033  -0.000017   0.000013   0.000032
     7  H   -0.000003  -0.000004   0.000000   0.000000   0.000001   0.000000
     8  C   -0.007709  -0.000509   0.000038  -0.000041  -0.000053   0.000156
     9  H    0.000225   0.000108   0.000005   0.000008  -0.000011  -0.000009
    10  C    0.040442   0.001934  -0.000233   0.000158  -0.000172  -0.000835
    11  C    0.051062   0.006322  -0.000646   0.000645  -0.000911  -0.002376
    12  C    0.015673   0.013520  -0.002255   0.001330  -0.001882  -0.007474
    13  H    0.003614  -0.000268  -0.000445   0.000023  -0.000219  -0.000080
    14  C   -0.025895  -0.014586   0.000418  -0.002044   0.000598   0.013843
    15  H   -0.027533  -0.000567   0.000179  -0.000107   0.000124  -0.000527
    16  C    0.023496   0.003200  -0.013410   0.007102  -0.010496  -0.146317
    17  C   -0.058149  -0.039490  -0.006464   0.000880  -0.016622  -0.047385
    18  H   -0.008095   0.003463   0.003514  -0.000238   0.002413   0.001744
    19  C    0.015708   0.093715   0.033069   0.026195  -0.001712  -0.163909
    20  H    0.003440   0.025229  -0.022554   0.012046  -0.020035  -0.010051
    21  C    0.026775  -0.115983   0.016167  -0.033604   0.034170  -0.029823
    22  C   -0.088090  -0.180263  -0.012825  -0.002592   0.005324   0.219010
    23  H   -0.030891  -0.008493   0.000311   0.001223   0.000543   0.022526
    24  C    0.331428  -0.010744  -0.008612   0.015531  -0.001317  -0.092716
    25  H    0.535157   0.001759  -0.000501   0.000104  -0.000416   0.003083
    26  C    0.001759   4.964954   0.436939   0.422600   0.438982  -0.094730
    27  H   -0.000501   0.436939   0.559526  -0.023573  -0.061869   0.001013
    28  H    0.000104   0.422600  -0.023573   0.519805  -0.022437  -0.017622
    29  H   -0.000416   0.438982  -0.061869  -0.022437   0.561189   0.003317
    30  C    0.003083  -0.094730   0.001013  -0.017622   0.003317   4.979471
    31  H    0.001588  -0.001573   0.003537  -0.002280  -0.003632   0.451388
    32  H   -0.000267  -0.015151  -0.000793   0.006935  -0.001610   0.420419
    33  H    0.001486   0.003612  -0.004908  -0.000448   0.002894   0.430256
    34  N   -0.002211   0.317754  -0.048127  -0.034240  -0.062775   0.324346
    35  O    0.000004   0.000000   0.000000   0.000000   0.000000   0.000000
    36  H    0.000158   0.000002  -0.000001   0.000000  -0.000001  -0.000002
    37  O    0.002255  -0.000003   0.000000   0.000000   0.000000   0.000003
             31         32         33         34         35         36
     1  C    0.000012  -0.000004   0.000010   0.000012   0.333981   0.079462
     2  C    0.000001   0.000000   0.000001  -0.000001  -0.454444   0.072276
     3  H    0.000000   0.000000   0.000000   0.000000  -0.045359   0.004842
     4  C    0.000000   0.000000   0.000000   0.000001   0.028461  -0.007543
     5  H    0.000000   0.000000   0.000000   0.000000   0.002444  -0.000997
     6  C   -0.000002   0.000005  -0.000007  -0.000001   0.001689   0.007100
     7  H    0.000000   0.000000   0.000000   0.000001   0.000267   0.000609
     8  C   -0.000022   0.000022  -0.000037  -0.000059  -0.030014   0.024103
     9  H   -0.000001  -0.000004   0.000003  -0.000013  -0.002887   0.000766
    10  C    0.000100  -0.000087   0.000107   0.000534   0.192481  -0.166999
    11  C    0.000155  -0.000414   0.000315   0.002281  -0.048498   0.028121
    12  C    0.000659  -0.000426   0.000254   0.006741  -0.048134  -0.003464
    13  H    0.000022   0.000047   0.000062  -0.000147  -0.000320   0.001023
    14  C   -0.001085   0.002439  -0.001423  -0.002175   0.018233  -0.018382
    15  H   -0.000160   0.000052  -0.000220  -0.000793  -0.001422  -0.000690
    16  C    0.002754  -0.008684   0.013297  -0.010863   0.000908   0.000408
    17  C   -0.006139   0.004852  -0.002260  -0.032790   0.000253  -0.005038
    18  H   -0.000291  -0.000499  -0.000470  -0.002792   0.000099  -0.000174
    19  C   -0.006331   0.002747   0.001401  -0.282920   0.000140   0.000258
    20  H   -0.000083   0.001887   0.000966  -0.034668  -0.000001   0.000022
    21  C    0.013513  -0.003972  -0.012440   0.266300  -0.000027  -0.000302
    22  C    0.008797   0.036282   0.002120  -0.254710  -0.000142  -0.000331
    23  H   -0.018181   0.009230  -0.014573  -0.032049   0.000002   0.000002
    24  C   -0.013885  -0.020823   0.007021   0.052701  -0.000633   0.001509
    25  H    0.001588  -0.000267   0.001486  -0.002211   0.000004   0.000158
    26  C   -0.001573  -0.015151   0.003612   0.317754   0.000000   0.000002
    27  H    0.003537  -0.000793  -0.004908  -0.048127   0.000000  -0.000001
    28  H   -0.002280   0.006935  -0.000448  -0.034240   0.000000   0.000000
    29  H   -0.003632  -0.001610   0.002894  -0.062775   0.000000  -0.000001
    30  C    0.451388   0.420419   0.430256   0.324346   0.000000  -0.000002
    31  H    0.553909  -0.017399  -0.061136  -0.058812   0.000000   0.000000
    32  H   -0.017399   0.517497  -0.024225  -0.033724   0.000000   0.000000
    33  H   -0.061136  -0.024225   0.555791  -0.055153   0.000000   0.000000
    34  N   -0.058812  -0.033724  -0.055153   7.105252   0.000000   0.000001
    35  O    0.000000   0.000000   0.000000   0.000000   8.025925   0.282686
    36  H    0.000000   0.000000   0.000000   0.000001   0.282686   0.320426
    37  O   -0.000001   0.000001  -0.000001  -0.000001   0.004579   0.052373
             37
     1  C    0.032707
     2  C   -0.095038
     3  H    0.002036
     4  C   -0.031543
     5  H   -0.000549
     6  C    0.017938
     7  H    0.001382
     8  C   -0.300888
     9  H   -0.007906
    10  C   -0.050973
    11  C    0.954119
    12  C   -0.301518
    13  H    0.008922
    14  C   -0.028444
    15  H   -0.019216
    16  C    0.011379
    17  C   -0.012179
    18  H    0.000667
    19  C   -0.002143
    20  H    0.000065
    21  C   -0.000835
    22  C    0.001262
    23  H    0.000008
    24  C   -0.003968
    25  H    0.002255
    26  C   -0.000003
    27  H    0.000000
    28  H    0.000000
    29  H    0.000000
    30  C    0.000003
    31  H   -0.000001
    32  H    0.000001
    33  H   -0.000001
    34  N   -0.000001
    35  O    0.004579
    36  H    0.052373
    37  O    8.072344
 Mulliken atomic charges:
              1
     1  C    0.171843
     2  C   -0.351649
     3  H    0.212866
     4  C   -0.318860
     5  H    0.178195
     6  C   -0.382732
     7  H    0.197703
     8  C   -1.302530
     9  H    0.087855
    10  C    1.626621
    11  C   -0.291449
    12  C    0.215587
    13  H   -0.102793
    14  C    0.196631
    15  H    0.215502
    16  C    0.851940
    17  C   -0.562769
    18  H    0.120185
    19  C   -0.281107
    20  H    0.217503
    21  C   -0.555435
    22  C   -0.294289
    23  H    0.177679
    24  C   -0.205359
    25  H    0.181717
    26  C   -0.251583
    27  H    0.152462
    28  H    0.124656
    29  H    0.156601
    30  C   -0.256726
    31  H    0.154581
    32  H    0.125667
    33  H    0.157708
    34  N   -0.126897
    35  O   -0.260273
    36  H    0.327777
    37  O   -0.306830
 Sum of Mulliken atomic charges =   0.00000
 Mulliken charges with hydrogens summed into heavy atoms:
              1
     1  C    0.171843
     2  C   -0.138783
     4  C   -0.140665
     6  C   -0.185029
     8  C   -1.214675
    10  C    1.626621
    11  C   -0.291449
    12  C    0.112795
    14  C    0.412133
    16  C    0.851940
    17  C   -0.442584
    19  C   -0.063604
    21  C   -0.555435
    22  C   -0.116609
    24  C   -0.023642
    26  C    0.182135
    30  C    0.181230
    34  N   -0.126897
    35  O    0.067504
    37  O   -0.306830
 Sum of Mulliken charges with hydrogens summed into heavy atoms =   0.00000
 Electronic spatial extent (au):  <R**2>=          10257.0627
 Charge=              0.0000 electrons
 Dipole moment (field-independent basis, Debye):
    X=             -7.3901    Y=              4.1036    Z=             -0.3098  Tot=              8.4586
 Quadrupole moment (field-independent basis, Debye-Ang):
   XX=            -81.5161   YY=           -111.4064   ZZ=           -122.3628
   XY=             10.4068   XZ=             -1.0151   YZ=              1.2305
 Traceless Quadrupole moment (field-independent basis, Debye-Ang):
   XX=             23.5790   YY=             -6.3113   ZZ=            -17.2677
   XY=             10.4068   XZ=             -1.0151   YZ=              1.2305
 Octapole moment (field-independent basis, Debye-Ang**2):
  XXX=           -273.1912  YYY=             15.2473  ZZZ=              2.2770  XYY=            -35.7990
  XXY=             83.1701  XXZ=             -6.6969  XZZ=             -6.0258  YZZ=             -5.8073
  YYZ=             -1.8543  XYZ=             -3.5386
 Hexadecapole moment (field-independent basis, Debye-Ang**3):
 XXXX=          -9970.9813 YYYY=          -1219.8218 ZZZZ=           -154.3879 XXXY=            166.1621
 XXXZ=            -16.5550 YYYX=             18.0752 YYYZ=              1.1143 ZZZX=              6.0409
 ZZZY=             -0.0235 XXYY=          -2130.8839 XXZZ=          -2179.9800 YYZZ=           -249.9305
 XXYZ=             20.9791 YYXZ=            -11.5542 ZZXY=            -40.0934
 N-N= 1.378917154619D+03 E-N=-4.770322404714D+03  KE= 8.642383478168D+02
 Calling FoFJK, ICntrl=      2127 FMM=F ISym2X=0 I1Cent= 0 IOpClX= 0 NMat=1 NMatS=1 NMatT=0.
 FoFJK:  IHMeth= 1 ICntrl=  2127 DoSepK=T KAlg= 1 I1Cent= 0 FoldK=F
 ***** Axes restored to original set *****
 -------------------------------------------------------------------
 Center     Atomic                   Forces (Hartrees/Bohr)
 Number     Number              X              Y              Z
 -------------------------------------------------------------------
      1        6           0.006278325    0.007418785    0.008026828
      2        6           0.115141157   -0.022034026   -0.095861286
      3        1          -0.124201845    0.025628505    0.107839117
      4        6           0.140983769    0.068666669    0.028880157
      5        1          -0.148928612   -0.071392153   -0.027729166
      6        6           0.020105320    0.087984152    0.118561141
      7        1          -0.020117526   -0.096784340   -0.133195419
      8        6          -0.109991906    0.027445586    0.106299702
      9        1           0.124030580   -0.023878726   -0.108862869
     10        6          -0.003900588   -0.000334280    0.001927809
     11        6           0.004080462    0.021052442    0.028688047
     12        6           0.018729404    0.093602432    0.107418823
     13        1          -0.016572270   -0.107167190   -0.125103034
     14        6          -0.007072459   -0.101342451   -0.113150554
     15        1           0.004821031    0.111977881    0.127769135
     16        6           0.001789121   -0.006412478   -0.007457271
     17        6           0.114168376    0.093043417    0.047419319
     18        1          -0.127465625   -0.097898095   -0.045541944
     19        6          -0.002389335    0.107372409    0.109399607
     20        1           0.012032793   -0.112732728   -0.120332825
     21        6          -0.002402675   -0.000489831    0.000096579
     22        6          -0.112728616   -0.092464385   -0.048563683
     23        1           0.125536171    0.097248448    0.046351667
[...]
 001,0.00000023,-0.00000097,-0.00000367,-0.00000574,-0.00000050,-0.0000
 0014,-0.00000013,-0.00000845,0.00000027,0.00000219,-0.00000041,-0.0000
 0041,-0.00000051,0.00000391,0.00000112,0.00001153,0.00000065,0.0000018
 0,0.00000072,-0.00002201,-0.00000517,-0.00000284,0.00009896,-0.0000500
 8,-0.00008622,-0.00014834,-0.00007127,0.00003159,-0.00000417,0.0000026
 0,-0.00000231,0.00024303,0.00015685,-0.00015340,-0.00000657,0.00000652
 ,0.00000081,0.00002767,0.00078118,0.00071876,0.00097941,-0.00059045,-0
 .00071748,-0.00001705,0.00003785,-0.00004727,-0.00155240,-0.00090399,0
 .00052990,0.00002650,0.00015104,-0.00007646,0.00414854,-0.00023111,-0.
 00330910,-0.00010715,0.00053567,0.00048606,-0.00136461,0.00131479,-0.0
 0023751,-0.00043646,-0.00043336,0.00062396,-0.00002764,-0.00000319,0.0
 0000040,-0.00319767,0.00193951,-0.00033893,-0.00002686,0.00006400,-0.0
 0004891,0.00045341,-0.00014432,-0.00005398,0.00017991,-0.00062669,-0.0
 0103998,-0.06521239,0.00697439,-0.05988922,-0.00194329,0.00251421,-0.0
 1010038,0.00857503,-0.00304681,0.02445503,0.07274520,0.00001298,-0.000
 02124,-0.00004494,0.00000507,0.00000378,0.00000454,-0.00000292,-0.0000
 0019,0.00000144,0.00000165,-0.00001162,-0.00001988,-0.00000340,-0.0000
 0143,-0.00000065,-0.00003384,-0.00000758,0.00001396,-0.00000141,-0.000
 00251,-0.00000274,0.00001380,0.00002768,0.00002633,0.00000482,0.000006
 29,0.00000646,-0.00008194,-0.00002988,-0.00000182,0.00025898,-0.000055
 18,-0.00016850,-0.00030655,-0.00006711,0.00008164,0.00000450,-0.000000
 67,-0.00000016,0.00029031,0.00002570,-0.00014141,0.00000358,0.00000529
 ,0.00000157,-0.00033772,0.00014868,0.00027719,0.00024819,-0.00014035,-
 0.00007044,-0.00002677,0.00001424,-0.00003472,-0.00043019,-0.00061328,
 0.00014776,0.00000195,0.00007219,-0.00007354,0.00187956,0.00037944,-0.
 00135591,0.00036742,0.00065502,0.00114459,0.00026799,-0.00005143,-0.00
 016201,-0.00003695,-0.00024749,-0.00007055,0.00000532,0.00001550,0.000
 01150,-0.00299581,-0.00026804,-0.00112488,-0.00015847,-0.00012656,-0.0
 0021036,-0.00009227,-0.00007901,0.00013851,-0.00024928,-0.00077242,-0.
 00088686,0.00692189,-0.05162022,0.02529075,0.00730871,-0.00213397,0.02
 978833,-0.00245172,0.00051654,-0.00834376,0.00006177,0.05731914,0.0000
 2115,-0.00004815,-0.00008130,0.00001042,0.00001193,0.00000785,-0.00000
 506,-0.00000013,0.00000206,0.00000415,-0.00002085,-0.00003308,-0.00000
 512,-0.00000204,-0.00000144,-0.00005406,-0.00001101,0.00002284,-0.0000
 0189,-0.00000290,-0.00000412,0.00002236,0.00004326,0.00004289,0.000006
 24,0.00001087,0.00000957,-0.00012756,-0.00005379,0.00000337,0.00044093
 ,-0.00009575,-0.00033631,-0.00056207,-0.00009632,0.00012304,0.00000484
 ,0.00000516,0.00000409,0.00066501,-0.00004091,-0.00015387,-0.00001378,
 0.00000757,0.00001506,-0.00089159,-0.00033663,0.00004642,0.00004567,0.
 00024722,0.00020897,-0.00002623,-0.00000637,0.00001786,-0.00046400,-0.
 00001715,-0.00015202,0.00007184,0.00007809,0.00000317,0.00247754,-0.00
 100000,-0.00105503,-0.00087686,-0.00051210,0.00000044,0.00094593,0.000
 10857,0.00088282,0.00126767,0.00086545,-0.00035329,-0.00002574,0.00001
 176,0.00002869,-0.00121454,0.00139909,-0.00048826,-0.00011499,-0.00001
 285,-0.00004195,-0.00035026,0.00009445,0.00013742,-0.00034429,-0.00035
 401,-0.00047702,-0.06228813,0.02273896,-0.28783268,-0.00028638,0.00088
 166,-0.00644733,-0.00476457,0.00269991,-0.01518524,0.07270529,-0.01857
 848,0.31092576,0.00052875,-0.00083176,-0.00147050,0.00015485,0.0001692
 6,0.00009929,-0.00009582,-0.00001027,0.00004382,0.00003832,-0.00040147
 ,-0.00064246,-0.00010581,-0.00004542,-0.00001902,-0.00109680,-0.000230
 58,0.00045470,-0.00006316,-0.00008819,-0.00009092,0.00041055,0.0009321
 8,0.00095091,0.00016193,0.00021878,0.00022176,-0.00273978,-0.00105787,
 -0.00006265,0.00919612,-0.00202103,-0.00638361,-0.01137369,-0.00234939
 ,0.00281305,0.00004526,0.00008554,0.00000763,0.01248481,0.00074493,-0.
 00512351,-0.00007713,0.00019125,0.00014020,-0.01419749,0.00379907,0.01
 027036,0.00900462,-0.00526618,-0.00767225,-0.00086048,-0.00006965,0.00
 031690,-0.05339010,-0.00966654,0.01776066,0.00023826,0.00079581,-0.000
 17157,-0.26311672,-0.00369925,0.09117205,-0.01158093,0.01631185,0.0261
 7169,-0.00102895,0.00012227,-0.00033197,0.00912160,-0.00315621,-0.0052
 1012,0.00042403,0.00015791,-0.00006294,-0.09551040,-0.01663890,0.01268
 071,0.00071539,-0.00364237,-0.00712249,-0.00327779,0.02255072,0.028126
 09,0.00567067,-0.01504034,-0.00859247,-0.16289909,-0.07866664,-0.00513
 032,0.00054952,-0.01150796,0.00347224,-0.02572880,-0.02188688,-0.00798
 561,-0.01340801,-0.01039330,-0.00618912,0.61361263,-0.00010370,0.00009
 300,0.00019471,-0.00001255,-0.00001006,0.00000068,0.00001429,0.0000008
 3,-0.00000521,0.00000459,0.00006043,0.00008886,0.00001617,0.00000554,0
 .00000313,0.00016249,0.00004525,-0.00006609,0.00001857,0.00001468,0.00
 001872,-0.00004401,-0.00015943,-0.00017958,-0.00002472,-0.00003950,-0.
 00003084,0.00044717,0.00019554,0.00001902,-0.00144585,0.00023924,0.001
 03627,0.00185214,0.00033274,-0.00057360,0.00004064,0.00009890,-0.00003
 882,-0.00173672,-0.00006682,0.00113001,-0.00005958,-0.00002471,0.00005
 195,0.00356232,0.00105141,0.00052107,-0.00300394,-0.00250411,-0.005586
 40,-0.00103471,0.00008806,0.00066736,-0.02135643,0.01185635,0.01228744
 ,0.00124276,-0.00080254,0.00055628,-0.01216165,-0.09598049,-0.04167822
 ,0.02842324,0.00172274,-0.02003788,-0.00044545,-0.00068018,0.00161032,
 -0.00673730,-0.00233823,-0.00376393,0.00102398,-0.00006163,-0.00059154
 ,-0.00972416,-0.13207031,-0.09456162,0.00248554,-0.01995252,-0.0331678
 4,-0.00033319,-0.00278764,-0.00019621,-0.00449247,0.00390828,-0.008550
 77,-0.07892865,-0.14187154,-0.04268514,-0.03145170,-0.02202093,-0.0109
 3042,0.00435425,0.00219511,0.00111853,-0.00847423,-0.00301626,-0.00817
 538,0.13764360,0.40282813,-0.00027041,0.00035617,0.00065264,-0.0000610
 6,-0.00006194,-0.00003353,0.00004406,0.00000538,-0.00001979,-0.0000095
 7,0.00018525,0.00029462,0.00005011,0.00002083,0.00000837,0.00051723,0.
 00011222,-0.00020785,0.00003733,0.00004691,0.00004515,-0.00017753,-0.0
 0044750,-0.00048036,-0.00007827,-0.00010934,-0.00010573,0.00131872,0.0
 0051016,0.00005186,-0.00440796,0.00098296,0.00289640,0.00540375,0.0010
 0620,-0.00138626,0.00007744,-0.00007577,0.00008699,-0.00576164,0.00010
 971,0.00232738,-0.00005268,-0.00005680,-0.00002665,0.00735334,0.000809
 18,-0.00389433,-0.00387559,-0.00452052,0.00136264,-0.00059628,0.000135
 36,0.00043354,0.00411549,0.00524327,0.01189448,0.00022916,0.00065578,-
 0.00136233,0.10163535,-0.04744226,-0.14307032,0.03843484,-0.01235735,-
 0.02013290,-0.00091934,0.00142187,-0.00012956,-0.00735354,-0.00569684,
 0.00215608,0.00097963,-0.00013447,-0.00060476,0.01536362,-0.08536935,-
 0.16725969,0.00034102,-0.01031568,0.00287040,0.00056001,-0.01066462,-0
 .01478899,0.00284329,-0.02365493,-0.02756030,-0.01534655,-0.04764543,-
 0.09187287,0.00377772,-0.00197710,0.00347421,0.01523612,0.01390542,0.0
 0246141,-0.02350670,-0.02576349,-0.00007774,-0.13679351,0.25210322,0.4
 4390043,-0.10779054,-0.03304962,-0.01104642,-0.00711865,-0.03841230,-0
 .04894268,0.00229755,0.00207869,-0.00032870,-0.00924913,0.00187079,0.0
 1225938,-0.00044411,-0.00099498,-0.00151940,0.01032401,0.00168528,-0.0
 0492215,0.00037586,0.00028665,-0.00032532,-0.00994589,-0.00911208,-0.0
 0275025,0.00019803,0.00062283,0.00091383,0.01962021,0.02143018,0.02662
 511,-0.01023400,-0.01715969,-0.01816521,-0.00161793,0.00193275,0.00269
 420,-0.00084096,0.00031915,0.00061270,0.00154888,0.00053791,0.00000878
 ,0.00054453,0.00018997,-0.00006051,-0.00060034,0.00026189,0.00060759,0
 .00001126,-0.00030060,-0.00035350,0.00003964,-0.00002900,-0.00005548,-
 0.00050533,-0.00019587,0.00007057,-0.00003804,0.00002780,0.00003958,0.
 00077655,-0.00008747,-0.00042877,-0.00027609,0.00027569,0.00043110,-0.
 00003886,-0.00001428,-0.00000092,0.00047773,0.00023932,0.00003754,0.00
 005678,0.00002836,-0.00001173,-0.00000504,-0.00022162,-0.00022148,0.00
 003099,0.00004590,0.00000916,-0.00003643,0.00000012,0.00001827,0.00004
 978,0.00002222,0.00005878,0.00018988,0.00017518,0.00009598,-0.00000296
 ,-0.00006828,-0.00002283,-0.00003390,0.00000582,0.00002290,-0.00000456
 ,-0.00002815,-0.00004135,-0.00092601,0.00015814,0.00045637,0.48921251,
 -0.01674336,-0.14954895,-0.14173239,-0.01892369,-0.02389073,-0.0360938
 9,0.00185310,-0.00140201,0.00185533,-0.00593445,0.00806190,0.00828374,
 -0.00030617,-0.00073657,-0.00061490,0.00824430,-0.00149240,-0.00547796
 ,0.00036594,-0.00036416,0.00018004,-0.00584012,0.00064736,-0.00599143,
 -0.00026479,-0.00023108,-0.00067321,0.01630444,0.00474460,-0.01647347,
 -0.01567469,-0.01886331,-0.01268971,0.00171953,0.00169490,0.00145624,-
 0.00065776,0.00021198,0.00051228,-0.00094219,-0.00018370,0.00022684,0.
 00026355,0.00010087,-0.00001427,0.00045513,0.00023837,-0.00020332,-0.0
 0016889,0.00004252,0.00016036,-0.00000739,0.00001102,0.00000840,0.0002
 1129,0.00011701,0.00002434,-0.00001025,-0.00000617,0.00000387,-0.00027
 290,-0.00002184,0.00013842,0.00011686,-0.00006235,-0.00012305,0.000025
 28,0.00000620,-0.00000351,-0.00019514,-0.00016014,-0.00007416,0.000008
 50,0.00001518,0.00002182,-0.00001063,0.00004971,0.00003665,-0.00001060
 ,-0.00000505,-0.00000652,0.00001415,-0.00000096,-0.00000454,-0.0000120
 0,-0.00001231,-0.00001026,-0.00009301,-0.00009060,-0.00004614,0.000001
 32,0.00003552,0.00000410,0.00001016,-0.00000092,-0.00000700,0.00000668
 ,0.00000901,0.00002361,0.00034153,-0.00001081,-0.00012285,0.19197976,0
 .25506155,0.01473944,-0.12867772,-0.25691078,-0.01984762,-0.02438225,-
 0.01494459,-0.00088133,0.00165667,-0.00031349,0.00042603,0.00345625,0.
 01043697,-0.00036367,0.00001843,-0.00015132,0.00551055,-0.00125727,-0.
 00688707,-0.00013280,0.00031167,-0.00014784,0.00133378,-0.00467091,-0.
 00014203,-0.00029742,-0.00095234,-0.00131088,0.01802453,-0.02041213,-0
 .03257376,-0.01912231,-0.01250198,-0.00968949,0.00368136,0.00170016,-0
 .00031420,-0.00045122,0.00010104,0.00029058,-0.00251731,-0.00071928,0.
 00036509,0.00002752,0.00001796,0.00003406,0.00121944,-0.00005648,-0.00
 051984,-0.00028606,0.00031687,0.00045742,-0.00004416,0.00004224,0.0000
 4038,0.00068663,0.00029666,0.00000474,0.00000540,-0.00001558,-0.000035
 31,-0.00099358,0.00009363,0.00045217,0.00039330,-0.00030580,-0.0004732
 8,0.00006037,0.00002812,-0.00001481,-0.00062949,-0.00043783,-0.0001185
 5,-0.00003583,0.00002576,0.00002148,-0.00001090,0.00022617,0.00021158,
 -0.00003958,-0.00004454,-0.00001544,0.00004547,0.00000189,-0.00002192,
 -0.00004987,-0.00003431,-0.00005185,-0.00027570,-0.00024706,-0.0001439
 5,0.00000528,0.00009379,0.00002310,0.00003872,-0.00000419,-0.00002715,
 0.00001606,0.00003454,0.00006845,0.00116623,-0.00013758,-0.00049792,-0
 .02538697,0.18869932,0.34488480,-0.00494563,-0.02009197,-0.02790470,0.
 00746976,0.00643643,0.00684736,-0.00046455,-0.00008510,-0.00023469,0.0
 0195295,-0.00357036,-0.00561595,0.00017762,0.00024738,0.00013379,-0.00
 574798,-0.00037569,0.00317119,-0.00023995,-0.00006721,0.00004455,0.000
 83598,0.00323221,0.00356842,0.00019549,0.00040715,0.00065176,-0.010917
 52,-0.00295815,0.00132841,0.01458313,0.02513504,0.02628460,0.00324521,
 -0.00293218,-0.00371676,0.00131047,-0.00055111,-0.00092636,-0.00226131
 ,-0.00082284,-0.00014413,-0.00072395,-0.00020746,0.00011441,0.00095112
 ,-0.00026366,-0.00087878,-0.00003331,0.00040173,0.00053355,-0.00005724
 ,0.00004397,0.00008955,0.00072154,0.00028422,-0.00009680,0.00004999,-0
 .00003718,-0.00005584,-0.00111093,0.00013493,0.00060829,0.00042329,-0.
 00039884,-0.00060387,0.00005932,0.00002014,0.00000014,-0.00069227,-0.0
 0036143,-0.00006333,-0.00008319,-0.00003283,0.00001569,0.00000500,0.00
 030898,0.00030768,-0.00004393,-0.00006372,-0.00001430,0.00005205,0.000
 00042,-0.00002624,-0.00006897,-0.00003329,-0.00008095,-0.00027680,-0.0
 0025296,-0.00014206,0.00000477,0.00009817,0.00003211,0.00004836,-0.000
 00882,-0.00003239,0.00000717,0.00004053,0.00006116,0.00131920,-0.00021
 888,-0.00064023,-0.33970596,-0.14135513,0.01638600,0.33044568,-0.02705
 066,-0.02104320,-0.01070358,0.00138882,0.00215946,-0.00295449,0.000014
 75,-0.00042811,0.00019575,-0.00089678,0.00017108,-0.00162396,0.0001376
 7,-0.00026435,0.00001474,-0.00103530,0.00017605,0.00069716,0.00000558,
 -0.00003834,0.00006222,-0.00035868,-0.00004282,0.00113075,0.00008617,0
 .00018833,0.00037674,-0.00217306,-0.00121704,0.00094783,0.00842298,0.0
 0572029,0.00177492,-0.00033755,-0.00024739,-0.00200465,0.00036818,-0.0
 0003612,-0.00036153,-0.00026455,-0.00016064,0.00008345,-0.00010214,-0.
 00002126,0.00006477,0.00010575,-0.00017286,0.00001510,-0.00001271,0.00
 011399,-0.00001648,-0.00001209,0.00001352,-0.00000141,0.00006377,-0.00
 001090,0.00000964,0.00000683,-0.00000014,-0.00001342,-0.00010326,0.000
 04399,0.00004731,0.00002283,-0.00004307,-0.00007527,-0.00000222,0.0000
 0722,-0.00000279,-0.00005007,-0.00002182,0.00003844,-0.00001690,-0.000
 00123,-0.00000937,0.00000313,0.00003304,0.00003740,-0.00000478,-0.0000
 1016,0.,0.00000415,0.00000136,-0.00000323,-0.00000665,-0.00000139,-0.0
 0000785,-0.00001782,-0.00001061,-0.00000796,-0.00000019,0.00000249,0.0
 0000495,0.00000492,0.00000042,-0.00000486,0.00000003,0.00000436,0.0000
 0436,0.00011058,-0.00003479,-0.00006358,-0.12882953,-0.08800461,-0.012
 06607,0.15180116,0.11668939,-0.03862560,-0.01666757,0.00042413,-0.0004
 8541,-0.00630765,-0.00599029,0.00001168,0.00030906,-0.00005348,-0.0018
 2707,-0.00001426,0.00273825,-0.00012193,-0.00010361,-0.00041209,0.0023
 0842,0.00036878,-0.00074461,0.00012254,0.00009338,-0.00002025,-0.00135
 494,-0.00108239,-0.00153667,-0.00004795,0.00005073,0.00003650,0.003488
 86,0.00144396,-0.00058397,0.00311100,-0.00969328,-0.01357973,-0.001861
 40,-0.00034884,0.00161439,-0.00025780,0.00009622,0.00034071,0.00088793
 ,0.00054319,0.00010540,0.00034254,0.00013240,-0.00003764,-0.00054199,0
 .00018825,0.00031590,0.00005491,-0.00024184,-0.00020956,0.00003432,-0.
 00003456,-0.00002963,-0.00038448,-0.00013700,0.00001804,-0.00001954,0.
 00001228,0.00003031,0.00058148,-0.00007223,-0.00028937,-0.00022837,0.0
 0018299,0.00030214,-0.00003501,-0.00001578,0.00000987,0.00034588,0.000
 23870,0.00005063,0.00004150,-0.00000343,-0.00000250,-0.00000085,-0.000
 14880,-0.00014416,0.00002348,0.00003131,0.00000766,-0.00002659,-0.0000
 0085,0.00001397,0.00003238,0.00001793,0.00003578,0.00015257,0.00013614
 ,0.00008173,-0.00000215,-0.00005097,-0.00001555,-0.00002375,0.00000243
 ,0.00001689,-0.00000788,-0.00002071,-0.00003678,-0.00068908,0.00010122
 ,0.00031504,0.03579837,-0.00221186,-0.04733751,0.01014765,0.02916125,0
 .06170843,0.00274869,0.00876713,0.01057172,-0.00049395,-0.00204526,-0.
 00279181,0.00036620,0.00020239,0.00009599,-0.00028511,-0.00001059,0.00
 037167,-0.00012081,-0.00014122,-0.00011641,-0.00048973,-0.00100951,-0.
 00266416,-0.00063728,-0.00023546,-0.00033400,-0.00607696,-0.00201306,0
 .00391850,0.00029738,-0.00047149,-0.00063963,0.00581856,-0.03118638,-0
 .03515486,-0.11223447,-0.04520541,-0.03496431,0.00751480,0.02297569,0.
 03233703,-0.00545829,0.00046212,0.00455782,-0.00023236,0.00100250,0.00
 225707,-0.00003036,0.00164553,0.00219651,0.00027904,0.00214774,0.00144
 991,-0.00059510,-0.00037968,-0.00029351,0.00009561,-0.00024135,-0.0002
 0908,-0.00108379,-0.00039174,0.00014047,-0.00010944,0.00006086,0.00012
 421,0.00180684,-0.00023080,-0.00101259,-0.00063420,0.00062633,0.001013
 34,-0.00009923,-0.00004144,-0.00000079,0.00106619,0.00040227,-0.000037
 83,0.00018090,0.00009942,-0.00003413,-0.00002818,-0.00050861,-0.000521
 30,0.00007694,0.00010060,0.00002464,-0.00009144,-0.00000409,0.00004497
 ,0.00011789,0.00005586,0.00013005,0.00045443,0.00043566,0.00025013,-0.
 00000449,-0.00016357,-0.00005584,-0.00008472,0.00001426,0.00005691,-0.
 00000598,-0.00006832,-0.00010262,-0.00219958,0.00034001,0.00107626,-0.
 03633948,-0.01449837,0.00759972,0.00351536,-0.00127237,-0.01094371,0.1
 4299611,0.00277545,-0.00862532,-0.01253955,0.00260453,0.00244272,0.001
 63681,-0.00023731,-0.00003555,0.00017356,0.00136507,-0.00159559,-0.003
 86282,-0.00004653,-0.00002632,0.00001039,-0.00458690,-0.00267251,0.000
 81016,-0.00041493,-0.00063318,0.00007728,-0.00306791,0.00612076,0.0045
 5532,0.00036450,0.00020055,-0.00005453,-0.02786112,-0.01950183,-0.0352
 6998,-0.04156539,-0.28918345,-0.26116685,0.02554585,-0.00092237,-0.032
 64131,0.00152290,0.00184400,-0.00240378,-0.01448040,-0.00636817,-0.000
 13756,0.00162565,0.00133909,0.00039517,0.00565287,0.00048610,-0.001178
 27,-0.00107066,0.00103048,0.00186778,-0.00013242,0.00019396,0.00005258
 ,0.00172202,0.00086315,0.00005850,0.00000451,-0.00002764,-0.00005343,-
 0.00203749,0.00017800,0.00111654,0.00107650,-0.00071188,-0.00134275,0.
 00012176,0.00002869,-0.00002523,-0.00211304,-0.00142641,-0.00051146,0.
 00010193,0.00011039,0.00012334,-0.00003056,0.00048770,0.00050500,-0.00
 006021,-0.00011166,-0.00003281,0.00006938,-0.00000654,-0.00004490,-0.0
 0011168,-0.00006104,-0.00014429,-0.00056687,-0.00050045,-0.00027265,0.
 00001676,0.00021026,0.00003707,0.00007142,0.00000084,-0.00003512,0.000
 04159,0.00006359,0.00013291,0.00249491,-0.00030372,-0.00113008,0.00432
 908,0.01404097,0.00980215,-0.01390365,-0.01351410,0.00404542,0.0607803
 5,0.31658649,0.00081170,-0.01567281,-0.02606419,0.00463305,0.00523189,
 0.00435540,-0.00058400,-0.00016253,0.00013781,0.00245219,-0.00310137,-
 0.00612079,0.00005280,-0.00003378,0.00012565,-0.00818783,-0.00082341,0
 .00159777,-0.00048276,-0.00000079,-0.00016707,0.00277780,0.00375827,0.
 00865444,0.00052315,-0.00000511,0.00060780,-0.03256688,-0.03457556,-0.
 01057015,-0.02696224,-0.25715861,-0.38301059,0.03352419,-0.03225074,-0
 .04079447,0.00642267,-0.00176674,-0.00172558,-0.01651324,-0.00819631,-
 0.00148581,0.00181864,0.00063639,-0.00025499,0.00583662,0.00040599,-0.
 00280083,-0.00102992,0.00150978,0.00192763,-0.00011646,0.00020225,0.00
 038215,0.00245772,0.00119482,0.00001169,0.00006328,-0.00007840,-0.0001
 0334,-0.00319634,0.00042608,0.00161462,0.00157645,-0.00116074,-0.00190
 604,0.00018715,0.00006198,-0.00003849,-0.00284294,-0.00186768,-0.00050
 703,-0.00000662,0.00016649,0.00008265,-0.00003471,0.00081505,0.0007796
 5,-0.00011244,-0.00017896,-0.00004661,0.00012480,-0.00000509,-0.000069
 88,-0.00017283,-0.00009830,-0.00021547,-0.00086258,-0.00076798,-0.0004
 2681,0.00001940,0.00030287,0.00007247,0.00012087,-0.00000218,-0.000071
 39,0.00005930,0.00010677,0.00020668,0.00387585,-0.00055173,-0.00171977
 ,0.03382346,0.02093911,0.01535215,-0.02914893,-0.00474629,0.00285802,0
 .02165965,0.32744739,0.43933272\\-0.00000042,-0.00000181,0.00000084,-0
 .00000156,-0.00000260,-0.00000028,0.,-0.00000430,-0.00000339,-0.000001
 28,-0.00000249,-0.00000402,0.00000069,-0.00000272,-0.00000457,0.000000
 35,-0.00000384,-0.00000642,0.00000100,0.00000065,-0.00000295,0.0000016
 6,-0.00000298,-0.00000353,-0.00000078,0.00000044,-0.00000186,0.0000008
 9,0.00000474,-0.00000288,-0.00000383,-0.00000288,0.00000600,0.00000360
 ,-0.00000189,-0.00000613,0.00000052,-0.00000048,0.,-0.00000505,0.00000
 033,0.00000144,-0.00000062,-0.00000118,0.00000265,0.00000477,-0.000000
 06,-0.00000294,-0.00000263,-0.00000013,0.00000242,0.00000120,0.0000004
 2,-0.00000014,0.00000662,0.00000023,-0.00000366,0.00000160,0.00000201,
 0.00000206,-0.00001443,0.00000765,0.00000304,0.00000655,0.00000062,-0.
 00000161,-0.00000131,-0.00000044,0.00000442,-0.00000472,0.00000191,0.0
 0000378,-0.00000078,-0.00000078,0.00000219,-0.00000002,0.00000635,0.00
 000465,0.00000066,-0.00000212,0.00000083,0.00000237,0.00000434,0.00000
 028,-0.00000091,0.00000330,-0.00000226,-0.00000550,-0.00000041,0.00000
 244,0.00000015,0.00000747,0.00000447,0.00000163,0.00000456,0.00000210,
 0.00000316,0.00000231,0.00000745,0.00001349,-0.00000381,0.00000324,0.0
 0002281,0.00000821,-0.00000745,-0.00002550,-0.00001542,0.00000066,-0.0
 0000438,-0.00000518,-0.00000086\\\@


 AN AIRPLANE IS A COLLECTION OF SPARE PARTS
 FLYING IN CLOSE FORMATION.
 Job cpu time:  0 days 20 hours 33 minutes 20.5 seconds.
 File lengths (MBytes):  RWF=   1780 Int=      0 D2E=      0 Chk=     24 Scr=      1
 Normal termination of Gaussian 09 at Sat Oct 17 06:12:01 2015.
