 Entering Gaussian System, Link 0=g09
 Input=H_optS1.com
 Output=H_optS1.out
 Initial command:
 /share/apps/gaussian/g09/l1.exe /tmp/3520773.1.chemistry.q/Gau-6445.inp -scrdir=/tmp/3520773.1.chemistry.q/
 Entering Link 1 = /share/apps/gaussian/g09/l1.exe PID=      6446.
  
 Copyright (c) 1988,1990,1992,1993,1995,1998,2003,2009,2011,
            Gaussian, Inc.  All Rights Reserved.
  
 This is part of the Gaussian(R) 09 program.  It is based on
 the Gaussian(R) 03 system (copyright 2003, Gaussian, Inc.),
 the Gaussian(R) 98 system (copyright 1998, Gaussian, Inc.),
 the Gaussian(R) 94 system (copyright 1995, Gaussian, Inc.),
 the Gaussian 92(TM) system (copyright 1992, Gaussian, Inc.),
 the Gaussian 90(TM) system (copyright 1990, Gaussian, Inc.),
 the Gaussian 88(TM) system (copyright 1988, Gaussian, Inc.),
 the Gaussian 86(TM) system (copyright 1986, Carnegie Mellon
 University), and the Gaussian 82(TM) system (copyright 1983,
 Carnegie Mellon University). Gaussian is a federally registered
 trademark of Gaussian, Inc.
  
 This software contains proprietary and confidential information,
 including trade secrets, belonging to Gaussian, Inc.
  
 This software is provided under written license and may be
 used, copied, transmitted, or stored only in accord with that
 written license.
  
 The following legend is applicable only to US Government
 contracts under FAR:
  
                    RESTRICTED RIGHTS LEGEND
  
 Use, reproduction and disclosure by the US Government is
 subject to restrictions as set forth in subparagraphs (a)
 and (c) of the Commercial Computer Software - Restricted
 Rights clause in FAR 52.227-19.
  
 Gaussian, Inc.
 340 Quinnipiac St., Bldg. 40, Wallingford CT 06492
  
  
 ---------------------------------------------------------------
 Warning -- This program may not be used in any manner that
 competes with the business of Gaussian, Inc. or will provide
 assistance to any competitor of Gaussian, Inc.  The licensee
 of this program is prohibited from giving any competitor of
 Gaussian, Inc. access to this program.  By using this program,
 the user acknowledges that Gaussian, Inc. is engaged in the
 business of creating and licensing software in the field of
 computational chemistry and represents and warrants to the
 licensee that it is not a competitor of Gaussian, Inc. and that
 it will not use this program in any manner prohibited above.
 ---------------------------------------------------------------
  

 Cite this work as:
 Gaussian 09, Revision C.01,
 M. J. Frisch, G. W. Trucks, H. B. Schlegel, G. E. Scuseria, 
 M. A. Robb, J. R. Cheeseman, G. Scalmani, V. Barone, B. Mennucci, 
 G. A. Petersson, H. Nakatsuji, M. Caricato, X. Li, H. P. Hratchian, 
 A. F. Izmaylov, J. Bloino, G. Zheng, J. L. Sonnenberg, M. Hada, 
 M. Ehara, K. Toyota, R. Fukuda, J. Hasegawa, M. Ishida, T. Nakajima, 
 Y. Honda, O. Kitao, H. Nakai, T. Vreven, J. A. Montgomery, Jr., 
 J. E. Peralta, F. Ogliaro, M. Bearpark, J. J. Heyd, E. Brothers, 
 K. N. Kudin, V. N. Staroverov, T. Keith, R. Kobayashi, J. Normand, 
 K. Raghavachari, A. Rendell, J. C. Burant, S. S. Iyengar, J. Tomasi, 
 M. Cossi, N. Rega, J. M. Millam, M. Klene, J. E. Knox, J. B. Cross, 
 V. Bakken, C. Adamo, J. Jaramillo, R. Gomperts, R. E. Stratmann, 
 O. Yazyev, A. J. Austin, R. Cammi, C. Pomelli, J. W. Ochterski, 
 R. L. Martin, K. Morokuma, V. G. Zakrzewski, G. A. Voth, 
 P. Salvador, J. J. Dannenberg, S. Dapprich, A. D. Daniels, 
 O. Farkas, J. B. Foresman, J. V. Ortiz, J. Cioslowski, 
 and D. J. Fox, Gaussian, Inc., Wallingford CT, 2010.
 
 ******************************************
 Gaussian 09:  EM64L-G09RevC.01 23-Sep-2011
                26-Oct-2015 
 ******************************************
 %chk=H_optS1.chk
 %mem=2GB
 %nproc=4
 Will use up to    4 processors via shared memory.
 -------------------------------------------
 #wb97xd 6-311++g** opt td(nstates=1,root=1)
 -------------------------------------------
 1/14=-1,18=20,19=15,26=3,38=1/1,3;
 2/9=110,12=2,17=6,18=5,40=1/2;
 3/5=4,6=6,7=1111,11=2,16=1,25=1,30=1,71=1,74=-58/1,2,8,3;
 4//1;
 5/5=2,38=5/2;
 8/6=1,10=2,107=1,108=1/1;
 9/8=1,15=2,41=1,42=1/14;
 10/5=4/2;
 6/7=2,8=2,9=2,10=2/1;
 7/12=6,13=5,14=1/1,2,3,16;
 1/14=-1,18=20,19=15/3(2);
 2/9=110/2;
 99//99;
 2/9=110/2;
 3/5=4,6=6,7=1111,11=2,16=1,25=1,30=1,71=1,74=-58/1,2,8,3;
 4/5=5,16=3/1;
 5/5=2,38=5/2;
 8/6=1,10=2,107=1,108=1/1;
 9/8=1,15=2,41=1,42=1,49=4/14;
 10/5=4/2;
 7/12=6,13=5,14=1/1,2,3,16;
 1/14=-1,18=20,19=15/3(-8);
 2/9=110/2;
 6/7=2,8=2,9=2,10=2/1;
 99//99;
 --------------------
 Geom Opt H bigbas S1
 --------------------
 Charge =  0 Multiplicity = 1
 Symbolic Z-Matrix:
 C                     4.93029   3.44445   4.515 
 C                     3.70421   2.84483   4.26301 
 H                     2.99707   2.97751   4.85187 
 C                     3.52674   2.057     3.15332 
 H                     2.70172   1.66      2.99321 
 C                     4.57172   1.85346   2.27369 
 H                     4.4554    1.30517   1.53146 
 C                     5.78021   2.46038   2.49632 
 H                     6.47214   2.3275    1.89015 
 C                     5.99865   3.27474   3.61299 
 C                     7.2796    3.95376   3.877 
 C                     8.41179   3.76153   2.98927 
 H                     8.33273   3.16984   2.27583 
 C                     9.57192   4.41535   3.17008 
 H                     9.586     5.03348   3.86463 
 C                     10.79853   4.27743   2.42155 
 C                     10.97155   3.35486   1.38337 
 H                     10.25406   2.81809   1.13454 
 C                     12.16053   3.21777   0.72413 
 H                     12.23827   2.58359   0.04835 
 C                     13.27412   4.02349   1.05088 
 C                     13.10637   4.94513   2.09614 
 H                     13.81728   5.48808   2.35004 
 C                     11.90434   5.05405   2.74808 
 H                     11.82646   5.67321   3.43735 
 C                     14.61113   2.94933  -0.69332 
 H                     14.45579   2.06523  -0.35419 
 H                     15.50321   3.00528  -1.04459 
 H                     13.9798   3.14001  -1.39091 
 C                     15.5599   4.80927   0.64204 
 H                     15.26877   5.71743   0.53298 
 H                     16.27372   4.62619   0.02699 
 H                     15.86994   4.67865   1.54158 
 N                     14.45349   3.91231   0.37825 
 O                     5.04615   4.17838   5.63897 
 H                     5.78768   4.52643   5.66258 
 O                     7.38437   4.68872   4.88729 
 

 GradGradGradGradGradGradGradGradGradGradGradGradGradGradGradGradGradGrad
 Berny optimization.
 Initialization pass.
                           ----------------------------
                           !    Initial Parameters    !
                           ! (Angstroms and Degrees)  !
 --------------------------                            --------------------------
 ! Name  Definition              Value          Derivative Info.                !
 --------------------------------------------------------------------------------
 ! R1    R(1,2)                  1.3879         estimate D2E/DX2                !
 ! R2    R(1,10)                 1.4085         estimate D2E/DX2                !
 ! R3    R(1,35)                 1.3474         estimate D2E/DX2                !
 ! R4    R(2,3)                  0.9297         estimate D2E/DX2                !
 ! R5    R(2,4)                  1.3724         estimate D2E/DX2                !
 ! R6    R(4,5)                  0.9295         estimate D2E/DX2                !
 ! R7    R(4,6)                  1.381          estimate D2E/DX2                !
 ! R8    R(6,7)                  0.9301         estimate D2E/DX2                !
 ! R9    R(6,8)                  1.3705         estimate D2E/DX2                !
 ! R10   R(8,9)                  0.9294         estimate D2E/DX2                !
 ! R11   R(8,10)                 1.3992         estimate D2E/DX2                !
 ! R12   R(10,11)                1.4736         estimate D2E/DX2                !
 ! R13   R(11,12)                1.4515         estimate D2E/DX2                !
 ! R14   R(11,37)                1.2537         estimate D2E/DX2                !
 ! R15   R(12,13)                0.9302         estimate D2E/DX2                !
 ! R16   R(12,14)                1.3439         estimate D2E/DX2                !
 ! R17   R(14,15)                0.9299         estimate D2E/DX2                !
 ! R18   R(14,16)                1.4436         estimate D2E/DX2                !
 ! R19   R(16,17)                1.3996         estimate D2E/DX2                !
 ! R20   R(16,24)                1.3902         estimate D2E/DX2                !
 ! R21   R(17,18)                0.93           estimate D2E/DX2                !
 ! R22   R(17,19)                1.3664         estimate D2E/DX2                !
 ! R23   R(19,20)                0.93           estimate D2E/DX2                !
 ! R24   R(19,21)                1.4128         estimate D2E/DX2                !
 ! R25   R(21,22)                1.4036         estimate D2E/DX2                !
 ! R26   R(21,34)                1.3622         estimate D2E/DX2                !
 ! R27   R(22,23)                0.9299         estimate D2E/DX2                !
 ! R28   R(22,24)                1.3718         estimate D2E/DX2                !
 ! R29   R(24,25)                0.9298         estimate D2E/DX2                !
 ! R30   R(26,27)                0.9596         estimate D2E/DX2                !
 ! R31   R(26,28)                0.9604         estimate D2E/DX2                !
 ! R32   R(26,29)                0.96           estimate D2E/DX2                !
 ! R33   R(26,34)                1.4493         estimate D2E/DX2                !
 ! R34   R(30,31)                0.9599         estimate D2E/DX2                !
 ! R35   R(30,32)                0.9599         estimate D2E/DX2                !
 ! R36   R(30,33)                0.9604         estimate D2E/DX2                !
 ! R37   R(30,34)                1.4485         estimate D2E/DX2                !
 ! R38   R(35,36)                0.8195         estimate D2E/DX2                !
 ! A1    A(2,1,10)             120.1154         estimate D2E/DX2                !
 ! A2    A(2,1,35)             117.5649         estimate D2E/DX2                !
 ! A3    A(10,1,35)            122.3196         estimate D2E/DX2                !
 ! A4    A(1,2,3)              119.6861         estimate D2E/DX2                !
 ! A5    A(1,2,4)              120.5995         estimate D2E/DX2                !
 ! A6    A(3,2,4)              119.7144         estimate D2E/DX2                !
 ! A7    A(2,4,5)              119.9503         estimate D2E/DX2                !
 ! A8    A(2,4,6)              120.117          estimate D2E/DX2                !
 ! A9    A(5,4,6)              119.9326         estimate D2E/DX2                !
 ! A10   A(4,6,7)              120.0366         estimate D2E/DX2                !
 ! A11   A(4,6,8)              119.8997         estimate D2E/DX2                !
 ! A12   A(7,6,8)              120.0636         estimate D2E/DX2                !
 ! A13   A(6,8,9)              119.1556         estimate D2E/DX2                !
 ! A14   A(6,8,10)             121.6699         estimate D2E/DX2                !
 ! A15   A(9,8,10)             119.1744         estimate D2E/DX2                !
 ! A16   A(1,10,8)             117.5679         estimate D2E/DX2                !
 ! A17   A(1,10,11)            119.2805         estimate D2E/DX2                !
 ! A18   A(8,10,11)            123.1514         estimate D2E/DX2                !
 ! A19   A(10,11,12)           120.4926         estimate D2E/DX2                !
 ! A20   A(10,11,37)           119.1519         estimate D2E/DX2                !
 ! A21   A(12,11,37)           120.3508         estimate D2E/DX2                !
 ! A22   A(11,12,13)           119.1436         estimate D2E/DX2                !
 ! A23   A(11,12,14)           121.7782         estimate D2E/DX2                !
 ! A24   A(13,12,14)           119.0781         estimate D2E/DX2                !
 ! A25   A(12,14,15)           115.9103         estimate D2E/DX2                !
 ! A26   A(12,14,16)           128.1169         estimate D2E/DX2                !
 ! A27   A(15,14,16)           115.9727         estimate D2E/DX2                !
 ! A28   A(14,16,17)           123.5487         estimate D2E/DX2                !
 ! A29   A(14,16,24)           120.0483         estimate D2E/DX2                !
 ! A30   A(17,16,24)           116.3683         estimate D2E/DX2                !
 ! A31   A(16,17,18)           118.9185         estimate D2E/DX2                !
 ! A32   A(16,17,19)           122.1121         estimate D2E/DX2                !
 ! A33   A(18,17,19)           118.9694         estimate D2E/DX2                !
 ! A34   A(17,19,20)           119.4544         estimate D2E/DX2                !
 ! A35   A(17,19,21)           121.1354         estimate D2E/DX2                !
 ! A36   A(20,19,21)           119.4102         estimate D2E/DX2                !
 ! A37   A(19,21,22)           116.904          estimate D2E/DX2                !
 ! A38   A(19,21,34)           121.4433         estimate D2E/DX2                !
 ! A39   A(22,21,34)           121.6523         estimate D2E/DX2                !
 ! A40   A(21,22,23)           119.694          estimate D2E/DX2                !
 ! A41   A(21,22,24)           120.7157         estimate D2E/DX2                !
 ! A42   A(23,22,24)           119.5903         estimate D2E/DX2                !
 ! A43   A(16,24,22)           122.7539         estimate D2E/DX2                !
 ! A44   A(16,24,25)           118.6533         estimate D2E/DX2                !
 ! A45   A(22,24,25)           118.5928         estimate D2E/DX2                !
 ! A46   A(27,26,28)           109.4702         estimate D2E/DX2                !
 ! A47   A(27,26,29)           109.473          estimate D2E/DX2                !
 ! A48   A(27,26,34)           109.4676         estimate D2E/DX2                !
 ! A49   A(28,26,29)           109.4824         estimate D2E/DX2                !
 ! A50   A(28,26,34)           109.4364         estimate D2E/DX2                !
 ! A51   A(29,26,34)           109.4978         estimate D2E/DX2                !
 ! A52   A(31,30,32)           109.4632         estimate D2E/DX2                !
 ! A53   A(31,30,33)           109.4512         estimate D2E/DX2                !
 ! A54   A(31,30,34)           109.4809         estimate D2E/DX2                !
 ! A55   A(32,30,33)           109.5208         estimate D2E/DX2                !
 ! A56   A(32,30,34)           109.4647         estimate D2E/DX2                !
 ! A57   A(33,30,34)           109.4466         estimate D2E/DX2                !
 ! A58   A(21,34,26)           120.8957         estimate D2E/DX2                !
 ! A59   A(21,34,30)           121.3871         estimate D2E/DX2                !
 ! A60   A(26,34,30)           117.5811         estimate D2E/DX2                !
 ! A61   A(1,35,36)            109.4627         estimate D2E/DX2                !
 ! D1    D(10,1,2,3)          -178.5349         estimate D2E/DX2                !
 ! D2    D(10,1,2,4)             1.5263         estimate D2E/DX2                !
 ! D3    D(35,1,2,3)             1.5316         estimate D2E/DX2                !
 ! D4    D(35,1,2,4)          -178.4072         estimate D2E/DX2                !
 ! D5    D(2,1,10,8)            -1.7311         estimate D2E/DX2                !
 ! D6    D(2,1,10,11)          178.1108         estimate D2E/DX2                !
 ! D7    D(35,1,10,8)          178.1992         estimate D2E/DX2                !
 ! D8    D(35,1,10,11)          -1.959          estimate D2E/DX2                !
 ! D9    D(2,1,35,36)         -176.0939         estimate D2E/DX2                !
 ! D10   D(10,1,35,36)           3.9742         estimate D2E/DX2                !
 ! D11   D(1,2,4,5)           -179.9826         estimate D2E/DX2                !
 ! D12   D(1,2,4,6)             -0.0109         estimate D2E/DX2                !
 ! D13   D(3,2,4,5)              0.0787         estimate D2E/DX2                !
 ! D14   D(3,2,4,6)           -179.9497         estimate D2E/DX2                !
 ! D15   D(2,4,6,7)            178.7329         estimate D2E/DX2                !
 ! D16   D(2,4,6,8)             -1.2555         estimate D2E/DX2                !
 ! D17   D(5,4,6,7)             -1.2954         estimate D2E/DX2                !
 ! D18   D(5,4,6,8)            178.7161         estimate D2E/DX2                !
 ! D19   D(4,6,8,9)           -178.996          estimate D2E/DX2                !
 ! D20   D(4,6,8,10)             1.0107         estimate D2E/DX2                !
 ! D21   D(7,6,8,9)              1.0156         estimate D2E/DX2                !
 ! D22   D(7,6,8,10)          -178.9777         estimate D2E/DX2                !
 ! D23   D(6,8,10,1)             0.4778         estimate D2E/DX2                !
 ! D24   D(6,8,10,11)         -179.3574         estimate D2E/DX2                !
 ! D25   D(9,8,10,1)          -179.5155         estimate D2E/DX2                !
 ! D26   D(9,8,10,11)            0.6493         estimate D2E/DX2                !
 ! D27   D(1,10,11,12)         177.9229         estimate D2E/DX2                !
 ! D28   D(1,10,11,37)          -1.2861         estimate D2E/DX2                !
 ! D29   D(8,10,11,12)          -2.2446         estimate D2E/DX2                !
 ! D30   D(8,10,11,37)         178.5464         estimate D2E/DX2                !
 ! D31   D(10,11,12,13)         -3.135          estimate D2E/DX2                !
 ! D32   D(10,11,12,14)        176.8705         estimate D2E/DX2                !
 ! D33   D(37,11,12,13)        176.0645         estimate D2E/DX2                !
 ! D34   D(37,11,12,14)         -3.9301         estimate D2E/DX2                !
 ! D35   D(11,12,14,15)         -3.5724         estimate D2E/DX2                !
 ! D36   D(11,12,14,16)        176.3909         estimate D2E/DX2                !
 ! D37   D(13,12,14,15)        176.433          estimate D2E/DX2                !
 ! D38   D(13,12,14,16)         -3.6037         estimate D2E/DX2                !
 ! D39   D(12,14,16,17)         -2.8141         estimate D2E/DX2                !
 ! D40   D(12,14,16,24)        179.4097         estimate D2E/DX2                !
 ! D41   D(15,14,16,17)        177.1491         estimate D2E/DX2                !
 ! D42   D(15,14,16,24)         -0.627          estimate D2E/DX2                !
 ! D43   D(14,16,17,18)          2.273          estimate D2E/DX2                !
 ! D44   D(14,16,17,19)       -177.7248         estimate D2E/DX2                !
 ! D45   D(24,16,17,18)       -179.8754         estimate D2E/DX2                !
 ! D46   D(24,16,17,19)          0.1267         estimate D2E/DX2                !
 ! D47   D(14,16,24,22)        178.3432         estimate D2E/DX2                !
 ! D48   D(14,16,24,25)         -1.6384         estimate D2E/DX2                !
 ! D49   D(17,16,24,22)          0.4117         estimate D2E/DX2                !
 ! D50   D(17,16,24,25)       -179.5699         estimate D2E/DX2                !
 ! D51   D(16,17,19,20)        179.063          estimate D2E/DX2                !
 ! D52   D(16,17,19,21)         -0.9712         estimate D2E/DX2                !
 ! D53   D(18,17,19,20)         -0.9349         estimate D2E/DX2                !
 ! D54   D(18,17,19,21)        179.0309         estimate D2E/DX2                !
 ! D55   D(17,19,21,22)          1.2376         estimate D2E/DX2                !
 ! D56   D(17,19,21,34)       -178.5489         estimate D2E/DX2                !
 ! D57   D(20,19,21,22)       -178.7965         estimate D2E/DX2                !
 ! D58   D(20,19,21,34)          1.417          estimate D2E/DX2                !
 ! D59   D(19,21,22,23)        179.2867         estimate D2E/DX2                !
 ! D60   D(19,21,22,24)         -0.711          estimate D2E/DX2                !
 ! D61   D(34,21,22,23)         -0.9273         estimate D2E/DX2                !
 ! D62   D(34,21,22,24)        179.0751         estimate D2E/DX2                !
 ! D63   D(19,21,34,26)         -0.5944         estimate D2E/DX2                !
 ! D64   D(19,21,34,30)        175.0625         estimate D2E/DX2                !
 ! D65   D(22,21,34,26)        179.6293         estimate D2E/DX2                !
 ! D66   D(22,21,34,30)         -4.7138         estimate D2E/DX2                !
 ! D67   D(21,22,24,16)         -0.1028         estimate D2E/DX2                !
 ! D68   D(21,22,24,25)        179.8788         estimate D2E/DX2                !
 ! D69   D(23,22,24,16)        179.8996         estimate D2E/DX2                !
 ! D70   D(23,22,24,25)         -0.1188         estimate D2E/DX2                !
 ! D71   D(27,26,34,21)        -59.5025         estimate D2E/DX2                !
 ! D72   D(27,26,34,30)        124.6801         estimate D2E/DX2                !
 ! D73   D(28,26,34,21)       -179.4777         estimate D2E/DX2                !
 ! D74   D(28,26,34,30)          4.7049         estimate D2E/DX2                !
 ! D75   D(29,26,34,21)         60.5136         estimate D2E/DX2                !
 ! D76   D(29,26,34,30)       -115.3037         estimate D2E/DX2                !
 ! D77   D(31,30,34,21)        -55.3668         estimate D2E/DX2                !
 ! D78   D(31,30,34,26)        120.4288         estimate D2E/DX2                !
 ! D79   D(32,30,34,21)       -175.3589         estimate D2E/DX2                !
 ! D80   D(32,30,34,26)          0.4367         estimate D2E/DX2                !
 ! D81   D(33,30,34,21)         64.5995         estimate D2E/DX2                !
 ! D82   D(33,30,34,26)       -119.6049         estimate D2E/DX2                !
 --------------------------------------------------------------------------------
 Trust Radius=3.00D-01 FncErr=1.00D-07 GrdErr=1.00D-06
 Number of steps in this run=    191 maximum allowed number of steps=    222.
 GradGradGradGradGradGradGradGradGradGradGradGradGradGradGradGradGradGrad

                          Input orientation:                          
 ---------------------------------------------------------------------
 Center     Atomic      Atomic             Coordinates (Angstroms)
 Number     Number       Type             X           Y           Z
 ---------------------------------------------------------------------
      1          6           0        4.930290    3.444450    4.515000
      2          6           0        3.704210    2.844830    4.263010
      3          1           0        2.997070    2.977510    4.851870
      4          6           0        3.526740    2.057000    3.153320
      5          1           0        2.701720    1.660000    2.993210
      6          6           0        4.571720    1.853460    2.273690
      7          1           0        4.455400    1.305170    1.531460
      8          6           0        5.780210    2.460380    2.496320
      9          1           0        6.472140    2.327500    1.890150
     10          6           0        5.998650    3.274740    3.612990
     11          6           0        7.279600    3.953760    3.877000
     12          6           0        8.411790    3.761530    2.989270
     13          1           0        8.332730    3.169840    2.275830
     14          6           0        9.571920    4.415350    3.170080
     15          1           0        9.586000    5.033480    3.864630
     16          6           0       10.798530    4.277430    2.421550
     17          6           0       10.971550    3.354860    1.383370
     18          1           0       10.254060    2.818090    1.134540
     19          6           0       12.160530    3.217770    0.724130
     20          1           0       12.238270    2.583590    0.048350
     21          6           0       13.274120    4.023490    1.050880
     22          6           0       13.106370    4.945130    2.096140
     23          1           0       13.817280    5.488080    2.350040
     24          6           0       11.904340    5.054050    2.748080
     25          1           0       11.826460    5.673210    3.437350
     26          6           0       14.611130    2.949330   -0.693320
     27          1           0       14.455790    2.065230   -0.354190
     28          1           0       15.503210    3.005280   -1.044590
     29          1           0       13.979800    3.140010   -1.390910
     30          6           0       15.559900    4.809270    0.642040
     31          1           0       15.268770    5.717430    0.532980
     32          1           0       16.273720    4.626190    0.026990
     33          1           0       15.869940    4.678650    1.541580
     34          7           0       14.453490    3.912310    0.378250
     35          8           0        5.046150    4.178380    5.638970
     36          1           0        5.787680    4.526430    5.662580
     37          8           0        7.384370    4.688720    4.887290
 ---------------------------------------------------------------------
                    Distance matrix (angstroms):
                    1          2          3          4          5
     1  C    0.000000
     2  C    1.387918   0.000000
     3  H    2.017140   0.929735   0.000000
     4  C    2.397737   1.372437   2.003238   0.000000
     5  H    3.235217   2.005293   2.297320   0.929463   0.000000
     6  C    2.771875   2.385955   3.223356   1.381000   2.012967
     7  H    3.701831   3.224315   3.993566   2.014470   2.310414
     8  C    2.401214   2.752957   3.682650   2.381699   3.219411
     9  H    3.242640   3.682327   4.611985   3.216232   3.984767
    10  C    1.408480   2.423180   3.260775   2.793658   3.723071
    11  C    2.487106   3.763262   4.499278   4.266775   5.196095
    12  C    3.814346   4.962264   5.779547   5.176490   6.084517
    13  H    4.082388   5.047545   5.928089   5.010583   5.873885
    14  C    4.929116   6.171795   6.937179   6.488936   7.404248
    15  H    4.962221   6.288430   6.972493   6.788227   7.715766
    16  C    6.285907   7.468112   8.273997   7.638372   8.528544
    17  C    6.805289   7.833689   8.704322   7.761595   8.593848
    18  H    6.337378   7.258690   8.155235   7.064812   7.863439
    19  C    8.166912   9.174536  10.053107   9.043820   9.851115
    20  H    8.608055   9.521648  10.422512   9.263309  10.023523
    21  C    9.052895  10.163178  11.007241  10.163599  11.006106
    22  C    8.657437   9.874573  10.661310  10.061224  10.947765
    23  H    9.372410  10.626402  11.385915  10.877168  11.773850
    24  C    7.372258   8.626575   9.384957   8.906779   9.811620
    25  H    7.327064   8.640162   9.339475   9.057759   9.978176
    26  C   11.004109  11.980694  12.869977  11.766758  12.533432
    27  H   10.786399  11.727011  12.618937  11.478102  12.228142
    28  H   11.953600  12.938808  13.826516  12.726253  13.490432
    29  H   10.810462  11.732080  12.634044  11.449428  12.190407
    30  C   11.395225  12.551009  13.375452  12.596764  13.445397
    31  H   11.309602  12.486152  13.294909  12.575381  13.433027
    32  H   12.256107  13.383187  14.222062  13.373862  14.205489
    33  H   11.403527  12.600558  13.400100  12.721059  13.587549
    34  N   10.393408  11.479455  12.334370  11.425281  12.248062
    35  O    1.347362   2.339321   2.502068   3.603792   4.340350
    36  H    1.795199   3.021162   3.293009   4.184055   4.986492
    37  O    2.776566   4.163320   4.709341   4.981356   5.889643
                    6          7          8          9         10
     6  C    0.000000
     7  H    0.930085   0.000000
     8  C    1.370534   2.005140   0.000000
     9  H    1.995849   2.289336   0.929444   0.000000
    10  C    2.418655   3.254780   1.399232   2.022284   0.000000
    11  C    3.783448   4.526886   2.526783   2.691521   1.473636
    12  C    4.347289   4.879748   2.976778   2.650802   2.539535
    13  H    3.984728   4.366322   2.658441   2.078480   2.692012
    14  C    5.689358   6.207823   4.318903   3.950440   3.776959
    15  H    6.147082   6.757739   4.793449   4.573513   4.003195
    16  C    6.683611   7.061295   5.337677   4.775172   5.046163
    17  C    6.633604   6.832523   5.384121   4.642950   5.450446
    18  H    5.875131   6.005908   4.690174   3.887743   4.945681
    19  C    7.864637   7.979903   6.665042   5.874518   6.805698
    20  H    8.016309   8.025400   6.907552   6.058553   7.219225
    21  C    9.051854   9.240673   7.790462   7.060290   7.749677
    22  C    9.079108   9.402524   7.746402   7.134944   7.457260
    23  H    9.934620  10.286477   8.589695   8.009485   8.223436
    24  C    8.014745   8.427394   6.655485   6.138315   6.228257
    25  H    8.281054   8.777512   6.911219   6.500488   6.304512
    26  C   10.525865  10.525766   9.402022   8.561784   9.634574
    27  H   10.229635  10.204958   9.140418   8.297259   9.419376
    28  H   11.481949  11.470855  10.362031   9.520100  10.587838
    29  H   10.178235  10.130206   9.099765   8.233498   9.421036
    30  C   11.495181  11.678172  10.227315   9.502860  10.129108
    31  H   11.505964  11.721517  10.222321   9.524402  10.069177
    32  H   12.234071  12.367914  10.995548  10.238472  10.966443
    33  H   11.669081  11.902613  10.374724   9.693712  10.183519
    34  N   10.270391  10.396580   9.045447   8.276437   9.074930
    35  O    4.117699   5.047372   3.656038   4.417336   2.414211
    36  H    4.484184   5.405334   3.780717   4.419842   2.410820
    37  O    4.772903   5.593646   3.640819   3.923056   2.354443
                   11         12         13         14         15
    11  C    0.000000
    12  C    1.451507   0.000000
    13  H    2.070594   0.930239   0.000000
    14  C    2.442853   1.343903   1.971439   0.000000
    15  H    2.546651   1.939815   2.751023   0.929883   0.000000
    16  C    3.821775   2.506988   2.707057   1.443569   2.030842
    17  C    4.495260   3.049044   2.791789   2.505182   3.300631
    18  H    4.202172   2.779220   2.262251   2.675813   3.578778
    19  C    5.857111   4.413568   4.130632   3.757362   4.448342
    20  H    6.412826   4.967746   4.534159   4.495549   5.253617
    21  C    6.627676   5.241014   5.162030   4.283789   4.747578
    22  C    6.172967   4.923177   5.096232   3.731803   3.940605
    23  H    6.886727   5.710421   5.954833   4.454918   4.517120
    24  C    4.886033   3.731848   4.065669   2.454833   2.573287
    25  H    4.880956   3.938942   4.452206   2.595495   2.368857
    26  C    8.697588   7.256236   6.948581   6.516802   7.097219
    27  H    8.542085   7.112390   6.754927   6.464962   7.093927
    28  H    9.630650   8.193423   7.903673   7.411609   7.951567
    29  H    8.561877   7.111610   6.733147   6.469817   7.107138
    30  C    8.930858   7.596231   7.588741   6.511687   6.791380
    31  H    8.838543   7.541689   7.591864   6.411225   6.622806
    32  H    9.806576   8.445868   8.380785   7.405241   7.721332
    33  H    8.931606   7.652510   7.721733   6.510483   6.708977
    34  N    7.981708   6.583487   6.451029   5.645980   6.091332
    35  O    2.853645   4.303743   4.809311   5.160830   4.948709
    36  H    2.396262   3.823299   4.448336   4.532700   4.232843
    37  O    1.253726   2.348990   3.166403   2.794444   2.451911
                   16         17         18         19         20
    16  C    0.000000
    17  C    1.399603   0.000000
    18  H    2.020524   0.929963   0.000000
    19  C    2.420570   1.366406   1.990680   0.000000
    20  H    3.251772   1.995424   2.274179   0.930003   0.000000
    21  C    2.841086   2.420629   3.252807   1.412810   2.037490
    22  C    2.424426   2.755804   3.685735   2.400166   3.244058
    23  H    3.253250   3.685547   4.615498   3.246954   4.028289
    24  C    1.390171   2.370607   3.213480   2.744801   3.674673
    25  H    2.009152   3.213168   3.990875   3.674555   4.604417
    26  C    5.099234   4.209945   4.726770   2.843706   2.512828
    27  H    5.096480   4.101486   4.520802   2.785559   2.312603
    28  H    5.980511   5.152974   5.686583   3.787748   3.468742
    29  H    5.094021   4.097848   4.512501   2.790911   2.326800
    30  C    5.110788   4.870096   5.688523   3.754374   4.042196
    31  H    5.061950   4.977047   5.823690   3.993244   4.386314
    32  H    5.986089   5.618634   6.382178   4.403179   4.523000
    33  H    5.162802   5.076581   5.930048   4.069658   4.450622
    34  N    4.203227   3.666732   4.405054   2.420678   2.604137
    35  O    6.591774   7.341572   7.018732   8.700162   9.247972
    36  H    5.972846   6.823249   6.585600   8.167870   8.769511
    37  O    4.231492   5.188882   5.081093   6.504406   7.169885
                   21         22         23         24         25
    21  C    0.000000
    22  C    1.403613   0.000000
    23  H    2.031714   0.929867   0.000000
    24  C    2.412227   1.371775   2.001539   0.000000
    25  H    3.242304   1.991762   2.275935   0.929794   0.000000
    26  C    2.446150   3.745478   4.041966   4.857962   5.677706
    27  H    2.684278   4.014832   4.408680   5.006698   5.857190
    28  H    3.224374   4.401369   4.531023   5.615485   6.381546
    29  H    2.690885   4.022543   4.419791   5.010222   5.862258
    30  C    2.451406   2.855289   2.532740   4.225925   4.743282
    31  H    2.667636   2.777749   2.336906   4.082417   4.504089
    32  H    3.226329   3.796737   3.489056   5.165160   5.701309
    33  H    2.721820   2.831231   2.349936   4.162037   4.575240
    34  N    1.362243   2.415077   2.603031   3.663036   4.400017
    35  O    9.421998   8.837799   9.458599   7.493918   7.283835
    36  H    8.807242   8.152179   8.739117   6.796045   6.537095
    37  O    7.060434   6.371621   6.961246   5.013962   4.775323
                   26         27         28         29         30
    26  C    0.000000
    27  H    0.959569   0.000000
    28  H    0.960379   1.567621   0.000000
    29  H    0.959983   1.567325   1.568078   0.000000
    30  C    2.478453   3.121104   2.470286   3.068555   0.000000
    31  H    3.098174   3.845331   3.146339   3.464952   0.959899
    32  H    2.468787   3.163650   2.090292   3.079162   0.959867
    33  H    3.093530   3.524731   3.102085   3.813075   0.960395
    34  N    1.449291   1.987002   1.987232   1.987651   1.448539
    35  O   11.536780  11.354501  12.465803  11.415232  11.657884
    36  H   10.988084  10.834905  11.903426  10.898840  10.990091
    37  O    9.294877   9.184813  10.194937   9.236558   9.212816
                   31         32         33         34         35
    31  H    0.000000
    32  H    1.567404   0.000000
    33  H    1.567719   1.568366   0.000000
    34  N    1.986726   1.986516   1.986692   0.000000
    35  O   11.530038  12.559983  11.584183  10.781652   0.000000
    36  H   10.845384  11.904909  10.893015  10.168459   0.819489
    37  O    9.065430  10.131484   9.121336   8.420612   2.508534
                   36         37
    36  H    0.000000
    37  O    1.782367   0.000000
 Stoichiometry    C17H17NO2
 Framework group  C1[X(C17H17NO2)]
 Deg. of freedom   105
 Full point group                 C1      NOp   1
 Largest Abelian subgroup         C1      NOp   1
 Largest concise Abelian subgroup C1      NOp   1
                         Standard orientation:                         
 ---------------------------------------------------------------------
 Center     Atomic      Atomic             Coordinates (Angstroms)
 Number     Number       Type             X           Y           Z
 ---------------------------------------------------------------------
      1          6           0        4.758063   -0.463507    0.081278
      2          6           0        5.883795    0.346565    0.028116
      3          1           0        6.729611   -0.037229    0.069407
      4          6           0        5.759589    1.708800   -0.083571
      5          1           0        6.519584    2.242728   -0.118657
      6          6           0        4.507286    2.287751   -0.144519
      7          1           0        4.424130    3.212298   -0.202444
      8          6           0        3.387512    1.497920   -0.119277
      9          1           0        2.550200    1.897501   -0.175042
     10          6           0        3.472966    0.105460   -0.011557
     11          6           0        2.291795   -0.775544    0.004799
     12          6           0        0.953905   -0.214711   -0.044080
     13          1           0        0.849809    0.709681   -0.041488
     14          6           0       -0.139224   -0.994942   -0.092899
     15          1           0        0.016808   -1.910133   -0.145453
     16          6           0       -1.524673   -0.589929   -0.073224
     17          6           0       -1.939944    0.739918    0.060740
     18          1           0       -1.296215    1.409259    0.110006
     19          6           0       -3.260425    1.085906    0.121459
     20          1           0       -3.494641    1.980087    0.223880
     21          6           0       -4.276596    0.108576    0.030602
     22          6           0       -3.863809   -1.226889   -0.096956
     23          1           0       -4.500304   -1.902710   -0.149806
     24          6           0       -2.530686   -1.546708   -0.144539
     25          1           0       -2.290323   -2.441036   -0.227730
     26          6           0       -6.003062    1.833046    0.201380
     27          1           0       -5.655075    2.187377    1.022432
     28          1           0       -6.962032    1.884026    0.211705
     29          1           0       -5.663223    2.343725   -0.537054
     30          6           0       -6.634805   -0.539431   -0.137713
     31          1           0       -6.490003   -0.993017   -0.971198
     32          1           0       -7.490527   -0.104919   -0.154504
     33          1           0       -6.612203   -1.176068    0.580995
     34          7           0       -5.595152    0.449436    0.061105
     35          8           0        4.950224   -1.789427    0.224086
     36          1           0        4.227903   -2.175100    0.191349
     37          8           0        2.456331   -2.016350    0.076618
 ---------------------------------------------------------------------
 Rotational constants (GHZ):      1.1252962      0.1079274      0.0987141
 Standard basis: 6-311++G(d,p) (5D, 7F)
 There are   559 symmetry adapted basis functions of A   symmetry.
 Integral buffers will be    131072 words long.
 Raffenetti 2 integral format.
 Two-electron integral symmetry is turned on.
   559 basis functions,   873 primitive gaussians,   579 cartesian basis functions
    71 alpha electrons       71 beta electrons
       nuclear repulsion energy      1378.9403891085 Hartrees.
 NAtoms=   37 NActive=   37 NUniq=   37 SFac= 1.00D+00 NAtFMM=   60 NAOKFM=F Big=F
 Nuclear repulsion after empirical dispersion term =     1378.9171546193 Hartrees.
 One-electron integrals computed using PRISM.
 NBasis=   559 RedAO= T  NBF=   559
 NBsUse=   553 1.00D-06 NBFU=   553
 Harris functional with IExCor= 4639 diagonalized for initial guess.
 ExpMin= 3.60D-02 ExpMax= 8.59D+03 ExpMxC= 1.30D+03 IAcc=3 IRadAn=         5 AccDes= 0.00D+00
 HarFok:  IExCor= 4639 AccDes= 0.00D+00 IRadAn=         5 IDoV= 1
 ScaDFX=  1.000000  1.000000  1.000000  1.000000
 FoFCou: FMM=F IPFlag=           0 FMFlag=      100000 FMFlg1=           0
         NFxFlg=           0 DoJE=T BraDBF=F KetDBF=T FulRan=T
         Omega=  0.000000  0.000000  1.000000  0.000000  0.000000 ICntrl=     500 IOpCl=  0
         NMat0=    1 NMatS0=    1 NMatT0=    0 NMatD0=    1 NMtDS0=    0 NMtDT0=    0
         I1Cent=           4 NGrid=           0.
 Petite list used in FoFCou.
 Initial guess orbital symmetries:
       Occupied  (A) (A) (A) (A) (A) (A) (A) (A) (A) (A) (A) (A)
                 (A) (A) (A) (A) (A) (A) (A) (A) (A) (A) (A) (A)
                 (A) (A) (A) (A) (A) (A) (A) (A) (A) (A) (A) (A)
                 (A) (A) (A) (A) (A) (A) (A) (A) (A) (A) (A) (A)
                 (A) (A) (A) (A) (A) (A) (A) (A) (A) (A) (A) (A)
                 (A) (A) (A) (A) (A) (A) (A) (A) (A) (A) (A)
       Virtual   (A) (A) (A) (A) (A) (A) (A) (A) (A) (A) (A) (A)
                 (A) (A) (A) (A) (A) (A) (A) (A) (A) (A) (A) (A)
                 (A) (A) (A) (A) (A) (A) (A) (A) (A) (A) (A) (A)
                 (A) (A) (A) (A) (A) (A) (A) (A) (A) (A) (A) (A)
                 (A) (A) (A) (A) (A) (A) (A) (A) (A) (A) (A) (A)
                 (A) (A) (A) (A) (A) (A) (A) (A) (A) (A) (A) (A)
                 (A) (A) (A) (A) (A) (A) (A) (A) (A) (A) (A) (A)
                 (A) (A) (A) (A) (A) (A) (A) (A) (A) (A) (A) (A)
                 (A) (A) (A) (A) (A) (A) (A) (A) (A) (A) (A) (A)
                 (A) (A) (A) (A) (A) (A) (A) (A) (A) (A) (A) (A)
                 (A) (A) (A) (A) (A) (A) (A) (A) (A) (A) (A) (A)
                 (A) (A) (A) (A) (A) (A) (A) (A) (A) (A) (A) (A)
                 (A) (A) (A) (A) (A) (A) (A) (A) (A) (A) (A) (A)
                 (A) (A) (A) (A) (A) (A) (A) (A) (A) (A) (A) (A)
                 (A) (A) (A) (A) (A) (A) (A) (A) (A) (A) (A) (A)
                 (A) (A) (A) (A) (A) (A) (A) (A) (A) (A) (A) (A)
                 (A) (A) (A) (A) (A) (A) (A) (A) (A) (A) (A) (A)
                 (A) (A) (A) (A) (A) (A) (A) (A) (A) (A) (A) (A)
                 (A) (A) (A) (A) (A) (A) (A) (A) (A) (A) (A) (A)
                 (A) (A) (A) (A) (A) (A) (A) (A) (A) (A) (A) (A)
                 (A) (A) (A) (A) (A) (A) (A) (A) (A) (A) (A) (A)
                 (A) (A) (A) (A) (A) (A) (A) (A) (A) (A) (A) (A)
                 (A) (A) (A) (A) (A) (A) (A) (A) (A) (A) (A) (A)
                 (A) (A) (A) (A) (A) (A) (A) (A) (A) (A) (A) (A)
                 (A) (A) (A) (A) (A) (A) (A) (A) (A) (A) (A) (A)
                 (A) (A) (A) (A) (A) (A) (A) (A) (A) (A) (A) (A)
                 (A) (A) (A) (A) (A) (A) (A) (A) (A) (A) (A) (A)
                 (A) (A) (A) (A) (A) (A) (A) (A) (A) (A) (A) (A)
                 (A) (A) (A) (A) (A) (A) (A) (A) (A) (A) (A) (A)
                 (A) (A) (A) (A) (A) (A) (A) (A) (A) (A) (A) (A)
                 (A) (A) (A) (A) (A) (A) (A) (A) (A) (A) (A) (A)
                 (A) (A) (A) (A) (A) (A) (A) (A) (A) (A) (A) (A)
                 (A) (A) (A) (A) (A) (A) (A) (A) (A) (A) (A) (A)
                 (A) (A) (A) (A) (A) (A) (A) (A) (A) (A) (A) (A)
                 (A) (A) (A) (A) (A) (A) (A) (A) (A) (A) (A) (A)
                 (A) (A) (A) (A) (A) (A) (A) (A) (A) (A) (A) (A)
                 (A) (A) (A) (A) (A) (A) (A) (A) (A) (A) (A) (A)
                 (A) (A) (A) (A) (A) (A) (A) (A) (A) (A) (A) (A)
                 (A) (A) (A) (A) (A) (A) (A) (A) (A) (A) (A) (A)
                 (A) (A) (A) (A) (A) (A) (A) (A) (A) (A) (A) (A)
                 (A) (A)
 The electronic state of the initial guess is 1-A.
 Requested convergence on RMS density matrix=1.00D-08 within 128 cycles.
 Requested convergence on MAX density matrix=1.00D-06.
 Requested convergence on             energy=1.00D-06.
 No special actions if energy rises.
 FoFJK:  IHMeth= 1 ICntrl=     0 DoSepK=T KAlg= 1 I1Cent= 0 FoldK=F
 FoFJK:  IHMeth= 1 ICntrl=     0 DoSepK=T KAlg= 1 I1Cent= 0 FoldK=F
 FoFJK:  IHMeth= 1 ICntrl=     0 DoSepK=T KAlg= 1 I1Cent= 0 FoldK=F
 FoFJK:  IHMeth= 1 ICntrl=     0 DoSepK=T KAlg= 1 I1Cent= 0 FoldK=F
 FoFJK:  IHMeth= 1 ICntrl=     0 DoSepK=T KAlg= 1 I1Cent= 0 FoldK=F
 FoFJK:  IHMeth= 1 ICntrl=     0 DoSepK=T KAlg= 1 I1Cent= 0 FoldK=F
 FoFJK:  IHMeth= 1 ICntrl=     0 DoSepK=T KAlg= 1 I1Cent= 0 FoldK=F
 FoFJK:  IHMeth= 1 ICntrl=     0 DoSepK=T KAlg= 1 I1Cent= 0 FoldK=F
 FoFJK:  IHMeth= 1 ICntrl=     0 DoSepK=T KAlg= 1 I1Cent= 0 FoldK=F
 FoFJK:  IHMeth= 1 ICntrl=     0 DoSepK=T KAlg= 1 I1Cent= 0 FoldK=F
 FoFJK:  IHMeth= 1 ICntrl=     0 DoSepK=T KAlg= 1 I1Cent= 0 FoldK=F
 FoFJK:  IHMeth= 1 ICntrl=     0 DoSepK=T KAlg= 1 I1Cent= 0 FoldK=F
 FoFJK:  IHMeth= 1 ICntrl=     0 DoSepK=T KAlg= 1 I1Cent= 0 FoldK=F
 FoFJK:  IHMeth= 1 ICntrl=     0 DoSepK=T KAlg= 1 I1Cent= 0 FoldK=F
 FoFJK:  IHMeth= 1 ICntrl=     0 DoSepK=T KAlg= 1 I1Cent= 0 FoldK=F
 FoFJK:  IHMeth= 1 ICntrl=     0 DoSepK=T KAlg= 1 I1Cent= 0 FoldK=F
 FoFJK:  IHMeth= 1 ICntrl=     0 DoSepK=T KAlg= 1 I1Cent= 0 FoldK=F
 SCF Done:  E(RwB97XD) =  -862.841444430     A.U. after   17 cycles
             Convg  =    0.6563D-08             -V/T =  1.9984
 ExpMin= 3.60D-02 ExpMax= 8.59D+03 ExpMxC= 1.30D+03 IAcc=3 IRadAn=         5 AccDes= 0.00D+00
 HarFok:  IExCor=  205 AccDes= 0.00D+00 IRadAn=         5 IDoV=-2
 ScaDFX=  1.000000  1.000000  1.000000  1.000000
 Range of M.O.s used for correlation:    21   553
 NBasis=   559 NAE=    71 NBE=    71 NFC=    20 NFV=     0
 NROrb=    533 NOA=    51 NOB=    51 NVA=   482 NVB=   482

 **** Warning!!: The largest alpha MO coefficient is  0.14317795D+03

 Would need an additional 42173800000 words for in-memory AO integral storage.
 Orbital symmetries:
       Occupied  (A) (A) (A) (A) (A) (A) (A) (A) (A) (A) (A) (A)
                 (A) (A) (A) (A) (A) (A) (A) (A) (A) (A) (A) (A)
                 (A) (A) (A) (A) (A) (A) (A) (A) (A) (A) (A) (A)
                 (A) (A) (A) (A) (A) (A) (A) (A) (A) (A) (A) (A)
                 (A) (A) (A) (A) (A) (A) (A) (A) (A) (A) (A) (A)
                 (A) (A) (A) (A) (A) (A) (A) (A) (A) (A) (A)
       Virtual   (A) (A) (A) (A) (A) (A) (A) (A) (A) (A) (A) (A)
                 (A) (A) (A) (A) (A) (A) (A) (A) (A) (A) (A) (A)
                 (A) (A) (A) (A) (A) (A) (A) (A) (A) (A) (A) (A)
                 (A) (A) (A) (A) (A) (A) (A) (A) (A) (A) (A) (A)
                 (A) (A) (A) (A) (A) (A) (A) (A) (A) (A) (A) (A)
                 (A) (A) (A) (A) (A) (A) (A) (A) (A) (A) (A) (A)
                 (A) (A) (A) (A) (A) (A) (A) (A) (A) (A) (A) (A)
                 (A) (A) (A) (A) (A) (A) (A) (A) (A) (A) (A) (A)
                 (A) (A) (A) (A) (A) (A) (A) (A) (A) (A) (A) (A)
                 (A) (A) (A) (A) (A) (A) (A) (A) (A) (A) (A) (A)
                 (A) (A) (A) (A) (A) (A) (A) (A) (A) (A) (A) (A)
                 (A) (A) (A) (A) (A) (A) (A) (A) (A) (A) (A) (A)
                 (A) (A) (A) (A) (A) (A) (A) (A) (A) (A) (A) (A)
                 (A) (A) (A) (A) (A) (A) (A) (A) (A) (A) (A) (A)
                 (A) (A) (A) (A) (A) (A) (A) (A) (A) (A) (A) (A)
                 (A) (A) (A) (A) (A) (A) (A) (A) (A) (A) (A) (A)
                 (A) (A) (A) (A) (A) (A) (A) (A) (A) (A) (A) (A)
                 (A) (A) (A) (A) (A) (A) (A) (A) (A) (A) (A) (A)
                 (A) (A) (A) (A) (A) (A) (A) (A) (A) (A) (A) (A)
                 (A) (A) (A) (A) (A) (A) (A) (A) (A) (A) (A) (A)
                 (A) (A) (A) (A) (A) (A) (A) (A) (A) (A) (A) (A)
                 (A) (A) (A) (A) (A) (A) (A) (A) (A) (A) (A) (A)
                 (A) (A) (A) (A) (A) (A) (A) (A) (A) (A) (A) (A)
                 (A) (A) (A) (A) (A) (A) (A) (A) (A) (A) (A) (A)
                 (A) (A) (A) (A) (A) (A) (A) (A) (A) (A) (A) (A)
                 (A) (A) (A) (A) (A) (A) (A) (A) (A) (A) (A) (A)
                 (A) (A) (A) (A) (A) (A) (A) (A) (A) (A) (A) (A)
                 (A) (A) (A) (A) (A) (A) (A) (A) (A) (A) (A) (A)
                 (A) (A) (A) (A) (A) (A) (A) (A) (A) (A) (A) (A)
                 (A) (A) (A) (A) (A) (A) (A) (A) (A) (A) (A) (A)
                 (A) (A) (A) (A) (A) (A) (A) (A) (A) (A) (A) (A)
                 (A) (A) (A) (A) (A) (A) (A) (A) (A) (A) (A) (A)
                 (A) (A) (A) (A) (A) (A) (A) (A) (A) (A) (A) (A)
                 (A) (A) (A) (A) (A) (A) (A) (A) (A) (A) (A) (A)
                 (A) (A) (A) (A) (A) (A) (A) (A) (A) (A) (A) (A)
                 (A) (A) (A) (A) (A) (A) (A) (A) (A) (A) (A) (A)
                 (A) (A) (A) (A) (A) (A) (A) (A) (A) (A) (A) (A)
                 (A) (A) (A) (A) (A) (A) (A) (A) (A) (A) (A) (A)
                 (A) (A) (A) (A) (A) (A) (A) (A) (A) (A) (A) (A)
                 (A) (A) (A) (A) (A) (A) (A) (A) (A) (A) (A) (A)
                 (A) (A)
     8 initial guesses have been made.
 Convergence on wavefunction:    0.000001000000000
 Iteration     1 Dimension     8 NMult     8
 CISAX will form     8 AO SS matrices at one time.
 FoFJK:  IHMeth= 1 ICntrl=     0 DoSepK=T KAlg= 1 I1Cent= 0 FoldK=F
 FoFJK:  IHMeth= 1 ICntrl=     0 DoSepK=T KAlg= 1 I1Cent= 0 FoldK=F
 Iteration     2 Dimension    12 NMult    12
 FoFJK:  IHMeth= 1 ICntrl=     0 DoSepK=T KAlg= 1 I1Cent= 0 FoldK=F
 FoFJK:  IHMeth= 1 ICntrl=     0 DoSepK=T KAlg= 1 I1Cent= 0 FoldK=F
 Iteration     3 Dimension    16 NMult    16
 FoFJK:  IHMeth= 1 ICntrl=     0 DoSepK=T KAlg= 1 I1Cent= 0 FoldK=F
 FoFJK:  IHMeth= 1 ICntrl=     0 DoSepK=T KAlg= 1 I1Cent= 0 FoldK=F
 Iteration     4 Dimension    20 NMult    20
 FoFJK:  IHMeth= 1 ICntrl=     0 DoSepK=T KAlg= 1 I1Cent= 0 FoldK=F
 FoFJK:  IHMeth= 1 ICntrl=     0 DoSepK=T KAlg= 1 I1Cent= 0 FoldK=F
 Iteration     5 Dimension    24 NMult    24
 FoFJK:  IHMeth= 1 ICntrl=     0 DoSepK=T KAlg= 1 I1Cent= 0 FoldK=F
 FoFJK:  IHMeth= 1 ICntrl=     0 DoSepK=T KAlg= 1 I1Cent= 0 FoldK=F
 Iteration     6 Dimension    28 NMult    28
 FoFJK:  IHMeth= 1 ICntrl=     0 DoSepK=T KAlg= 1 I1Cent= 0 FoldK=F
 FoFJK:  IHMeth= 1 ICntrl=     0 DoSepK=T KAlg= 1 I1Cent= 0 FoldK=F
 Iteration     7 Dimension    32 NMult    32
 FoFJK:  IHMeth= 1 ICntrl=     0 DoSepK=T KAlg= 1 I1Cent= 0 FoldK=F
 FoFJK:  IHMeth= 1 ICntrl=     0 DoSepK=T KAlg= 1 I1Cent= 0 FoldK=F
 Iteration     8 Dimension    36 NMult    36
 FoFJK:  IHMeth= 1 ICntrl=     0 DoSepK=T KAlg= 1 I1Cent= 0 FoldK=F
 FoFJK:  IHMeth= 1 ICntrl=     0 DoSepK=T KAlg= 1 I1Cent= 0 FoldK=F
 Iteration     9 Dimension    40 NMult    40
 FoFJK:  IHMeth= 1 ICntrl=     0 DoSepK=T KAlg= 1 I1Cent= 0 FoldK=F
 FoFJK:  IHMeth= 1 ICntrl=     0 DoSepK=T KAlg= 1 I1Cent= 0 FoldK=F
 Iteration    10 Dimension    44 NMult    44
 FoFJK:  IHMeth= 1 ICntrl=     0 DoSepK=T KAlg= 1 I1Cent= 0 FoldK=F
 FoFJK:  IHMeth= 1 ICntrl=     0 DoSepK=T KAlg= 1 I1Cent= 0 FoldK=F
 Iteration    11 Dimension    48 NMult    48
 FoFJK:  IHMeth= 1 ICntrl=     0 DoSepK=T KAlg= 1 I1Cent= 0 FoldK=F
 FoFJK:  IHMeth= 1 ICntrl=     0 DoSepK=T KAlg= 1 I1Cent= 0 FoldK=F
 Iteration    12 Dimension    52 NMult    52
 FoFJK:  IHMeth= 1 ICntrl=     0 DoSepK=T KAlg= 1 I1Cent= 0 FoldK=F
 FoFJK:  IHMeth= 1 ICntrl=     0 DoSepK=T KAlg= 1 I1Cent= 0 FoldK=F
 Iteration    13 Dimension    56 NMult    56
 FoFJK:  IHMeth= 1 ICntrl=     0 DoSepK=T KAlg= 1 I1Cent= 0 FoldK=F
 FoFJK:  IHMeth= 1 ICntrl=     0 DoSepK=T KAlg= 1 I1Cent= 0 FoldK=F
 Iteration    14 Dimension    60 NMult    60
 FoFJK:  IHMeth= 1 ICntrl=     0 DoSepK=T KAlg= 1 I1Cent= 0 FoldK=F
 FoFJK:  IHMeth= 1 ICntrl=     0 DoSepK=T KAlg= 1 I1Cent= 0 FoldK=F
 Iteration    15 Dimension    64 NMult    64
 FoFJK:  IHMeth= 1 ICntrl=     0 DoSepK=T KAlg= 1 I1Cent= 0 FoldK=F
 FoFJK:  IHMeth= 1 ICntrl=     0 DoSepK=T KAlg= 1 I1Cent= 0 FoldK=F
 ***********************************************************************
 Excited states from <AA,BB:AA,BB> singles matrix:
 ***********************************************************************
 
 Ground to excited state transition densities written to RWF  633
 Ground to excited state transition electric dipole moments (Au):
       state          X           Y           Z        Dip. S.      Osc.
         1         3.5581     -0.2024     -0.0058     12.7011      1.1226
 Ground to excited state transition velocity dipole moments (Au):
       state          X           Y           Z        Dip. S.      Osc.
         1        -0.4658      0.0291      0.0005      0.2178      1.0951
 Ground to excited state transition magnetic dipole moments (Au):
       state          X           Y           Z
         1        -0.0063      0.0030     -0.7844
 Ground to excited state transition velocity quadrupole moments (Au):
       state          XX          YY          ZZ          XY          XZ          YZ
         1         0.8106     -0.0955     -0.0018     -0.2809     -0.0231      0.0403
 <0|del|b> * <b|rxdel|0> + <0|del|b> * <b|delr+rdel|0>
 Rotatory Strengths (R) in cgs (10**-40 erg-esu-cm/Gauss)
       state          XX          YY          ZZ    R(velocity)
         1         0.4642    -42.9075     56.3050      4.6205
 1/2[<0|r|b>*<b|rxdel|0> + (<0|rxdel|b>*<b|r|0>)*]
 Rotatory Strengths (R) in cgs (10**-40 erg-esu-cm/Gauss)
       state          XX          YY          ZZ     R(length)
         1        15.8965      0.4240     -3.2426      4.3593
  1/2[<0|del|b>*<b|r|0> + (<0|r|b>*<b|del|0>)*] (Au)
       state          X           Y           Z        Dip. S.   Osc.(frdel)
         1        -1.6572     -0.0059      0.0000      1.6631      1.1087

 Excitation energies and oscillator strengths:
 
 Excited State   1:      Singlet-A      3.6076 eV  343.67 nm  f=1.1226  <S**2>=0.000
      66 -> 72        -0.11898
      69 -> 72        -0.10324
      70 -> 72         0.10430
      71 -> 72         0.65263
      71 -> 74         0.12565
 This state for optimization and/or second-order correction.
 Total Energy, E(TD-HF/TD-KS) =  -862.708865979    
 Copying the excited state density for this state as the 1-particle RhoCI density.
 SavETr:  write IOETrn=   770 NScale= 10 NData=  16 NLR=1 LETran=      28.
 FoFJK:  IHMeth= 1 ICntrl=     0 DoSepK=T KAlg= 1 I1Cent= 0 FoldK=F
 FoFJK:  IHMeth= 1 ICntrl=     0 DoSepK=T KAlg= 1 I1Cent= 0 FoldK=F
          IDoAtm=1111111111111111111111111111111111111
          Differentiating once with respect to electric field.
                with respect to dipole field.
          Differentiating once with respect to nuclear coordinates.
          There are     1 degrees of freedom in the 1st order CPHF.  IDoFFX=0.
 FoFJK:  IHMeth= 1 ICntrl=     0 DoSepK=T KAlg= 1 I1Cent= 0 FoldK=F
 LinEq1:  Iter=  0 NonCon=     1 RMS=3.04D-03 Max=3.48D-01
 AX will form     1 AO Fock derivatives at one time.
 FoFJK:  IHMeth= 1 ICntrl=     0 DoSepK=T KAlg= 1 I1Cent= 0 FoldK=F
 LinEq1:  Iter=  1 NonCon=     1 RMS=1.30D-03 Max=9.38D-02
 FoFJK:  IHMeth= 1 ICntrl=     0 DoSepK=T KAlg= 1 I1Cent= 0 FoldK=F
 LinEq1:  Iter=  2 NonCon=     1 RMS=6.55D-04 Max=4.16D-02
 FoFJK:  IHMeth= 1 ICntrl=     0 DoSepK=T KAlg= 1 I1Cent= 0 FoldK=F
 LinEq1:  Iter=  3 NonCon=     1 RMS=2.68D-04 Max=1.30D-02
 FoFJK:  IHMeth= 1 ICntrl=     0 DoSepK=T KAlg= 1 I1Cent= 0 FoldK=F
 LinEq1:  Iter=  4 NonCon=     1 RMS=1.81D-04 Max=1.11D-02
 FoFJK:  IHMeth= 1 ICntrl=     0 DoSepK=T KAlg= 1 I1Cent= 0 FoldK=F
 LinEq1:  Iter=  5 NonCon=     1 RMS=1.01D-04 Max=6.99D-03
 FoFJK:  IHMeth= 1 ICntrl=     0 DoSepK=T KAlg= 1 I1Cent= 0 FoldK=F
 LinEq1:  Iter=  6 NonCon=     1 RMS=4.88D-05 Max=3.89D-03
 FoFJK:  IHMeth= 1 ICntrl=     0 DoSepK=T KAlg= 1 I1Cent= 0 FoldK=F
 LinEq1:  Iter=  7 NonCon=     1 RMS=2.28D-05 Max=1.28D-03
 FoFJK:  IHMeth= 1 ICntrl=     0 DoSepK=T KAlg= 1 I1Cent= 0 FoldK=F
 LinEq1:  Iter=  8 NonCon=     1 RMS=1.40D-05 Max=7.63D-04
 FoFJK:  IHMeth= 1 ICntrl=     0 DoSepK=T KAlg= 1 I1Cent= 0 FoldK=F
 LinEq1:  Iter=  9 NonCon=     1 RMS=5.65D-06 Max=3.50D-04
 FoFJK:  IHMeth= 1 ICntrl=     0 DoSepK=T KAlg= 1 I1Cent= 0 FoldK=F
 LinEq1:  Iter= 10 NonCon=     1 RMS=2.36D-06 Max=1.57D-04
 FoFJK:  IHMeth= 1 ICntrl=     0 DoSepK=T KAlg= 1 I1Cent= 0 FoldK=F
 LinEq1:  Iter= 11 NonCon=     1 RMS=1.08D-06 Max=6.81D-05
 FoFJK:  IHMeth= 1 ICntrl=     0 DoSepK=T KAlg= 1 I1Cent= 0 FoldK=F
 LinEq1:  Iter= 12 NonCon=     1 RMS=4.68D-07 Max=2.62D-05
 FoFJK:  IHMeth= 1 ICntrl=     0 DoSepK=T KAlg= 1 I1Cent= 0 FoldK=F
 LinEq1:  Iter= 13 NonCon=     1 RMS=2.66D-07 Max=1.54D-05
 FoFJK:  IHMeth= 1 ICntrl=     0 DoSepK=T KAlg= 1 I1Cent= 0 FoldK=F
 LinEq1:  Iter= 14 NonCon=     1 RMS=8.96D-08 Max=2.70D-06
 FoFJK:  IHMeth= 1 ICntrl=     0 DoSepK=T KAlg= 1 I1Cent= 0 FoldK=F
 LinEq1:  Iter= 15 NonCon=     1 RMS=3.65D-08 Max=1.20D-06
 FoFJK:  IHMeth= 1 ICntrl=     0 DoSepK=T KAlg= 1 I1Cent= 0 FoldK=F
 LinEq1:  Iter= 16 NonCon=     1 RMS=1.80D-08 Max=1.30D-06
 FoFJK:  IHMeth= 1 ICntrl=     0 DoSepK=T KAlg= 1 I1Cent= 0 FoldK=F
 LinEq1:  Iter= 17 NonCon=     1 RMS=6.71D-09 Max=2.34D-07
 FoFJK:  IHMeth= 1 ICntrl=     0 DoSepK=T KAlg= 1 I1Cent= 0 FoldK=F
 LinEq1:  Iter= 18 NonCon=     1 RMS=3.09D-09 Max=1.47D-07
 FoFJK:  IHMeth= 1 ICntrl=     0 DoSepK=T KAlg= 1 I1Cent= 0 FoldK=F
 LinEq1:  Iter= 19 NonCon=     1 RMS=1.36D-09 Max=6.66D-08
 FoFJK:  IHMeth= 1 ICntrl=     0 DoSepK=T KAlg= 1 I1Cent= 0 FoldK=F
 LinEq1:  Iter= 20 NonCon=     1 RMS=7.10D-10 Max=4.54D-08
 FoFJK:  IHMeth= 1 ICntrl=     0 DoSepK=T KAlg= 1 I1Cent= 0 FoldK=F
 LinEq1:  Iter= 21 NonCon=     1 RMS=2.82D-10 Max=1.11D-08
 FoFJK:  IHMeth= 1 ICntrl=     0 DoSepK=T KAlg= 1 I1Cent= 0 FoldK=F
 LinEq1:  Iter= 22 NonCon=     1 RMS=1.35D-10 Max=5.83D-09
 FoFJK:  IHMeth= 1 ICntrl=     0 DoSepK=T KAlg= 1 I1Cent= 0 FoldK=F
 LinEq1:  Iter= 23 NonCon=     1 RMS=5.81D-11 Max=1.97D-09
 FoFJK:  IHMeth= 1 ICntrl=     0 DoSepK=T KAlg= 1 I1Cent= 0 FoldK=F
 LinEq1:  Iter= 24 NonCon=     0 RMS=2.80D-11 Max=7.75D-10
 Linear equations converged to 1.000D-10 1.000D-09 after    24 iterations.
 FoFJK:  IHMeth= 1 ICntrl=     0 DoSepK=T KAlg= 1 I1Cent= 0 FoldK=F
 End of Minotr Frequency-dependent properties file   721 does not exist.
 End of Minotr Frequency-dependent properties file   722 does not exist.

 **********************************************************************

            Population analysis using the SCF density.

 **********************************************************************

 Orbital symmetries:
       Occupied  (A) (A) (A) (A) (A) (A) (A) (A) (A) (A) (A) (A)
                 (A) (A) (A) (A) (A) (A) (A) (A) (A) (A) (A) (A)
                 (A) (A) (A) (A) (A) (A) (A) (A) (A) (A) (A) (A)
                 (A) (A) (A) (A) (A) (A) (A) (A) (A) (A) (A) (A)
                 (A) (A) (A) (A) (A) (A) (A) (A) (A) (A) (A) (A)
                 (A) (A) (A) (A) (A) (A) (A) (A) (A) (A) (A)
       Virtual   (A) (A) (A) (A) (A) (A) (A) (A) (A) (A) (A) (A)
                 (A) (A) (A) (A) (A) (A) (A) (A) (A) (A) (A) (A)
                 (A) (A) (A) (A) (A) (A) (A) (A) (A) (A) (A) (A)
                 (A) (A) (A) (A) (A) (A) (A) (A) (A) (A) (A) (A)
                 (A) (A) (A) (A) (A) (A) (A) (A) (A) (A) (A) (A)
                 (A) (A) (A) (A) (A) (A) (A) (A) (A) (A) (A) (A)
                 (A) (A) (A) (A) (A) (A) (A) (A) (A) (A) (A) (A)
                 (A) (A) (A) (A) (A) (A) (A) (A) (A) (A) (A) (A)
                 (A) (A) (A) (A) (A) (A) (A) (A) (A) (A) (A) (A)
                 (A) (A) (A) (A) (A) (A) (A) (A) (A) (A) (A) (A)
                 (A) (A) (A) (A) (A) (A) (A) (A) (A) (A) (A) (A)
                 (A) (A) (A) (A) (A) (A) (A) (A) (A) (A) (A) (A)
                 (A) (A) (A) (A) (A) (A) (A) (A) (A) (A) (A) (A)
                 (A) (A) (A) (A) (A) (A) (A) (A) (A) (A) (A) (A)
                 (A) (A) (A) (A) (A) (A) (A) (A) (A) (A) (A) (A)
                 (A) (A) (A) (A) (A) (A) (A) (A) (A) (A) (A) (A)
                 (A) (A) (A) (A) (A) (A) (A) (A) (A) (A) (A) (A)
                 (A) (A) (A) (A) (A) (A) (A) (A) (A) (A) (A) (A)
                 (A) (A) (A) (A) (A) (A) (A) (A) (A) (A) (A) (A)
                 (A) (A) (A) (A) (A) (A) (A) (A) (A) (A) (A) (A)
                 (A) (A) (A) (A) (A) (A) (A) (A) (A) (A) (A) (A)
                 (A) (A) (A) (A) (A) (A) (A) (A) (A) (A) (A) (A)
                 (A) (A) (A) (A) (A) (A) (A) (A) (A) (A) (A) (A)
                 (A) (A) (A) (A) (A) (A) (A) (A) (A) (A) (A) (A)
                 (A) (A) (A) (A) (A) (A) (A) (A) (A) (A) (A) (A)
                 (A) (A) (A) (A) (A) (A) (A) (A) (A) (A) (A) (A)
                 (A) (A) (A) (A) (A) (A) (A) (A) (A) (A) (A) (A)
                 (A) (A) (A) (A) (A) (A) (A) (A) (A) (A) (A) (A)
                 (A) (A) (A) (A) (A) (A) (A) (A) (A) (A) (A) (A)
                 (A) (A) (A) (A) (A) (A) (A) (A) (A) (A) (A) (A)
                 (A) (A) (A) (A) (A) (A) (A) (A) (A) (A) (A) (A)
                 (A) (A) (A) (A) (A) (A) (A) (A) (A) (A) (A) (A)
                 (A) (A) (A) (A) (A) (A) (A) (A) (A) (A) (A) (A)
                 (A) (A) (A) (A) (A) (A) (A) (A) (A) (A) (A) (A)
                 (A) (A) (A) (A) (A) (A) (A) (A) (A) (A) (A) (A)
                 (A) (A) (A) (A) (A) (A) (A) (A) (A) (A) (A) (A)
                 (A) (A) (A) (A) (A) (A) (A) (A) (A) (A) (A) (A)
                 (A) (A) (A) (A) (A) (A) (A) (A) (A) (A) (A) (A)
                 (A) (A) (A) (A) (A) (A) (A) (A) (A) (A) (A) (A)
                 (A) (A) (A) (A) (A) (A) (A) (A) (A) (A) (A) (A)
                 (A) (A)
 The electronic state is 1-A.
 Alpha  occ. eigenvalues --  -19.24809 -19.21929 -14.46200 -10.37026 -10.35409
 Alpha  occ. eigenvalues --  -10.33979 -10.29298 -10.28734 -10.28558 -10.28502
 Alpha  occ. eigenvalues --  -10.28486 -10.27938 -10.27786 -10.27654 -10.27490
 Alpha  occ. eigenvalues --  -10.27082 -10.26759 -10.26342 -10.26268 -10.26266
 Alpha  occ. eigenvalues --   -1.19197  -1.12067  -1.07629  -0.97367  -0.97097
 Alpha  occ. eigenvalues --   -0.91550  -0.88746  -0.88290  -0.86597  -0.86323
 Alpha  occ. eigenvalues --   -0.85845  -0.80390  -0.76453  -0.74419  -0.73443
 Alpha  occ. eigenvalues --   -0.72463  -0.69915  -0.67226  -0.65337  -0.64132
 Alpha  occ. eigenvalues --   -0.62758  -0.59835  -0.59660  -0.59634  -0.57978
 Alpha  occ. eigenvalues --   -0.56506  -0.55640  -0.54557  -0.54485  -0.53971
 Alpha  occ. eigenvalues --   -0.53611  -0.51831  -0.51609  -0.51265  -0.50350
 Alpha  occ. eigenvalues --   -0.48469  -0.48320  -0.48184  -0.46815  -0.46667
 Alpha  occ. eigenvalues --   -0.45974  -0.43585  -0.43325  -0.43031  -0.41050
 Alpha  occ. eigenvalues --   -0.34651  -0.34326  -0.33746  -0.33654  -0.30396
 Alpha  occ. eigenvalues --   -0.26444
 Alpha virt. eigenvalues --   -0.01716   0.02908   0.03858   0.04057   0.04531
 Alpha virt. eigenvalues --    0.05016   0.05205   0.05771   0.06272   0.06631
 Alpha virt. eigenvalues --    0.06779   0.06946   0.08109   0.08161   0.08548
 Alpha virt. eigenvalues --    0.09090   0.09570   0.10044   0.10545   0.10987
 Alpha virt. eigenvalues --    0.11274   0.11596   0.12462   0.12843   0.13689
 Alpha virt. eigenvalues --    0.13865   0.14024   0.14535   0.14902   0.15168
 Alpha virt. eigenvalues --    0.15537   0.16099   0.16286   0.16394   0.16577
 Alpha virt. eigenvalues --    0.16837   0.17262   0.17488   0.17726   0.17800
 Alpha virt. eigenvalues --    0.17932   0.18491   0.18688   0.18929   0.19429
 Alpha virt. eigenvalues --    0.20243   0.20463   0.20594   0.20815   0.21130
 Alpha virt. eigenvalues --    0.21178   0.21500   0.21734   0.22264   0.22548
 Alpha virt. eigenvalues --    0.22634   0.22816   0.23149   0.23402   0.24042
 Alpha virt. eigenvalues --    0.24423   0.24667   0.24912   0.25289   0.25906
 Alpha virt. eigenvalues --    0.26242   0.26422   0.26779   0.27074   0.27219
 Alpha virt. eigenvalues --    0.27506   0.27922   0.28226   0.28643   0.29058
 Alpha virt. eigenvalues --    0.29191   0.29546   0.30051   0.30144   0.31079
 Alpha virt. eigenvalues --    0.31564   0.31772   0.31889   0.32300   0.32651
 Alpha virt. eigenvalues --    0.33062   0.33159   0.33982   0.34441   0.34753
 Alpha virt. eigenvalues --    0.35093   0.35274   0.35627   0.36358   0.36796
 Alpha virt. eigenvalues --    0.37081   0.37211   0.37597   0.37806   0.38280
 Alpha virt. eigenvalues --    0.39069   0.39421   0.40037   0.40107   0.40734
 Alpha virt. eigenvalues --    0.41199   0.41548   0.41854   0.41976   0.42168
 Alpha virt. eigenvalues --    0.42713   0.43170   0.43483   0.43805   0.44423
 Alpha virt. eigenvalues --    0.44866   0.45153   0.46611   0.46930   0.47132
 Alpha virt. eigenvalues --    0.47793   0.48535   0.48984   0.49678   0.50040
 Alpha virt. eigenvalues --    0.50509   0.50842   0.52250   0.53586   0.54646
 Alpha virt. eigenvalues --    0.55151   0.55692   0.57462   0.58678   0.60475
 Alpha virt. eigenvalues --    0.61478   0.61708   0.62314   0.62483   0.63506
 Alpha virt. eigenvalues --    0.64171   0.64611   0.64881   0.65352   0.65547
 Alpha virt. eigenvalues --    0.66048   0.66614   0.66939   0.67519   0.67701
 Alpha virt. eigenvalues --    0.68375   0.68605   0.69284   0.69777   0.70311
 Alpha virt. eigenvalues --    0.71267   0.72256   0.72544   0.73518   0.74053
 Alpha virt. eigenvalues --    0.74252   0.75385   0.75980   0.76551   0.76738
 Alpha virt. eigenvalues --    0.77001   0.77843   0.78054   0.78787   0.79185
 Alpha virt. eigenvalues --    0.79605   0.80273   0.81114   0.81757   0.82483
 Alpha virt. eigenvalues --    0.83650   0.84500   0.85012   0.86001   0.86329
 Alpha virt. eigenvalues --    0.86477   0.87062   0.89097   0.89606   0.90904
 Alpha virt. eigenvalues --    0.91134   0.91788   0.92793   0.94233   0.94888
 Alpha virt. eigenvalues --    0.95736   0.96635   0.96842   0.97091   0.97148
 Alpha virt. eigenvalues --    0.97506   0.97558   0.99174   0.99795   1.01393
 Alpha virt. eigenvalues --    1.01480   1.01873   1.02443   1.03308   1.04128
 Alpha virt. eigenvalues --    1.04876   1.05311   1.05649   1.06341   1.06756
 Alpha virt. eigenvalues --    1.07429   1.08290   1.08786   1.09164   1.09834
 Alpha virt. eigenvalues --    1.10433   1.11726   1.13247   1.13987   1.14063
 Alpha virt. eigenvalues --    1.14999   1.16665   1.17471   1.18199   1.18321
 Alpha virt. eigenvalues --    1.18769   1.19942   1.20357   1.21227   1.22195
 Alpha virt. eigenvalues --    1.22370   1.23470   1.23656   1.24322   1.25986
 Alpha virt. eigenvalues --    1.28474   1.31722   1.32859   1.33440   1.35164
 Alpha virt. eigenvalues --    1.35960   1.37864   1.40250   1.41893   1.44427
 Alpha virt. eigenvalues --    1.46515   1.48387   1.50417   1.51039   1.53846
 Alpha virt. eigenvalues --    1.55397   1.56864   1.58223   1.58995   1.60173
 Alpha virt. eigenvalues --    1.61204   1.61737   1.61904   1.62278   1.62761
 Alpha virt. eigenvalues --    1.63746   1.64491   1.65360   1.66386   1.66820
 Alpha virt. eigenvalues --    1.67386   1.68038   1.69347   1.69698   1.69948
 Alpha virt. eigenvalues --    1.70338   1.70573   1.72828   1.73663   1.73737
 Alpha virt. eigenvalues --    1.76061   1.77456   1.77728   1.79139   1.79810
 Alpha virt. eigenvalues --    1.80015   1.81149   1.82624   1.83402   1.84854
 Alpha virt. eigenvalues --    1.85850   1.86911   1.87386   1.88721   1.89669
 Alpha virt. eigenvalues --    1.90323   1.91405   1.92395   1.92959   1.93358
 Alpha virt. eigenvalues --    1.93939   1.95301   1.97269   1.99474   1.99865
 Alpha virt. eigenvalues --    2.00644   2.01371   2.02154   2.02403   2.03301
 Alpha virt. eigenvalues --    2.04039   2.04670   2.05414   2.06601   2.07865
 Alpha virt. eigenvalues --    2.08535   2.09494   2.09882   2.11259   2.11831
 Alpha virt. eigenvalues --    2.12665   2.13293   2.15049   2.16550   2.18095
 Alpha virt. eigenvalues --    2.20412   2.21872   2.22844   2.23588   2.25827
 Alpha virt. eigenvalues --    2.26197   2.27315   2.28252   2.29348   2.29561
 Alpha virt. eigenvalues --    2.33834   2.35624   2.37401   2.38937   2.41196
 Alpha virt. eigenvalues --    2.42878   2.43972   2.45319   2.46396   2.46955
 Alpha virt. eigenvalues --    2.47402   2.49327   2.50476   2.52115   2.52333
 Alpha virt. eigenvalues --    2.53902   2.55187   2.58937   2.59761   2.62367
 Alpha virt. eigenvalues --    2.64167   2.64864   2.66501   2.67442   2.68196
 Alpha virt. eigenvalues --    2.69006   2.69489   2.73163   2.75367   2.76425
 Alpha virt. eigenvalues --    2.79076   2.79413   2.80694   2.81399   2.81770
 Alpha virt. eigenvalues --    2.84526   2.85897   2.87693   2.87995   2.89681
 Alpha virt. eigenvalues --    2.90349   2.91295   2.92207   2.92372   2.93829
 Alpha virt. eigenvalues --    2.95297   2.95952   2.96980   2.97711   2.98000
 Alpha virt. eigenvalues --    2.99575   3.00320   3.02613   3.03951   3.04289
 Alpha virt. eigenvalues --    3.04922   3.05137   3.05835   3.06002   3.07846
 Alpha virt. eigenvalues --    3.08226   3.09431   3.11178   3.11372   3.11463
 Alpha virt. eigenvalues --    3.12047   3.12825   3.17075   3.19014   3.19307
 Alpha virt. eigenvalues --    3.20268   3.20985   3.21560   3.26133   3.26787
 Alpha virt. eigenvalues --    3.28041   3.30260   3.33203   3.33676   3.34728
 Alpha virt. eigenvalues --    3.38257   3.39354   3.40456   3.43831   3.44100
 Alpha virt. eigenvalues --    3.46526   3.51371   3.52858   3.53476   3.55970
 Alpha virt. eigenvalues --    3.67264   3.68801   3.73144   3.74709   3.76094
 Alpha virt. eigenvalues --    3.78892   3.81455   3.84367   3.84944   3.86870
 Alpha virt. eigenvalues --    3.90997   3.92193   3.95215   3.98170   4.02781
 Alpha virt. eigenvalues --    4.14382   4.23727   4.24135   4.25688   4.25839
 Alpha virt. eigenvalues --    4.29076   4.30206   4.34666   4.44065   4.44663
 Alpha virt. eigenvalues --    4.46383   4.47523   4.54217   4.58477   4.62321
 Alpha virt. eigenvalues --    4.70787   4.81220   4.97074   4.97742   5.12380
 Alpha virt. eigenvalues --    5.14187   5.19851   5.26024   5.47168   5.70150
 Alpha virt. eigenvalues --    5.92479   6.26444  23.85064  23.95710  24.02489
 Alpha virt. eigenvalues --   24.13588  24.14837  24.19365  24.20821  24.25006
 Alpha virt. eigenvalues --   24.27598  24.31980  24.39059  24.40226  24.41990
 Alpha virt. eigenvalues --   24.46615  24.47963  24.49657  24.50612  35.76457
 Alpha virt. eigenvalues --   50.19070  50.23305
          Condensed to atoms (all electrons):
              1          2          3          4          5          6
     1  C   16.444708  -1.041287  -0.148779  -0.566699   0.018513   0.471247
     2  C   -1.041287   9.849947   0.674987   0.534704  -0.157783  -0.922740
     3  H   -0.148779   0.674987   0.495705  -0.100904  -0.024335   0.007088
     4  C   -0.566699   0.534704  -0.100904   7.414007   0.519994  -0.860051
     5  H    0.018513  -0.157783  -0.024335   0.519994   0.505338  -0.069555
     6  C    0.471247  -0.922740   0.007088  -0.860051  -0.069555  10.805399
     7  H    0.038150   0.029362   0.002875  -0.145706  -0.017808   0.495883
     8  C   -3.560683   2.351925   0.015298   2.320412  -0.034956  -4.685620
     9  H    0.017871   0.089495  -0.000923   0.101218   0.003215  -0.419566
    10  C    2.758899  -2.114691  -0.135471   0.058652   0.120891  -2.257813
    11  C   -4.702003  -1.867247   0.020016  -1.844215  -0.021952   1.782508
    12  C   -3.239310  -0.450738   0.014631  -0.814868  -0.014669   1.328522
    13  H   -0.025060  -0.051095   0.000674  -0.032082  -0.001681   0.086991
    14  C   -1.140080  -0.161576   0.005442  -0.270980  -0.004832   0.688860
    15  H   -0.092602  -0.000168  -0.000075  -0.005957  -0.000026   0.017841
    16  C    0.129468   0.032567  -0.001284   0.047778   0.001055  -0.156845
    17  C    0.032465   0.042805   0.000695  -0.024475  -0.000596   0.048056
    18  H    0.019466   0.005051   0.000016  -0.000540   0.000017  -0.015505
    19  C    0.038884   0.008403  -0.000014   0.001415   0.000072  -0.049494
    20  H   -0.001455  -0.000284  -0.000003   0.000230   0.000004   0.000410
    21  C    0.006035   0.001286   0.000013  -0.000434  -0.000005  -0.002403
    22  C   -0.032929  -0.004813  -0.000014  -0.000336   0.000000   0.016122
    23  H   -0.000801  -0.000043  -0.000002   0.000012   0.000001   0.000122
    24  C   -0.053692  -0.019905  -0.000038  -0.001938   0.000005   0.048673
    25  H    0.011593   0.000690   0.000014   0.000246   0.000000  -0.001957
    26  C    0.000071   0.000001   0.000000   0.000005   0.000000  -0.000224
    27  H    0.000004   0.000001   0.000000  -0.000002   0.000000   0.000033
    28  H    0.000004   0.000000   0.000000   0.000000   0.000000  -0.000017
    29  H    0.000003   0.000002   0.000000  -0.000004   0.000000   0.000013
    30  C   -0.000022  -0.000002   0.000000   0.000000   0.000000   0.000032
    31  H    0.000012   0.000001   0.000000   0.000000   0.000000  -0.000002
    32  H   -0.000004   0.000000   0.000000   0.000000   0.000000   0.000005
    33  H    0.000010   0.000001   0.000000   0.000000   0.000000  -0.000007
    34  N    0.000012  -0.000001   0.000000   0.000001   0.000000  -0.000001
    35  O    0.333981  -0.454444  -0.045359   0.028461   0.002444   0.001689
    36  H    0.079462   0.072276   0.004842  -0.007543  -0.000997   0.007100
    37  O    0.032707  -0.095038   0.002036  -0.031543  -0.000549   0.017938
              7          8          9         10         11         12
     1  C    0.038150  -3.560683   0.017871   2.758899  -4.702003  -3.239310
     2  C    0.029362   2.351925   0.089495  -2.114691  -1.867247  -0.450738
     3  H    0.002875   0.015298  -0.000923  -0.135471   0.020016   0.014631
     4  C   -0.145706   2.320412   0.101218   0.058652  -1.844215  -0.814868
     5  H   -0.017808  -0.034956   0.003215   0.120891  -0.021952  -0.014669
     6  C    0.495883  -4.685620  -0.419566  -2.257813   1.782508   1.328522
     7  H    0.502667  -0.192480  -0.031985   0.027787   0.037713   0.034650
     8  C   -0.192480  19.279940   1.000005  -2.044945  -2.001377  -2.999631
     9  H   -0.031985   1.000005   0.606077   0.060375  -0.046241  -0.254702
    10  C    0.027787  -2.044945   0.060375  21.697886  -1.511267  -7.520567
    11  C    0.037713  -2.001377  -0.046241  -1.511267  19.037701   0.286391
    12  C    0.034650  -2.999631  -0.254702  -7.520567   0.286391  15.967232
    13  H    0.007521  -0.183519  -0.039427  -0.021329  -0.159831   0.892416
    14  C    0.016817  -1.782709  -0.191280  -4.130933  -4.103122   5.653989
    15  H   -0.000169   0.039285   0.001766  -0.244720   0.006573   0.124790
    16  C   -0.005385   0.290659   0.041763   0.584004   2.103631  -1.756948
    17  C    0.001709  -0.252004  -0.028585  -0.724911  -1.389694  -0.578079
    18  H   -0.000302  -0.020968  -0.001799  -0.000278  -0.001347  -0.171163
    19  C   -0.001590  -0.003135   0.017547   0.101256   0.458996  -0.719369
    20  H    0.000002   0.004165   0.000255   0.003362   0.011088   0.057378
    21  C   -0.000235  -0.011340   0.001974  -0.057329  -0.152904  -0.440865
    22  C    0.000104   0.042413  -0.002841  -0.156811  -0.455342   0.542165
    23  H   -0.000003   0.001445   0.000047  -0.004049  -0.001944  -0.016124
    24  C    0.000470   0.045366  -0.002396  -0.131078  -0.184857   0.186258
    25  H   -0.000003  -0.007709   0.000225   0.040442   0.051062   0.015673
    26  C   -0.000004  -0.000509   0.000108   0.001934   0.006322   0.013520
    27  H    0.000000   0.000038   0.000005  -0.000233  -0.000646  -0.002255
    28  H    0.000000  -0.000041   0.000008   0.000158   0.000645   0.001330
    29  H    0.000001  -0.000053  -0.000011  -0.000172  -0.000911  -0.001882
    30  C    0.000000   0.000156  -0.000009  -0.000835  -0.002376  -0.007474
    31  H    0.000000  -0.000022  -0.000001   0.000100   0.000155   0.000659
    32  H    0.000000   0.000022  -0.000004  -0.000087  -0.000414  -0.000426
    33  H    0.000000  -0.000037   0.000003   0.000107   0.000315   0.000254
    34  N    0.000001  -0.000059  -0.000013   0.000534   0.002281   0.006741
    35  O    0.000267  -0.030014  -0.002887   0.192481  -0.048498  -0.048134
    36  H    0.000609   0.024103   0.000766  -0.166999   0.028121  -0.003464
    37  O    0.001382  -0.300888  -0.007906  -0.050973   0.954119  -0.301518
             13         14         15         16         17         18
     1  C   -0.025060  -1.140080  -0.092602   0.129468   0.032465   0.019466
     2  C   -0.051095  -0.161576  -0.000168   0.032567   0.042805   0.005051
     3  H    0.000674   0.005442  -0.000075  -0.001284   0.000695   0.000016
     4  C   -0.032082  -0.270980  -0.005957   0.047778  -0.024475  -0.000540
     5  H   -0.001681  -0.004832  -0.000026   0.001055  -0.000596   0.000017
     6  C    0.086991   0.688860   0.017841  -0.156845   0.048056  -0.015505
     7  H    0.007521   0.016817  -0.000169  -0.005385   0.001709  -0.000302
     8  C   -0.183519  -1.782709   0.039285   0.290659  -0.252004  -0.020968
     9  H   -0.039427  -0.191280   0.001766   0.041763  -0.028585  -0.001799
    10  C   -0.021329  -4.130933  -0.244720   0.584004  -0.724911  -0.000278
    11  C   -0.159831  -4.103122   0.006573   2.103631  -1.389694  -0.001347
    12  C    0.892416   5.653989   0.124790  -1.756948  -0.578079  -0.171163
    13  H    0.767841   0.225612   0.001185  -0.097913  -0.085554  -0.045976
    14  C    0.225612  11.819778   0.462898  -1.938763   1.331000  -0.065590
    15  H    0.001185   0.462898   0.527197  -0.180896   0.057789  -0.000963
    16  C   -0.097913  -1.938763  -0.180896  11.117818   0.031622  -0.076755
    17  C   -0.085554   1.331000   0.057789   0.031622  10.058461   0.393766
    18  H   -0.045976  -0.065590  -0.000963  -0.076755   0.393766   0.597364
    19  C   -0.169026  -0.657901   0.003267  -0.400697   1.225502   0.056506
    20  H    0.012010   0.019140   0.000001   0.157292   0.059771  -0.055995
    21  C   -0.059329  -0.170197   0.018288  -1.924939  -1.031944   0.194751
    22  C    0.041543   0.742342   0.064451  -2.604491  -1.180506  -0.004364
    23  H   -0.001513   0.003394   0.005126  -0.071985  -0.013205   0.004598
    24  C    0.028101  -0.489433   0.030499  -0.045467  -1.190787   0.070486
    25  H    0.003614  -0.025895  -0.027533   0.023496  -0.058149  -0.008095
    26  C   -0.000268  -0.014586  -0.000567   0.003200  -0.039490   0.003463
    27  H   -0.000445   0.000418   0.000179  -0.013410  -0.006464   0.003514
    28  H    0.000023  -0.002044  -0.000107   0.007102   0.000880  -0.000238
    29  H   -0.000219   0.000598   0.000124  -0.010496  -0.016622   0.002413
    30  C   -0.000080   0.013843  -0.000527  -0.146317  -0.047385   0.001744
    31  H    0.000022  -0.001085  -0.000160   0.002754  -0.006139  -0.000291
    32  H    0.000047   0.002439   0.000052  -0.008684   0.004852  -0.000499
    33  H    0.000062  -0.001423  -0.000220   0.013297  -0.002260  -0.000470
    34  N   -0.000147  -0.002175  -0.000793  -0.010863  -0.032790  -0.002792
    35  O   -0.000320   0.018233  -0.001422   0.000908   0.000253   0.000099
    36  H    0.001023  -0.018382  -0.000690   0.000408  -0.005038  -0.000174
    37  O    0.008922  -0.028444  -0.019216   0.011379  -0.012179   0.000667
             19         20         21         22         23         24
     1  C    0.038884  -0.001455   0.006035  -0.032929  -0.000801  -0.053692
     2  C    0.008403  -0.000284   0.001286  -0.004813  -0.000043  -0.019905
     3  H   -0.000014  -0.000003   0.000013  -0.000014  -0.000002  -0.000038
     4  C    0.001415   0.000230  -0.000434  -0.000336   0.000012  -0.001938
     5  H    0.000072   0.000004  -0.000005   0.000000   0.000001   0.000005
     6  C   -0.049494   0.000410  -0.002403   0.016122   0.000122   0.048673
     7  H   -0.001590   0.000002  -0.000235   0.000104  -0.000003   0.000470
     8  C   -0.003135   0.004165  -0.011340   0.042413   0.001445   0.045366
     9  H    0.017547   0.000255   0.001974  -0.002841   0.000047  -0.002396
    10  C    0.101256   0.003362  -0.057329  -0.156811  -0.004049  -0.131078
    11  C    0.458996   0.011088  -0.152904  -0.455342  -0.001944  -0.184857
    12  C   -0.719369   0.057378  -0.440865   0.542165  -0.016124   0.186258
    13  H   -0.169026   0.012010  -0.059329   0.041543  -0.001513   0.028101
    14  C   -0.657901   0.019140  -0.170197   0.742342   0.003394  -0.489433
    15  H    0.003267   0.000001   0.018288   0.064451   0.005126   0.030499
    16  C   -0.400697   0.157292  -1.924939  -2.604491  -0.071985  -0.045467
    17  C    1.225502   0.059771  -1.031944  -1.180506  -0.013205  -1.190787
    18  H    0.056506  -0.055995   0.194751  -0.004364   0.004598   0.070486
    19  C    8.645720   0.388207   0.558361  -1.759804  -0.025671  -1.152545
    20  H    0.388207   0.591006  -0.332366  -0.035598  -0.003744  -0.048641
    21  C    0.558361  -0.332366  11.415475   0.421488  -0.109442  -1.928444
    22  C   -1.759804  -0.035598   0.421488   9.723363   0.573925   0.630379
[...]
     9  H   -0.025154   0.988541   0.601081  -0.088688  -0.018379  -0.222591
    10  C    0.046324  -1.463724  -0.088688  22.042887  -1.518465  -7.815284
    11  C    0.025607  -2.422437  -0.018379  -1.518465  18.652401   0.362723
    12  C    0.021759  -3.925660  -0.222591  -7.815284   0.362723  16.901674
    13  H    0.006268  -0.270965  -0.048925   0.074474  -0.168017   0.855151
    14  C    0.013838  -2.391969  -0.188457  -3.841915  -4.787036   5.376773
    15  H   -0.000079   0.006251   0.000063  -0.166282   0.036623   0.105537
    16  C   -0.004017   0.380292   0.035400   0.781253   2.165118  -1.860088
    17  C    0.001550  -0.290653  -0.032429  -0.777644  -1.643196  -0.478920
    18  H   -0.000239  -0.003107  -0.002645  -0.049990  -0.020348  -0.151873
    19  C   -0.001503   0.079700   0.023576   0.080075   0.579175  -0.722995
    20  H    0.000008   0.001480  -0.000129   0.006126   0.007510   0.042141
    21  C   -0.000198  -0.001849   0.000971  -0.063250  -0.103182  -0.380949
    22  C    0.000043   0.016616  -0.003390  -0.159647  -0.372063   0.488858
    23  H   -0.000002   0.000545  -0.000003  -0.002726   0.000377  -0.020207
    24  C    0.000423  -0.018311  -0.005504  -0.093489  -0.191416   0.202541
    25  H   -0.000003  -0.002172   0.000306   0.025908   0.035439   0.024071
    26  C   -0.000006  -0.000019   0.000281   0.001535   0.007388   0.011747
    27  H    0.000001   0.000011  -0.000022  -0.000188  -0.000626  -0.001571
    28  H    0.000000  -0.000010   0.000012   0.000102   0.000463   0.000898
    29  H    0.000000  -0.000016   0.000022  -0.000178  -0.000487  -0.001061
    30  C   -0.000001   0.000108   0.000012  -0.001010  -0.000322  -0.011516
    31  H    0.000000   0.000005   0.000003   0.000066   0.000049   0.000641
    32  H    0.000000   0.000011  -0.000002  -0.000074  -0.000202  -0.000534
    33  H    0.000000  -0.000033  -0.000002   0.000118   0.000130   0.000792
    34  N    0.000000  -0.000007   0.000050   0.000386   0.002269   0.004191
    35  O    0.000196  -0.035395  -0.002506   0.075148  -0.054237  -0.044935
    36  H    0.000124   0.064345   0.002069  -0.085826   0.041247  -0.025232
    37  O    0.000902  -0.259307  -0.006970   0.008679   0.823615  -0.385839
             13         14         15         16         17         18
     1  C    0.047051  -0.820052  -0.056346   0.034357   0.008819   0.000789
     2  C   -0.044470  -0.092287   0.004820   0.006143   0.044617   0.004873
     3  H    0.000226   0.004213  -0.000052  -0.001213   0.000411  -0.000005
     4  C   -0.027431  -0.295187  -0.005004   0.051278  -0.026376  -0.000834
     5  H   -0.001227  -0.003847  -0.000050   0.000778  -0.000416   0.000003
     6  C    0.020212   0.656125   0.011372  -0.192398   0.083642   0.006384
     7  H    0.006268   0.013838  -0.000079  -0.004017   0.001550  -0.000239
     8  C   -0.270965  -2.391969   0.006251   0.380292  -0.290653  -0.003107
     9  H   -0.048925  -0.188457   0.000063   0.035400  -0.032429  -0.002645
    10  C    0.074474  -3.841915  -0.166282   0.781253  -0.777644  -0.049990
    11  C   -0.168017  -4.787036   0.036623   2.165118  -1.643196  -0.020348
    12  C    0.855151   5.376773   0.105537  -1.860088  -0.478920  -0.151873
    13  H    0.938725   0.160994  -0.000358   0.012430  -0.111704  -0.075528
    14  C    0.160994  12.794401   0.406093  -2.407570   1.654190  -0.009686
    15  H   -0.000358   0.406093   0.456656  -0.159540   0.052734   0.003829
    16  C    0.012430  -2.407570  -0.159540  12.022453  -0.465431  -0.169741
    17  C   -0.111704   1.654190   0.052734  -0.465431  10.735944   0.431940
    18  H   -0.075528  -0.009686   0.003829  -0.169741   0.431940   0.590411
    19  C   -0.207242  -0.715430   0.005645  -0.524125   0.886568   0.068945
    20  H    0.016348   0.008335  -0.000574   0.149137   0.017465  -0.044775
    21  C   -0.072611  -0.015077   0.013584  -1.925785  -1.030302   0.205535
    22  C    0.041527   0.770526   0.034842  -2.620287  -1.093188  -0.006443
    23  H   -0.000902   0.003352   0.002569  -0.035901  -0.011465   0.002204
    24  C    0.035690  -0.421198   0.020199   0.121824  -1.106320   0.043601
    25  H    0.003007   0.004758  -0.008060  -0.048764  -0.055759  -0.005022
    26  C   -0.001460  -0.013976  -0.000027   0.006214  -0.048683   0.003114
    27  H   -0.000384   0.000537   0.000082  -0.013896  -0.013813   0.003031
    28  H   -0.000022  -0.001797  -0.000026   0.007380   0.000613  -0.000408
    29  H   -0.000450   0.000514   0.000072  -0.008187   0.000281   0.002066
    30  C   -0.000382   0.025344  -0.000402  -0.174143  -0.066390   0.001691
    31  H   -0.000060  -0.002057  -0.000067   0.005219  -0.002849   0.000062
    32  H    0.000021   0.002768   0.000020  -0.010508   0.001736  -0.000234
    33  H    0.000149  -0.000700  -0.000206   0.009991  -0.003041  -0.000495
    34  N   -0.000989  -0.005307  -0.000664  -0.023563  -0.043910  -0.001202
    35  O   -0.001613   0.046159  -0.001099   0.000715   0.001778   0.000321
    36  H    0.001009  -0.054874  -0.000879   0.006297  -0.009311  -0.000368
    37  O    0.009816   0.028159  -0.010170   0.028335  -0.006395   0.000593
             19         20         21         22         23         24
     1  C    0.021266  -0.000479   0.004428  -0.022028  -0.000457  -0.025634
     2  C    0.006489  -0.000228   0.001134  -0.003057  -0.000004  -0.015632
     3  H   -0.000045  -0.000001   0.000001  -0.000003  -0.000001   0.000032
     4  C    0.004504   0.000130  -0.000076  -0.000502   0.000003  -0.002495
     5  H    0.000092   0.000002   0.000001  -0.000004   0.000000  -0.000007
     6  C   -0.034793  -0.001166  -0.000715   0.009858  -0.000023   0.037400
     7  H   -0.001503   0.000008  -0.000198   0.000043  -0.000002   0.000423
     8  C    0.079700   0.001480  -0.001849   0.016616   0.000545  -0.018311
     9  H    0.023576  -0.000129   0.000971  -0.003390  -0.000003  -0.005504
    10  C    0.080075   0.006126  -0.063250  -0.159647  -0.002726  -0.093489
    11  C    0.579175   0.007510  -0.103182  -0.372063   0.000377  -0.191416
    12  C   -0.722995   0.042141  -0.380949   0.488858  -0.020207   0.202541
    13  H   -0.207242   0.016348  -0.072611   0.041527  -0.000902   0.035690
    14  C   -0.715430   0.008335  -0.015077   0.770526   0.003352  -0.421198
    15  H    0.005645  -0.000574   0.013584   0.034842   0.002569   0.020199
    16  C   -0.524125   0.149137  -1.925785  -2.620287  -0.035901   0.121824
    17  C    0.886568   0.017465  -1.030302  -1.093188  -0.011465  -1.106320
    18  H    0.068945  -0.044775   0.205535  -0.006443   0.002204   0.043601
    19  C    8.778469   0.355305   0.472833  -1.592693  -0.032520  -0.989041
    20  H    0.355305   0.538293  -0.251326  -0.008422   0.000052  -0.017435
    21  C    0.472833  -0.251326  11.955567   0.189590  -0.094472  -2.319790
    22  C   -1.592693  -0.008422   0.189590   9.565128   0.487880   0.724988
    23  H   -0.032520   0.000052  -0.094472   0.487880   0.513465   0.047410
    24  C   -0.989041  -0.017435  -2.319790   0.724988   0.047410   9.963646
    25  H    0.012975   0.001423   0.034261  -0.017931  -0.015037   0.294452
    26  C    0.099816   0.015043  -0.192295  -0.143381  -0.004020  -0.005322
    27  H    0.008222  -0.014282   0.031936  -0.003336  -0.000336  -0.006182
    28  H    0.021916   0.008746  -0.029651   0.006961   0.001851   0.012783
    29  H    0.046818  -0.012913  -0.019144  -0.017735  -0.000670  -0.006902
    30  C   -0.169930  -0.007637  -0.112832   0.214512   0.016262  -0.030005
    31  H    0.003832  -0.000712   0.012325  -0.002258  -0.012142  -0.016516
    32  H    0.002304   0.001153   0.005971   0.025429   0.005878  -0.014307
    33  H   -0.008262   0.000419  -0.036899   0.028753  -0.006401   0.005936
    34  N   -0.284608  -0.035703   0.258397  -0.257758  -0.033671   0.064737
    35  O    0.000273  -0.000005  -0.000022  -0.000296   0.000000  -0.001156
    36  H    0.000776   0.000028  -0.000477  -0.000725  -0.000007   0.001454
    37  O   -0.001508   0.000074  -0.001066  -0.001360   0.000027  -0.009754
             25         26         27         28         29         30
     1  C    0.006497   0.000019   0.000000   0.000000   0.000004  -0.000009
     2  C    0.000102  -0.000002   0.000001   0.000000   0.000002   0.000000
     3  H    0.000006   0.000000   0.000000   0.000000   0.000000   0.000000
     4  C    0.000214   0.000011  -0.000002   0.000000  -0.000002   0.000000
     5  H    0.000002   0.000000   0.000000   0.000000   0.000000   0.000000
     6  C   -0.000850  -0.000209   0.000042  -0.000012   0.000023   0.000010
     7  H   -0.000003  -0.000006   0.000001   0.000000   0.000000  -0.000001
     8  C   -0.002172  -0.000019   0.000011  -0.000010  -0.000016   0.000108
     9  H    0.000306   0.000281  -0.000022   0.000012   0.000022   0.000012
    10  C    0.025908   0.001535  -0.000188   0.000102  -0.000178  -0.001010
    11  C    0.035439   0.007388  -0.000626   0.000463  -0.000487  -0.000322
    12  C    0.024071   0.011747  -0.001571   0.000898  -0.001061  -0.011516
    13  H    0.003007  -0.001460  -0.000384  -0.000022  -0.000450  -0.000382
    14  C    0.004758  -0.013976   0.000537  -0.001797   0.000514   0.025344
    15  H   -0.008060  -0.000027   0.000082  -0.000026   0.000072  -0.000402
    16  C   -0.048764   0.006214  -0.013896   0.007380  -0.008187  -0.174143
    17  C   -0.055759  -0.048683  -0.013813   0.000613   0.000281  -0.066390
    18  H   -0.005022   0.003114   0.003031  -0.000408   0.002066   0.001691
    19  C    0.012975   0.099816   0.008222   0.021916   0.046818  -0.169930
    20  H    0.001423   0.015043  -0.014282   0.008746  -0.012913  -0.007637
    21  C    0.034261  -0.192295   0.031936  -0.029651  -0.019144  -0.112832
    22  C   -0.017931  -0.143381  -0.003336   0.006961  -0.017735   0.214512
    23  H   -0.015037  -0.004020  -0.000336   0.001851  -0.000670   0.016262
    24  C    0.294452  -0.005322  -0.006182   0.012783  -0.006902  -0.030005
    25  H    0.492186  -0.000040  -0.000116  -0.000129  -0.000147   0.003017
    26  C   -0.000040   5.230254   0.411304   0.403177   0.427008  -0.115729
    27  H   -0.000116   0.411304   0.566764  -0.024297  -0.062658   0.005018
    28  H   -0.000129   0.403177  -0.024297   0.509645  -0.020576  -0.016071
    29  H   -0.000147   0.427008  -0.062658  -0.020576   0.554774  -0.004167
    30  C    0.003017  -0.115729   0.005018  -0.016071  -0.004167   5.267639
    31  H    0.000751  -0.002104   0.002191  -0.003541  -0.000901   0.423820
    32  H   -0.000054  -0.014408  -0.000494   0.013721  -0.002763   0.405798
    33  H    0.000627   0.001594  -0.003594  -0.000746   0.001912   0.413741
    34  N   -0.001018   0.305515  -0.055756  -0.046571  -0.054141   0.314296
    35  O    0.000036   0.000000   0.000000   0.000000   0.000000   0.000000
    36  H    0.000236   0.000005  -0.000001   0.000000  -0.000001  -0.000005
    37  O    0.001052  -0.000001   0.000000   0.000000  -0.000001   0.000005
             31         32         33         34         35         36
     1  C    0.000006  -0.000002   0.000007   0.000004   0.347891   0.011899
     2  C    0.000000   0.000000   0.000000  -0.000001  -0.390943   0.050418
     3  H    0.000000   0.000000   0.000000   0.000000  -0.024921   0.000767
     4  C    0.000000   0.000000   0.000000   0.000001   0.015517   0.010747
     5  H    0.000000   0.000000   0.000000   0.000000   0.001022  -0.000090
     6  C    0.000002   0.000003  -0.000004  -0.000003  -0.002985  -0.007581
     7  H    0.000000   0.000000   0.000000   0.000000   0.000196   0.000124
     8  C    0.000005   0.000011  -0.000033  -0.000007  -0.035395   0.064345
     9  H    0.000003  -0.000002  -0.000002   0.000050  -0.002506   0.002069
    10  C    0.000066  -0.000074   0.000118   0.000386   0.075148  -0.085826
    11  C    0.000049  -0.000202   0.000130   0.002269  -0.054237   0.041247
    12  C    0.000641  -0.000534   0.000792   0.004191  -0.044935  -0.025232
    13  H   -0.000060   0.000021   0.000149  -0.000989  -0.001613   0.001009
    14  C   -0.002057   0.002768  -0.000700  -0.005307   0.046159  -0.054874
    15  H   -0.000067   0.000020  -0.000206  -0.000664  -0.001099  -0.000879
    16  C    0.005219  -0.010508   0.009991  -0.023563   0.000715   0.006297
    17  C   -0.002849   0.001736  -0.003041  -0.043910   0.001778  -0.009311
    18  H    0.000062  -0.000234  -0.000495  -0.001202   0.000321  -0.000368
    19  C    0.003832   0.002304  -0.008262  -0.284608   0.000273   0.000776
    20  H   -0.000712   0.001153   0.000419  -0.035703  -0.000005   0.000028
    21  C    0.012325   0.005971  -0.036899   0.258397  -0.000022  -0.000477
    22  C   -0.002258   0.025429   0.028753  -0.257758  -0.000296  -0.000725
    23  H   -0.012142   0.005878  -0.006401  -0.033671   0.000000  -0.000007
    24  C   -0.016516  -0.014307   0.005936   0.064737  -0.001156   0.001454
    25  H    0.000751  -0.000054   0.000627  -0.001018   0.000036   0.000236
    26  C   -0.002104  -0.014408   0.001594   0.305515   0.000000   0.000005
    27  H    0.002191  -0.000494  -0.003594  -0.055756   0.000000  -0.000001
    28  H   -0.003541   0.013721  -0.000746  -0.046571   0.000000   0.000000
    29  H   -0.000901  -0.002763   0.001912  -0.054141   0.000000  -0.000001
    30  C    0.423820   0.405798   0.413741   0.314296   0.000000  -0.000005
    31  H    0.552916  -0.019419  -0.062670  -0.056876   0.000000   0.000001
    32  H   -0.019419   0.512349  -0.023700  -0.045683   0.000000   0.000000
    33  H   -0.062670  -0.023700   0.562271  -0.054297   0.000000   0.000000
    34  N   -0.056876  -0.045683  -0.054297   6.997513   0.000000   0.000002
    35  O    0.000000   0.000000   0.000000   0.000000   8.133838   0.229439
    36  H    0.000001   0.000000   0.000000   0.000002   0.229439   0.286680
    37  O   -0.000001   0.000001  -0.000001  -0.000001   0.014080   0.086052
             37
     1  C   -0.004585
     2  C   -0.088547
     3  H    0.000865
     4  C   -0.020517
     5  H   -0.000220
     6  C    0.007954
     7  H    0.000902
     8  C   -0.259307
     9  H   -0.006970
    10  C    0.008679
    11  C    0.823615
    12  C   -0.385839
    13  H    0.009816
    14  C    0.028159
    15  H   -0.010170
    16  C    0.028335
    17  C   -0.006395
    18  H    0.000593
    19  C   -0.001508
    20  H    0.000074
    21  C   -0.001066
    22  C   -0.001360
    23  H    0.000027
    24  C   -0.009754
    25  H    0.001052
    26  C   -0.000001
    27  H    0.000000
    28  H    0.000000
    29  H   -0.000001
    30  C    0.000005
    31  H   -0.000001
    32  H    0.000001
    33  H   -0.000001
    34  N   -0.000001
    35  O    0.014080
    36  H    0.086052
    37  O    8.116397
 Mulliken atomic charges:
              1
     1  C   -0.047718
     2  C   -0.428621
     3  H    0.234049
     4  C   -0.428430
     5  H    0.205701
     6  C   -0.381026
     7  H    0.217148
     8  C   -1.160235
     9  H    0.133008
    10  C    1.614004
    11  C   -0.134686
    12  C    0.290500
    13  H   -0.188355
    14  C    0.111342
    15  H    0.248893
    16  C    0.820543
    17  C   -0.604091
    18  H    0.173548
    19  C   -0.274877
    20  H    0.226568
    21  C   -0.534566
    22  C   -0.279005
    23  H    0.189092
    24  C   -0.280701
    25  H    0.213777
    26  C   -0.382341
    27  H    0.172412
    28  H    0.155588
    29  H    0.179602
    30  C   -0.380724
    31  H    0.180285
    32  H    0.155221
    33  H    0.174607
    34  N    0.054367
    35  O   -0.306299
    36  H    0.391783
    37  O   -0.330362
 Sum of Mulliken atomic charges =   0.00000
 Mulliken charges with hydrogens summed into heavy atoms:
              1
     1  C   -0.047718
     2  C   -0.194572
     4  C   -0.222729
     6  C   -0.163878
     8  C   -1.027227
    10  C    1.614004
    11  C   -0.134686
    12  C    0.102145
    14  C    0.360235
    16  C    0.820543
    17  C   -0.430543
    19  C   -0.048309
    21  C   -0.534566
    22  C   -0.089913
    24  C   -0.066924
    26  C    0.125261
    30  C    0.129389
    34  N    0.054367
    35  O    0.085484
    37  O   -0.330362
 Sum of Mulliken charges with hydrogens summed into heavy atoms =   0.00000
 Electronic spatial extent (au):  <R**2>=          10266.1704
 Charge=              0.0000 electrons
 Dipole moment (field-independent basis, Debye):
    X=             -8.4545    Y=              3.8524    Z=             -0.1764  Tot=              9.2925
 Quadrupole moment (field-independent basis, Debye-Ang):
   XX=            -87.7230   YY=           -112.9749   ZZ=           -125.3514
   XY=             10.2145   XZ=             -0.5212   YZ=              0.8078
 Traceless Quadrupole moment (field-independent basis, Debye-Ang):
   XX=             20.9601   YY=             -4.2918   ZZ=            -16.6683
   XY=             10.2145   XZ=             -0.5212   YZ=              0.8078
 Octapole moment (field-independent basis, Debye-Ang**2):
  XXX=           -280.7210  YYY=             11.2515  ZZZ=              1.6646  XYY=            -38.9402
  XXY=             81.9666  XXZ=             -0.5018  XZZ=             -5.2629  YZZ=             -6.9326
  YYZ=             -2.2498  XYZ=             -3.4501
 Hexadecapole moment (field-independent basis, Debye-Ang**3):
 XXXX=         -10344.0653 YYYY=          -1308.8178 ZZZZ=           -163.9492 XXXY=            160.9201
 XXXZ=              7.3632 YYYX=             24.2963 YYYZ=             -1.3593 ZZZX=              5.6118
 ZZZY=              0.3359 XXYY=          -2204.4486 XXZZ=          -2238.6263 YYZZ=           -271.1637
 XXYZ=             19.3805 YYXZ=            -10.7718 ZZXY=            -44.0089
 N-N= 1.362621963900D+03 E-N=-4.734599884650D+03  KE= 8.594698454672D+02
 1\1\GINC-NXN33\FOpt\RwB97XD TD-FC\6-311++G(d,p)\C17H17N1O2\ROOT\28-Oct
 -2015\0\\#wb97xd 6-311++g** opt td(nstates=1,root=1)\\Geom Opt H bigba
 s S1\\0,1\C,4.9355190109,3.444409324,4.506897509\C,3.7188012586,2.7816
 397509,4.3014134749\H,2.9368340689,2.9148193506,5.0394465642\C,3.53697
 74927,1.9893014572,3.1856979738\H,2.5901902694,1.4821894021,3.03472895
 67\C,4.5660198798,1.8440134956,2.2464144146\H,4.4168465556,1.232124608
 2,1.3644495572\C,5.7707094358,2.4900278557,2.4414701396\H,6.5459848345
 ,2.374951297,1.6938252467\C,6.0047462052,3.2986845212,3.5688418117\C,7
 .2672716626,4.0015597658,3.8387063118\C,8.4168706449,3.7850677841,3.00
 43449345\H,8.354105906,3.0711131862,2.1935961264\C,9.6064366276,4.4658
 087096,3.2432880403\H,9.6000374448,5.1841207997,4.0569855011\C,10.8023
 619712,4.2971328831,2.5024076542\C,10.9542416321,3.3480676322,1.443372
 832\H,10.1254642095,2.7026253337,1.1799067113\C,12.1302482683,3.223213
 7817,0.7483436473\H,12.1884744037,2.4877137405,-0.0426629447\C,13.2551
 52351,4.0316371133,1.0532550109\C,13.1181743812,4.9811840742,2.1101349
 783\H,13.9480432492,5.6207561665,2.3781594207\C,11.9434024547,5.100174
 5665,2.7966859332\H,11.8659258575,5.8321859374,3.5935049699\C,14.53982
 4897,2.95419677,-0.7185257867\H,14.3574606979,1.9319514534,-0.36931624
 85\H,15.5455852503,2.9959733161,-1.1312765874\H,13.8292793396,3.177808
 4811,-1.5230156945\C,15.5561981299,4.7653055115,0.6764498124\H,15.3171
 588925,5.8215002728,0.5067881674\H,16.3926003006,4.4989345456,0.033785
 9443\H,15.8767615664,4.6437244621,1.7165497877\N,14.4268916521,3.90852
 20511,0.3672287805\O,5.0706321915,4.2035461744,5.5838242177\H,5.996092
 3999,4.6015868727,5.5201044044\O,7.3583246066,4.7843575522,4.834118427
 \\Version=EM64L-G09RevC.01\State=1-A\HF=-863.1636161\RMSD=6.142e-09\RM
 SF=3.646e-06\Dipole=4.3114588,-0.5760417,-2.9217699\PG=C01 [X(C17H17N1
 O2)]\\@


 NO MATTER HOW THIN YOU SLICE IT, IT'S STILL BALONEY

                                   -- ALFRED E. SMITH
 Job cpu time:  6 days 11 hours 35 minutes 29.4 seconds.
 File lengths (MBytes):  RWF=    292 Int=      0 D2E=      0 Chk=     43 Scr=      1
 Normal termination of Gaussian 09 at Wed Oct 28 07:32:13 2015.
