 Entering Gaussian System, Link 0=g09
 Input=H_optK.com
 Output=H_optK.out
 Initial command:
 /share/apps/gaussian/g09/l1.exe /tmp/3519125.1.chemistry.q/Gau-25463.inp -scrdir=/tmp/3519125.1.chemistry.q/
 Entering Link 1 = /share/apps/gaussian/g09/l1.exe PID=     25464.
  
 Copyright (c) 1988,1990,1992,1993,1995,1998,2003,2009,2011,
            Gaussian, Inc.  All Rights Reserved.
  
 This is part of the Gaussian(R) 09 program.  It is based on
 the Gaussian(R) 03 system (copyright 2003, Gaussian, Inc.),
 the Gaussian(R) 98 system (copyright 1998, Gaussian, Inc.),
 the Gaussian(R) 94 system (copyright 1995, Gaussian, Inc.),
 the Gaussian 92(TM) system (copyright 1992, Gaussian, Inc.),
 the Gaussian 90(TM) system (copyright 1990, Gaussian, Inc.),
 the Gaussian 88(TM) system (copyright 1988, Gaussian, Inc.),
 the Gaussian 86(TM) system (copyright 1986, Carnegie Mellon
 University), and the Gaussian 82(TM) system (copyright 1983,
 Carnegie Mellon University). Gaussian is a federally registered
 trademark of Gaussian, Inc.
  
 This software contains proprietary and confidential information,
 including trade secrets, belonging to Gaussian, Inc.
  
 This software is provided under written license and may be
 used, copied, transmitted, or stored only in accord with that
 written license.
  
 The following legend is applicable only to US Government
 contracts under FAR:
  
                    RESTRICTED RIGHTS LEGEND
  
 Use, reproduction and disclosure by the US Government is
 subject to restrictions as set forth in subparagraphs (a)
 and (c) of the Commercial Computer Software - Restricted
 Rights clause in FAR 52.227-19.
  
 Gaussian, Inc.
 340 Quinnipiac St., Bldg. 40, Wallingford CT 06492
  
  
 ---------------------------------------------------------------
 Warning -- This program may not be used in any manner that
 competes with the business of Gaussian, Inc. or will provide
 assistance to any competitor of Gaussian, Inc.  The licensee
 of this program is prohibited from giving any competitor of
 Gaussian, Inc. access to this program.  By using this program,
 the user acknowledges that Gaussian, Inc. is engaged in the
 business of creating and licensing software in the field of
 computational chemistry and represents and warrants to the
 licensee that it is not a competitor of Gaussian, Inc. and that
 it will not use this program in any manner prohibited above.
 ---------------------------------------------------------------
  

 Cite this work as:
 Gaussian 09, Revision C.01,
 M. J. Frisch, G. W. Trucks, H. B. Schlegel, G. E. Scuseria, 
 M. A. Robb, J. R. Cheeseman, G. Scalmani, V. Barone, B. Mennucci, 
 G. A. Petersson, H. Nakatsuji, M. Caricato, X. Li, H. P. Hratchian, 
 A. F. Izmaylov, J. Bloino, G. Zheng, J. L. Sonnenberg, M. Hada, 
 M. Ehara, K. Toyota, R. Fukuda, J. Hasegawa, M. Ishida, T. Nakajima, 
 Y. Honda, O. Kitao, H. Nakai, T. Vreven, J. A. Montgomery, Jr., 
 J. E. Peralta, F. Ogliaro, M. Bearpark, J. J. Heyd, E. Brothers, 
 K. N. Kudin, V. N. Staroverov, T. Keith, R. Kobayashi, J. Normand, 
 K. Raghavachari, A. Rendell, J. C. Burant, S. S. Iyengar, J. Tomasi, 
 M. Cossi, N. Rega, J. M. Millam, M. Klene, J. E. Knox, J. B. Cross, 
 V. Bakken, C. Adamo, J. Jaramillo, R. Gomperts, R. E. Stratmann, 
 O. Yazyev, A. J. Austin, R. Cammi, C. Pomelli, J. W. Ochterski, 
 R. L. Martin, K. Morokuma, V. G. Zakrzewski, G. A. Voth, 
 P. Salvador, J. J. Dannenberg, S. Dapprich, A. D. Daniels, 
 O. Farkas, J. B. Foresman, J. V. Ortiz, J. Cioslowski, 
 and D. J. Fox, Gaussian, Inc., Wallingford CT, 2010.
 
 ******************************************
 Gaussian 09:  EM64L-G09RevC.01 23-Sep-2011
                23-Oct-2015 
 ******************************************
 %chk=H_optk.chk
 %mem=2GB
 %nprocshared=4
 Will use up to    4 processors via shared memory.
 -----------------------
 # opt wb97xd/6-311++g**
 -----------------------
 1/14=-1,18=20,19=15,26=3,38=1/1,3;
 2/9=110,12=2,17=6,18=5,40=1/2;
 3/5=4,6=6,7=1111,11=2,16=1,25=1,30=1,71=1,74=-58/1,2,3;
 4//1;
 5/5=2,38=5/2;
 6/7=2,8=2,9=2,10=2,28=1/1;
 7//1,2,3,16;
 1/14=-1,18=20,19=15/3(2);
 2/9=110/2;
 99//99;
 2/9=110/2;
 3/5=4,6=6,7=1111,11=2,16=1,25=1,30=1,71=1,74=-58/1,2,3;
 4/5=5,16=3/1;
 5/5=2,38=5/2;
 7//1,2,3,16;
 1/14=-1,18=20,19=15/3(-5);
 2/9=110/2;
 6/7=2,8=2,9=2,10=2,19=2,28=1/1;
 99/9=1/99;
 --------
 H Ketone
 --------
 Charge =  0 Multiplicity = 1
 Symbolic Z-Matrix:
 C                     4.93029   3.44445   4.515 
 C                     3.70421   2.84483   4.26301 
 H                     2.99707   2.97751   4.85187 
 C                     3.52674   2.057     3.15332 
 H                     2.70172   1.66      2.99321 
 C                     4.57172   1.85346   2.27369 
 H                     4.4554    1.30517   1.53146 
 C                     5.78021   2.46038   2.49632 
 H                     6.47214   2.3275    1.89015 
 C                     5.99865   3.27474   3.61299 
 C                     7.2796    3.95376   3.877 
 C                     8.41179   3.76153   2.98927 
 H                     8.33273   3.16984   2.27583 
 C                     9.57192   4.41535   3.17008 
 H                     9.586     5.03348   3.86463 
 C                     10.79853   4.27743   2.42155 
 C                     10.97155   3.35486   1.38337 
 H                     10.25406   2.81809   1.13454 
 C                     12.16053   3.21777   0.72413 
 H                     12.23827   2.58359   0.04835 
 C                     13.27412   4.02349   1.05088 
 C                     13.10637   4.94513   2.09614 
 H                     13.81728   5.48808   2.35004 
 C                     11.90434   5.05405   2.74808 
 H                     11.82646   5.67321   3.43735 
 C                     14.61113   2.94933  -0.69332 
 H                     14.45579   2.06523  -0.35419 
 H                     15.50321   3.00528  -1.04459 
 H                     13.9798   3.14001  -1.39091 
 C                     15.5599   4.80927   0.64204 
 H                     15.26877   5.71743   0.53298 
 H                     16.27372   4.62619   0.02699 
 H                     15.86994   4.67865   1.54158 
 N                     14.45349   3.91231   0.37825 
 O                     5.04615   4.17838   5.63897 
 H                     6.6734    4.80369   5.50681 
 O                     7.38437   4.68872   4.88729 
 

 GradGradGradGradGradGradGradGradGradGradGradGradGradGradGradGradGradGrad
 Berny optimization.
 Initialization pass.
                           ----------------------------
                           !    Initial Parameters    !
                           ! (Angstroms and Degrees)  !
 --------------------------                            --------------------------
 ! Name  Definition              Value          Derivative Info.                !
 --------------------------------------------------------------------------------
 ! R1    R(1,2)                  1.3879         estimate D2E/DX2                !
 ! R2    R(1,10)                 1.4085         estimate D2E/DX2                !
 ! R3    R(1,35)                 1.3474         estimate D2E/DX2                !
 ! R4    R(2,3)                  0.9297         estimate D2E/DX2                !
 ! R5    R(2,4)                  1.3724         estimate D2E/DX2                !
 ! R6    R(4,5)                  0.9295         estimate D2E/DX2                !
 ! R7    R(4,6)                  1.381          estimate D2E/DX2                !
 ! R8    R(6,7)                  0.9301         estimate D2E/DX2                !
 ! R9    R(6,8)                  1.3705         estimate D2E/DX2                !
 ! R10   R(8,9)                  0.9294         estimate D2E/DX2                !
 ! R11   R(8,10)                 1.3992         estimate D2E/DX2                !
 ! R12   R(10,11)                1.4736         estimate D2E/DX2                !
 ! R13   R(11,12)                1.4515         estimate D2E/DX2                !
 ! R14   R(11,37)                1.2537         estimate D2E/DX2                !
 ! R15   R(12,13)                0.9302         estimate D2E/DX2                !
 ! R16   R(12,14)                1.3439         estimate D2E/DX2                !
 ! R17   R(14,15)                0.9299         estimate D2E/DX2                !
 ! R18   R(14,16)                1.4436         estimate D2E/DX2                !
 ! R19   R(16,17)                1.3996         estimate D2E/DX2                !
 ! R20   R(16,24)                1.3902         estimate D2E/DX2                !
 ! R21   R(17,18)                0.93           estimate D2E/DX2                !
 ! R22   R(17,19)                1.3664         estimate D2E/DX2                !
 ! R23   R(19,20)                0.93           estimate D2E/DX2                !
 ! R24   R(19,21)                1.4128         estimate D2E/DX2                !
 ! R25   R(21,22)                1.4036         estimate D2E/DX2                !
 ! R26   R(21,34)                1.3622         estimate D2E/DX2                !
 ! R27   R(22,23)                0.9299         estimate D2E/DX2                !
 ! R28   R(22,24)                1.3718         estimate D2E/DX2                !
 ! R29   R(24,25)                0.9298         estimate D2E/DX2                !
 ! R30   R(26,27)                0.9596         estimate D2E/DX2                !
 ! R31   R(26,28)                0.9604         estimate D2E/DX2                !
 ! R32   R(26,29)                0.96           estimate D2E/DX2                !
 ! R33   R(26,34)                1.4493         estimate D2E/DX2                !
 ! R34   R(30,31)                0.9599         estimate D2E/DX2                !
 ! R35   R(30,32)                0.9599         estimate D2E/DX2                !
 ! R36   R(30,33)                0.9604         estimate D2E/DX2                !
 ! R37   R(30,34)                1.4485         estimate D2E/DX2                !
 ! R38   R(36,37)                0.95           estimate D2E/DX2                !
 ! A1    A(2,1,10)             120.1154         estimate D2E/DX2                !
 ! A2    A(2,1,35)             117.5649         estimate D2E/DX2                !
 ! A3    A(10,1,35)            122.3196         estimate D2E/DX2                !
 ! A4    A(1,2,3)              119.6861         estimate D2E/DX2                !
 ! A5    A(1,2,4)              120.5995         estimate D2E/DX2                !
 ! A6    A(3,2,4)              119.7144         estimate D2E/DX2                !
 ! A7    A(2,4,5)              119.9503         estimate D2E/DX2                !
 ! A8    A(2,4,6)              120.117          estimate D2E/DX2                !
 ! A9    A(5,4,6)              119.9326         estimate D2E/DX2                !
 ! A10   A(4,6,7)              120.0366         estimate D2E/DX2                !
 ! A11   A(4,6,8)              119.8997         estimate D2E/DX2                !
 ! A12   A(7,6,8)              120.0636         estimate D2E/DX2                !
 ! A13   A(6,8,9)              119.1556         estimate D2E/DX2                !
 ! A14   A(6,8,10)             121.6699         estimate D2E/DX2                !
 ! A15   A(9,8,10)             119.1744         estimate D2E/DX2                !
 ! A16   A(1,10,8)             117.5679         estimate D2E/DX2                !
 ! A17   A(1,10,11)            119.2805         estimate D2E/DX2                !
 ! A18   A(8,10,11)            123.1514         estimate D2E/DX2                !
 ! A19   A(10,11,12)           120.4926         estimate D2E/DX2                !
 ! A20   A(10,11,37)           119.1519         estimate D2E/DX2                !
 ! A21   A(12,11,37)           120.3508         estimate D2E/DX2                !
 ! A22   A(11,12,13)           119.1436         estimate D2E/DX2                !
 ! A23   A(11,12,14)           121.7782         estimate D2E/DX2                !
 ! A24   A(13,12,14)           119.0781         estimate D2E/DX2                !
 ! A25   A(12,14,15)           115.9103         estimate D2E/DX2                !
 ! A26   A(12,14,16)           128.1169         estimate D2E/DX2                !
 ! A27   A(15,14,16)           115.9727         estimate D2E/DX2                !
 ! A28   A(14,16,17)           123.5487         estimate D2E/DX2                !
 ! A29   A(14,16,24)           120.0483         estimate D2E/DX2                !
 ! A30   A(17,16,24)           116.3683         estimate D2E/DX2                !
 ! A31   A(16,17,18)           118.9185         estimate D2E/DX2                !
 ! A32   A(16,17,19)           122.1121         estimate D2E/DX2                !
 ! A33   A(18,17,19)           118.9694         estimate D2E/DX2                !
 ! A34   A(17,19,20)           119.4544         estimate D2E/DX2                !
 ! A35   A(17,19,21)           121.1354         estimate D2E/DX2                !
 ! A36   A(20,19,21)           119.4102         estimate D2E/DX2                !
 ! A37   A(19,21,22)           116.904          estimate D2E/DX2                !
 ! A38   A(19,21,34)           121.4433         estimate D2E/DX2                !
 ! A39   A(22,21,34)           121.6523         estimate D2E/DX2                !
 ! A40   A(21,22,23)           119.694          estimate D2E/DX2                !
 ! A41   A(21,22,24)           120.7157         estimate D2E/DX2                !
 ! A42   A(23,22,24)           119.5903         estimate D2E/DX2                !
 ! A43   A(16,24,22)           122.7539         estimate D2E/DX2                !
 ! A44   A(16,24,25)           118.6533         estimate D2E/DX2                !
 ! A45   A(22,24,25)           118.5928         estimate D2E/DX2                !
 ! A46   A(27,26,28)           109.4702         estimate D2E/DX2                !
 ! A47   A(27,26,29)           109.473          estimate D2E/DX2                !
 ! A48   A(27,26,34)           109.4676         estimate D2E/DX2                !
 ! A49   A(28,26,29)           109.4824         estimate D2E/DX2                !
 ! A50   A(28,26,34)           109.4364         estimate D2E/DX2                !
 ! A51   A(29,26,34)           109.4978         estimate D2E/DX2                !
 ! A52   A(31,30,32)           109.4632         estimate D2E/DX2                !
 ! A53   A(31,30,33)           109.4512         estimate D2E/DX2                !
 ! A54   A(31,30,34)           109.4809         estimate D2E/DX2                !
 ! A55   A(32,30,33)           109.5208         estimate D2E/DX2                !
 ! A56   A(32,30,34)           109.4647         estimate D2E/DX2                !
 ! A57   A(33,30,34)           109.4466         estimate D2E/DX2                !
 ! A58   A(21,34,26)           120.8957         estimate D2E/DX2                !
 ! A59   A(21,34,30)           121.3871         estimate D2E/DX2                !
 ! A60   A(26,34,30)           117.5811         estimate D2E/DX2                !
 ! A61   A(11,37,36)           122.27           estimate D2E/DX2                !
 ! D1    D(10,1,2,3)          -178.5349         estimate D2E/DX2                !
 ! D2    D(10,1,2,4)             1.5263         estimate D2E/DX2                !
 ! D3    D(35,1,2,3)             1.5316         estimate D2E/DX2                !
 ! D4    D(35,1,2,4)          -178.4072         estimate D2E/DX2                !
 ! D5    D(2,1,10,8)            -1.7311         estimate D2E/DX2                !
 ! D6    D(2,1,10,11)          178.1108         estimate D2E/DX2                !
 ! D7    D(35,1,10,8)          178.1992         estimate D2E/DX2                !
 ! D8    D(35,1,10,11)          -1.959          estimate D2E/DX2                !
 ! D9    D(1,2,4,5)           -179.9826         estimate D2E/DX2                !
 ! D10   D(1,2,4,6)             -0.0109         estimate D2E/DX2                !
 ! D11   D(3,2,4,5)              0.0787         estimate D2E/DX2                !
 ! D12   D(3,2,4,6)           -179.9497         estimate D2E/DX2                !
 ! D13   D(2,4,6,7)            178.7329         estimate D2E/DX2                !
 ! D14   D(2,4,6,8)             -1.2555         estimate D2E/DX2                !
 ! D15   D(5,4,6,7)             -1.2954         estimate D2E/DX2                !
 ! D16   D(5,4,6,8)            178.7161         estimate D2E/DX2                !
 ! D17   D(4,6,8,9)           -178.996          estimate D2E/DX2                !
 ! D18   D(4,6,8,10)             1.0107         estimate D2E/DX2                !
 ! D19   D(7,6,8,9)              1.0156         estimate D2E/DX2                !
 ! D20   D(7,6,8,10)          -178.9777         estimate D2E/DX2                !
 ! D21   D(6,8,10,1)             0.4778         estimate D2E/DX2                !
 ! D22   D(6,8,10,11)         -179.3574         estimate D2E/DX2                !
 ! D23   D(9,8,10,1)          -179.5155         estimate D2E/DX2                !
 ! D24   D(9,8,10,11)            0.6493         estimate D2E/DX2                !
 ! D25   D(1,10,11,12)         177.9229         estimate D2E/DX2                !
 ! D26   D(1,10,11,37)          -1.2861         estimate D2E/DX2                !
 ! D27   D(8,10,11,12)          -2.2446         estimate D2E/DX2                !
 ! D28   D(8,10,11,37)         178.5464         estimate D2E/DX2                !
 ! D29   D(10,11,12,13)         -3.135          estimate D2E/DX2                !
 ! D30   D(10,11,12,14)        176.8705         estimate D2E/DX2                !
 ! D31   D(37,11,12,13)        176.0645         estimate D2E/DX2                !
 ! D32   D(37,11,12,14)         -3.9301         estimate D2E/DX2                !
 ! D33   D(10,11,37,36)          1.9365         estimate D2E/DX2                !
 ! D34   D(12,11,37,36)       -177.2736         estimate D2E/DX2                !
 ! D35   D(11,12,14,15)         -3.5724         estimate D2E/DX2                !
 ! D36   D(11,12,14,16)        176.3909         estimate D2E/DX2                !
 ! D37   D(13,12,14,15)        176.433          estimate D2E/DX2                !
 ! D38   D(13,12,14,16)         -3.6037         estimate D2E/DX2                !
 ! D39   D(12,14,16,17)         -2.8141         estimate D2E/DX2                !
 ! D40   D(12,14,16,24)        179.4097         estimate D2E/DX2                !
 ! D41   D(15,14,16,17)        177.1491         estimate D2E/DX2                !
 ! D42   D(15,14,16,24)         -0.627          estimate D2E/DX2                !
 ! D43   D(14,16,17,18)          2.273          estimate D2E/DX2                !
 ! D44   D(14,16,17,19)       -177.7248         estimate D2E/DX2                !
 ! D45   D(24,16,17,18)       -179.8754         estimate D2E/DX2                !
 ! D46   D(24,16,17,19)          0.1267         estimate D2E/DX2                !
 ! D47   D(14,16,24,22)        178.3432         estimate D2E/DX2                !
 ! D48   D(14,16,24,25)         -1.6384         estimate D2E/DX2                !
 ! D49   D(17,16,24,22)          0.4117         estimate D2E/DX2                !
 ! D50   D(17,16,24,25)       -179.5699         estimate D2E/DX2                !
 ! D51   D(16,17,19,20)        179.063          estimate D2E/DX2                !
 ! D52   D(16,17,19,21)         -0.9712         estimate D2E/DX2                !
 ! D53   D(18,17,19,20)         -0.9349         estimate D2E/DX2                !
 ! D54   D(18,17,19,21)        179.0309         estimate D2E/DX2                !
 ! D55   D(17,19,21,22)          1.2376         estimate D2E/DX2                !
 ! D56   D(17,19,21,34)       -178.5489         estimate D2E/DX2                !
 ! D57   D(20,19,21,22)       -178.7965         estimate D2E/DX2                !
 ! D58   D(20,19,21,34)          1.417          estimate D2E/DX2                !
 ! D59   D(19,21,22,23)        179.2867         estimate D2E/DX2                !
 ! D60   D(19,21,22,24)         -0.711          estimate D2E/DX2                !
 ! D61   D(34,21,22,23)         -0.9273         estimate D2E/DX2                !
 ! D62   D(34,21,22,24)        179.0751         estimate D2E/DX2                !
 ! D63   D(19,21,34,26)         -0.5944         estimate D2E/DX2                !
 ! D64   D(19,21,34,30)        175.0625         estimate D2E/DX2                !
 ! D65   D(22,21,34,26)        179.6293         estimate D2E/DX2                !
 ! D66   D(22,21,34,30)         -4.7138         estimate D2E/DX2                !
 ! D67   D(21,22,24,16)         -0.1028         estimate D2E/DX2                !
 ! D68   D(21,22,24,25)        179.8788         estimate D2E/DX2                !
 ! D69   D(23,22,24,16)        179.8996         estimate D2E/DX2                !
 ! D70   D(23,22,24,25)         -0.1188         estimate D2E/DX2                !
 ! D71   D(27,26,34,21)        -59.5025         estimate D2E/DX2                !
 ! D72   D(27,26,34,30)        124.6801         estimate D2E/DX2                !
 ! D73   D(28,26,34,21)       -179.4777         estimate D2E/DX2                !
 ! D74   D(28,26,34,30)          4.7049         estimate D2E/DX2                !
 ! D75   D(29,26,34,21)         60.5136         estimate D2E/DX2                !
 ! D76   D(29,26,34,30)       -115.3037         estimate D2E/DX2                !
 ! D77   D(31,30,34,21)        -55.3668         estimate D2E/DX2                !
 ! D78   D(31,30,34,26)        120.4288         estimate D2E/DX2                !
 ! D79   D(32,30,34,21)       -175.3589         estimate D2E/DX2                !
 ! D80   D(32,30,34,26)          0.4367         estimate D2E/DX2                !
 ! D81   D(33,30,34,21)         64.5995         estimate D2E/DX2                !
 ! D82   D(33,30,34,26)       -119.6049         estimate D2E/DX2                !
 --------------------------------------------------------------------------------
 Trust Radius=3.00D-01 FncErr=1.00D-07 GrdErr=1.00D-06
 Number of steps in this run=    191 maximum allowed number of steps=    222.
 GradGradGradGradGradGradGradGradGradGradGradGradGradGradGradGradGradGrad

                          Input orientation:                          
 ---------------------------------------------------------------------
 Center     Atomic      Atomic             Coordinates (Angstroms)
 Number     Number       Type             X           Y           Z
 ---------------------------------------------------------------------
      1          6           0        4.930290    3.444450    4.515000
      2          6           0        3.704210    2.844830    4.263010
      3          1           0        2.997070    2.977510    4.851870
      4          6           0        3.526740    2.057000    3.153320
      5          1           0        2.701720    1.660000    2.993210
      6          6           0        4.571720    1.853460    2.273690
      7          1           0        4.455400    1.305170    1.531460
      8          6           0        5.780210    2.460380    2.496320
      9          1           0        6.472140    2.327500    1.890150
     10          6           0        5.998650    3.274740    3.612990
     11          6           0        7.279600    3.953760    3.877000
     12          6           0        8.411790    3.761530    2.989270
     13          1           0        8.332730    3.169840    2.275830
     14          6           0        9.571920    4.415350    3.170080
     15          1           0        9.586000    5.033480    3.864630
     16          6           0       10.798530    4.277430    2.421550
     17          6           0       10.971550    3.354860    1.383370
     18          1           0       10.254060    2.818090    1.134540
     19          6           0       12.160530    3.217770    0.724130
     20          1           0       12.238270    2.583590    0.048350
     21          6           0       13.274120    4.023490    1.050880
     22          6           0       13.106370    4.945130    2.096140
     23          1           0       13.817280    5.488080    2.350040
     24          6           0       11.904340    5.054050    2.748080
     25          1           0       11.826460    5.673210    3.437350
     26          6           0       14.611130    2.949330   -0.693320
     27          1           0       14.455790    2.065230   -0.354190
     28          1           0       15.503210    3.005280   -1.044590
     29          1           0       13.979800    3.140010   -1.390910
     30          6           0       15.559900    4.809270    0.642040
     31          1           0       15.268770    5.717430    0.532980
     32          1           0       16.273720    4.626190    0.026990
     33          1           0       15.869940    4.678650    1.541580
     34          7           0       14.453490    3.912310    0.378250
     35          8           0        5.046150    4.178380    5.638970
     36          1           0        6.673404    4.803688    5.506814
     37          8           0        7.384370    4.688720    4.887290
 ---------------------------------------------------------------------
                    Distance matrix (angstroms):
                    1          2          3          4          5
     1  C    0.000000
     2  C    1.387918   0.000000
     3  H    2.017140   0.929735   0.000000
     4  C    2.397737   1.372437   2.003238   0.000000
     5  H    3.235217   2.005293   2.297320   0.929463   0.000000
     6  C    2.771875   2.385955   3.223356   1.381000   2.012967
     7  H    3.701831   3.224315   3.993566   2.014470   2.310414
     8  C    2.401214   2.752957   3.682650   2.381699   3.219411
     9  H    3.242640   3.682327   4.611985   3.216232   3.984767
    10  C    1.408480   2.423180   3.260775   2.793658   3.723071
    11  C    2.487106   3.763262   4.499278   4.266775   5.196095
    12  C    3.814346   4.962264   5.779547   5.176490   6.084517
    13  H    4.082388   5.047545   5.928089   5.010583   5.873885
    14  C    4.929116   6.171795   6.937179   6.488936   7.404248
    15  H    4.962221   6.288430   6.972493   6.788227   7.715766
    16  C    6.285907   7.468112   8.273997   7.638372   8.528544
    17  C    6.805289   7.833689   8.704322   7.761595   8.593848
    18  H    6.337378   7.258690   8.155235   7.064812   7.863439
    19  C    8.166912   9.174536  10.053107   9.043820   9.851115
    20  H    8.608055   9.521648  10.422512   9.263309  10.023523
    21  C    9.052895  10.163178  11.007241  10.163599  11.006106
    22  C    8.657437   9.874573  10.661310  10.061224  10.947765
    23  H    9.372410  10.626402  11.385915  10.877168  11.773850
    24  C    7.372258   8.626575   9.384957   8.906779   9.811620
    25  H    7.327064   8.640162   9.339475   9.057759   9.978176
    26  C   11.004109  11.980694  12.869977  11.766758  12.533432
    27  H   10.786399  11.727011  12.618937  11.478102  12.228142
    28  H   11.953600  12.938808  13.826516  12.726253  13.490432
    29  H   10.810462  11.732080  12.634044  11.449428  12.190407
    30  C   11.395225  12.551009  13.375452  12.596764  13.445397
    31  H   11.309602  12.486152  13.294909  12.575381  13.433027
    32  H   12.256107  13.383187  14.222062  13.373862  14.205489
    33  H   11.403527  12.600558  13.400100  12.721059  13.587549
    34  N   10.393408  11.479455  12.334370  11.425281  12.248062
    35  O    1.347362   2.339321   2.502068   3.603792   4.340350
    36  H    2.422740   3.768327   4.156839   4.794238   5.654666
    37  O    2.776566   4.163320   4.709341   4.981356   5.889643
                    6          7          8          9         10
     6  C    0.000000
     7  H    0.930085   0.000000
     8  C    1.370534   2.005140   0.000000
     9  H    1.995849   2.289336   0.929444   0.000000
    10  C    2.418655   3.254780   1.399232   2.022284   0.000000
    11  C    3.783448   4.526886   2.526783   2.691521   1.473636
    12  C    4.347289   4.879748   2.976778   2.650802   2.539535
    13  H    3.984728   4.366322   2.658441   2.078480   2.692012
    14  C    5.689358   6.207823   4.318903   3.950440   3.776959
    15  H    6.147082   6.757739   4.793449   4.573513   4.003195
    16  C    6.683611   7.061295   5.337677   4.775172   5.046163
    17  C    6.633604   6.832523   5.384121   4.642950   5.450446
    18  H    5.875131   6.005908   4.690174   3.887743   4.945681
    19  C    7.864637   7.979903   6.665042   5.874518   6.805698
    20  H    8.016309   8.025400   6.907552   6.058553   7.219225
    21  C    9.051854   9.240673   7.790462   7.060290   7.749677
    22  C    9.079108   9.402524   7.746402   7.134944   7.457260
    23  H    9.934620  10.286477   8.589695   8.009485   8.223436
    24  C    8.014745   8.427394   6.655485   6.138315   6.228257
    25  H    8.281054   8.777512   6.911219   6.500488   6.304512
    26  C   10.525865  10.525766   9.402022   8.561784   9.634574
    27  H   10.229635  10.204958   9.140418   8.297259   9.419376
    28  H   11.481949  11.470855  10.362031   9.520100  10.587838
    29  H   10.178235  10.130206   9.099765   8.233498   9.421036
    30  C   11.495181  11.678172  10.227315   9.502860  10.129108
    31  H   11.505964  11.721517  10.222321   9.524402  10.069177
    32  H   12.234071  12.367914  10.995548  10.238472  10.966443
    33  H   11.669081  11.902613  10.374724   9.693712  10.183519
    34  N   10.270391  10.396580   9.045447   8.276437   9.074930
    35  O    4.117699   5.047372   3.656038   4.417336   2.414211
    36  H    4.855307   5.741307   3.918158   4.387741   2.525776
    37  O    4.772903   5.593646   3.640819   3.923056   2.354443
                   11         12         13         14         15
    11  C    0.000000
    12  C    1.451507   0.000000
    13  H    2.070594   0.930239   0.000000
    14  C    2.442853   1.343903   1.971439   0.000000
    15  H    2.546651   1.939815   2.751023   0.929883   0.000000
    16  C    3.821775   2.506988   2.707057   1.443569   2.030842
    17  C    4.495260   3.049044   2.791789   2.505182   3.300631
    18  H    4.202172   2.779220   2.262251   2.675813   3.578778
    19  C    5.857111   4.413568   4.130632   3.757362   4.448342
    20  H    6.412826   4.967746   4.534159   4.495549   5.253617
    21  C    6.627676   5.241014   5.162030   4.283789   4.747578
    22  C    6.172967   4.923177   5.096232   3.731803   3.940605
    23  H    6.886727   5.710421   5.954833   4.454918   4.517120
    24  C    4.886033   3.731848   4.065669   2.454833   2.573287
    25  H    4.880956   3.938942   4.452206   2.595495   2.368857
    26  C    8.697588   7.256236   6.948581   6.516802   7.097219
    27  H    8.542085   7.112390   6.754927   6.464962   7.093927
    28  H    9.630650   8.193423   7.903673   7.411609   7.951567
    29  H    8.561877   7.111610   6.733147   6.469817   7.107138
    30  C    8.930858   7.596231   7.588741   6.511687   6.791380
    31  H    8.838543   7.541689   7.591864   6.411225   6.622806
    32  H    9.806576   8.445868   8.380785   7.405241   7.721332
    33  H    8.931606   7.652510   7.721733   6.510483   6.708977
    34  N    7.981708   6.583487   6.451029   5.645980   6.091332
    35  O    2.853645   4.303743   4.809311   5.160830   4.948709
    36  H    1.935496   3.232044   3.982722   3.743331   3.351535
    37  O    1.253726   2.348990   3.166403   2.794444   2.451911
                   16         17         18         19         20
    16  C    0.000000
    17  C    1.399603   0.000000
    18  H    2.020524   0.929963   0.000000
    19  C    2.420570   1.366406   1.990680   0.000000
    20  H    3.251772   1.995424   2.274179   0.930003   0.000000
    21  C    2.841086   2.420629   3.252807   1.412810   2.037490
    22  C    2.424426   2.755804   3.685735   2.400166   3.244058
    23  H    3.253250   3.685547   4.615498   3.246954   4.028289
    24  C    1.390171   2.370607   3.213480   2.744801   3.674673
    25  H    2.009152   3.213168   3.990875   3.674555   4.604417
    26  C    5.099234   4.209945   4.726770   2.843706   2.512828
    27  H    5.096480   4.101486   4.520802   2.785559   2.312603
    28  H    5.980511   5.152974   5.686583   3.787748   3.468742
    29  H    5.094021   4.097848   4.512501   2.790911   2.326800
    30  C    5.110788   4.870096   5.688523   3.754374   4.042196
    31  H    5.061950   4.977047   5.823690   3.993244   4.386314
    32  H    5.986089   5.618634   6.382178   4.403179   4.523000
    33  H    5.162802   5.076581   5.930048   4.069658   4.450622
    34  N    4.203227   3.666732   4.405054   2.420678   2.604137
    35  O    6.591774   7.341572   7.018732   8.700162   9.247972
    36  H    5.178075   6.129923   5.990031   7.449681   8.105023
    37  O    4.231492   5.188882   5.081093   6.504406   7.169885
                   21         22         23         24         25
    21  C    0.000000
    22  C    1.403613   0.000000
    23  H    2.031714   0.929867   0.000000
    24  C    2.412227   1.371775   2.001539   0.000000
    25  H    3.242304   1.991762   2.275935   0.929794   0.000000
    26  C    2.446150   3.745478   4.041966   4.857962   5.677706
    27  H    2.684278   4.014832   4.408680   5.006698   5.857190
    28  H    3.224374   4.401369   4.531023   5.615485   6.381546
    29  H    2.690885   4.022543   4.419791   5.010222   5.862258
    30  C    2.451406   2.855289   2.532740   4.225925   4.743282
    31  H    2.667636   2.777749   2.336906   4.082417   4.504089
    32  H    3.226329   3.796737   3.489056   5.165160   5.701309
    33  H    2.721820   2.831231   2.349936   4.162037   4.575240
    34  N    1.362243   2.415077   2.603031   3.663036   4.400017
    35  O    9.421998   8.837799   9.458599   7.493918   7.283835
    36  H    8.002094   7.282565   7.840190   5.919120   5.620741
    37  O    7.060434   6.371621   6.961246   5.013962   4.775323
                   26         27         28         29         30
    26  C    0.000000
    27  H    0.959569   0.000000
    28  H    0.960379   1.567621   0.000000
    29  H    0.959983   1.567325   1.568078   0.000000
    30  C    2.478453   3.121104   2.470286   3.068555   0.000000
    31  H    3.098174   3.845331   3.146339   3.464952   0.959899
    32  H    2.468787   3.163650   2.090292   3.079162   0.959867
    33  H    3.093530   3.524731   3.102085   3.813075   0.960395
    34  N    1.449291   1.987002   1.987232   1.987651   1.448539
    35  O   11.536780  11.354501  12.465803  11.415232  11.657884
    36  H   10.241474  10.120081  11.140944  10.184785  10.130936
    37  O    9.294877   9.184813  10.194937   9.236558   9.212816
                   31         32         33         34         35
    31  H    0.000000
    32  H    1.567404   0.000000
    33  H    1.567719   1.568366   0.000000
    34  N    1.986726   1.986516   1.986692   0.000000
    35  O   11.530038  12.559983  11.584183  10.781652   0.000000
    36  H    9.972676  11.055589  10.015737   9.360901   1.748265
    37  O    9.065430  10.131484   9.121336   8.420612   2.508534
                   36         37
    36  H    0.000000
    37  O    0.950000   0.000000
 Stoichiometry    C17H17NO2
 Framework group  C1[X(C17H17NO2)]
 Deg. of freedom   105
 Full point group                 C1      NOp   1
 Largest Abelian subgroup         C1      NOp   1
 Largest concise Abelian subgroup C1      NOp   1
                         Standard orientation:                         
 ---------------------------------------------------------------------
 Center     Atomic      Atomic             Coordinates (Angstroms)
 Number     Number       Type             X           Y           Z
 ---------------------------------------------------------------------
      1          6           0        4.764221   -0.464318    0.082288
      2          6           0        5.890382    0.345153    0.029074
      3          1           0        6.735992   -0.039073    0.070563
      4          6           0        5.766901    1.707425   -0.082953
      5          1           0        6.527179    2.240948   -0.118071
      6          6           0        4.514909    2.287016   -0.144196
      7          1           0        4.432244    3.211593   -0.202351
      8          6           0        3.394720    1.497776   -0.118906
      9          1           0        2.557623    1.897781   -0.174871
     10          6           0        3.479433    0.105297   -0.010844
     11          6           0        2.297799   -0.775086    0.005575
     12          6           0        0.960209   -0.213566   -0.043605
     13          1           0        0.856596    0.710882   -0.041246
     14          6           0       -0.133322   -0.993237   -0.092375
     15          1           0        0.022239   -1.908521   -0.144692
     16          6           0       -1.518561   -0.587495   -0.072970
     17          6           0       -1.933154    0.742600    0.060625
     18          1           0       -1.289082    1.411616    0.109812
     19          6           0       -3.253462    1.089292    0.121096
     20          1           0       -3.487224    1.983620    0.223275
     21          6           0       -4.270132    0.112471    0.030345
     22          6           0       -3.858027   -1.223239   -0.096843
     23          1           0       -4.494868   -1.898741   -0.149612
     24          6           0       -2.525066   -1.543766   -0.144183
     25          1           0       -2.285159   -2.438239   -0.227131
     26          6           0       -5.995719    1.837884    0.200496
     27          1           0       -5.647649    2.192229    1.021507
     28          1           0       -6.954663    1.889367    0.210690
     29          1           0       -5.655520    2.348209   -0.538017
     30          6           0       -6.628658   -0.534343   -0.138110
     31          1           0       -6.483989   -0.988203   -0.971470
     32          1           0       -7.484151   -0.099388   -0.155112
     33          1           0       -6.606479   -1.170821    0.580751
     34          7           0       -5.588513    0.454028    0.060602
     35          8           0        4.955671   -1.790305    0.225436
     36          1           0        3.322880   -2.410517    0.149509
     37          8           0        2.461678   -2.015960    0.077709
 ---------------------------------------------------------------------
 Rotational constants (GHZ):      1.1226380      0.1080837      0.0988237
 Standard basis: 6-311++G(d,p) (5D, 7F)
 There are   559 symmetry adapted basis functions of A   symmetry.
 Integral buffers will be    131072 words long.
 Raffenetti 2 integral format.
 Two-electron integral symmetry is turned on.
   559 basis functions,   873 primitive gaussians,   579 cartesian basis functions
    71 alpha electrons       71 beta electrons
       nuclear repulsion energy      1378.4370904190 Hartrees.
 NAtoms=   37 NActive=   37 NUniq=   37 SFac= 1.00D+00 NAtFMM=   60 NAOKFM=F Big=F
 Nuclear repulsion after empirical dispersion term =     1378.4138215566 Hartrees.
 One-electron integrals computed using PRISM.
 NBasis=   559 RedAO= T  NBF=   559
 NBsUse=   553 1.00D-06 NBFU=   553
 Harris functional with IExCor= 4639 diagonalized for initial guess.
 ExpMin= 3.60D-02 ExpMax= 8.59D+03 ExpMxC= 1.30D+03 IAcc=3 IRadAn=         5 AccDes= 0.00D+00
 HarFok:  IExCor= 4639 AccDes= 0.00D+00 IRadAn=         5 IDoV= 1
 ScaDFX=  1.000000  1.000000  1.000000  1.000000
 FoFCou: FMM=F IPFlag=           0 FMFlag=      100000 FMFlg1=           0
         NFxFlg=           0 DoJE=T BraDBF=F KetDBF=T FulRan=T
         Omega=  0.000000  0.000000  1.000000  0.000000  0.000000 ICntrl=     500 IOpCl=  0
         NMat0=    1 NMatS0=    1 NMatT0=    0 NMatD0=    1 NMtDS0=    0 NMtDT0=    0
         I1Cent=           4 NGrid=           0.
 Petite list used in FoFCou.
 Initial guess orbital symmetries:
       Occupied  (A) (A) (A) (A) (A) (A) (A) (A) (A) (A) (A) (A)
                 (A) (A) (A) (A) (A) (A) (A) (A) (A) (A) (A) (A)
                 (A) (A) (A) (A) (A) (A) (A) (A) (A) (A) (A) (A)
                 (A) (A) (A) (A) (A) (A) (A) (A) (A) (A) (A) (A)
                 (A) (A) (A) (A) (A) (A) (A) (A) (A) (A) (A) (A)
                 (A) (A) (A) (A) (A) (A) (A) (A) (A) (A) (A)
       Virtual   (A) (A) (A) (A) (A) (A) (A) (A) (A) (A) (A) (A)
                 (A) (A) (A) (A) (A) (A) (A) (A) (A) (A) (A) (A)
                 (A) (A) (A) (A) (A) (A) (A) (A) (A) (A) (A) (A)
                 (A) (A) (A) (A) (A) (A) (A) (A) (A) (A) (A) (A)
                 (A) (A) (A) (A) (A) (A) (A) (A) (A) (A) (A) (A)
                 (A) (A) (A) (A) (A) (A) (A) (A) (A) (A) (A) (A)
                 (A) (A) (A) (A) (A) (A) (A) (A) (A) (A) (A) (A)
                 (A) (A) (A) (A) (A) (A) (A) (A) (A) (A) (A) (A)
                 (A) (A) (A) (A) (A) (A) (A) (A) (A) (A) (A) (A)
                 (A) (A) (A) (A) (A) (A) (A) (A) (A) (A) (A) (A)
                 (A) (A) (A) (A) (A) (A) (A) (A) (A) (A) (A) (A)
                 (A) (A) (A) (A) (A) (A) (A) (A) (A) (A) (A) (A)
                 (A) (A) (A) (A) (A) (A) (A) (A) (A) (A) (A) (A)
                 (A) (A) (A) (A) (A) (A) (A) (A) (A) (A) (A) (A)
                 (A) (A) (A) (A) (A) (A) (A) (A) (A) (A) (A) (A)
                 (A) (A) (A) (A) (A) (A) (A) (A) (A) (A) (A) (A)
                 (A) (A) (A) (A) (A) (A) (A) (A) (A) (A) (A) (A)
                 (A) (A) (A) (A) (A) (A) (A) (A) (A) (A) (A) (A)
                 (A) (A) (A) (A) (A) (A) (A) (A) (A) (A) (A) (A)
                 (A) (A) (A) (A) (A) (A) (A) (A) (A) (A) (A) (A)
                 (A) (A) (A) (A) (A) (A) (A) (A) (A) (A) (A) (A)
                 (A) (A) (A) (A) (A) (A) (A) (A) (A) (A) (A) (A)
                 (A) (A) (A) (A) (A) (A) (A) (A) (A) (A) (A) (A)
                 (A) (A) (A) (A) (A) (A) (A) (A) (A) (A) (A) (A)
                 (A) (A) (A) (A) (A) (A) (A) (A) (A) (A) (A) (A)
                 (A) (A) (A) (A) (A) (A) (A) (A) (A) (A) (A) (A)
                 (A) (A) (A) (A) (A) (A) (A) (A) (A) (A) (A) (A)
                 (A) (A) (A) (A) (A) (A) (A) (A) (A) (A) (A) (A)
                 (A) (A) (A) (A) (A) (A) (A) (A) (A) (A) (A) (A)
                 (A) (A) (A) (A) (A) (A) (A) (A) (A) (A) (A) (A)
                 (A) (A) (A) (A) (A) (A) (A) (A) (A) (A) (A) (A)
                 (A) (A) (A) (A) (A) (A) (A) (A) (A) (A) (A) (A)
                 (A) (A) (A) (A) (A) (A) (A) (A) (A) (A) (A) (A)
                 (A) (A) (A) (A) (A) (A) (A) (A) (A) (A) (A) (A)
                 (A) (A) (A) (A) (A) (A) (A) (A) (A) (A) (A) (A)
                 (A) (A) (A) (A) (A) (A) (A) (A) (A) (A) (A) (A)
                 (A) (A) (A) (A) (A) (A) (A) (A) (A) (A) (A) (A)
                 (A) (A) (A) (A) (A) (A) (A) (A) (A) (A) (A) (A)
                 (A) (A) (A) (A) (A) (A) (A) (A) (A) (A) (A) (A)
                 (A) (A) (A) (A) (A) (A) (A) (A) (A) (A) (A) (A)
                 (A) (A)
 The electronic state of the initial guess is 1-A.
 Requested convergence on RMS density matrix=1.00D-08 within 128 cycles.
 Requested convergence on MAX density matrix=1.00D-06.
 Requested convergence on             energy=1.00D-06.
 No special actions if energy rises.
 FoFJK:  IHMeth= 1 ICntrl=     0 DoSepK=T KAlg= 1 I1Cent= 0 FoldK=F
 FoFJK:  IHMeth= 1 ICntrl=     0 DoSepK=T KAlg= 1 I1Cent= 0 FoldK=F
 FoFJK:  IHMeth= 1 ICntrl=     0 DoSepK=T KAlg= 1 I1Cent= 0 FoldK=F
 FoFJK:  IHMeth= 1 ICntrl=     0 DoSepK=T KAlg= 1 I1Cent= 0 FoldK=F
 FoFJK:  IHMeth= 1 ICntrl=     0 DoSepK=T KAlg= 1 I1Cent= 0 FoldK=F
 FoFJK:  IHMeth= 1 ICntrl=     0 DoSepK=T KAlg= 1 I1Cent= 0 FoldK=F
 FoFJK:  IHMeth= 1 ICntrl=     0 DoSepK=T KAlg= 1 I1Cent= 0 FoldK=F
 FoFJK:  IHMeth= 1 ICntrl=     0 DoSepK=T KAlg= 1 I1Cent= 0 FoldK=F
 FoFJK:  IHMeth= 1 ICntrl=     0 DoSepK=T KAlg= 1 I1Cent= 0 FoldK=F
 FoFJK:  IHMeth= 1 ICntrl=     0 DoSepK=T KAlg= 1 I1Cent= 0 FoldK=F
 FoFJK:  IHMeth= 1 ICntrl=     0 DoSepK=T KAlg= 1 I1Cent= 0 FoldK=F
 FoFJK:  IHMeth= 1 ICntrl=     0 DoSepK=T KAlg= 1 I1Cent= 0 FoldK=F
 FoFJK:  IHMeth= 1 ICntrl=     0 DoSepK=T KAlg= 1 I1Cent= 0 FoldK=F
 FoFJK:  IHMeth= 1 ICntrl=     0 DoSepK=T KAlg= 1 I1Cent= 0 FoldK=F
 FoFJK:  IHMeth= 1 ICntrl=     0 DoSepK=T KAlg= 1 I1Cent= 0 FoldK=F
 FoFJK:  IHMeth= 1 ICntrl=     0 DoSepK=T KAlg= 1 I1Cent= 0 FoldK=F
 FoFJK:  IHMeth= 1 ICntrl=     0 DoSepK=T KAlg= 1 I1Cent= 0 FoldK=F
 FoFJK:  IHMeth= 1 ICntrl=     0 DoSepK=T KAlg= 1 I1Cent= 0 FoldK=F
 SCF Done:  E(RwB97XD) =  -862.830675288     A.U. after   18 cycles
             Convg  =    0.4630D-08             -V/T =  1.9988

 **********************************************************************

            Population analysis using the SCF density.

 **********************************************************************

 Orbital symmetries:
       Occupied  (A) (A) (A) (A) (A) (A) (A) (A) (A) (A) (A) (A)
                 (A) (A) (A) (A) (A) (A) (A) (A) (A) (A) (A) (A)
                 (A) (A) (A) (A) (A) (A) (A) (A) (A) (A) (A) (A)
                 (A) (A) (A) (A) (A) (A) (A) (A) (A) (A) (A) (A)
                 (A) (A) (A) (A) (A) (A) (A) (A) (A) (A) (A) (A)
                 (A) (A) (A) (A) (A) (A) (A) (A) (A) (A) (A)
       Virtual   (A) (A) (A) (A) (A) (A) (A) (A) (A) (A) (A) (A)
                 (A) (A) (A) (A) (A) (A) (A) (A) (A) (A) (A) (A)
                 (A) (A) (A) (A) (A) (A) (A) (A) (A) (A) (A) (A)
                 (A) (A) (A) (A) (A) (A) (A) (A) (A) (A) (A) (A)
                 (A) (A) (A) (A) (A) (A) (A) (A) (A) (A) (A) (A)
                 (A) (A) (A) (A) (A) (A) (A) (A) (A) (A) (A) (A)
                 (A) (A) (A) (A) (A) (A) (A) (A) (A) (A) (A) (A)
                 (A) (A) (A) (A) (A) (A) (A) (A) (A) (A) (A) (A)
                 (A) (A) (A) (A) (A) (A) (A) (A) (A) (A) (A) (A)
                 (A) (A) (A) (A) (A) (A) (A) (A) (A) (A) (A) (A)
                 (A) (A) (A) (A) (A) (A) (A) (A) (A) (A) (A) (A)
                 (A) (A) (A) (A) (A) (A) (A) (A) (A) (A) (A) (A)
                 (A) (A) (A) (A) (A) (A) (A) (A) (A) (A) (A) (A)
                 (A) (A) (A) (A) (A) (A) (A) (A) (A) (A) (A) (A)
                 (A) (A) (A) (A) (A) (A) (A) (A) (A) (A) (A) (A)
                 (A) (A) (A) (A) (A) (A) (A) (A) (A) (A) (A) (A)
                 (A) (A) (A) (A) (A) (A) (A) (A) (A) (A) (A) (A)
                 (A) (A) (A) (A) (A) (A) (A) (A) (A) (A) (A) (A)
                 (A) (A) (A) (A) (A) (A) (A) (A) (A) (A) (A) (A)
                 (A) (A) (A) (A) (A) (A) (A) (A) (A) (A) (A) (A)
                 (A) (A) (A) (A) (A) (A) (A) (A) (A) (A) (A) (A)
                 (A) (A) (A) (A) (A) (A) (A) (A) (A) (A) (A) (A)
                 (A) (A) (A) (A) (A) (A) (A) (A) (A) (A) (A) (A)
                 (A) (A) (A) (A) (A) (A) (A) (A) (A) (A) (A) (A)
                 (A) (A) (A) (A) (A) (A) (A) (A) (A) (A) (A) (A)
                 (A) (A) (A) (A) (A) (A) (A) (A) (A) (A) (A) (A)
                 (A) (A) (A) (A) (A) (A) (A) (A) (A) (A) (A) (A)
                 (A) (A) (A) (A) (A) (A) (A) (A) (A) (A) (A) (A)
                 (A) (A) (A) (A) (A) (A) (A) (A) (A) (A) (A) (A)
                 (A) (A) (A) (A) (A) (A) (A) (A) (A) (A) (A) (A)
                 (A) (A) (A) (A) (A) (A) (A) (A) (A) (A) (A) (A)
                 (A) (A) (A) (A) (A) (A) (A) (A) (A) (A) (A) (A)
                 (A) (A) (A) (A) (A) (A) (A) (A) (A) (A) (A) (A)
                 (A) (A) (A) (A) (A) (A) (A) (A) (A) (A) (A) (A)
                 (A) (A) (A) (A) (A) (A) (A) (A) (A) (A) (A) (A)
                 (A) (A) (A) (A) (A) (A) (A) (A) (A) (A) (A) (A)
                 (A) (A) (A) (A) (A) (A) (A) (A) (A) (A) (A) (A)
                 (A) (A) (A) (A) (A) (A) (A) (A) (A) (A) (A) (A)
                 (A) (A) (A) (A) (A) (A) (A) (A) (A) (A) (A) (A)
                 (A) (A) (A) (A) (A) (A) (A) (A) (A) (A) (A) (A)
                 (A) (A)
 The electronic state is 1-A.
 Alpha  occ. eigenvalues --  -19.30003 -19.17092 -14.47164 -10.40520 -10.35026
 Alpha  occ. eigenvalues --  -10.32416 -10.30572 -10.29777 -10.29208 -10.29205
 Alpha  occ. eigenvalues --  -10.28902 -10.28802 -10.28541 -10.28368 -10.28076
 Alpha  occ. eigenvalues --  -10.27769 -10.27111 -10.26235 -10.24991 -10.24111
 Alpha  occ. eigenvalues --   -1.22769  -1.08516  -1.04273  -0.98557  -0.95414
 Alpha  occ. eigenvalues --   -0.93409  -0.89623  -0.89016  -0.87474  -0.86401
 Alpha  occ. eigenvalues --   -0.83392  -0.81491  -0.77746  -0.75594  -0.73511
 Alpha  occ. eigenvalues --   -0.73020  -0.70946  -0.68945  -0.66307  -0.63981
 Alpha  occ. eigenvalues --   -0.62815  -0.60508  -0.60414  -0.59834  -0.58788
 Alpha  occ. eigenvalues --   -0.57936  -0.55207  -0.55118  -0.54905  -0.54591
 Alpha  occ. eigenvalues --   -0.54056  -0.53414  -0.52285  -0.51525  -0.50175
 Alpha  occ. eigenvalues --   -0.49089  -0.49077  -0.47705  -0.46892  -0.46282
 Alpha  occ. eigenvalues --   -0.44532  -0.43817  -0.42794  -0.41988  -0.38383
 Alpha  occ. eigenvalues --   -0.37049  -0.35345  -0.33443  -0.30084  -0.28271
 Alpha  occ. eigenvalues --   -0.25595
 Alpha virt. eigenvalues --   -0.03746   0.02481   0.03439   0.03783   0.04179
 Alpha virt. eigenvalues --    0.04431   0.05058   0.05679   0.05850   0.06254
 Alpha virt. eigenvalues --    0.07047   0.07697   0.08152   0.08303   0.08555
 Alpha virt. eigenvalues --    0.08642   0.09513   0.09788   0.10410   0.10663
 Alpha virt. eigenvalues --    0.11143   0.11422   0.12271   0.12597   0.13030
 Alpha virt. eigenvalues --    0.13706   0.13807   0.14177   0.14504   0.14906
 Alpha virt. eigenvalues --    0.15357   0.15688   0.15699   0.16116   0.16395
 Alpha virt. eigenvalues --    0.16912   0.17071   0.17394   0.17630   0.17657
 Alpha virt. eigenvalues --    0.18050   0.18184   0.18587   0.18790   0.19695
 Alpha virt. eigenvalues --    0.19902   0.20058   0.20177   0.20475   0.20740
 Alpha virt. eigenvalues --    0.21008   0.21608   0.21719   0.21963   0.22326
 Alpha virt. eigenvalues --    0.22374   0.22819   0.22986   0.23186   0.23711
 Alpha virt. eigenvalues --    0.24394   0.24481   0.24720   0.24916   0.25472
 Alpha virt. eigenvalues --    0.25860   0.26242   0.26638   0.26747   0.27005
 Alpha virt. eigenvalues --    0.27219   0.27594   0.27892   0.28507   0.28805
 Alpha virt. eigenvalues --    0.29209   0.29412   0.29464   0.29825   0.30676
 Alpha virt. eigenvalues --    0.30876   0.31285   0.31749   0.31914   0.32339
 Alpha virt. eigenvalues --    0.32517   0.32934   0.33144   0.33606   0.34263
 Alpha virt. eigenvalues --    0.34408   0.34926   0.35127   0.36205   0.36536
 Alpha virt. eigenvalues --    0.36694   0.36783   0.37301   0.37514   0.37975
 Alpha virt. eigenvalues --    0.38766   0.39219   0.39878   0.39965   0.40514
 Alpha virt. eigenvalues --    0.41029   0.41196   0.41526   0.41947   0.42135
 Alpha virt. eigenvalues --    0.42673   0.42758   0.43567   0.43917   0.44595
 Alpha virt. eigenvalues --    0.44818   0.45710   0.45822   0.46110   0.46796
 Alpha virt. eigenvalues --    0.47339   0.48185   0.48423   0.49328   0.50035
 Alpha virt. eigenvalues --    0.50449   0.50931   0.52721   0.53211   0.54547
 Alpha virt. eigenvalues --    0.55237   0.55546   0.56815   0.57616   0.59468
 Alpha virt. eigenvalues --    0.60344   0.60893   0.62288   0.62490   0.63384
 Alpha virt. eigenvalues --    0.63792   0.64085   0.64351   0.64404   0.65291
 Alpha virt. eigenvalues --    0.65754   0.66502   0.66890   0.67588   0.67790
 Alpha virt. eigenvalues --    0.68136   0.68339   0.69083   0.69559   0.70585
 Alpha virt. eigenvalues --    0.71292   0.71702   0.72907   0.72916   0.73495
 Alpha virt. eigenvalues --    0.73740   0.74754   0.75168   0.75998   0.76040
 Alpha virt. eigenvalues --    0.76533   0.77125   0.77931   0.78539   0.78872
 Alpha virt. eigenvalues --    0.79381   0.79664   0.80665   0.81122   0.82102
 Alpha virt. eigenvalues --    0.82360   0.83871   0.84518   0.85394   0.85486
 Alpha virt. eigenvalues --    0.85726   0.87294   0.87998   0.88759   0.89338
 Alpha virt. eigenvalues --    0.90087   0.91368   0.91943   0.93121   0.94725
 Alpha virt. eigenvalues --    0.95035   0.95986   0.96223   0.96568   0.96662
 Alpha virt. eigenvalues --    0.97364   0.98205   0.99048   0.99461   1.00609
 Alpha virt. eigenvalues --    1.01040   1.01759   1.02256   1.03037   1.03746
 Alpha virt. eigenvalues --    1.04524   1.04686   1.05388   1.05831   1.06355
 Alpha virt. eigenvalues --    1.07309   1.08171   1.08546   1.09247   1.09834
 Alpha virt. eigenvalues --    1.10087   1.11897   1.12823   1.13500   1.13730
 Alpha virt. eigenvalues --    1.14387   1.15554   1.16995   1.17643   1.17846
 Alpha virt. eigenvalues --    1.18598   1.19925   1.20233   1.21228   1.21938
 Alpha virt. eigenvalues --    1.22188   1.22569   1.23717   1.24711   1.24922
 Alpha virt. eigenvalues --    1.27382   1.29298   1.30117   1.33685   1.36950
 Alpha virt. eigenvalues --    1.37572   1.38735   1.39852   1.43470   1.45707
 Alpha virt. eigenvalues --    1.46379   1.48410   1.49506   1.50594   1.53401
 Alpha virt. eigenvalues --    1.53844   1.56405   1.57397   1.59271   1.59508
 Alpha virt. eigenvalues --    1.61005   1.61122   1.61333   1.61961   1.63063
 Alpha virt. eigenvalues --    1.64382   1.65128   1.65377   1.65693   1.66136
 Alpha virt. eigenvalues --    1.67122   1.67637   1.68832   1.68871   1.69169
 Alpha virt. eigenvalues --    1.69350   1.71577   1.72330   1.72772   1.74378
 Alpha virt. eigenvalues --    1.75125   1.75721   1.76802   1.78914   1.79798
 Alpha virt. eigenvalues --    1.80374   1.81213   1.82254   1.82947   1.84509
 Alpha virt. eigenvalues --    1.85037   1.86070   1.86734   1.88438   1.89645
 Alpha virt. eigenvalues --    1.90464   1.90978   1.92461   1.92583   1.93364
 Alpha virt. eigenvalues --    1.93531   1.95280   1.96533   1.98891   1.99287
 Alpha virt. eigenvalues --    1.99737   1.99857   2.02199   2.02377   2.03200
 Alpha virt. eigenvalues --    2.04284   2.05126   2.06104   2.07142   2.07768
 Alpha virt. eigenvalues --    2.08434   2.09139   2.09984   2.11662   2.12067
 Alpha virt. eigenvalues --    2.12550   2.14405   2.14757   2.16285   2.17330
 Alpha virt. eigenvalues --    2.19556   2.20621   2.22557   2.22751   2.25178
 Alpha virt. eigenvalues --    2.26062   2.27169   2.27311   2.28403   2.28674
 Alpha virt. eigenvalues --    2.32036   2.33351   2.35470   2.36950   2.40285
 Alpha virt. eigenvalues --    2.43454   2.43991   2.44989   2.45688   2.46434
 Alpha virt. eigenvalues --    2.46611   2.47845   2.50233   2.50720   2.51610
 Alpha virt. eigenvalues --    2.52513   2.54340   2.56631   2.58189   2.60044
 Alpha virt. eigenvalues --    2.62351   2.63483   2.65652   2.67312   2.67781
 Alpha virt. eigenvalues --    2.68268   2.70421   2.73028   2.75711   2.75841
 Alpha virt. eigenvalues --    2.78333   2.78572   2.79752   2.80360   2.81984
 Alpha virt. eigenvalues --    2.85426   2.86647   2.87000   2.88707   2.89086
 Alpha virt. eigenvalues --    2.90476   2.90602   2.91438   2.91596   2.93591
 Alpha virt. eigenvalues --    2.94518   2.95442   2.96759   2.96947   2.98876
 Alpha virt. eigenvalues --    3.00576   3.01493   3.01664   3.02313   3.03407
 Alpha virt. eigenvalues --    3.04186   3.04955   3.05123   3.05480   3.08020
 Alpha virt. eigenvalues --    3.08398   3.08726   3.09084   3.10395   3.10570
 Alpha virt. eigenvalues --    3.12492   3.14743   3.16066   3.17528   3.18433
 Alpha virt. eigenvalues --    3.19350   3.19613   3.21868   3.21988   3.26048
 Alpha virt. eigenvalues --    3.27702   3.28715   3.32484   3.33342   3.36475
 Alpha virt. eigenvalues --    3.36975   3.37451   3.38672   3.39746   3.43955
 Alpha virt. eigenvalues --    3.44852   3.50810   3.52403   3.54215   3.56756
 Alpha virt. eigenvalues --    3.58932   3.65884   3.68448   3.73058   3.75194
 Alpha virt. eigenvalues --    3.79212   3.80681   3.84080   3.84689   3.86367
 Alpha virt. eigenvalues --    3.89956   3.90067   3.93816   3.97918   4.01952
 Alpha virt. eigenvalues --    4.12651   4.13675   4.23062   4.23430   4.25060
 Alpha virt. eigenvalues --    4.28200   4.29350   4.37495   4.42549   4.45519
 Alpha virt. eigenvalues --    4.45899   4.48144   4.52783   4.59157   4.61805
 Alpha virt. eigenvalues --    4.70151   4.80286   4.96060   4.98694   5.10689
 Alpha virt. eigenvalues --    5.11530   5.23224   5.25124   5.44360   5.54429
 Alpha virt. eigenvalues --    5.89207   6.04646  23.85123  23.94773  24.00264
 Alpha virt. eigenvalues --   24.12816  24.15881  24.18122  24.21715  24.23930
 Alpha virt. eigenvalues --   24.26508  24.33284  24.38346  24.40913  24.41703
 Alpha virt. eigenvalues --   24.45616  24.46388  24.48646  24.51924  35.75510
 Alpha virt. eigenvalues --   50.13945  50.19882
          Condensed to atoms (all electrons):
              1          2          3          4          5          6
     1  C   19.658224  -1.153365  -0.160368  -0.595726  -0.007278   0.378917
     2  C   -1.153365  12.736384   0.779545   0.495978  -0.141489  -2.014085
     3  H   -0.160368   0.779545   0.491698  -0.051369  -0.021733  -0.048471
     4  C   -0.595726   0.495978  -0.051369   6.670101   0.482008  -0.449981
     5  H   -0.007278  -0.141489  -0.021733   0.482008   0.513348  -0.052778
     6  C    0.378917  -2.014085  -0.048471  -0.449981  -0.052778  11.595725
     7  H    0.061063  -0.005645   0.000780  -0.123169  -0.016896   0.504769
     8  C   -5.505979   2.685451   0.061492   1.478193  -0.058259  -4.621662
     9  H   -0.064963   0.097716   0.000436   0.077409   0.002727  -0.422408
    10  C   -0.061557  -4.206698  -0.186949   0.082428   0.131949  -1.771376
    11  C   -4.939232  -2.329517  -0.046696  -1.009109   0.004681   1.812284
    12  C   -1.919988  -0.308240   0.000414  -0.547976  -0.009285   1.054631
    13  H    0.059438  -0.024616   0.001348  -0.025658  -0.001824   0.036566
    14  C   -0.503013  -0.061830   0.002265  -0.196872  -0.003262   0.577869
    15  H   -0.089833   0.006354  -0.000150  -0.005158  -0.000045   0.019972
    16  C    0.071293   0.037336  -0.000544   0.029013   0.000695  -0.130560
    17  C    0.095301   0.051673   0.000636  -0.023534  -0.000532   0.020961
    18  H    0.017259   0.004858  -0.000009  -0.001885  -0.000004  -0.010861
    19  C    0.034248   0.012370   0.000065  -0.001791   0.000010  -0.058815
    20  H   -0.001679  -0.000344  -0.000003   0.000297   0.000005   0.000572
    21  C    0.008157   0.001690   0.000016  -0.000835  -0.000012  -0.005384
    22  C   -0.044799  -0.007353  -0.000068   0.000365   0.000016   0.018843
    23  H   -0.000940  -0.000022  -0.000001   0.000004   0.000000   0.000153
    24  C   -0.062011  -0.029091  -0.000219   0.000358   0.000058   0.054483
    25  H    0.011881   0.000247   0.000015   0.000222   0.000001  -0.002207
    26  C    0.000030   0.000001   0.000000   0.000004   0.000000  -0.000185
    27  H    0.000003   0.000001   0.000000  -0.000002   0.000000   0.000036
    28  H    0.000003   0.000000   0.000000   0.000000   0.000000  -0.000016
    29  H    0.000015   0.000001   0.000000  -0.000003   0.000000   0.000002
    30  C   -0.000041  -0.000005   0.000000   0.000000   0.000000   0.000034
    31  H    0.000017   0.000001   0.000000   0.000000   0.000000  -0.000004
    32  H   -0.000006  -0.000001   0.000000   0.000000   0.000000   0.000006
    33  H    0.000011   0.000001   0.000000   0.000000   0.000000  -0.000008
    34  N    0.000005  -0.000002   0.000000   0.000002   0.000000   0.000007
    35  O    0.611561  -0.223998  -0.035371   0.034443   0.003711  -0.047622
    36  H    0.011931   0.090159   0.003615  -0.003295  -0.000103  -0.012945
    37  O    0.178113  -0.067670  -0.001740   0.002222  -0.000011  -0.011560
              7          8          9         10         11         12
     1  C    0.061063  -5.505979  -0.064963  -0.061557  -4.939232  -1.919988
     2  C   -0.005645   2.685451   0.097716  -4.206698  -2.329517  -0.308240
     3  H    0.000780   0.061492   0.000436  -0.186949  -0.046696   0.000414
     4  C   -0.123169   1.478193   0.077409   0.082428  -1.009109  -0.547976
     5  H   -0.016896  -0.058259   0.002727   0.131949   0.004681  -0.009285
     6  C    0.504769  -4.621662  -0.422408  -1.771376   1.812284   1.054631
     7  H    0.510302  -0.181597  -0.034671   0.031455   0.020065   0.025322
     8  C   -0.181597  19.183381   0.982751  -1.844205  -0.628649  -2.307642
     9  H   -0.034671   0.982751   0.636897   0.032069   0.000954  -0.197842
    10  C    0.031455  -1.844205   0.032069  20.229266  -0.025091  -4.657937
    11  C    0.020065  -0.628649   0.000954  -0.025091  15.500160   0.329565
    12  C    0.025322  -2.307642  -0.197842  -4.657937   0.329565  12.704558
    13  H    0.007748  -0.168406  -0.040692   0.030862  -0.187021   0.856134
    14  C    0.012732  -1.523457  -0.156119  -2.772824  -3.090004   3.719040
    15  H   -0.000267   0.057786   0.002850  -0.244255  -0.012498   0.110491
    16  C   -0.003842   0.153372   0.029029   0.198150   1.368407  -1.349908
    17  C    0.001244  -0.294186  -0.020281  -0.359773  -1.059339  -0.831106
    18  H   -0.000234  -0.033794  -0.002799  -0.005560  -0.028971  -0.161262
    19  C   -0.001583  -0.029963   0.018221   0.079978   0.341432  -0.693293
    20  H    0.000002   0.005636   0.000203   0.001299   0.012317   0.058229
    21  C   -0.000214  -0.024720   0.002193  -0.025110  -0.116246  -0.437944
    22  C    0.000123   0.061504  -0.003139  -0.132569  -0.286584   0.577411
    23  H   -0.000003   0.001716   0.000052  -0.005318  -0.004324  -0.018776
    24  C    0.000626   0.040711  -0.005574  -0.073762  -0.233355   0.118001
    25  H    0.000004  -0.011410   0.000043   0.042552   0.041561   0.025784
    26  C   -0.000004  -0.000365   0.000086   0.001345   0.004793   0.012078
    27  H    0.000000   0.000045   0.000012  -0.000208  -0.000528  -0.002139
    28  H    0.000000  -0.000032   0.000008   0.000104   0.000479   0.000877
    29  H    0.000001  -0.000111  -0.000014   0.000002  -0.000682  -0.001303
    30  C    0.000000   0.000140  -0.000023  -0.000698  -0.002021  -0.005688
    31  H    0.000000  -0.000032  -0.000002   0.000120   0.000158   0.000720
    32  H    0.000000   0.000024  -0.000006  -0.000069  -0.000332  -0.000048
    33  H    0.000000  -0.000041   0.000005   0.000099   0.000287  -0.000020
    34  N    0.000001  -0.000008  -0.000016   0.000428   0.001964   0.006988
    35  O   -0.000859  -0.021522   0.000216  -0.096508  -0.133400   0.001050
    36  H   -0.000038   0.014700   0.000338  -0.289810   0.065528   0.086989
    37  O    0.001004  -0.160616  -0.006591   0.276826   0.460010  -0.507085
             13         14         15         16         17         18
     1  C    0.059438  -0.503013  -0.089833   0.071293   0.095301   0.017259
     2  C   -0.024616  -0.061830   0.006354   0.037336   0.051673   0.004858
     3  H    0.001348   0.002265  -0.000150  -0.000544   0.000636  -0.000009
     4  C   -0.025658  -0.196872  -0.005158   0.029013  -0.023534  -0.001885
     5  H   -0.001824  -0.003262  -0.000045   0.000695  -0.000532  -0.000004
     6  C    0.036566   0.577869   0.019972  -0.130560   0.020961  -0.010861
     7  H    0.007748   0.012732  -0.000267  -0.003842   0.001244  -0.000234
     8  C   -0.168406  -1.523457   0.057786   0.153372  -0.294186  -0.033794
     9  H   -0.040692  -0.156119   0.002850   0.029029  -0.020281  -0.002799
    10  C    0.030862  -2.772824  -0.244255   0.198150  -0.359773  -0.005560
    11  C   -0.187021  -3.090004  -0.012498   1.368407  -1.059339  -0.028971
    12  C    0.856134   3.719040   0.110491  -1.349908  -0.831106  -0.161262
    13  H    0.752474   0.151595  -0.004870  -0.039123  -0.132086  -0.049115
    14  C    0.151595  10.272254   0.463628  -1.234528   0.926533  -0.033743
    15  H   -0.004870   0.463628   0.557819  -0.163271   0.058488   0.001694
    16  C   -0.039123  -1.234528  -0.163271  10.745402   0.621488  -0.104110
    17  C   -0.132086   0.926533   0.058488   0.621488   9.908053   0.411742
    18  H   -0.049115  -0.033743   0.001694  -0.104110   0.411742   0.595417
    19  C   -0.167687  -0.461502   0.005835  -0.435536   1.471841   0.055633
    20  H    0.012983   0.022663  -0.000302   0.148375   0.080134  -0.057404
    21  C   -0.060770  -0.251461   0.015187  -1.819661  -1.486791   0.211834
    22  C    0.033248   0.683038   0.059584  -2.778374  -1.538789  -0.004506
    23  H   -0.001566   0.009243   0.007140  -0.081746  -0.007417   0.004467
    24  C    0.030473  -0.597491   0.006592   0.024441  -1.132444   0.070082
    25  H    0.005008  -0.025647  -0.035121   0.018164  -0.063063  -0.009197
    26  C   -0.000139  -0.009258  -0.000314  -0.006816  -0.016353   0.002888
    27  H   -0.000554   0.000038   0.000210  -0.012596  -0.007732   0.003974
    28  H    0.000028  -0.001978  -0.000091   0.004659  -0.001831  -0.000249
    29  H   -0.000179   0.000136   0.000095  -0.007260  -0.018603   0.002232
    30  C    0.000109   0.016204  -0.000566  -0.144073  -0.048266   0.001050
    31  H    0.000049  -0.001499  -0.000273   0.003649  -0.006533  -0.000303
    32  H    0.000068   0.003138   0.000054  -0.007857   0.008929  -0.000662
    33  H    0.000022  -0.002221  -0.000244   0.013549  -0.003879  -0.000317
    34  N   -0.000088  -0.000962  -0.000886  -0.011229  -0.019387  -0.003098
    35  O    0.001383   0.017059  -0.000006   0.001837   0.000989   0.000040
    36  H    0.006259   0.016983   0.006381  -0.005595  -0.005090  -0.000610
    37  O    0.006856  -0.091260  -0.040783   0.018417  -0.000337   0.001476
             19         20         21         22         23         24
     1  C    0.034248  -0.001679   0.008157  -0.044799  -0.000940  -0.062011
     2  C    0.012370  -0.000344   0.001690  -0.007353  -0.000022  -0.029091
     3  H    0.000065  -0.000003   0.000016  -0.000068  -0.000001  -0.000219
     4  C   -0.001791   0.000297  -0.000835   0.000365   0.000004   0.000358
     5  H    0.000010   0.000005  -0.000012   0.000016   0.000000   0.000058
     6  C   -0.058815   0.000572  -0.005384   0.018843   0.000153   0.054483
     7  H   -0.001583   0.000002  -0.000214   0.000123  -0.000003   0.000626
     8  C   -0.029963   0.005636  -0.024720   0.061504   0.001716   0.040711
     9  H    0.018221   0.000203   0.002193  -0.003139   0.000052  -0.005574
    10  C    0.079978   0.001299  -0.025110  -0.132569  -0.005318  -0.073762
    11  C    0.341432   0.012317  -0.116246  -0.286584  -0.004324  -0.233355
    12  C   -0.693293   0.058229  -0.437944   0.577411  -0.018776   0.118001
    13  H   -0.167687   0.012983  -0.060770   0.033248  -0.001566   0.030473
    14  C   -0.461502   0.022663  -0.251461   0.683038   0.009243  -0.597491
    15  H    0.005835  -0.000302   0.015187   0.059584   0.007140   0.006592
    16  C   -0.435536   0.148375  -1.819661  -2.778374  -0.081746   0.024441
    17  C    1.471841   0.080134  -1.486791  -1.538789  -0.007417  -1.132444
    18  H    0.055633  -0.057404   0.211834  -0.004506   0.004467   0.070082
    19  C    9.090475   0.408611   0.405699  -1.968966  -0.023084  -1.558444
    20  H    0.408611   0.585369  -0.352042  -0.040545  -0.003812  -0.061666
    21  C    0.405699  -0.352042  11.885383   0.449694  -0.093839  -1.868297
    22  C   -1.968966  -0.040545   0.449694  10.242813   0.581196   0.662964
    23  H   -0.023084  -0.003812  -0.093839   0.581196   0.550205  -0.023326
    24  C   -1.558444  -0.061666  -1.868297   0.662964  -0.023326  10.601941
    25  H    0.008334   0.003819   0.024823  -0.084761  -0.033520   0.352765
    26  C    0.135800   0.024615  -0.115923  -0.209739  -0.009250  -0.041080
    27  H    0.031889  -0.023076   0.015762  -0.012341   0.000513  -0.007269
    28  H    0.024155   0.011102  -0.021633  -0.003033   0.000695   0.013538
    29  H   -0.011884  -0.018903   0.032574   0.010951   0.000712   0.002662
    30  C   -0.166152  -0.008682  -0.041280   0.231906   0.023728  -0.101740
    31  H   -0.009278  -0.000085   0.010858   0.011227  -0.018402  -0.010022
    32  H    0.016273   0.002810  -0.009027   0.025694   0.009786  -0.026899
    33  H   -0.002940   0.000542  -0.011202   0.002353  -0.014520   0.011985
    34  N   -0.278299  -0.032990   0.237194  -0.243402  -0.032123   0.053778
    35  O    0.000112  -0.000001  -0.000009  -0.000087   0.000002  -0.001026
    36  H    0.000354   0.000042  -0.000590  -0.001073   0.000016   0.000597
    37  O   -0.002314   0.000035  -0.000601   0.001357   0.000044  -0.006634
             25         26         27         28         29         30
     1  C    0.011881   0.000030   0.000003   0.000003   0.000015  -0.000041
     2  C    0.000247   0.000001   0.000001   0.000000   0.000001  -0.000005
     3  H    0.000015   0.000000   0.000000   0.000000   0.000000   0.000000
     4  C    0.000222   0.000004  -0.000002   0.000000  -0.000003   0.000000
     5  H    0.000001   0.000000   0.000000   0.000000   0.000000   0.000000
     6  C   -0.002207  -0.000185   0.000036  -0.000016   0.000002   0.000034
     7  H    0.000004  -0.000004   0.000000   0.000000   0.000001   0.000000
     8  C   -0.011410  -0.000365   0.000045  -0.000032  -0.000111   0.000140
     9  H    0.000043   0.000086   0.000012   0.000008  -0.000014  -0.000023
    10  C    0.042552   0.001345  -0.000208   0.000104   0.000002  -0.000698
    11  C    0.041561   0.004793  -0.000528   0.000479  -0.000682  -0.002021
    12  C    0.025784   0.012078  -0.002139   0.000877  -0.001303  -0.005688
    13  H    0.005008  -0.000139  -0.000554   0.000028  -0.000179   0.000109
    14  C   -0.025647  -0.009258   0.000038  -0.001978   0.000136   0.016204
    15  H   -0.035121  -0.000314   0.000210  -0.000091   0.000095  -0.000566
    16  C    0.018164  -0.006816  -0.012596   0.004659  -0.007260  -0.144073
    17  C   -0.063063  -0.016353  -0.007732  -0.001831  -0.018603  -0.048266
    18  H   -0.009197   0.002888   0.003974  -0.000249   0.002232   0.001050
    19  C    0.008334   0.135800   0.031889   0.024155  -0.011884  -0.166152
    20  H    0.003819   0.024615  -0.023076   0.011102  -0.018903  -0.008682
    21  C    0.024823  -0.115923   0.015762  -0.021633   0.032574  -0.041280
    22  C   -0.084761  -0.209739  -0.012341  -0.003033   0.010951   0.231906
    23  H   -0.033520  -0.009250   0.000513   0.000695   0.000712   0.023728
    24  C    0.352765  -0.041080  -0.007269   0.013538   0.002662  -0.101740
    25  H    0.542476   0.001625  -0.000581   0.000148  -0.000414   0.002791
    26  C    0.001625   4.970442   0.436704   0.420922   0.439304  -0.094940
    27  H   -0.000581   0.436704   0.555803  -0.022795  -0.061182   0.000922
    28  H    0.000148   0.420922  -0.022795   0.514207  -0.020493  -0.017100
    29  H   -0.000414   0.439304  -0.061182  -0.020493   0.555906   0.002835
    30  C    0.002791  -0.094940   0.000922  -0.017100   0.002835   4.984951
    31  H    0.001904  -0.001770   0.003546  -0.002063  -0.003785   0.450536
    32  H   -0.000366  -0.012664  -0.001031   0.007394  -0.002368   0.419343
    33  H    0.001544   0.003052  -0.004927  -0.000443   0.003082   0.430181
    34  N   -0.001903   0.317925  -0.047013  -0.033632  -0.062171   0.324455
    35  O   -0.000019   0.000000   0.000000   0.000000   0.000000   0.000000
    36  H   -0.000471   0.000004  -0.000001   0.000001  -0.000001  -0.000009
    37  O    0.003030  -0.000003   0.000000  -0.000001   0.000001   0.000003
             31         32         33         34         35         36
     1  C    0.000017  -0.000006   0.000011   0.000005   0.611561   0.011931
     2  C    0.000001  -0.000001   0.000001  -0.000002  -0.223998   0.090159
     3  H    0.000000   0.000000   0.000000   0.000000  -0.035371   0.003615
     4  C    0.000000   0.000000   0.000000   0.000002   0.034443  -0.003295
     5  H    0.000000   0.000000   0.000000   0.000000   0.003711  -0.000103
     6  C   -0.000004   0.000006  -0.000008   0.000007  -0.047622  -0.012945
     7  H    0.000000   0.000000   0.000000   0.000001  -0.000859  -0.000038
     8  C   -0.000032   0.000024  -0.000041  -0.000008  -0.021522   0.014700
     9  H   -0.000002  -0.000006   0.000005  -0.000016   0.000216   0.000338
    10  C    0.000120  -0.000069   0.000099   0.000428  -0.096508  -0.289810
    11  C    0.000158  -0.000332   0.000287   0.001964  -0.133400   0.065528
    12  C    0.000720  -0.000048  -0.000020   0.006988   0.001050   0.086989
    13  H    0.000049   0.000068   0.000022  -0.000088   0.001383   0.006259
    14  C   -0.001499   0.003138  -0.002221  -0.000962   0.017059   0.016983
    15  H   -0.000273   0.000054  -0.000244  -0.000886  -0.000006   0.006381
    16  C    0.003649  -0.007857   0.013549  -0.011229   0.001837  -0.005595
    17  C   -0.006533   0.008929  -0.003879  -0.019387   0.000989  -0.005090
    18  H   -0.000303  -0.000662  -0.000317  -0.003098   0.000040  -0.000610
    19  C   -0.009278   0.016273  -0.002940  -0.278299   0.000112   0.000354
    20  H   -0.000085   0.002810   0.000542  -0.032990  -0.000001   0.000042
    21  C    0.010858  -0.009027  -0.011202   0.237194  -0.000009  -0.000590
    22  C    0.011227   0.025694   0.002353  -0.243402  -0.000087  -0.001073
    23  H   -0.018402   0.009786  -0.014520  -0.032123   0.000002   0.000016
    24  C   -0.010022  -0.026899   0.011985   0.053778  -0.001026   0.000597
    25  H    0.001904  -0.000366   0.001544  -0.001903  -0.000019  -0.000471
    26  C   -0.001770  -0.012664   0.003052   0.317925   0.000000   0.000004
    27  H    0.003546  -0.001031  -0.004927  -0.047013   0.000000  -0.000001
    28  H   -0.002063   0.007394  -0.000443  -0.033632   0.000000   0.000001
    29  H   -0.003785  -0.002368   0.003082  -0.062171   0.000000  -0.000001
    30  C    0.450536   0.419343   0.430181   0.324455   0.000000  -0.000009
    31  H    0.550970  -0.017429  -0.060358  -0.058051   0.000000   0.000001
    32  H   -0.017429   0.513966  -0.023587  -0.033504   0.000000  -0.000001
    33  H   -0.060358  -0.023587   0.551852  -0.053392   0.000000   0.000001
    34  N   -0.058051  -0.033504  -0.053392   7.093822   0.000000   0.000003
    35  O    0.000000   0.000000   0.000000   0.000000   8.303905   0.113659
    36  H    0.000001  -0.000001   0.000001   0.000003   0.113659   0.340879
    37  O   -0.000002   0.000001  -0.000002  -0.000002  -0.022817   0.197392
             37
     1  C    0.178113
     2  C   -0.067670
     3  H   -0.001740
     4  C    0.002222
     5  H   -0.000011
     6  C   -0.011560
     7  H    0.001004
     8  C   -0.160616
     9  H   -0.006591
    10  C    0.276826
    11  C    0.460010
    12  C   -0.507085
    13  H    0.006856
    14  C   -0.091260
    15  H   -0.040783
    16  C    0.018417
    17  C   -0.000337
    18  H    0.001476
    19  C   -0.002314
    20  H    0.000035
    21  C   -0.000601
    22  C    0.001357
    23  H    0.000044
    24  C   -0.006634
    25  H    0.003030
    26  C   -0.000003
    27  H    0.000000
    28  H   -0.000001
    29  H    0.000001
    30  C    0.000003
    31  H   -0.000002
    32  H    0.000001
    33  H   -0.000002
    34  N   -0.000002
    35  O   -0.022817
    36  H    0.197392
    37  O    7.937963
 Mulliken atomic charges:
              1
     1  C   -0.086692
     2  C   -0.425799
     3  H    0.211366
     4  C   -0.316684
     5  H    0.174302
     6  C   -0.414900
     7  H    0.191782
     8  C   -1.310250
     9  H    0.070925
    10  C    1.621344
    11  C    0.168952
    12  C    0.269198
    13  H   -0.088256
    14  C    0.124511
    15  H    0.218775
    16  C    0.849355
    17  C   -0.580660
    18  H    0.124047
    19  C   -0.269806
    20  H    0.221875
    21  C   -0.557471
    22  C   -0.294156
    23  H    0.182315
    24  C   -0.205707
    25  H    0.179938
    26  C   -0.252819
    27  H    0.154519
    28  H    0.127070
    29  H    0.158846
    30  C   -0.257906
    31  H    0.156135
    32  H    0.128372
    33  H    0.159534
    34  N   -0.124412
    35  O   -0.506723
    36  H    0.363799
    37  O   -0.164720
 Sum of Mulliken atomic charges =   0.00000
 Mulliken charges with hydrogens summed into heavy atoms:
              1
     1  C   -0.086692
     2  C   -0.214432
     4  C   -0.142382
     6  C   -0.223119
     8  C   -1.239324
    10  C    1.621344
    11  C    0.168952
    12  C    0.180942
    14  C    0.343286
    16  C    0.849355
    17  C   -0.456613
    19  C   -0.047930
    21  C   -0.557471
    22  C   -0.111840
    24  C   -0.025769
    26  C    0.187616
    30  C    0.186135
    34  N   -0.124412
    35  O   -0.506723
    37  O    0.199078
 Sum of Mulliken charges with hydrogens summed into heavy atoms =   0.00000
 Electronic spatial extent (au):  <R**2>=          10251.2204
 Charge=              0.0000 electrons
 Dipole moment (field-independent basis, Debye):
    X=            -11.5588    Y=              3.5331    Z=             -0.4532  Tot=             12.0952
 Quadrupole moment (field-independent basis, Debye-Ang):
   XX=           -102.4424   YY=           -110.1374   ZZ=           -122.7504
   XY=             13.5353   XZ=             -2.0024   YZ=              1.6036
 Traceless Quadrupole moment (field-independent basis, Debye-Ang):
   XX=              9.3343   YY=              1.6394   ZZ=            -10.9737
   XY=             13.5353   XZ=             -2.0024   YZ=              1.6036
 Octapole moment (field-independent basis, Debye-Ang**2):
  XXX=           -440.2857  YYY=              6.3062  ZZZ=              1.9643  XYY=            -49.4371
  XXY=            120.5530  XXZ=            -12.4552  XZZ=            -10.3217  YZZ=             -5.4449
  YYZ=             -2.1355  XYZ=             -1.3072
 Hexadecapole moment (field-independent basis, Debye-Ang**3):
 XXXX=         -10651.9682 YYYY=          -1208.7827 ZZZZ=           -155.3571 XXXY=            392.1699
 XXXZ=            -48.4288 YYYX=             17.2239 YYYZ=              2.3977 ZZZX=              4.2632
 ZZZY=              1.0403 XXYY=          -2218.5050 XXZZ=          -2189.4427 YYZZ=           -252.6748
 XXYZ=             35.0176 YYXZ=            -15.2116 ZZXY=            -36.4910
 N-N= 1.378413821557D+03 E-N=-4.768710330492D+03  KE= 8.638665324592D+02
 Calling FoFJK, ICntrl=      2127 FMM=F ISym2X=0 I1Cent= 0 IOpClX= 0 NMat=1 NMatS=1 NMatT=0.
 FoFJK:  IHMeth= 1 ICntrl=  2127 DoSepK=T KAlg= 1 I1Cent= 0 FoldK=F
 ***** Axes restored to original set *****
 -------------------------------------------------------------------
 Center     Atomic                   Forces (Hartrees/Bohr)
 Number     Number              X              Y              Z
 -------------------------------------------------------------------
      1        6           0.010555965    0.058509811    0.088448826
      2        6           0.095224627   -0.042441590   -0.117364785
      3        1          -0.122838204    0.026457035    0.108250255
      4        6           0.131521558    0.077945271    0.048328563
      5        1          -0.149316006   -0.071769585   -0.028108481
      6        6           0.040572948    0.090574727    0.110809383
      7        1          -0.019221799   -0.096589815   -0.133393143
      8        6          -0.115157095    0.015645151    0.091972484
      9        1           0.123356944   -0.025064287   -0.110095282
     10        6           0.035427627    0.016040850    0.003311805
     11        6          -0.049924210   -0.047786315   -0.040050791
     12        6           0.011286374    0.102153722    0.122877515
     13        1          -0.020577653   -0.106604985   -0.122722470
     14        6          -0.000742621   -0.099325256   -0.113345979
     15        1           0.006397141    0.112285790    0.127175922
     16        6          -0.000789004   -0.005848852   -0.005573559
     17        6           0.114469375    0.092116923    0.046271907
     18        1          -0.127328100   -0.098015665   -0.045756819
     19        6          -0.003857801    0.106926001    0.109726465
     20        1           0.011923157   -0.112701597   -0.120247118
     21        6          -0.000197573   -0.000799909   -0.001284211
     22        6          -0.113781306   -0.091698340   -0.047261511
     23        1           0.125432711    0.097235739    0.046389755
[...]
    12  C    0.019998  -2.899207  -0.217859  -6.475456  -0.859084  16.853812
    13  H    0.005664  -0.269142  -0.045692   0.147642  -0.193814   0.799271
    14  C    0.011346  -1.824544  -0.168317  -3.092325  -4.880136   5.000389
    15  H   -0.000063   0.023162   0.000495  -0.154111   0.051173   0.072981
    16  C   -0.003938   0.310399   0.040002   0.616027   2.034037  -2.286795
    17  C    0.001506  -0.237553  -0.035705  -0.833627  -1.916127  -0.255962
    18  H   -0.000258  -0.005765  -0.001252  -0.042810  -0.017257  -0.122940
    19  C   -0.000935   0.025677   0.016778   0.069907   0.486595  -0.618618
    20  H    0.000002   0.001827  -0.000020   0.005101   0.009637   0.033980
    21  C   -0.000091  -0.006586  -0.000803  -0.063062  -0.172240  -0.220513
    22  C    0.000026   0.023732  -0.003056  -0.122606  -0.283458   0.593880
    23  H   -0.000001   0.000505   0.000001  -0.001877   0.000161  -0.023421
    24  C    0.000197   0.000929  -0.003488  -0.009000   0.062087   0.018368
    25  H   -0.000006  -0.003626   0.000238   0.021713   0.033775   0.031993
    26  C   -0.000005  -0.000148   0.000285   0.001364   0.007496   0.010644
    27  H    0.000001  -0.000001  -0.000038  -0.000099  -0.000586  -0.000352
    28  H    0.000000  -0.000012   0.000015   0.000081   0.000453   0.000618
    29  H    0.000000   0.000002   0.000018  -0.000153  -0.000479  -0.000909
    30  C    0.000000   0.000059  -0.000008  -0.000809  -0.001695  -0.007934
    31  H    0.000000   0.000004   0.000002   0.000059   0.000125   0.000828
    32  H    0.000000   0.000008  -0.000003  -0.000052  -0.000224  -0.000159
    33  H    0.000000  -0.000026   0.000001   0.000062   0.000053   0.000064
    34  N    0.000000  -0.000027   0.000036   0.000366   0.002532   0.003126
    35  O    0.000249  -0.053666  -0.003054   0.059600  -0.024275  -0.017397
    36  H    0.000239   0.038316   0.001700  -0.135938   0.047469  -0.007635
    37  O    0.001035  -0.309849  -0.008446  -0.008585   0.781273  -0.289851
             13         14         15         16         17         18
     1  C    0.056653  -0.986210  -0.073279   0.067755  -0.014234   0.005147
     2  C   -0.052854  -0.123807  -0.000718   0.027572   0.034599   0.004963
     3  H    0.000163   0.003118  -0.000082  -0.000927   0.000395   0.000001
     4  C   -0.019660  -0.250030  -0.005046   0.042525  -0.025647  -0.000948
     5  H   -0.000786  -0.003000  -0.000043   0.000595  -0.000422  -0.000018
     6  C    0.026731   0.528555   0.011698  -0.227754   0.103825   0.000742
     7  H    0.005664   0.011346  -0.000063  -0.003938   0.001506  -0.000258
     8  C   -0.269142  -1.824544   0.023162   0.310399  -0.237553  -0.005765
     9  H   -0.045692  -0.168317   0.000495   0.040002  -0.035705  -0.001252
    10  C    0.147642  -3.092325  -0.154111   0.616027  -0.833627  -0.042810
    11  C   -0.193814  -4.880136   0.051173   2.034037  -1.916127  -0.017257
    12  C    0.799271   5.000389   0.072981  -2.286795  -0.255962  -0.122940
    13  H    0.887343   0.076634  -0.000808  -0.014622  -0.135815  -0.066081
    14  C    0.076634  11.618151   0.392692  -1.712634   1.784999  -0.008620
    15  H   -0.000808   0.392692   0.473100  -0.127477   0.054616   0.003949
    16  C   -0.014622  -1.712634  -0.127477  12.183812  -0.956977  -0.200426
    17  C   -0.135815   1.784999   0.054616  -0.956977  11.065567   0.486838
    18  H   -0.066081  -0.008620   0.003949  -0.200426   0.486838   0.594120
    19  C   -0.172271  -0.537780   0.006366  -0.818756   1.105372   0.085939
    20  H    0.013794   0.008632  -0.000609   0.163139  -0.007713  -0.045773
    21  C   -0.048639   0.043023   0.014243  -1.814645  -0.582463   0.190506
    22  C    0.054285   0.533282   0.022908  -2.477849  -1.258622  -0.029844
    23  H   -0.000889  -0.001303   0.002481  -0.007113  -0.014549   0.001630
    24  C    0.060019  -0.675937   0.025878   0.381881  -1.369534   0.020425
    25  H    0.003851   0.009294  -0.008230  -0.078890  -0.062588  -0.005055
    26  C   -0.001745  -0.012751   0.000039  -0.002590  -0.054004   0.004408
    27  H   -0.000152   0.000482   0.000026  -0.009132   0.001755   0.002117
    28  H   -0.000075  -0.001479  -0.000010   0.005634  -0.000964  -0.000242
    29  H   -0.000402   0.000270   0.000096  -0.010807  -0.006839   0.002621
    30  C    0.000057   0.019037  -0.000811  -0.142283  -0.045398   0.000467
    31  H   -0.000027  -0.000807  -0.000056   0.003408  -0.003917  -0.000079
    32  H    0.000046   0.002014  -0.000021  -0.006758   0.003332  -0.000264
    33  H    0.000074  -0.001021  -0.000137   0.006323  -0.004251  -0.000245
    34  N   -0.000841  -0.003846  -0.000732  -0.031923  -0.049756  -0.001001
    35  O    0.000015   0.035814  -0.000793   0.000960   0.000571   0.000103
    36  H    0.000826  -0.024358  -0.000491   0.002446  -0.007026  -0.000247
    37  O    0.011814   0.055368  -0.006665   0.022714  -0.007128   0.000277
             19         20         21         22         23         24
     1  C    0.031510  -0.000635   0.003630  -0.024624  -0.000529  -0.015316
     2  C    0.007432  -0.000206   0.001002  -0.003959  -0.000016  -0.015781
     3  H   -0.000007  -0.000001   0.000007  -0.000009  -0.000001  -0.000018
     4  C    0.001365   0.000138  -0.000453  -0.000018   0.000004   0.000462
     5  H    0.000026   0.000003  -0.000007   0.000003   0.000000   0.000032
     6  C   -0.026065  -0.000805   0.000538   0.008443  -0.000037   0.024343
     7  H   -0.000935   0.000002  -0.000091   0.000026  -0.000001   0.000197
     8  C    0.025677   0.001827  -0.006586   0.023732   0.000505   0.000929
     9  H    0.016778  -0.000020  -0.000803  -0.003056   0.000001  -0.003488
    10  C    0.069907   0.005101  -0.063062  -0.122606  -0.001877  -0.009000
    11  C    0.486595   0.009637  -0.172240  -0.283458   0.000161   0.062087
    12  C   -0.618618   0.033980  -0.220513   0.593880  -0.023421   0.018368
    13  H   -0.172271   0.013794  -0.048639   0.054285  -0.000889   0.060019
    14  C   -0.537780   0.008632   0.043023   0.533282  -0.001303  -0.675937
    15  H    0.006366  -0.000609   0.014243   0.022908   0.002481   0.025878
    16  C   -0.818756   0.163139  -1.814645  -2.477849  -0.007113   0.381881
    17  C    1.105372  -0.007713  -0.582463  -1.258622  -0.014549  -1.369534
    18  H    0.085939  -0.045773   0.190506  -0.029844   0.001630   0.020425
    19  C    9.011497   0.338050   0.481835  -1.782176  -0.042560  -1.119690
    20  H    0.338050   0.542994  -0.251023   0.008846   0.000681  -0.007787
    21  C    0.481835  -0.251023  12.081416  -0.161665  -0.152502  -2.706198
    22  C   -1.782176   0.008846  -0.161665   9.989554   0.493679   0.816888
    23  H   -0.042560   0.000681  -0.152502   0.493679   0.519822   0.093569
    24  C   -1.119690  -0.007787  -2.706198   0.816888   0.093569  10.446034
    25  H    0.014290   0.001469   0.045318   0.006815  -0.016027   0.282839
    26  C    0.102972   0.011626  -0.182964  -0.144159  -0.004053  -0.001815
    27  H    0.036412  -0.008998   0.009095  -0.019746  -0.000785  -0.011394
    28  H    0.017972   0.007628  -0.026276   0.008190   0.001916   0.013341
    29  H    0.036855  -0.016186  -0.008915  -0.012793  -0.000554  -0.006073
    30  C   -0.146740  -0.004649  -0.139693   0.217039   0.011682  -0.055804
    31  H    0.006465  -0.000525   0.001224   0.001275  -0.012688  -0.015386
    32  H    0.006362   0.001122   0.007801   0.020969   0.004452  -0.016785
    33  H   -0.021599  -0.000100  -0.028231   0.037208  -0.005205   0.009327
    34  N   -0.277578  -0.034903   0.264140  -0.241775  -0.031519   0.062484
    35  O    0.000085  -0.000001  -0.000035  -0.000189   0.000002  -0.000921
    36  H    0.000404   0.000023  -0.000456  -0.000393   0.000006   0.001954
    37  O   -0.002105   0.000069  -0.000840  -0.000873   0.000054  -0.008016
             25         26         27         28         29         30
     1  C    0.008392   0.000050   0.000006   0.000002   0.000000  -0.000022
     2  C    0.000421   0.000004   0.000000   0.000000   0.000001  -0.000002
     3  H    0.000008   0.000000   0.000000   0.000000   0.000000   0.000000
     4  C    0.000201   0.000005  -0.000001   0.000000  -0.000001   0.000000
     5  H    0.000002   0.000000   0.000000   0.000000   0.000000   0.000000
     6  C   -0.000863  -0.000172   0.000033  -0.000009   0.000019   0.000010
     7  H   -0.000006  -0.000005   0.000001   0.000000   0.000000   0.000000
     8  C   -0.003626  -0.000148  -0.000001  -0.000012   0.000002   0.000059
     9  H    0.000238   0.000285  -0.000038   0.000015   0.000018  -0.000008
    10  C    0.021713   0.001364  -0.000099   0.000081  -0.000153  -0.000809
    11  C    0.033775   0.007496  -0.000586   0.000453  -0.000479  -0.001695
    12  C    0.031993   0.010644  -0.000352   0.000618  -0.000909  -0.007934
    13  H    0.003851  -0.001745  -0.000152  -0.000075  -0.000402   0.000057
    14  C    0.009294  -0.012751   0.000482  -0.001479   0.000270   0.019037
    15  H   -0.008230   0.000039   0.000026  -0.000010   0.000096  -0.000811
    16  C   -0.078890  -0.002590  -0.009132   0.005634  -0.010807  -0.142283
    17  C   -0.062588  -0.054004   0.001755  -0.000964  -0.006839  -0.045398
    18  H   -0.005055   0.004408   0.002117  -0.000242   0.002621   0.000467
    19  C    0.014290   0.102972   0.036412   0.017972   0.036855  -0.146740
    20  H    0.001469   0.011626  -0.008998   0.007628  -0.016186  -0.004649
    21  C    0.045318  -0.182964   0.009095  -0.026276  -0.008915  -0.139693
    22  C    0.006815  -0.144159  -0.019746   0.008190  -0.012793   0.217039
    23  H   -0.016027  -0.004053  -0.000785   0.001916  -0.000554   0.011682
    24  C    0.282839  -0.001815  -0.011394   0.013341  -0.006073  -0.055804
    25  H    0.497017  -0.000089   0.000012  -0.000164  -0.000221   0.004349
    26  C   -0.000089   5.246854   0.397803   0.405541   0.437719  -0.125051
    27  H    0.000012   0.397803   0.576519  -0.027940  -0.061835   0.006608
    28  H   -0.000164   0.405541  -0.027940   0.514781  -0.019588  -0.015754
    29  H   -0.000221   0.437719  -0.061835  -0.019588   0.551961  -0.006780
    30  C    0.004349  -0.125051   0.006608  -0.015754  -0.006780   5.271286
    31  H    0.000628  -0.004556   0.001556  -0.004212   0.001602   0.432475
    32  H    0.000127  -0.014742   0.001546   0.013526  -0.004140   0.404539
    33  H    0.000654   0.005049  -0.004536   0.000655   0.001514   0.405780
    34  N   -0.001102   0.305402  -0.053281  -0.047008  -0.056517   0.310223
    35  O   -0.000011   0.000000   0.000000   0.000000   0.000000   0.000000
    36  H    0.000152   0.000003  -0.000001   0.000000  -0.000001  -0.000003
    37  O    0.000492  -0.000006   0.000000  -0.000001   0.000000   0.000005
             31         32         33         34         35         36
     1  C    0.000008  -0.000002   0.000006   0.000013   0.386549   0.019175
     2  C    0.000000   0.000000   0.000000   0.000000  -0.416326   0.063911
     3  H    0.000000   0.000000   0.000000   0.000000  -0.026915   0.002321
     4  C    0.000000   0.000000   0.000000   0.000001   0.013728  -0.001751
     5  H    0.000000   0.000000   0.000000   0.000000   0.000886  -0.000413
     6  C    0.000001   0.000002  -0.000003  -0.000006   0.000797   0.001217
     7  H    0.000000   0.000000   0.000000   0.000000   0.000249   0.000239
     8  C    0.000004   0.000008  -0.000026  -0.000027  -0.053666   0.038316
     9  H    0.000002  -0.000003   0.000001   0.000036  -0.003054   0.001700
    10  C    0.000059  -0.000052   0.000062   0.000366   0.059600  -0.135938
    11  C    0.000125  -0.000224   0.000053   0.002532  -0.024275   0.047469
    12  C    0.000828  -0.000159   0.000064   0.003126  -0.017397  -0.007635
    13  H   -0.000027   0.000046   0.000074  -0.000841   0.000015   0.000826
    14  C   -0.000807   0.002014  -0.001021  -0.003846   0.035814  -0.024358
    15  H   -0.000056  -0.000021  -0.000137  -0.000732  -0.000793  -0.000491
    16  C    0.003408  -0.006758   0.006323  -0.031923   0.000960   0.002446
    17  C   -0.003917   0.003332  -0.004251  -0.049756   0.000571  -0.007026
    18  H   -0.000079  -0.000264  -0.000245  -0.001001   0.000103  -0.000247
    19  C    0.006465   0.006362  -0.021599  -0.277578   0.000085   0.000404
    20  H   -0.000525   0.001122  -0.000100  -0.034903  -0.000001   0.000023
    21  C    0.001224   0.007801  -0.028231   0.264140  -0.000035  -0.000456
    22  C    0.001275   0.020969   0.037208  -0.241775  -0.000189  -0.000393
    23  H   -0.012688   0.004452  -0.005205  -0.031519   0.000002   0.000006
    24  C   -0.015386  -0.016785   0.009327   0.062484  -0.000921   0.001954
    25  H    0.000628   0.000127   0.000654  -0.001102  -0.000011   0.000152
    26  C   -0.004556  -0.014742   0.005049   0.305402   0.000000   0.000003
    27  H    0.001556   0.001546  -0.004536  -0.053281   0.000000  -0.000001
    28  H   -0.004212   0.013526   0.000655  -0.047008   0.000000   0.000000
    29  H    0.001602  -0.004140   0.001514  -0.056517   0.000000  -0.000001
    30  C    0.432475   0.404539   0.405780   0.310223   0.000000  -0.000003
    31  H    0.553585  -0.019485  -0.062324  -0.058646   0.000000   0.000000
    32  H   -0.019485   0.514157  -0.024952  -0.046762   0.000000   0.000000
    33  H   -0.062324  -0.024952   0.570264  -0.053010   0.000000   0.000000
    34  N   -0.058646  -0.046762  -0.053010   6.990911   0.000000   0.000002
    35  O    0.000000   0.000000   0.000000   0.000000   8.068174   0.257250
    36  H    0.000000   0.000000   0.000000   0.000002   0.257250   0.305853
    37  O   -0.000001   0.000000  -0.000001  -0.000002   0.008172   0.070099
             37
     1  C    0.013348
     2  C   -0.099122
     3  H    0.001318
     4  C   -0.027476
     5  H   -0.000307
     6  C    0.014696
     7  H    0.001035
     8  C   -0.309849
     9  H   -0.008446
    10  C   -0.008585
    11  C    0.781273
    12  C   -0.289851
    13  H    0.011814
    14  C    0.055368
    15  H   -0.006665
    16  C    0.022714
    17  C   -0.007128
    18  H    0.000277
    19  C   -0.002105
    20  H    0.000069
    21  C   -0.000840
    22  C   -0.000873
    23  H    0.000054
    24  C   -0.008016
    25  H    0.000492
    26  C   -0.000006
    27  H    0.000000
    28  H   -0.000001
    29  H    0.000000
    30  C    0.000005
    31  H   -0.000001
    32  H    0.000000
    33  H   -0.000001
    34  N   -0.000002
    35  O    0.008172
    36  H    0.070099
    37  O    8.078297
 Mulliken atomic charges:
              1
     1  C    0.110399
     2  C   -0.429032
     3  H    0.235966
     4  C   -0.390801
     5  H    0.204656
     6  C   -0.431727
     7  H    0.221980
     8  C   -1.278025
     9  H    0.113598
    10  C    1.693101
    11  C   -0.282456
    12  C    0.292716
    13  H   -0.120564
    14  C    0.185803
    15  H    0.224278
    16  C    1.023066
    17  C   -0.756554
    18  H    0.144867
    19  C   -0.323285
    20  H    0.231174
    21  C   -0.575480
    22  C   -0.269211
    23  H    0.184982
    24  C   -0.282115
    25  H    0.212820
    26  C   -0.388414
    27  H    0.164904
    28  H    0.153381
    29  H    0.180515
    30  C   -0.390179
    31  H    0.179465
    32  H    0.154344
    33  H    0.168609
    34  N    0.050998
    35  O   -0.289372
    36  H    0.365349
    37  O   -0.289756
 Sum of Mulliken atomic charges =   0.00000
 Mulliken charges with hydrogens summed into heavy atoms:
              1
     1  C    0.110399
     2  C   -0.193066
     4  C   -0.186145
     6  C   -0.209747
     8  C   -1.164427
    10  C    1.693101
    11  C   -0.282456
    12  C    0.172152
    14  C    0.410081
    16  C    1.023066
    17  C   -0.611687
    19  C   -0.092111
    21  C   -0.575480
    22  C   -0.084229
    24  C   -0.069295
    26  C    0.110386
    30  C    0.112240
    34  N    0.050998
    35  O    0.075976
    37  O   -0.289756
 Sum of Mulliken charges with hydrogens summed into heavy atoms =   0.00000
 Electronic spatial extent (au):  <R**2>=          10380.3602
 Charge=              0.0000 electrons
 Dipole moment (field-independent basis, Debye):
    X=             -6.8683    Y=              3.5309    Z=             -0.2422  Tot=              7.7265
 Quadrupole moment (field-independent basis, Debye-Ang):
   XX=            -89.3882   YY=           -112.4488   ZZ=           -125.2182
   XY=              9.7537   XZ=              0.0826   YZ=              0.8121
 Traceless Quadrupole moment (field-independent basis, Debye-Ang):
   XX=             19.6302   YY=             -3.4304   ZZ=            -16.1998
   XY=              9.7537   XZ=              0.0826   YZ=              0.8121
 Octapole moment (field-independent basis, Debye-Ang**2):
  XXX=           -242.8214  YYY=              9.1971  ZZZ=              1.1927  XYY=            -31.4730
  XXY=             75.2778  XXZ=             -4.3148  XZZ=             -3.3219  YZZ=             -7.3457
  YYZ=             -1.9646  XYZ=             -3.7737
 Hexadecapole moment (field-independent basis, Debye-Ang**3):
 XXXX=         -10625.7947 YYYY=          -1270.9292 ZZZZ=           -163.6413 XXXY=            173.6814
 XXXZ=             19.6889 YYYX=             19.4211 YYYZ=             -0.8186 ZZZX=              6.9183
 ZZZY=              0.2796 XXYY=          -2224.6187 XXZZ=          -2275.5428 YYZZ=           -264.4100
 XXYZ=             14.7857 YYXZ=            -12.2874 ZZXY=            -43.6365
 N-N= 1.361252541513D+03 E-N=-4.731999645572D+03  KE= 8.596673876032D+02
 1\1\GINC-NXN33\FOpt\RwB97XD\6-311++G(d,p)\C17H17N1O2\ROOT\24-Oct-2015\
 0\\# opt wb97xd/6-311++g**\\H Ketone\\0,1\C,4.9397687816,3.5023377116,
 4.5447187469\C,3.7142511663,2.8565993551,4.3388190192\H,2.9316991675,3
 .005227916,5.0728932772\C,3.521350752,2.0655616698,3.225924406\H,2.564
 1291235,1.5770113933,3.0787772641\C,4.5421571834,1.8951412375,2.286886
 4114\H,4.3842898799,1.2832969623,1.4073028626\C,5.7560935345,2.5179341
 563,2.4910371188\H,6.5350836184,2.38543466,1.7514483468\C,5.9943146834
 ,3.3256713482,3.615928042\C,7.2916392783,3.9965810366,3.86068785\C,8.4
 456492671,3.7145198899,2.99397702\H,8.3565028993,2.954158013,2.2305308
 785\C,9.597915511,4.3829197541,3.1701287492\H,9.6048439288,5.129854446
 5,3.9614778918\C,10.8391668142,4.2287037665,2.4289595676\C,11.01697260
 03,3.3015702916,1.3933960188\H,10.2004752964,2.6488521067,1.104746982\
 C,12.2125619687,3.1871597845,0.7163074102\H,12.2899794912,2.4540800724
 ,-0.0750185089\C,13.3171537681,4.0046998877,1.0452620852\C,13.14022737
 95,4.9439250984,2.0807765094\H,13.9483362023,5.6022046155,2.368861271\
 C,11.9330416388,5.0410227544,2.7466149565\H,11.832242718,5.7750606145,
 3.5401289907\C,14.6285621411,2.9887828455,-0.7474506527\H,14.417405879
 3,1.9537476716,-0.4589171619\H,15.6478176603,3.0219223232,-1.129024559
 5\H,13.9494168985,3.2653602368,-1.5643728012\C,15.593427488,4.80434533
 35,0.6750432427\H,15.3188607983,5.8451443827,0.4595238268\H,16.4565978
 396,4.5471187231,0.0633009671\H,15.8993038367,4.7394501061,1.724637450
 8\N,14.5137606722,3.8846954179,0.3841362476\O,5.0561903669,4.266582287
 3,5.6305166854\H,5.954603395,4.6680927989,5.5987079894\O,7.4055803416,
 4.7844173908,4.8074893184\\Version=EM64L-G09RevC.01\State=1-A\HF=-863.
 1701801\RMSD=6.821e-09\RMSF=4.374e-06\Dipole=2.2372396,-0.5798876,-1.9
 746249\Quadrupole=14.2575822,-6.2119512,-8.045631,8.1998491,-2.7381944
 ,2.6839296\PG=C01 [X(C17H17N1O2)]\\@


 Some scientists claim that hydrogen, because it is so
 plentiful, is the basic building block of the universe. 
 I dispute that. I say that stupidity is far more
 abundant than hydrogen, and THAT is the basic building 
 block of the universe.
                   --Frank Zappa
 Job cpu time:  2 days  5 hours 41 minutes  5.6 seconds.
 File lengths (MBytes):  RWF=    202 Int=      0 D2E=      0 Chk=     21 Scr=      1
 Normal termination of Gaussian 09 at Sat Oct 24 05:50:58 2015.
