 Entering Gaussian System, Link 0=g09
 Input=H_optKS1.com
 Output=H_optKS1.out
 Initial command:
 /share/apps/gaussian/g09/l1.exe /tmp/3520774.1.serial.q/Gau-22400.inp -scrdir=/tmp/3520774.1.serial.q/
 Entering Link 1 = /share/apps/gaussian/g09/l1.exe PID=     22401.
  
 Copyright (c) 1988,1990,1992,1993,1995,1998,2003,2009,2011,
            Gaussian, Inc.  All Rights Reserved.
  
 This is part of the Gaussian(R) 09 program.  It is based on
 the Gaussian(R) 03 system (copyright 2003, Gaussian, Inc.),
 the Gaussian(R) 98 system (copyright 1998, Gaussian, Inc.),
 the Gaussian(R) 94 system (copyright 1995, Gaussian, Inc.),
 the Gaussian 92(TM) system (copyright 1992, Gaussian, Inc.),
 the Gaussian 90(TM) system (copyright 1990, Gaussian, Inc.),
 the Gaussian 88(TM) system (copyright 1988, Gaussian, Inc.),
 the Gaussian 86(TM) system (copyright 1986, Carnegie Mellon
 University), and the Gaussian 82(TM) system (copyright 1983,
 Carnegie Mellon University). Gaussian is a federally registered
 trademark of Gaussian, Inc.
  
 This software contains proprietary and confidential information,
 including trade secrets, belonging to Gaussian, Inc.
  
 This software is provided under written license and may be
 used, copied, transmitted, or stored only in accord with that
 written license.
  
 The following legend is applicable only to US Government
 contracts under FAR:
  
                    RESTRICTED RIGHTS LEGEND
  
 Use, reproduction and disclosure by the US Government is
 subject to restrictions as set forth in subparagraphs (a)
 and (c) of the Commercial Computer Software - Restricted
 Rights clause in FAR 52.227-19.
  
 Gaussian, Inc.
 340 Quinnipiac St., Bldg. 40, Wallingford CT 06492
  
  
 ---------------------------------------------------------------
 Warning -- This program may not be used in any manner that
 competes with the business of Gaussian, Inc. or will provide
 assistance to any competitor of Gaussian, Inc.  The licensee
 of this program is prohibited from giving any competitor of
 Gaussian, Inc. access to this program.  By using this program,
 the user acknowledges that Gaussian, Inc. is engaged in the
 business of creating and licensing software in the field of
 computational chemistry and represents and warrants to the
 licensee that it is not a competitor of Gaussian, Inc. and that
 it will not use this program in any manner prohibited above.
 ---------------------------------------------------------------
  

 Cite this work as:
 Gaussian 09, Revision C.01,
 M. J. Frisch, G. W. Trucks, H. B. Schlegel, G. E. Scuseria, 
 M. A. Robb, J. R. Cheeseman, G. Scalmani, V. Barone, B. Mennucci, 
 G. A. Petersson, H. Nakatsuji, M. Caricato, X. Li, H. P. Hratchian, 
 A. F. Izmaylov, J. Bloino, G. Zheng, J. L. Sonnenberg, M. Hada, 
 M. Ehara, K. Toyota, R. Fukuda, J. Hasegawa, M. Ishida, T. Nakajima, 
 Y. Honda, O. Kitao, H. Nakai, T. Vreven, J. A. Montgomery, Jr., 
 J. E. Peralta, F. Ogliaro, M. Bearpark, J. J. Heyd, E. Brothers, 
 K. N. Kudin, V. N. Staroverov, T. Keith, R. Kobayashi, J. Normand, 
 K. Raghavachari, A. Rendell, J. C. Burant, S. S. Iyengar, J. Tomasi, 
 M. Cossi, N. Rega, J. M. Millam, M. Klene, J. E. Knox, J. B. Cross, 
 V. Bakken, C. Adamo, J. Jaramillo, R. Gomperts, R. E. Stratmann, 
 O. Yazyev, A. J. Austin, R. Cammi, C. Pomelli, J. W. Ochterski, 
 R. L. Martin, K. Morokuma, V. G. Zakrzewski, G. A. Voth, 
 P. Salvador, J. J. Dannenberg, S. Dapprich, A. D. Daniels, 
 O. Farkas, J. B. Foresman, J. V. Ortiz, J. Cioslowski, 
 and D. J. Fox, Gaussian, Inc., Wallingford CT, 2010.
 
 ******************************************
 Gaussian 09:  EM64L-G09RevC.01 23-Sep-2011
                26-Oct-2015 
 ******************************************
 %chk=H_optKS1.chk
 %mem=4GB
 %nprocshared=4
 Will use up to    4 processors via shared memory.
 ----------------------------------------------------
 # opt=restart wb97xd/6-311++g** td(nstates=1,root=1)
 ----------------------------------------------------
 1/14=-1,18=20,19=15,35=1/3(2);
 2/9=110/2;
 99//99;
 2/9=110/2;
 3/5=4,6=6,7=1111,11=2,16=1,25=1,30=1,71=1,74=-58/1,2,8,3;
 4/5=5,16=3/1;
 5/5=2,38=5/2;
 8/6=1,10=2,107=1,108=1/1;
 9/8=1,15=2,41=1,42=1,49=4/14;
 10/5=4/2;
 7/12=6,13=5,14=1/1,2,3,16;
 1/14=-1,18=20,19=15/3(-8);
 2/9=110/2;
 6/7=2,8=2,9=2,10=2/1;
 99//99;

 GradGradGradGradGradGradGradGradGradGradGradGradGradGradGradGradGradGrad
 Berny optimization.
 Restoring state from the checkpoint file "H_optKS1.chk".
 Title:  H K s1
 Route:  # opt wb97xd/6-311++g** td(nstates=1,root=1)
 Using GEDIIS/GDIIS optimizer.
 Internal  Forces:  Max     0.012740434 RMS     0.002157443
 Search for a local minimum.
 Step number  33 out of a maximum of  191
 All quantities printed in internal units (Hartrees-Bohrs-Radians)
 Mixed Optimization -- RFO/linear search
 Update second derivatives using D2CorX and points   21   22   23   25   28
                                                     27   30   29   32   31
                                                     33
 ITU=  0 -1  0 -1  0 -1  0  0  0  0  0  0 -1  0 -1  1  0  1  1  1
 ITU=  1  1  1  0  1  0 -1  0 -1  1  0  1  0
 Use linear search instead of GDIIS.
     Eigenvalues ---    0.00660   0.00956   0.01229   0.01261   0.01477
     Eigenvalues ---    0.01630   0.01780   0.01934   0.02010   0.02021
     Eigenvalues ---    0.02096   0.02162   0.02185   0.02190   0.02211
     Eigenvalues ---    0.02226   0.02272   0.02286   0.02314   0.02351
     Eigenvalues ---    0.02361   0.02369   0.02400   0.02414   0.02528
     Eigenvalues ---    0.02613   0.02792   0.02953   0.04330   0.07230
     Eigenvalues ---    0.07261   0.07564   0.07569   0.14980   0.15672
     Eigenvalues ---    0.15935   0.15980   0.15990   0.15997   0.15999
     Eigenvalues ---    0.16000   0.16000   0.16001   0.16006   0.16013
     Eigenvalues ---    0.16032   0.16081   0.16165   0.16419   0.19898
     Eigenvalues ---    0.21743   0.21982   0.22011   0.22241   0.22568
     Eigenvalues ---    0.22921   0.23270   0.23816   0.24443   0.24831
     Eigenvalues ---    0.24929   0.25066   0.25571   0.25695   0.27299
     Eigenvalues ---    0.34830   0.35861   0.37986   0.38388   0.39088
     Eigenvalues ---    0.39799   0.41519   0.41905   0.42483   0.43128
     Eigenvalues ---    0.44457   0.45728   0.46540   0.47789   0.48813
     Eigenvalues ---    0.49954   0.51273   0.51866   0.53623   0.54640
     Eigenvalues ---    0.55388   0.55431   0.55485   0.55523   0.55560
     Eigenvalues ---    0.57252   0.59372   0.62257   0.62444   0.62459
     Eigenvalues ---    0.62473   0.62480   0.62496   0.62518   0.62582
     Eigenvalues ---    0.62617   0.69881   0.76372   0.87000   2.85027
 RFO step:  Lambda=-7.53490814D-04 EMin= 6.59994357D-03
 Quartic linear search produced a step of  0.02487.
 Iteration  1 RMS(Cart)=  0.01421031 RMS(Int)=  0.00020709
 Iteration  2 RMS(Cart)=  0.00022052 RMS(Int)=  0.00001723
 Iteration  3 RMS(Cart)=  0.00000005 RMS(Int)=  0.00001723
 Variable       Old X    -DE/DX   Delta X   Delta X   Delta X     New X
                                 (Linear)    (Quad)   (Total)
    R1        2.73050  -0.00171   0.00002   0.00662   0.00665   2.73714
    R2        2.73794  -0.00292  -0.00003  -0.00041  -0.00043   2.73751
    R3        2.35704   0.00404  -0.00009  -0.00112  -0.00120   2.35583
    R4        2.04798  -0.00018   0.00002  -0.00040  -0.00038   2.04760
    R5        2.58741  -0.00204   0.00007  -0.01028  -0.01021   2.57719
    R6        2.04913  -0.00010   0.00001  -0.00018  -0.00017   2.04896
    R7        2.67281  -0.00348   0.00008  -0.00129  -0.00122   2.67159
    R8        2.04902  -0.00067   0.00002  -0.00124  -0.00122   2.04780
    R9        2.63377  -0.00083  -0.00001  -0.00796  -0.00798   2.62579
   R10        2.05032  -0.00076   0.00004  -0.00198  -0.00194   2.04838
   R11        2.61781  -0.00361   0.00011  -0.00250  -0.00238   2.61543
   R12        2.79375   0.00403  -0.00009   0.00119   0.00110   2.79485
   R13        2.60291   0.00068   0.00007   0.00468   0.00475   2.60766
   R14        2.57217  -0.00439  -0.00007   0.00099   0.00092   2.57309
   R15        2.05273  -0.00098   0.00002  -0.00246  -0.00244   2.05029
   R16        2.60406   0.00215   0.00000   0.00439   0.00440   2.60845
   R17        2.05142  -0.00030   0.00002  -0.00083  -0.00081   2.05060
   R18        2.72774  -0.00118   0.00001  -0.00211  -0.00210   2.72564
   R19        2.65255   0.00086   0.00000   0.00210   0.00210   2.65465
   R20        2.65209   0.00078   0.00001   0.00207   0.00208   2.65418
   R21        2.04987  -0.00047   0.00002  -0.00102  -0.00101   2.04886
   R22        2.61081  -0.00064   0.00001  -0.00092  -0.00091   2.60989
   R23        2.04566  -0.00054   0.00002  -0.00110  -0.00108   2.04457
   R24        2.66517  -0.00012   0.00003  -0.00008  -0.00005   2.66513
   R25        2.66158  -0.00005   0.00003   0.00034   0.00037   2.66195
   R26        2.60443  -0.00115   0.00000  -0.00190  -0.00190   2.60253
   R27        2.04504  -0.00025   0.00001  -0.00055  -0.00054   2.04450
   R28        2.61151  -0.00075   0.00001  -0.00117  -0.00116   2.61035
   R29        2.05275  -0.00048   0.00002  -0.00099  -0.00097   2.05178
   R30        2.07177  -0.00009   0.00001  -0.00021  -0.00020   2.07157
   R31        2.05842  -0.00015   0.00002  -0.00019  -0.00018   2.05824
   R32        2.07512  -0.00009   0.00002  -0.00014  -0.00013   2.07499
   R33        2.73000   0.00055   0.00001   0.00170   0.00171   2.73171
   R34        2.07416   0.00001   0.00001  -0.00001   0.00000   2.07416
   R35        2.05834  -0.00016   0.00002  -0.00023  -0.00022   2.05812
   R36        2.07279  -0.00025   0.00002  -0.00048  -0.00046   2.07233
   R37        2.73111   0.00011   0.00002   0.00070   0.00072   2.73183
   R38        1.82381  -0.00536   0.00007  -0.01042  -0.01035   1.81346
    A1        2.05289   0.00092   0.00001  -0.00379  -0.00385   2.04903
    A2        2.12677   0.00480  -0.00012   0.00005  -0.00018   2.12659
    A3        2.10271  -0.00578   0.00014   0.00471   0.00474   2.10745
    A4        2.04189   0.00112  -0.00002   0.00265   0.00260   2.04449
    A5        2.10238  -0.00064   0.00000   0.00305   0.00304   2.10542
    A6        2.13852  -0.00044   0.00001  -0.00535  -0.00538   2.13314
    A7        2.10579  -0.00070   0.00003  -0.00685  -0.00682   2.09897
    A8        2.10320  -0.00019  -0.00001  -0.00060  -0.00062   2.10258
    A9        2.07420   0.00089  -0.00002   0.00745   0.00744   2.08164
   A10        2.08175   0.00031  -0.00006   0.00273   0.00268   2.08443
   A11        2.10544   0.00040  -0.00001   0.00032   0.00029   2.10573
   A12        2.09596  -0.00072   0.00007  -0.00309  -0.00302   2.09295
   A13        2.09702  -0.00019   0.00006   0.00004   0.00009   2.09711
   A14        2.10043   0.00002   0.00001   0.00319   0.00319   2.10362
   A15        2.08553   0.00013  -0.00007  -0.00341  -0.00350   2.08203
   A16        2.09794  -0.00054   0.00001  -0.00112  -0.00110   2.09684
   A17        2.05091  -0.00235   0.00006   0.00303   0.00306   2.05397
   A18        2.13384   0.00287  -0.00001  -0.00213  -0.00217   2.13167
   A19        2.15380   0.00312   0.00012   0.00179   0.00190   2.15570
   A20        2.02713  -0.00420   0.00001   0.00577   0.00577   2.03290
   A21        2.09951   0.00089  -0.00017  -0.00708  -0.00726   2.09225
   A22        2.01487  -0.00056   0.00004  -0.00295  -0.00291   2.01196
   A23        2.17504   0.00035   0.00000  -0.00006  -0.00006   2.17498
   A24        2.09324   0.00020  -0.00004   0.00297   0.00292   2.09616
   A25        2.04623   0.00009  -0.00001  -0.00019  -0.00021   2.04603
   A26        2.21019  -0.00063   0.00003  -0.00239  -0.00235   2.20784
   A27        2.02674   0.00054  -0.00002   0.00261   0.00258   2.02932
   A28        2.17136  -0.00072   0.00002  -0.00317  -0.00315   2.16821
   A29        2.08281   0.00075   0.00000   0.00331   0.00330   2.08611
   A30        2.02901  -0.00004  -0.00001  -0.00014  -0.00015   2.02886
   A31        2.09657  -0.00019  -0.00001  -0.00163  -0.00163   2.09493
   A32        2.13010   0.00000   0.00001   0.00049   0.00050   2.13060
   A33        2.05651   0.00019   0.00000   0.00113   0.00114   2.05765
   A34        2.06615   0.00009   0.00000   0.00017   0.00017   2.06632
   A35        2.11700  -0.00025   0.00001  -0.00104  -0.00102   2.11598
   A36        2.10004   0.00016  -0.00001   0.00087   0.00086   2.10089
   A37        2.04245   0.00049  -0.00003   0.00122   0.00120   2.04365
   A38        2.11793   0.00070   0.00000   0.00334   0.00334   2.12127
   A39        2.12280  -0.00119   0.00002  -0.00457  -0.00454   2.11826
   A40        2.10570  -0.00031  -0.00001  -0.00181  -0.00182   2.10388
   A41        2.10934   0.00006   0.00000   0.00035   0.00035   2.10969
   A42        2.06814   0.00025   0.00001   0.00147   0.00147   2.06961
   A43        2.13845  -0.00026   0.00001  -0.00089  -0.00088   2.13758
   A44        2.07481   0.00011  -0.00002   0.00025   0.00023   2.07504
   A45        2.06992   0.00016   0.00000   0.00064   0.00065   2.07056
   A46        1.87838  -0.00009   0.00002  -0.00055  -0.00053   1.87785
   A47        1.88785  -0.00005   0.00002  -0.00027  -0.00024   1.88761
   A48        1.94678   0.00012  -0.00002   0.00109   0.00107   1.94785
   A49        1.88488  -0.00010   0.00002  -0.00084  -0.00082   1.88406
   A50        1.90652   0.00013  -0.00001   0.00069   0.00067   1.90720
   A51        1.95679  -0.00003  -0.00003  -0.00020  -0.00023   1.95656
   A52        1.88309   0.00003   0.00000   0.00071   0.00071   1.88380
   A53        1.88722   0.00002   0.00002  -0.00025  -0.00023   1.88699
   A54        1.95420  -0.00013  -0.00002  -0.00044  -0.00046   1.95374
   A55        1.88056  -0.00007   0.00002  -0.00101  -0.00099   1.87957
   A56        1.90668   0.00018  -0.00001   0.00116   0.00115   1.90783
   A57        1.94950  -0.00003  -0.00001  -0.00018  -0.00018   1.94932
   A58        2.09335   0.00062   0.00002   0.00282   0.00284   2.09618
   A59        2.09373  -0.00091   0.00004  -0.00342  -0.00338   2.09035
   A60        2.09215   0.00029  -0.00003   0.00019   0.00015   2.09231
   A61        1.91030  -0.00474   0.00015   0.00462   0.00477   1.91506
    D1        3.09012  -0.00068  -0.00005   0.00371   0.00364   3.09376
    D2       -0.08090   0.00060  -0.00027   0.01635   0.01608  -0.06482
    D3       -0.09470  -0.00224   0.00069   0.02976   0.03040  -0.06430
    D4        3.01746  -0.00095   0.00047   0.04239   0.04284   3.06030
    D5        0.10245   0.00061  -0.00007  -0.01202  -0.01208   0.09037
    D6       -3.07201   0.00017   0.00093  -0.01938  -0.01844  -3.09045
    D7       -2.99653   0.00187  -0.00079  -0.03758  -0.03841  -3.03494
    D8        0.11219   0.00143   0.00021  -0.04494  -0.04477   0.06742
    D9       -3.11872  -0.00127   0.00024  -0.01018  -0.00994  -3.12867
   D10        0.02087  -0.00067   0.00039  -0.00991  -0.00953   0.01134
   D11       -0.00824   0.00012   0.00000   0.00332   0.00329  -0.00494
   D12        3.13135   0.00072   0.00015   0.00359   0.00370   3.13506
   D13       -3.12958  -0.00151  -0.00021  -0.00592  -0.00613  -3.13571
   D14        0.02113  -0.00057  -0.00016  -0.00137  -0.00154   0.01959
   D15        0.01005  -0.00093  -0.00006  -0.00566  -0.00574   0.00431
   D16       -3.12243   0.00002  -0.00002  -0.00111  -0.00115  -3.12358
   D17        3.12077  -0.00026  -0.00034  -0.00350  -0.00383   3.11694
   D18        0.00099   0.00180  -0.00019   0.00597   0.00580   0.00679
   D19       -0.01163   0.00069  -0.00029   0.00106   0.00075  -0.01088
   D20       -3.13141   0.00275  -0.00014   0.01053   0.01038  -3.12103
   D21       -0.06396  -0.00178   0.00030   0.00082   0.00113  -0.06282
   D22        3.11211  -0.00121  -0.00075   0.00844   0.00768   3.11979
   D23        3.09931   0.00028   0.00045   0.01019   0.01064   3.10995
   D24       -0.00781   0.00085  -0.00061   0.01781   0.01719   0.00938
   D25        1.71159  -0.00965  -0.00002  -0.01474  -0.01477   1.69682
   D26       -1.50956  -0.01222  -0.00072  -0.00806  -0.00877  -1.51833
   D27       -1.46359  -0.01017   0.00100  -0.02224  -0.02125  -1.48484
   D28        1.59844  -0.01274   0.00030  -0.01555  -0.01524   1.58320
   D29       -0.00415  -0.00176  -0.00146   0.00790   0.00642   0.00227
   D30        3.12946  -0.00318  -0.00171   0.00276   0.00105   3.13051
   D31       -3.06303   0.00113  -0.00074   0.00037  -0.00036  -3.06338
   D32        0.07058  -0.00029  -0.00098  -0.00476  -0.00573   0.06485
   D33        0.82685  -0.00066  -0.00114  -0.04520  -0.04634   0.78050
   D34       -2.39166  -0.00302  -0.00181  -0.03834  -0.04015  -2.43181
   D35       -0.00867   0.00132  -0.00016   0.01709   0.01693   0.00826
   D36        3.14127   0.00200   0.00006   0.01281   0.01287  -3.12904
   D37        3.12460  -0.00015  -0.00041   0.01171   0.01129   3.13589
   D38       -0.00864   0.00052  -0.00019   0.00743   0.00723  -0.00140
   D39       -0.01727  -0.00039  -0.00060   0.00320   0.00260  -0.01466
   D40        3.12816  -0.00020  -0.00057   0.00302   0.00245   3.13062
   D41        3.13259   0.00029  -0.00038  -0.00103  -0.00141   3.13119
   D42       -0.00516   0.00047  -0.00035  -0.00120  -0.00156  -0.00672
   D43        0.00065   0.00030  -0.00001   0.00142   0.00141   0.00206
   D44       -3.13784   0.00029   0.00006   0.00163   0.00169  -3.13615
   D45        3.13852   0.00011  -0.00004   0.00160   0.00156   3.14008
   D46        0.00002   0.00011   0.00003   0.00181   0.00184   0.00186
   D47        3.13867  -0.00035   0.00001  -0.00075  -0.00073   3.13794
   D48       -0.00393  -0.00024  -0.00003  -0.00125  -0.00128  -0.00521
   D49        0.00061  -0.00017   0.00004  -0.00090  -0.00087  -0.00026
   D50        3.14119  -0.00007  -0.00001  -0.00140  -0.00141   3.13978
   D51        3.14158  -0.00004  -0.00010  -0.00116  -0.00126   3.14031
   D52        0.00151  -0.00001  -0.00010  -0.00133  -0.00143   0.00008
   D53        0.00302  -0.00005  -0.00003  -0.00095  -0.00099   0.00203
   D54       -3.13705  -0.00001  -0.00003  -0.00112  -0.00115  -3.13820
   D55       -0.00350  -0.00004   0.00010  -0.00014  -0.00004  -0.00354
   D56        3.13577  -0.00002   0.00007  -0.00045  -0.00038   3.13539
   D57        3.13965   0.00000   0.00010  -0.00030  -0.00021   3.13944
   D58       -0.00426   0.00001   0.00007  -0.00062  -0.00055  -0.00481
   D59        3.14105   0.00004  -0.00008   0.00170   0.00162  -3.14051
   D60        0.00410  -0.00002  -0.00003   0.00103   0.00100   0.00510
   D61        0.00179   0.00002  -0.00006   0.00201   0.00195   0.00374
   D62       -3.13517  -0.00004   0.00000   0.00134   0.00133  -3.13384
   D63        0.03045   0.00011  -0.00046   0.00342   0.00296   0.03341
   D64        3.07640   0.00009  -0.00017  -0.00147  -0.00164   3.07476
   D65       -3.11357   0.00013  -0.00049   0.00310   0.00261  -3.11096
   D66       -0.06762   0.00011  -0.00020  -0.00179  -0.00199  -0.06961
   D67       -0.00277   0.00013  -0.00004  -0.00050  -0.00054  -0.00331
   D68        3.13983   0.00003   0.00001  -0.00001   0.00000   3.13984
   D69       -3.13982   0.00008   0.00002  -0.00115  -0.00114  -3.14096
   D70        0.00278  -0.00003   0.00006  -0.00066  -0.00060   0.00218
   D71       -1.05182   0.00001   0.00060   0.00438   0.00498  -1.04685
   D72        2.18532   0.00010   0.00030   0.00947   0.00977   2.19510
   D73       -3.12611  -0.00003   0.00059   0.00395   0.00454  -3.12157
   D74        0.11104   0.00006   0.00029   0.00904   0.00934   0.12038
   D75        1.06844   0.00002   0.00060   0.00467   0.00527   1.07370
   D76       -1.97760   0.00011   0.00030   0.00976   0.01007  -1.96753
   D77       -1.02776  -0.00001   0.00047  -0.00721  -0.00674  -1.03450
   D78        2.01825  -0.00001   0.00076  -0.01195  -0.01118   2.00707
   D79       -3.11262  -0.00009   0.00048  -0.00858  -0.00810  -3.12072
   D80       -0.06661  -0.00009   0.00078  -0.01332  -0.01254  -0.07915
   D81        1.09178  -0.00010   0.00047  -0.00797  -0.00750   1.08428
   D82       -2.14539  -0.00010   0.00076  -0.01271  -0.01194  -2.15733
         Item               Value     Threshold  Converged?
 Maximum Force            0.012740     0.000450     NO 
 RMS     Force            0.002157     0.000300     NO 
 Maximum Displacement     0.086164     0.001800     NO 
 RMS     Displacement     0.014237     0.001200     NO 
 Predicted change in Energy=-3.829362D-04
 GradGradGradGradGradGradGradGradGradGradGradGradGradGradGradGradGradGrad

                          Input orientation:                          
 ---------------------------------------------------------------------
 Center     Atomic      Atomic             Coordinates (Angstroms)
 Number     Number       Type             X           Y           Z
 ---------------------------------------------------------------------
      1          6           0        5.649339    2.516827    4.514062
      2          6           0        4.493772    1.653262    4.384140
      3          1           0        4.320684    0.936386    5.177990
      4          6           0        3.659048    1.766114    3.311559
      5          1           0        2.789049    1.124653    3.226360
      6          6           0        3.916042    2.720187    2.300434
      7          1           0        3.238635    2.799143    1.458305
      8          6           0        5.034154    3.542217    2.369861
      9          1           0        5.235800    4.255191    1.578678
     10          6           0        5.920723    3.435386    3.427266
     11          6           0        7.135804    4.273121    3.522845
     12          6           0        8.330563    3.955177    2.909963
     13          1           0        8.326812    3.033356    2.337788
     14          6           0        9.473951    4.725855    2.973548
     15          1           0        9.424124    5.641114    3.554352
     16          6           0       10.737220    4.440657    2.338586
     17          6           0       10.990259    3.299293    1.559694
     18          1           0       10.208102    2.565004    1.402966
     19          6           0       12.220549    3.067310    0.976602
     20          1           0       12.350170    2.167855    0.389427
     21          6           0       13.288915    3.973725    1.137908
     22          6           0       13.043221    5.123418    1.913869
     23          1           0       13.823023    5.856279    2.073044
     24          6           0       11.806778    5.338147    2.491099
     25          1           0       11.657910    6.235844    3.083419
     26          6           0       14.731494    2.575181   -0.257204
     27          1           0       14.553450    1.650147    0.303448
     28          1           0       15.765154    2.558538   -0.600090
     29          1           0       14.081331    2.569426   -1.142044
     30          6           0       15.563476    4.738674    0.685521
     31          1           0       15.264025    5.702043    0.253112
     32          1           0       16.451072    4.394913    0.156218
     33          1           0       15.843976    4.907155    1.732198
     34          7           0       14.520371    3.745046    0.565283
     35          8           0        6.378661    2.492061    5.524813
     36          1           0        6.515556    5.316465    5.000568
     37          8           0        7.008163    5.454017    4.188578
 ---------------------------------------------------------------------
                    Distance matrix (angstroms):
                    1          2          3          4          5
     1  C    0.000000
     2  C    1.448434   0.000000
     3  H    2.168853   1.083545   0.000000
     4  C    2.443531   1.363792   2.147039   0.000000
     5  H    3.431849   2.127431   2.488013   1.084264   0.000000
     6  C    2.818834   2.411209   3.409693   1.413745   2.161754
     7  H    3.902416   3.383625   4.298459   2.162972   2.476300
     8  C    2.455092   2.813802   3.896792   2.435622   3.408622
     9  H    3.436481   3.897596   4.980658   3.418264   4.301362
    10  C    1.448628   2.475432   3.445310   2.813367   3.897080
    11  C    2.505325   3.819139   4.668855   4.291568   5.375410
    12  C    3.439614   4.710942   5.507829   5.174585   6.230598
    13  H    3.488815   4.558992   5.339765   4.933777   5.924486
    14  C    4.677674   6.019367   6.765782   6.533561   7.597400
    15  H    4.993116   6.395301   7.128518   6.950589   8.033071
    16  C    5.858357   7.136841   7.843091   7.628918   8.657797
    17  C    6.153533   7.272637   7.947240   7.691965   8.646773
    18  H    5.519380   6.509396   7.180870   6.868119   7.774428
    19  C    7.483144   8.562355   9.197846   8.969083   9.888808
    20  H    7.876264   8.828677   9.429714   9.178010  10.027537
    21  C    8.478448   9.658007  10.294507  10.115960  11.078178
    22  C    8.259830   9.551821  10.211189  10.064181  11.084259
    23  H    9.160765  10.490064  11.141835  11.025868  12.060971
    24  C    7.068683   8.404882   9.090462   8.934097   9.980661
    25  H    7.209768   8.603302   9.290123   9.165825  10.237256
    26  C   10.259333  11.278428  11.857991  11.661463  12.524426
    27  H    9.887548  10.855836  11.356942  11.302663  12.133454
    28  H   11.335166  12.357431  12.922595  12.747028  13.604302
    29  H   10.153462  11.104024  11.742227  11.362389  12.193685
    30  C   10.857460  12.072195  12.690156  12.547813  13.516767
    31  H   10.988333  12.225234  12.912111  12.630167  13.616818
    32  H   11.798112  12.975708  13.576669  13.435128  14.379543
    33  H   10.834346  12.101560  12.665968  12.681995  13.673733
    34  N    9.787573  10.931235  11.541198  11.376579  12.311446
    35  O    1.246652   2.357440   2.603014   3.580753   4.476384
    36  H    2.970688   4.229261   4.902452   4.859772   5.882683
    37  O    3.252603   4.561375   5.348876   5.058297   6.121289
                    6          7          8          9         10
     6  C    0.000000
     7  H    1.083649   0.000000
     8  C    1.389507   2.146388   0.000000
     9  H    2.149170   2.474517   1.083957   0.000000
    10  C    2.408320   3.387508   1.384024   2.135059   0.000000
    11  C    3.777931   4.650039   2.506097   2.718477   1.478971
    12  C    4.624362   5.419544   3.365792   3.382290   2.518951
    13  H    4.422032   5.168935   3.331901   3.409323   2.671677
    14  C    5.946944   6.699802   4.634353   4.486547   3.807440
    15  H    6.359488   7.122534   5.008016   4.833852   4.141884
    16  C    7.034909   7.726464   5.773486   5.556751   5.039290
    17  C    7.136428   7.768404   6.015859   5.833343   5.404308
    18  H    6.357637   6.973618   5.353463   5.254654   4.820475
    19  C    8.416523   8.998818   7.335597   7.110575   6.769716
    20  H    8.665538   9.195711   7.702927   7.509031   7.223081
    21  C    9.527517  10.123756   8.357331   8.070078   7.734418
    22  C    9.446182  10.086610   8.176385   7.862696   7.474610
    23  H   10.393992  11.034186   9.093251   8.749187   8.375022
    24  C    8.315876   8.995904   7.007746   6.721834   6.256401
    25  H    8.538702   9.237755   7.186024   6.886997   6.393443
    26  C   11.114699  11.622346  10.093316   9.816368   9.588793
    27  H   10.876001  11.431489   9.923054   9.758641   9.352503
    28  H   12.200025  12.696793  11.177772  10.885446  10.672454
    29  H   10.733429  11.152517   9.753523   9.406782   9.392764
    30  C   11.930840  12.500427  10.730104  10.377493  10.109323
    31  H   11.910487  12.429373  10.667508  10.218405  10.124736
    32  H   12.826900  13.372001  11.660760  11.305982  11.068365
    33  H   12.140072  12.783324  10.914299  10.629300  10.174002
    34  N   10.794113  11.356487   9.658465   9.353634   9.068671
    35  O    4.063638   5.146897   3.586677   4.470654   2.345053
    36  H    4.559480   5.442679   3.501875   3.804394   2.523403
    37  O    4.538736   5.358366   3.295364   3.374912   2.415987
                   11         12         13         14         15
    11  C    0.000000
    12  C    1.379913   0.000000
    13  H    2.088032   1.084967   0.000000
    14  C    2.444100   1.380335   2.141185   0.000000
    15  H    2.666235   2.110331   3.079695   1.085133   0.000000
    16  C    3.794830   2.520746   2.791158   1.442347   2.154856
    17  C    4.433861   3.054078   2.787490   2.516596   3.451893
    18  H    4.104944   2.780068   2.152324   2.770376   3.834780
    19  C    5.813086   4.433756   4.124945   3.779202   4.592304
    20  H    6.437396   5.069997   4.553308   4.636129   5.535524
    21  C    6.605932   5.265528   5.190999   4.299910   4.853452
    22  C    6.181374   4.956424   5.176155   3.744418   4.007125
    23  H    7.023334   5.872116   6.184442   4.582925   4.646599
    24  C    4.900692   3.764588   4.176809   2.459622   2.626659
    25  H    4.949225   4.037669   4.680610   2.657408   2.359085
    26  C    8.652530   7.273737   6.925594   6.534900   7.217761
    27  H    8.500941   7.129616   6.694986   6.510817   7.266787
    28  H    9.716175   8.339317   8.011585   7.552972   8.183539
    29  H    8.538390   7.170105   6.740842   6.543412   7.292529
    30  C    8.904651   7.607696   7.616259   6.505194   6.836390
    31  H    8.876990   7.627797   7.719630   6.471373   6.708676
    32  H    9.905717   8.585986   8.521543   7.531739   7.904324
    33  H    8.912950   7.664514   7.770818   6.492384   6.713676
    34  N    7.972319   6.622341   6.481392   5.676979   6.204945
    35  O    2.784478   3.576042   3.774311   4.591254   4.803551
    36  H    1.912313   3.085123   3.947611   3.634519   3.264461
    37  O    1.361620   2.372787   3.320220   2.843699   2.504818
                   16         17         18         19         20
    16  C    0.000000
    17  C    1.404782   0.000000
    18  H    2.161811   1.084211   0.000000
    19  C    2.437488   1.381096   2.117555   0.000000
    20  H    3.400950   2.121093   2.402800   1.081940   0.000000
    21  C    2.858461   2.432402   3.397964   1.410324   2.168556
    22  C    2.442168   2.769030   3.852844   2.404754   3.396998
    23  H    3.405390   3.850488   4.934486   3.398303   4.313738
    24  C    1.404529   2.385612   3.380846   2.760727   3.842272
    25  H    2.150614   3.375030   4.289631   3.846407   4.928017
    26  C    5.115892   4.221646   4.818437   2.840653   2.500949
    27  H    5.147072   4.122399   4.574708   2.811390   2.264919
    28  H    6.120319   5.292731   5.907038   3.912675   3.576854
    29  H    5.176811   4.169751   4.634544   2.863400   2.345971
    30  C    5.110204   4.873429   5.824053   3.748779   4.125786
    31  H    5.141231   5.073996   6.060159   4.089988   4.582533
    32  H    6.116611   5.743745   6.624019   4.509200   4.672427
    33  H    5.163747   5.116009   6.112049   4.133422   4.638262
    34  N    4.235647   3.694488   4.548612   2.432630   2.688536
    35  O    5.739870   6.135196   5.626684   7.425955   7.882654
    36  H    5.067113   5.994294   5.843644   7.334708   8.075834
    37  O    4.284301   5.235547   5.132800   6.571311   7.332766
                   21         22         23         24         25
    21  C    0.000000
    22  C    1.408643   0.000000
    23  H    2.168815   1.081903   0.000000
    24  C    2.426830   1.381338   2.123317   0.000000
    25  H    3.400348   2.127069   2.419223   1.085755   0.000000
    26  C    2.446078   3.749311   4.125649   4.872485   5.831563
    27  H    2.773877   4.115564   4.621314   5.092286   6.094343
    28  H    3.339932   4.506386   4.668256   5.740245   6.630253
    29  H    2.792519   4.115720   4.605097   5.102856   6.096730
    30  C    2.442013   2.829939   2.490670   4.210969   4.821294
    31  H    2.769658   2.832824   2.326462   4.134436   4.615153
    32  H    3.337717   3.903013   3.566014   5.283070   5.910324
    33  H    2.784387   2.814961   2.258598   4.130455   4.595036
    34  N    1.377199   2.429108   2.686437   3.689217   4.553983
    35  O    8.318166   8.023672   8.868552   6.838720   6.917138
    36  H    7.912110   7.223253   7.890556   5.856188   5.564578
    37  O    7.137625   6.457981   7.147001   5.091323   4.842807
                   26         27         28         29         30
    26  C    0.000000
    27  H    1.096229   0.000000
    28  H    1.089174   1.763457   0.000000
    29  H    1.098037   1.776912   1.768923   0.000000
    30  C    2.502324   3.271870   2.538988   3.200372   0.000000
    31  H    3.212674   4.114038   3.295558   3.627466   1.097601
    32  H    2.537576   3.340118   2.101132   3.260914   1.089110
    33  H    3.260895   3.783502   3.310858   4.102823   1.096631
    34  N    1.445559   2.111458   2.077349   2.118916   1.445621
    35  O   10.159156   9.736461  11.208261  10.187448  10.621999
    36  H   10.132148  10.005627  11.159237  10.125159  10.040833
    37  O    9.364962   9.300270  10.392306   9.314832   9.272352
                   31         32         33         34         35
    31  H    0.000000
    32  H    1.768349   0.000000
    33  H    1.776481   1.764843   0.000000
    34  N    2.116674   2.077804   2.112846   0.000000
    35  O   10.818711  11.571350  10.478970   9.615319   0.000000
    36  H    9.961060  11.091955   9.892886   9.285374   2.875905
    37  O    9.149244  10.322314   9.187190   8.513643   3.309831
                   36         37
    36  H    0.000000
    37  O    0.959641   0.000000
 Stoichiometry    C17H17NO2
 Framework group  C1[X(C17H17NO2)]
 Deg. of freedom   105
 Full point group                 C1      NOp   1
 Largest Abelian subgroup         C1      NOp   1
 Largest concise Abelian subgroup C1      NOp   1
                         Standard orientation:                         
 ---------------------------------------------------------------------
 Center     Atomic      Atomic             Coordinates (Angstroms)
 Number     Number       Type             X           Y           Z
 ---------------------------------------------------------------------
      1          6           0        4.226119    0.067350    1.004145
      2          6           0        5.384095    0.937297    1.019837
      3          1           0        5.876433    1.087730    1.973274
      4          6           0        5.833189    1.517195   -0.129929
      5          1           0        6.707770    2.157868   -0.113324
      6          6           0        5.166570    1.289195   -1.355617
      7          1           0        5.541167    1.754090   -2.259964
      8          6           0        4.030686    0.490490   -1.406298
      9          1           0        3.512652    0.339562   -2.346418
     10          6           0        3.527260   -0.089691   -0.255005
     11          6           0        2.305778   -0.923515   -0.263581
     12          6           0        1.029587   -0.406282   -0.174325
     13          1           0        0.972027    0.674446   -0.097738
     14          6           0       -0.125675   -1.161502   -0.192702
     15          1           0       -0.014069   -2.237655   -0.276075
     16          6           0       -1.477311   -0.663815   -0.116848
     17          6           0       -1.813455    0.694603    0.006118
     18          1           0       -1.032252    1.445263    0.047881
     19          6           0       -3.124679    1.121745    0.081399
     20          1           0       -3.315549    2.182465    0.176463
     21          6           0       -4.195966    0.205517    0.037987
     22          6           0       -3.868671   -1.158627   -0.089542
     23          1           0       -4.646732   -1.909326   -0.129383
     24          6           0       -2.551304   -1.567827   -0.161617
     25          1           0       -2.340472   -2.628555   -0.257888
     26          6           0       -5.811814    2.033645    0.212001
     27          1           0       -5.360182    2.487450    1.101838
     28          1           0       -6.890610    2.162944    0.288039
     29          1           0       -5.465576    2.590147   -0.668970
     30          6           0       -6.576074   -0.338572   -0.011869
     31          1           0       -6.542266   -0.860119   -0.977049
     32          1           0       -7.533491    0.175852    0.057985
     33          1           0       -6.543763   -1.092095    0.784220
     34          7           0       -5.505517    0.623921    0.119802
     35          8           0        3.847067   -0.541627    2.023756
     36          1           0        3.213152   -2.570113    0.086174
     37          8           0        2.484230   -2.259702   -0.455332
 ---------------------------------------------------------------------
 Rotational constants (GHZ):      0.9637327      0.1091119      0.1045590
 Standard basis: 6-311++G(d,p) (5D, 7F)
 There are   559 symmetry adapted basis functions of A   symmetry.
 Integral buffers will be    131072 words long.
 Raffenetti 2 integral format.
 Two-electron integral symmetry is turned on.
   559 basis functions,   873 primitive gaussians,   579 cartesian basis functions
    71 alpha electrons       71 beta electrons
       nuclear repulsion energy      1359.8926777682 Hartrees.
 NAtoms=   37 NActive=   37 NUniq=   37 SFac= 1.00D+00 NAtFMM=   60 NAOKFM=F Big=F
 Nuclear repulsion after empirical dispersion term =     1359.8692648444 Hartrees.
 One-electron integrals computed using PRISM.
 NBasis=   559 RedAO= T  NBF=   559
 NBsUse=   554 1.00D-06 NBFU=   554
 Initial guess read from the read-write file.
 B after Tr=     0.000000    0.000000    0.000000
         Rot=    1.000000    0.000000    0.000000    0.000000 Ang=   0.00 deg.
 Initial guess orbital symmetries:
       Occupied  (A) (A) (A) (A) (A) (A) (A) (A) (A) (A) (A) (A)
                 (A) (A) (A) (A) (A) (A) (A) (A) (A) (A) (A) (A)
                 (A) (A) (A) (A) (A) (A) (A) (A) (A) (A) (A) (A)
                 (A) (A) (A) (A) (A) (A) (A) (A) (A) (A) (A) (A)
                 (A) (A) (A) (A) (A) (A) (A) (A) (A) (A) (A) (A)
                 (A) (A) (A) (A) (A) (A) (A) (A) (A) (A) (A)
       Virtual   (A) (A) (A) (A) (A) (A) (A) (A) (A) (A) (A) (A)
                 (A) (A) (A) (A) (A) (A) (A) (A) (A) (A) (A) (A)
                 (A) (A) (A) (A) (A) (A) (A) (A) (A) (A) (A) (A)
                 (A) (A) (A) (A) (A) (A) (A) (A) (A) (A) (A) (A)
                 (A) (A) (A) (A) (A) (A) (A) (A) (A) (A) (A) (A)
                 (A) (A) (A) (A) (A) (A) (A) (A) (A) (A) (A) (A)
                 (A) (A) (A) (A) (A) (A) (A) (A) (A) (A) (A) (A)
                 (A) (A) (A) (A) (A) (A) (A) (A) (A) (A) (A) (A)
                 (A) (A) (A) (A) (A) (A) (A) (A) (A) (A) (A) (A)
                 (A) (A) (A) (A) (A) (A) (A) (A) (A) (A) (A) (A)
                 (A) (A) (A) (A) (A) (A) (A) (A) (A) (A) (A) (A)
                 (A) (A) (A) (A) (A) (A) (A) (A) (A) (A) (A) (A)
                 (A) (A) (A) (A) (A) (A) (A) (A) (A) (A) (A) (A)
                 (A) (A) (A) (A) (A) (A) (A) (A) (A) (A) (A) (A)
                 (A) (A) (A) (A) (A) (A) (A) (A) (A) (A) (A) (A)
                 (A) (A) (A) (A) (A) (A) (A) (A) (A) (A) (A) (A)
                 (A) (A) (A) (A) (A) (A) (A) (A) (A) (A) (A) (A)
                 (A) (A) (A) (A) (A) (A) (A) (A) (A) (A) (A) (A)
                 (A) (A) (A) (A) (A) (A) (A) (A) (A) (A) (A) (A)
                 (A) (A) (A) (A) (A) (A) (A) (A) (A) (A) (A) (A)
                 (A) (A) (A) (A) (A) (A) (A) (A) (A) (A) (A) (A)
                 (A) (A) (A) (A) (A) (A) (A) (A) (A) (A) (A) (A)
                 (A) (A) (A) (A) (A) (A) (A) (A) (A) (A) (A) (A)
                 (A) (A) (A) (A) (A) (A) (A) (A) (A) (A) (A) (A)
                 (A) (A) (A) (A) (A) (A) (A) (A) (A) (A) (A) (A)
                 (A) (A) (A) (A) (A) (A) (A) (A) (A) (A) (A) (A)
                 (A) (A) (A) (A) (A) (A) (A) (A) (A) (A) (A) (A)
                 (A) (A) (A) (A) (A) (A) (A) (A) (A) (A) (A) (A)
                 (A) (A) (A) (A) (A) (A) (A) (A) (A) (A) (A) (A)
                 (A) (A) (A) (A) (A) (A) (A) (A) (A) (A) (A) (A)
                 (A) (A) (A) (A) (A) (A) (A) (A) (A) (A) (A) (A)
                 (A) (A) (A) (A) (A) (A) (A) (A) (A) (A) (A) (A)
                 (A) (A) (A) (A) (A) (A) (A) (A) (A) (A) (A) (A)
                 (A) (A) (A) (A) (A) (A) (A) (A) (A) (A) (A) (A)
                 (A) (A) (A) (A) (A) (A) (A) (A) (A) (A) (A) (A)
                 (A) (A) (A) (A) (A) (A) (A) (A) (A) (A) (A) (A)
                 (A) (A) (A) (A) (A) (A) (A) (A) (A) (A) (A) (A)
                 (A) (A) (A) (A) (A) (A) (A) (A) (A) (A) (A) (A)
                 (A) (A) (A) (A) (A) (A) (A) (A) (A) (A) (A) (A)
                 (A) (A) (A) (A) (A) (A) (A) (A) (A) (A) (A) (A)
                 (A) (A) (A)
 Harris functional with IExCor= 4639 diagonalized for initial guess.
 ExpMin= 3.60D-02 ExpMax= 8.59D+03 ExpMxC= 1.30D+03 IAcc=3 IRadAn=         5 AccDes= 0.00D+00
 HarFok:  IExCor= 4639 AccDes= 0.00D+00 IRadAn=         5 IDoV= 1
 ScaDFX=  1.000000  1.000000  1.000000  1.000000
 FoFCou: FMM=F IPFlag=           0 FMFlag=      100000 FMFlg1=           0
         NFxFlg=           0 DoJE=T BraDBF=F KetDBF=T FulRan=T
         Omega=  0.000000  0.000000  1.000000  0.000000  0.000000 ICntrl=     500 IOpCl=  0
         NMat0=    1 NMatS0=    1 NMatT0=    0 NMatD0=    1 NMtDS0=    0 NMtDT0=    0
         I1Cent=           4 NGrid=           0.
 Petite list used in FoFCou.
 Requested convergence on RMS density matrix=1.00D-08 within 128 cycles.
 Requested convergence on MAX density matrix=1.00D-06.
 Requested convergence on             energy=1.00D-06.
 No special actions if energy rises.
 FoFJK:  IHMeth= 1 ICntrl=     0 DoSepK=T KAlg= 1 I1Cent= 0 FoldK=F
 FoFJK:  IHMeth= 1 ICntrl=     0 DoSepK=T KAlg= 1 I1Cent= 0 FoldK=F
 FoFJK:  IHMeth= 1 ICntrl=     0 DoSepK=T KAlg= 1 I1Cent= 0 FoldK=F
 FoFJK:  IHMeth= 1 ICntrl=     0 DoSepK=T KAlg= 1 I1Cent= 0 FoldK=F
 FoFJK:  IHMeth= 1 ICntrl=     0 DoSepK=T KAlg= 1 I1Cent= 0 FoldK=F
 FoFJK:  IHMeth= 1 ICntrl=     0 DoSepK=T KAlg= 1 I1Cent= 0 FoldK=F
 FoFJK:  IHMeth= 1 ICntrl=     0 DoSepK=T KAlg= 1 I1Cent= 0 FoldK=F
 FoFJK:  IHMeth= 1 ICntrl=     0 DoSepK=T KAlg= 1 I1Cent= 0 FoldK=F
 FoFJK:  IHMeth= 1 ICntrl=     0 DoSepK=T KAlg= 1 I1Cent= 0 FoldK=F
 FoFJK:  IHMeth= 1 ICntrl=     0 DoSepK=T KAlg= 1 I1Cent= 0 FoldK=F
 FoFJK:  IHMeth= 1 ICntrl=     0 DoSepK=T KAlg= 1 I1Cent= 0 FoldK=F
 FoFJK:  IHMeth= 1 ICntrl=     0 DoSepK=T KAlg= 1 I1Cent= 0 FoldK=F
 FoFJK:  IHMeth= 1 ICntrl=     0 DoSepK=T KAlg= 1 I1Cent= 0 FoldK=F
 FoFJK:  IHMeth= 1 ICntrl=     0 DoSepK=T KAlg= 1 I1Cent= 0 FoldK=F
 FoFJK:  IHMeth= 1 ICntrl=     0 DoSepK=T KAlg= 1 I1Cent= 0 FoldK=F
 FoFJK:  IHMeth= 1 ICntrl=     0 DoSepK=T KAlg= 1 I1Cent= 0 FoldK=F
 FoFJK:  IHMeth= 1 ICntrl=     0 DoSepK=T KAlg= 1 I1Cent= 0 FoldK=F
 FoFJK:  IHMeth= 1 ICntrl=     0 DoSepK=T KAlg= 1 I1Cent= 0 FoldK=F
 FoFJK:  IHMeth= 1 ICntrl=     0 DoSepK=T KAlg= 1 I1Cent= 0 FoldK=F
 Restarting incremental Fock formation.
 FoFJK:  IHMeth= 1 ICntrl=     0 DoSepK=T KAlg= 1 I1Cent= 0 FoldK=F
 FoFJK:  IHMeth= 1 ICntrl=     0 DoSepK=T KAlg= 1 I1Cent= 0 FoldK=F
 FoFJK:  IHMeth= 1 ICntrl=     0 DoSepK=T KAlg= 1 I1Cent= 0 FoldK=F
 SCF Done:  E(RwB97XD) =  -863.076934773     A.U. after   22 cycles
             Convg  =    0.1663D-08             -V/T =  2.0042
 ExpMin= 3.60D-02 ExpMax= 8.59D+03 ExpMxC= 1.30D+03 IAcc=3 IRadAn=         5 AccDes= 0.00D+00
 HarFok:  IExCor=  205 AccDes= 0.00D+00 IRadAn=         5 IDoV=-2
 ScaDFX=  1.000000  1.000000  1.000000  1.000000
 Range of M.O.s used for correlation:    21   554
 NBasis=   559 NAE=    71 NBE=    71 NFC=    20 NFV=     0
 NROrb=    534 NOA=    51 NOB=    51 NVA=   483 NVB=   483

 **** Warning!!: The largest alpha MO coefficient is  0.15831045D+03

 Would need an additional 41865100000 words for in-memory AO integral storage.
 Orbital symmetries:
       Occupied  (A) (A) (A) (A) (A) (A) (A) (A) (A) (A) (A) (A)
                 (A) (A) (A) (A) (A) (A) (A) (A) (A) (A) (A) (A)
                 (A) (A) (A) (A) (A) (A) (A) (A) (A) (A) (A) (A)
                 (A) (A) (A) (A) (A) (A) (A) (A) (A) (A) (A) (A)
                 (A) (A) (A) (A) (A) (A) (A) (A) (A) (A) (A) (A)
                 (A) (A) (A) (A) (A) (A) (A) (A) (A) (A) (A)
       Virtual   (A) (A) (A) (A) (A) (A) (A) (A) (A) (A) (A) (A)
                 (A) (A) (A) (A) (A) (A) (A) (A) (A) (A) (A) (A)
                 (A) (A) (A) (A) (A) (A) (A) (A) (A) (A) (A) (A)
                 (A) (A) (A) (A) (A) (A) (A) (A) (A) (A) (A) (A)
                 (A) (A) (A) (A) (A) (A) (A) (A) (A) (A) (A) (A)
                 (A) (A) (A) (A) (A) (A) (A) (A) (A) (A) (A) (A)
                 (A) (A) (A) (A) (A) (A) (A) (A) (A) (A) (A) (A)
                 (A) (A) (A) (A) (A) (A) (A) (A) (A) (A) (A) (A)
                 (A) (A) (A) (A) (A) (A) (A) (A) (A) (A) (A) (A)
                 (A) (A) (A) (A) (A) (A) (A) (A) (A) (A) (A) (A)
                 (A) (A) (A) (A) (A) (A) (A) (A) (A) (A) (A) (A)
                 (A) (A) (A) (A) (A) (A) (A) (A) (A) (A) (A) (A)
                 (A) (A) (A) (A) (A) (A) (A) (A) (A) (A) (A) (A)
                 (A) (A) (A) (A) (A) (A) (A) (A) (A) (A) (A) (A)
                 (A) (A) (A) (A) (A) (A) (A) (A) (A) (A) (A) (A)
                 (A) (A) (A) (A) (A) (A) (A) (A) (A) (A) (A) (A)
                 (A) (A) (A) (A) (A) (A) (A) (A) (A) (A) (A) (A)
                 (A) (A) (A) (A) (A) (A) (A) (A) (A) (A) (A) (A)
                 (A) (A) (A) (A) (A) (A) (A) (A) (A) (A) (A) (A)
                 (A) (A) (A) (A) (A) (A) (A) (A) (A) (A) (A) (A)
                 (A) (A) (A) (A) (A) (A) (A) (A) (A) (A) (A) (A)
                 (A) (A) (A) (A) (A) (A) (A) (A) (A) (A) (A) (A)
                 (A) (A) (A) (A) (A) (A) (A) (A) (A) (A) (A) (A)
                 (A) (A) (A) (A) (A) (A) (A) (A) (A) (A) (A) (A)
                 (A) (A) (A) (A) (A) (A) (A) (A) (A) (A) (A) (A)
                 (A) (A) (A) (A) (A) (A) (A) (A) (A) (A) (A) (A)
                 (A) (A) (A) (A) (A) (A) (A) (A) (A) (A) (A) (A)
                 (A) (A) (A) (A) (A) (A) (A) (A) (A) (A) (A) (A)
                 (A) (A) (A) (A) (A) (A) (A) (A) (A) (A) (A) (A)
                 (A) (A) (A) (A) (A) (A) (A) (A) (A) (A) (A) (A)
                 (A) (A) (A) (A) (A) (A) (A) (A) (A) (A) (A) (A)
                 (A) (A) (A) (A) (A) (A) (A) (A) (A) (A) (A) (A)
                 (A) (A) (A) (A) (A) (A) (A) (A) (A) (A) (A) (A)
                 (A) (A) (A) (A) (A) (A) (A) (A) (A) (A) (A) (A)
                 (A) (A) (A) (A) (A) (A) (A) (A) (A) (A) (A) (A)
                 (A) (A) (A) (A) (A) (A) (A) (A) (A) (A) (A) (A)
                 (A) (A) (A) (A) (A) (A) (A) (A) (A) (A) (A) (A)
                 (A) (A) (A) (A) (A) (A) (A) (A) (A) (A) (A) (A)
                 (A) (A) (A) (A) (A) (A) (A) (A) (A) (A) (A) (A)
                 (A) (A) (A) (A) (A) (A) (A) (A) (A) (A) (A) (A)
                 (A) (A) (A)
 Generating guess from densities on rwf.
 Convergence on wavefunction:    0.000001000000000
 Iteration     1 Dimension     2 NMult     2
 CISAX will form     2 AO SS matrices at one time.
 FoFJK:  IHMeth= 1 ICntrl=     0 DoSepK=T KAlg= 1 I1Cent= 0 FoldK=F
 FoFJK:  IHMeth= 1 ICntrl=     0 DoSepK=T KAlg= 1 I1Cent= 0 FoldK=F
 Iteration     2 Dimension     4 NMult     4
 FoFJK:  IHMeth= 1 ICntrl=     0 DoSepK=T KAlg= 1 I1Cent= 0 FoldK=F
 FoFJK:  IHMeth= 1 ICntrl=     0 DoSepK=T KAlg= 1 I1Cent= 0 FoldK=F
 Iteration     3 Dimension     6 NMult     6
 FoFJK:  IHMeth= 1 ICntrl=     0 DoSepK=T KAlg= 1 I1Cent= 0 FoldK=F
 FoFJK:  IHMeth= 1 ICntrl=     0 DoSepK=T KAlg= 1 I1Cent= 0 FoldK=F
 Iteration     4 Dimension     8 NMult     8
 FoFJK:  IHMeth= 1 ICntrl=     0 DoSepK=T KAlg= 1 I1Cent= 0 FoldK=F
 FoFJK:  IHMeth= 1 ICntrl=     0 DoSepK=T KAlg= 1 I1Cent= 0 FoldK=F
 Iteration     5 Dimension    10 NMult    10
 FoFJK:  IHMeth= 1 ICntrl=     0 DoSepK=T KAlg= 1 I1Cent= 0 FoldK=F
 FoFJK:  IHMeth= 1 ICntrl=     0 DoSepK=T KAlg= 1 I1Cent= 0 FoldK=F
 Iteration     6 Dimension    12 NMult    12
 FoFJK:  IHMeth= 1 ICntrl=     0 DoSepK=T KAlg= 1 I1Cent= 0 FoldK=F
 FoFJK:  IHMeth= 1 ICntrl=     0 DoSepK=T KAlg= 1 I1Cent= 0 FoldK=F
 Iteration     7 Dimension    14 NMult    14
 FoFJK:  IHMeth= 1 ICntrl=     0 DoSepK=T KAlg= 1 I1Cent= 0 FoldK=F
 FoFJK:  IHMeth= 1 ICntrl=     0 DoSepK=T KAlg= 1 I1Cent= 0 FoldK=F
 Iteration     8 Dimension    16 NMult    16
 FoFJK:  IHMeth= 1 ICntrl=     0 DoSepK=T KAlg= 1 I1Cent= 0 FoldK=F
 FoFJK:  IHMeth= 1 ICntrl=     0 DoSepK=T KAlg= 1 I1Cent= 0 FoldK=F
 Iteration     9 Dimension    18 NMult    18
 FoFJK:  IHMeth= 1 ICntrl=     0 DoSepK=T KAlg= 1 I1Cent= 0 FoldK=F
 FoFJK:  IHMeth= 1 ICntrl=     0 DoSepK=T KAlg= 1 I1Cent= 0 FoldK=F
 Iteration    10 Dimension    20 NMult    20
 FoFJK:  IHMeth= 1 ICntrl=     0 DoSepK=T KAlg= 1 I1Cent= 0 FoldK=F
 FoFJK:  IHMeth= 1 ICntrl=     0 DoSepK=T KAlg= 1 I1Cent= 0 FoldK=F
 Iteration    11 Dimension    22 NMult    22
 FoFJK:  IHMeth= 1 ICntrl=     0 DoSepK=T KAlg= 1 I1Cent= 0 FoldK=F
 FoFJK:  IHMeth= 1 ICntrl=     0 DoSepK=T KAlg= 1 I1Cent= 0 FoldK=F
 ***********************************************************************
 Excited states from <AA,BB:AA,BB> singles matrix:
 ***********************************************************************
 
 Ground to excited state transition densities written to RWF  633
 Ground to excited state transition electric dipole moments (Au):
       state          X           Y           Z        Dip. S.      Osc.
         1        -0.1483     -0.0596     -0.0032      0.0255      0.0002
 Ground to excited state transition velocity dipole moments (Au):
       state          X           Y           Z        Dip. S.      Osc.
         1         0.0024      0.0031      0.0027      0.0000      0.0015
 Ground to excited state transition magnetic dipole moments (Au):
       state          X           Y           Z
         1         0.0995     -0.0448     -0.0288
 Ground to excited state transition velocity quadrupole moments (Au):
       state          XX          YY          ZZ          XY          XZ          YZ
         1         0.0211     -0.0055      0.0018      0.0198      0.0151     -0.0049
 <0|del|b> * <b|rxdel|0> + <0|del|b> * <b|delr+rdel|0>
 Rotatory Strengths (R) in cgs (10**-40 erg-esu-cm/Gauss)
       state          XX          YY          ZZ    R(velocity)
         1        -7.2846      3.4333      5.6208      0.5899
 1/2[<0|r|b>*<b|rxdel|0> + (<0|rxdel|b>*<b|r|0>)*]
 Rotatory Strengths (R) in cgs (10**-40 erg-esu-cm/Gauss)
       state          XX          YY          ZZ     R(length)
         1        10.4309     -1.8851     -0.0643      2.8272
  1/2[<0|del|b>*<b|r|0> + (<0|r|b>*<b|del|0>)*] (Au)
       state          X           Y           Z        Dip. S.   Osc.(frdel)
         1        -0.0004     -0.0002      0.0000      0.0006      0.0004

 Excitation energies and oscillator strengths:
 
 Excited State   1:      Singlet-A      0.2789 eV 4445.35 nm  f=0.0002  <S**2>=0.000
      71 -> 72        -0.68232
      71 -> 77         0.13226
 This state for optimization and/or second-order correction.
 Total Energy, E(TD-HF/TD-KS) =  -863.066685104    
 Copying the excited state density for this state as the 1-particle RhoCI density.
 SavETr:  write IOETrn=   770 NScale= 10 NData=  16 NLR=1 LETran=      28.
 FoFJK:  IHMeth= 1 ICntrl=     0 DoSepK=T KAlg= 1 I1Cent= 0 FoldK=F
 FoFJK:  IHMeth= 1 ICntrl=     0 DoSepK=T KAlg= 1 I1Cent= 0 FoldK=F
          IDoAtm=1111111111111111111111111111111111111
          Differentiating once with respect to electric field.
                with respect to dipole field.
          Differentiating once with respect to nuclear coordinates.
          There are     1 degrees of freedom in the 1st order CPHF.  IDoFFX=0.
 FoFJK:  IHMeth= 1 ICntrl=     0 DoSepK=T KAlg= 1 I1Cent= 0 FoldK=F
 LinEq1:  Iter=  0 NonCon=     1 RMS=5.98D-03 Max=2.49D-01
 AX will form     1 AO Fock derivatives at one time.
 FoFJK:  IHMeth= 1 ICntrl=     0 DoSepK=T KAlg= 1 I1Cent= 0 FoldK=F
 LinEq1:  Iter=  1 NonCon=     1 RMS=2.20D-03 Max=1.24D-01
 FoFJK:  IHMeth= 1 ICntrl=     0 DoSepK=T KAlg= 1 I1Cent= 0 FoldK=F
 LinEq1:  Iter=  2 NonCon=     1 RMS=1.57D-03 Max=1.10D-01
 FoFJK:  IHMeth= 1 ICntrl=     0 DoSepK=T KAlg= 1 I1Cent= 0 FoldK=F
 LinEq1:  Iter=  3 NonCon=     1 RMS=9.99D-04 Max=1.21D-01
 FoFJK:  IHMeth= 1 ICntrl=     0 DoSepK=T KAlg= 1 I1Cent= 0 FoldK=F
 LinEq1:  Iter=  4 NonCon=     1 RMS=6.17D-04 Max=4.73D-02
 FoFJK:  IHMeth= 1 ICntrl=     0 DoSepK=T KAlg= 1 I1Cent= 0 FoldK=F
 LinEq1:  Iter=  5 NonCon=     1 RMS=3.69D-04 Max=1.99D-02
 FoFJK:  IHMeth= 1 ICntrl=     0 DoSepK=T KAlg= 1 I1Cent= 0 FoldK=F
 LinEq1:  Iter=  6 NonCon=     1 RMS=1.98D-04 Max=1.25D-02
 FoFJK:  IHMeth= 1 ICntrl=     0 DoSepK=T KAlg= 1 I1Cent= 0 FoldK=F
 LinEq1:  Iter=  7 NonCon=     1 RMS=1.08D-04 Max=7.85D-03
 FoFJK:  IHMeth= 1 ICntrl=     0 DoSepK=T KAlg= 1 I1Cent= 0 FoldK=F
 LinEq1:  Iter=  8 NonCon=     1 RMS=5.93D-05 Max=5.43D-03
 FoFJK:  IHMeth= 1 ICntrl=     0 DoSepK=T KAlg= 1 I1Cent= 0 FoldK=F
 LinEq1:  Iter=  9 NonCon=     1 RMS=3.62D-05 Max=3.18D-03
 FoFJK:  IHMeth= 1 ICntrl=     0 DoSepK=T KAlg= 1 I1Cent= 0 FoldK=F
 LinEq1:  Iter= 10 NonCon=     1 RMS=1.77D-05 Max=9.83D-04
 FoFJK:  IHMeth= 1 ICntrl=     0 DoSepK=T KAlg= 1 I1Cent= 0 FoldK=F
 LinEq1:  Iter= 11 NonCon=     1 RMS=9.89D-06 Max=4.94D-04
 FoFJK:  IHMeth= 1 ICntrl=     0 DoSepK=T KAlg= 1 I1Cent= 0 FoldK=F
 LinEq1:  Iter= 12 NonCon=     1 RMS=4.20D-06 Max=1.85D-04
 FoFJK:  IHMeth= 1 ICntrl=     0 DoSepK=T KAlg= 1 I1Cent= 0 FoldK=F
 LinEq1:  Iter= 13 NonCon=     1 RMS=2.37D-06 Max=1.20D-04
 FoFJK:  IHMeth= 1 ICntrl=     0 DoSepK=T KAlg= 1 I1Cent= 0 FoldK=F
 LinEq1:  Iter= 14 NonCon=     1 RMS=1.10D-06 Max=8.01D-05
 FoFJK:  IHMeth= 1 ICntrl=     0 DoSepK=T KAlg= 1 I1Cent= 0 FoldK=F
 LinEq1:  Iter= 15 NonCon=     1 RMS=5.54D-07 Max=2.17D-05
 FoFJK:  IHMeth= 1 ICntrl=     0 DoSepK=T KAlg= 1 I1Cent= 0 FoldK=F
 LinEq1:  Iter= 16 NonCon=     1 RMS=2.60D-07 Max=7.35D-06
 FoFJK:  IHMeth= 1 ICntrl=     0 DoSepK=T KAlg= 1 I1Cent= 0 FoldK=F
 LinEq1:  Iter= 17 NonCon=     1 RMS=1.06D-07 Max=3.91D-06
 FoFJK:  IHMeth= 1 ICntrl=     0 DoSepK=T KAlg= 1 I1Cent= 0 FoldK=F
 LinEq1:  Iter= 18 NonCon=     1 RMS=6.37D-08 Max=1.91D-06
 FoFJK:  IHMeth= 1 ICntrl=     0 DoSepK=T KAlg= 1 I1Cent= 0 FoldK=F
 LinEq1:  Iter= 19 NonCon=     1 RMS=2.36D-08 Max=6.61D-07
 FoFJK:  IHMeth= 1 ICntrl=     0 DoSepK=T KAlg= 1 I1Cent= 0 FoldK=F
 LinEq1:  Iter= 20 NonCon=     1 RMS=1.15D-08 Max=4.22D-07
 FoFJK:  IHMeth= 1 ICntrl=     0 DoSepK=T KAlg= 1 I1Cent= 0 FoldK=F
 LinEq1:  Iter= 21 NonCon=     1 RMS=5.21D-09 Max=1.98D-07
 FoFJK:  IHMeth= 1 ICntrl=     0 DoSepK=T KAlg= 1 I1Cent= 0 FoldK=F
 LinEq1:  Iter= 22 NonCon=     1 RMS=2.04D-09 Max=4.21D-08
 FoFJK:  IHMeth= 1 ICntrl=     0 DoSepK=T KAlg= 1 I1Cent= 0 FoldK=F
 LinEq1:  Iter= 23 NonCon=     1 RMS=1.00D-09 Max=3.79D-08
 FoFJK:  IHMeth= 1 ICntrl=     0 DoSepK=T KAlg= 1 I1Cent= 0 FoldK=F
 LinEq1:  Iter= 24 NonCon=     1 RMS=4.24D-10 Max=1.81D-08
 FoFJK:  IHMeth= 1 ICntrl=     0 DoSepK=T KAlg= 1 I1Cent= 0 FoldK=F
 LinEq1:  Iter= 25 NonCon=     1 RMS=2.21D-10 Max=1.05D-08
 FoFJK:  IHMeth= 1 ICntrl=     0 DoSepK=T KAlg= 1 I1Cent= 0 FoldK=F
 LinEq1:  Iter= 26 NonCon=     1 RMS=9.20D-11 Max=3.97D-09
 FoFJK:  IHMeth= 1 ICntrl=     0 DoSepK=T KAlg= 1 I1Cent= 0 FoldK=F
 LinEq1:  Iter= 27 NonCon=     1 RMS=4.10D-11 Max=1.55D-09
 FoFJK:  IHMeth= 1 ICntrl=     0 DoSepK=T KAlg= 1 I1Cent= 0 FoldK=F
 LinEq1:  Iter= 28 NonCon=     0 RMS=2.45D-11 Max=5.75D-10
 Linear equations converged to 1.000D-10 1.000D-09 after    28 iterations.
 FoFJK:  IHMeth= 1 ICntrl=     0 DoSepK=T KAlg= 1 I1Cent= 0 FoldK=F
 End of Minotr Frequency-dependent properties file   721 does not exist.
 End of Minotr Frequency-dependent properties file   722 does not exist.
 Calling FoFJK, ICntrl=      5127 FMM=F ISym2X=0 I1Cent= 0 IOpClX= 0 NMat=1 NMatS=1 NMatT=0.
 FoFJK:  IHMeth= 1 ICntrl=  5127 DoSepK=T KAlg= 1 I1Cent= 0 FoldK=F
 ***** Axes restored to original set *****
 -------------------------------------------------------------------
 Center     Atomic                   Forces (Hartrees/Bohr)
 Number     Number              X              Y              Z
 -------------------------------------------------------------------
      1        6           0.000280114   -0.007986075   -0.003875814
      2        6           0.000538978    0.001660449    0.001914327
      3        1           0.000323400   -0.000541032   -0.000458909
      4        6          -0.001166338    0.001029850   -0.001142167
      5        1           0.000055947    0.000041065   -0.000094677
      6        6          -0.001213897   -0.001528978    0.000839188
      7        1           0.000830823   -0.000782990   -0.000470668
      8        6          -0.001275710    0.004624809    0.003939669
      9        1          -0.000330941   -0.000102125    0.000076561
     10        6          -0.000782429    0.000358356   -0.001817198
     11        6           0.005129400    0.000471562    0.002181077
     12        6          -0.001006801   -0.000960310    0.002986887
     13        1           0.000190489   -0.000040765    0.000295760
     14        6          -0.000108309   -0.000045672    0.000307885
     15        1          -0.000214819   -0.000120097   -0.000078223
     16        6          -0.000008888    0.000218303   -0.000571395
     17        6           0.000070398    0.000132187    0.000256138
     18        1           0.000057656    0.000196771   -0.000051988
     19        6           0.000608032    0.000259769   -0.000092328
     20        1           0.000203823    0.000033700   -0.000039266
     21        6          -0.000743634    0.000033112    0.000351689
     22        6          -0.000078674   -0.000238073   -0.000052025
     23        1          -0.000184255   -0.000106516   -0.000016372
     24        6          -0.000307282   -0.000220464   -0.000132348
     25        1          -0.000108580   -0.000089185   -0.000110519
     26        6          -0.000214652    0.000391991   -0.000080001
     27        1          -0.000091407    0.000117506    0.000066639
     28        1          -0.000031154   -0.000000378    0.000068217
     29        1          -0.000053578   -0.000017155   -0.000026760
     30        6           0.000058392   -0.000282191   -0.000140479
     31        1           0.000013086    0.000086715   -0.000069424
     32        1          -0.000035007   -0.000054529    0.000054374
     33        1          -0.000078907   -0.000020801   -0.000117102
     34        7           0.001043528   -0.000416433   -0.000033588
     35        8           0.000171767    0.002604556    0.000750250
     36        1          -0.001227366   -0.000869411   -0.001161819
     37        8          -0.000313204    0.002162480   -0.003455589
 -------------------------------------------------------------------
 Cartesian Forces:  Max     0.007986075 RMS     0.001383501

 GradGradGradGradGradGradGradGradGradGradGradGradGradGradGradGradGradGrad
 Berny optimization.
 Using GEDIIS/GDIIS optimizer.
 Internal  Forces:  Max     0.004732824 RMS     0.000853859
 Search for a local minimum.
 Step number  34 out of a maximum of  191
 All quantities printed in internal units (Hartrees-Bohrs-Radians)
 Mixed Optimization -- En-DIIS/RFO-DIIS
 Update second derivatives using D2CorX and points   21   23   25   28   27
                                                     30   29   32   31   33
                                                     34
 DE= -4.46D-04 DEPred=-3.83D-04 R= 1.17D+00
 SS=  1.41D+00  RLast= 1.24D-01 DXNew= 1.1959D-01 3.7061D-01
 Trust test= 1.17D+00 RLast= 1.24D-01 DXMaxT set to 1.20D-01
 ITU=  1  0 -1  0 -1  0 -1  0  0  0  0  0  0 -1  0 -1  1  0  1  1
 ITU=  1  1  1  1  0  1  0 -1  0 -1  1  0  1  0
 Use linear search instead of GDIIS.
     Eigenvalues ---    0.00623   0.00773   0.01080   0.01257   0.01467
     Eigenvalues ---    0.01623   0.01758   0.01931   0.02014   0.02022
     Eigenvalues ---    0.02094   0.02126   0.02174   0.02185   0.02210
     Eigenvalues ---    0.02217   0.02265   0.02277   0.02303   0.02353
     Eigenvalues ---    0.02359   0.02367   0.02399   0.02420   0.02456
     Eigenvalues ---    0.02537   0.02911   0.03023   0.04310   0.07229
     Eigenvalues ---    0.07263   0.07557   0.07567   0.14461   0.15567
     Eigenvalues ---    0.15905   0.15974   0.15991   0.15998   0.15999
     Eigenvalues ---    0.16000   0.16001   0.16003   0.16010   0.16015
     Eigenvalues ---    0.16032   0.16067   0.16175   0.16421   0.18460
     Eigenvalues ---    0.21689   0.21960   0.22007   0.22274   0.22520
     Eigenvalues ---    0.22710   0.23026   0.23953   0.24346   0.24858
     Eigenvalues ---    0.24918   0.24965   0.25231   0.26330   0.28466
     Eigenvalues ---    0.35048   0.35687   0.37422   0.38416   0.39184
     Eigenvalues ---    0.40568   0.41340   0.41636   0.42536   0.43647
     Eigenvalues ---    0.45495   0.46196   0.46642   0.47884   0.48802
     Eigenvalues ---    0.49675   0.51161   0.51688   0.53321   0.55350
     Eigenvalues ---    0.55403   0.55448   0.55495   0.55536   0.55602
     Eigenvalues ---    0.57178   0.58962   0.62140   0.62438   0.62463
     Eigenvalues ---    0.62474   0.62483   0.62513   0.62517   0.62536
     Eigenvalues ---    0.62589   0.69352   0.75221   0.87942   2.36118
 RFO step:  Lambda=-4.02118820D-04 EMin= 6.23121652D-03
 Quartic linear search produced a step of  0.27122.
 Iteration  1 RMS(Cart)=  0.02024001 RMS(Int)=  0.00045453
 Iteration  2 RMS(Cart)=  0.00047913 RMS(Int)=  0.00004246
 Iteration  3 RMS(Cart)=  0.00000012 RMS(Int)=  0.00004246
 Variable       Old X    -DE/DX   Delta X   Delta X   Delta X     New X
                                 (Linear)    (Quad)   (Total)
    R1        2.73714  -0.00098   0.00180   0.00397   0.00574   2.74288
    R2        2.73751   0.00078  -0.00012   0.00835   0.00819   2.74570
    R3        2.35583   0.00066  -0.00033  -0.00567  -0.00600   2.34984
    R4        2.04760  -0.00003  -0.00010  -0.00001  -0.00012   2.04749
    R5        2.57719   0.00090  -0.00277   0.00011  -0.00266   2.57454
    R6        2.04896  -0.00006  -0.00005  -0.00038  -0.00042   2.04854
    R7        2.67159  -0.00100  -0.00033   0.00062   0.00032   2.67192
    R8        2.04780  -0.00021  -0.00033  -0.00069  -0.00102   2.04678
    R9        2.62579   0.00149  -0.00216   0.00112  -0.00101   2.62477
   R10        2.04838  -0.00018  -0.00053  -0.00024  -0.00077   2.04762
   R11        2.61543  -0.00106  -0.00065   0.00134   0.00069   2.61612
   R12        2.79485   0.00248   0.00030  -0.00035  -0.00005   2.79480
   R13        2.60766  -0.00185   0.00129  -0.00461  -0.00332   2.60434
   R14        2.57309  -0.00099   0.00025   0.00071   0.00096   2.57405
   R15        2.05029  -0.00012  -0.00066  -0.00034  -0.00100   2.04929
   R16        2.60845  -0.00028   0.00119  -0.00044   0.00075   2.60920
   R17        2.05060  -0.00013  -0.00022  -0.00058  -0.00080   2.04981
   R18        2.72564   0.00043  -0.00057   0.00217   0.00160   2.72724
   R19        2.65465  -0.00014   0.00057  -0.00051   0.00006   2.65471
   R20        2.65418  -0.00045   0.00056  -0.00063  -0.00007   2.65411
   R21        2.04886  -0.00017  -0.00027  -0.00039  -0.00067   2.04820
   R22        2.60989   0.00027  -0.00025   0.00143   0.00118   2.61107
   R23        2.04457   0.00002  -0.00029  -0.00016  -0.00045   2.04412
   R24        2.66513  -0.00072  -0.00001  -0.00238  -0.00239   2.66273
   R25        2.66195  -0.00016   0.00010  -0.00019  -0.00009   2.66186
   R26        2.60253   0.00070  -0.00052   0.00265   0.00213   2.60466
   R27        2.04450  -0.00021  -0.00015  -0.00062  -0.00076   2.04374
   R28        2.61035   0.00019  -0.00031   0.00070   0.00039   2.61074
   R29        2.05178  -0.00012  -0.00026  -0.00034  -0.00060   2.05118
   R30        2.07157  -0.00005  -0.00005   0.00022   0.00016   2.07173
   R31        2.05824  -0.00005  -0.00005   0.00021   0.00016   2.05840
   R32        2.07499   0.00006  -0.00003   0.00089   0.00086   2.07585
   R33        2.73171  -0.00047   0.00046  -0.00238  -0.00192   2.72979
   R34        2.07416   0.00010   0.00000   0.00061   0.00062   2.07478
   R35        2.05812  -0.00004  -0.00006   0.00019   0.00013   2.05825
   R36        2.07233  -0.00013  -0.00012   0.00027   0.00015   2.07248
   R37        2.73183  -0.00024   0.00020  -0.00136  -0.00116   2.73067
   R38        1.81346  -0.00022  -0.00281   0.00121  -0.00160   1.81186
    A1        2.04903   0.00125  -0.00105   0.00118  -0.00011   2.04892
    A2        2.12659   0.00134  -0.00005  -0.00646  -0.00647   2.12011
    A3        2.10745  -0.00260   0.00128   0.00496   0.00627   2.11372
    A4        2.04449   0.00036   0.00071  -0.00158  -0.00083   2.04366
    A5        2.10542  -0.00044   0.00083   0.00278   0.00344   2.10886
    A6        2.13314   0.00008  -0.00146  -0.00109  -0.00250   2.13065
    A7        2.09897   0.00028  -0.00185   0.00024  -0.00157   2.09740
    A8        2.10258  -0.00037  -0.00017  -0.00235  -0.00259   2.09999
    A9        2.08164   0.00009   0.00202   0.00210   0.00416   2.08579
   A10        2.08443  -0.00015   0.00073  -0.00005   0.00068   2.08511
   A11        2.10573   0.00048   0.00008   0.00173   0.00176   2.10749
   A12        2.09295  -0.00033  -0.00082  -0.00156  -0.00237   2.09058
   A13        2.09711  -0.00032   0.00002  -0.00174  -0.00169   2.09542
   A14        2.10362   0.00010   0.00087   0.00395   0.00473   2.10835
   A15        2.08203   0.00021  -0.00095  -0.00196  -0.00288   2.07915
   A16        2.09684  -0.00099  -0.00030  -0.00447  -0.00497   2.09187
   A17        2.05397   0.00026   0.00083   0.01337   0.01423   2.06821
   A18        2.13167   0.00073  -0.00059  -0.00820  -0.00877   2.12291
   A19        2.15570   0.00025   0.00052  -0.00517  -0.00466   2.15104
   A20        2.03290  -0.00175   0.00157   0.00477   0.00632   2.03922
   A21        2.09225   0.00143  -0.00197  -0.00024  -0.00222   2.09003
   A22        2.01196  -0.00006  -0.00079  -0.00078  -0.00160   2.01036
   A23        2.17498   0.00034  -0.00002   0.00239   0.00234   2.17732
   A24        2.09616  -0.00028   0.00079  -0.00142  -0.00066   2.09550
   A25        2.04603  -0.00020  -0.00006  -0.00091  -0.00097   2.04506
   A26        2.20784  -0.00003  -0.00064  -0.00079  -0.00144   2.20640
   A27        2.02932   0.00023   0.00070   0.00172   0.00242   2.03173
   A28        2.16821   0.00036  -0.00085   0.00196   0.00110   2.16931
   A29        2.08611  -0.00002   0.00090   0.00028   0.00117   2.08728
   A30        2.02886  -0.00034  -0.00004  -0.00223  -0.00227   2.02659
   A31        2.09493  -0.00012  -0.00044  -0.00088  -0.00132   2.09361
   A32        2.13060   0.00016   0.00013   0.00127   0.00140   2.13200
   A33        2.05765  -0.00004   0.00031  -0.00038  -0.00007   2.05757
   A34        2.06632   0.00015   0.00005   0.00110   0.00114   2.06746
   A35        2.11598   0.00012  -0.00028   0.00057   0.00029   2.11626
   A36        2.10089  -0.00027   0.00023  -0.00166  -0.00143   2.09946
   A37        2.04365  -0.00019   0.00033  -0.00129  -0.00096   2.04269
   A38        2.12127  -0.00085   0.00091  -0.00328  -0.00238   2.11889
   A39        2.11826   0.00104  -0.00123   0.00458   0.00334   2.12161
   A40        2.10388   0.00000  -0.00049  -0.00012  -0.00061   2.10326
   A41        2.10969   0.00009   0.00010   0.00068   0.00077   2.11047
   A42        2.06961  -0.00009   0.00040  -0.00056  -0.00016   2.06946
   A43        2.13758   0.00016  -0.00024   0.00100   0.00076   2.13834
   A44        2.07504  -0.00019   0.00006  -0.00145  -0.00139   2.07365
   A45        2.07056   0.00003   0.00017   0.00045   0.00063   2.07119
   A46        1.87785   0.00009  -0.00014   0.00002  -0.00012   1.87772
   A47        1.88761   0.00004  -0.00007  -0.00071  -0.00078   1.88684
   A48        1.94785  -0.00021   0.00029  -0.00155  -0.00126   1.94659
   A49        1.88406   0.00004  -0.00022   0.00050   0.00027   1.88433
   A50        1.90720   0.00002   0.00018   0.00075   0.00093   1.90813
   A51        1.95656   0.00004  -0.00006   0.00101   0.00095   1.95751
   A52        1.88380   0.00002   0.00019   0.00011   0.00030   1.88410
   A53        1.88699   0.00001  -0.00006  -0.00042  -0.00048   1.88651
   A54        1.95374   0.00008  -0.00012   0.00059   0.00046   1.95420
   A55        1.87957   0.00003  -0.00027  -0.00043  -0.00070   1.87887
   A56        1.90783  -0.00008   0.00031  -0.00009   0.00022   1.90804
   A57        1.94932  -0.00006  -0.00005   0.00021   0.00016   1.94948
   A58        2.09618  -0.00082   0.00077  -0.00379  -0.00303   2.09316
   A59        2.09035   0.00086  -0.00092   0.00350   0.00258   2.09292
   A60        2.09231  -0.00005   0.00004  -0.00003   0.00000   2.09231
   A61        1.91506  -0.00218   0.00129   0.00337   0.00466   1.91972
    D1        3.09376   0.00006   0.00099   0.02671   0.02769   3.12145
    D2       -0.06482   0.00058   0.00436   0.03392   0.03836  -0.02646
    D3       -0.06430  -0.00125   0.00825   0.00439   0.01271  -0.05159
    D4        3.06030  -0.00073   0.01162   0.01161   0.02338   3.08368
    D5        0.09037  -0.00021  -0.00328  -0.04025  -0.04347   0.04690
    D6       -3.09045  -0.00022  -0.00500  -0.02055  -0.02540  -3.11586
    D7       -3.03494   0.00105  -0.01042  -0.01808  -0.02842  -3.06336
    D8        0.06742   0.00104  -0.01214   0.00163  -0.01036   0.05707
    D9       -3.12867  -0.00055  -0.00270  -0.00924  -0.01196  -3.14063
   D10        0.01134  -0.00034  -0.00259  -0.00917  -0.01175  -0.00042
   D11       -0.00494   0.00000   0.00089  -0.00165  -0.00074  -0.00568
   D12        3.13506   0.00021   0.00100  -0.00158  -0.00052   3.13454
   D13       -3.13571  -0.00052  -0.00166  -0.00038  -0.00206  -3.13777
   D14        0.01959  -0.00036  -0.00042  -0.01102  -0.01150   0.00809
   D15        0.00431  -0.00031  -0.00156  -0.00032  -0.00186   0.00245
   D16       -3.12358  -0.00015  -0.00031  -0.01095  -0.01129  -3.13487
   D17        3.11694   0.00021  -0.00104   0.01421   0.01323   3.13017
   D18        0.00679   0.00077   0.00157   0.00481   0.00638   0.01317
   D19       -0.01088   0.00037   0.00020   0.00351   0.00374  -0.00714
   D20       -3.12103   0.00093   0.00282  -0.00589  -0.00311  -3.12414
   D21       -0.06282  -0.00040   0.00031   0.02151   0.02185  -0.04097
   D22        3.11979  -0.00039   0.00208   0.00040   0.00268   3.12247
   D23        3.10995   0.00016   0.00289   0.01219   0.01504   3.12499
   D24        0.00938   0.00017   0.00466  -0.00892  -0.00413   0.00525
   D25        1.69682  -0.00366  -0.00401  -0.01566  -0.01968   1.67714
   D26       -1.51833  -0.00469  -0.00238  -0.02577  -0.02817  -1.54649
   D27       -1.48484  -0.00371  -0.00576   0.00457  -0.00118  -1.48602
   D28        1.58320  -0.00473  -0.00413  -0.00554  -0.00967   1.57354
   D29        0.00227  -0.00079   0.00174  -0.01020  -0.00845  -0.00618
   D30        3.13051  -0.00103   0.00029   0.00582   0.00612   3.13663
   D31       -3.06338   0.00040  -0.00010   0.00004  -0.00007  -3.06345
   D32        0.06485   0.00016  -0.00155   0.01607   0.01451   0.07936
   D33        0.78050  -0.00072  -0.01257  -0.06972  -0.08227   0.69823
   D34       -2.43181  -0.00175  -0.01089  -0.07967  -0.09058  -2.52239
   D35        0.00826   0.00025   0.00459  -0.00320   0.00139   0.00965
   D36       -3.12904   0.00045   0.00349  -0.00763  -0.00414  -3.13318
   D37        3.13589  -0.00001   0.00306   0.01356   0.01662  -3.13067
   D38       -0.00140   0.00020   0.00196   0.00913   0.01109   0.00969
   D39       -0.01466  -0.00005   0.00071   0.00384   0.00455  -0.01011
   D40        3.13062   0.00001   0.00067   0.00130   0.00196   3.13258
   D41        3.13119   0.00015  -0.00038  -0.00055  -0.00093   3.13026
   D42       -0.00672   0.00021  -0.00042  -0.00309  -0.00352  -0.01023
   D43        0.00206   0.00013   0.00038  -0.00156  -0.00117   0.00089
   D44       -3.13615   0.00008   0.00046  -0.00380  -0.00334  -3.13950
   D45        3.14008   0.00007   0.00042   0.00092   0.00134   3.14141
   D46        0.00186   0.00002   0.00050  -0.00133  -0.00083   0.00103
   D47        3.13794  -0.00014  -0.00020   0.00173   0.00153   3.13947
   D48       -0.00521  -0.00008  -0.00035   0.00163   0.00129  -0.00392
   D49       -0.00026  -0.00008  -0.00023  -0.00062  -0.00086  -0.00112
   D50        3.13978  -0.00003  -0.00038  -0.00072  -0.00110   3.13868
   D51        3.14031   0.00001  -0.00034   0.00155   0.00121   3.14152
   D52        0.00008   0.00005  -0.00039   0.00295   0.00256   0.00265
   D53        0.00203  -0.00004  -0.00027  -0.00065  -0.00092   0.00111
   D54       -3.13820   0.00001  -0.00031   0.00075   0.00044  -3.13776
   D55       -0.00354  -0.00007  -0.00001  -0.00248  -0.00249  -0.00603
   D56        3.13539  -0.00004  -0.00010  -0.00136  -0.00146   3.13393
   D57        3.13944  -0.00002  -0.00006  -0.00106  -0.00112   3.13833
   D58       -0.00481   0.00001  -0.00015   0.00007  -0.00008  -0.00490
   D59       -3.14051   0.00003   0.00044   0.00182   0.00226  -3.13825
   D60        0.00510   0.00000   0.00027   0.00056   0.00083   0.00593
   D61        0.00374   0.00001   0.00053   0.00071   0.00123   0.00497
   D62       -3.13384  -0.00002   0.00036  -0.00055  -0.00019  -3.13403
   D63        0.03341   0.00014   0.00080   0.00229   0.00309   0.03650
   D64        3.07476   0.00006  -0.00045  -0.00147  -0.00191   3.07285
   D65       -3.11096   0.00017   0.00071   0.00346   0.00417  -3.10680
   D66       -0.06961   0.00009  -0.00054  -0.00030  -0.00084  -0.07045
   D67       -0.00331   0.00008  -0.00015   0.00099   0.00084  -0.00247
   D68        3.13984   0.00002   0.00000   0.00108   0.00108   3.14092
   D69       -3.14096   0.00004  -0.00031  -0.00025  -0.00056  -3.14152
   D70        0.00218  -0.00001  -0.00016  -0.00015  -0.00031   0.00187
   D71       -1.04685   0.00004   0.00135   0.01238   0.01373  -1.03312
   D72        2.19510   0.00007   0.00265   0.01594   0.01859   2.21369
   D73       -3.12157   0.00005   0.00123   0.01283   0.01406  -3.10751
   D74        0.12038   0.00007   0.00253   0.01639   0.01892   0.13930
   D75        1.07370  -0.00004   0.00143   0.01107   0.01250   1.08620
   D76       -1.96753  -0.00001   0.00273   0.01463   0.01735  -1.95018
   D77       -1.03450   0.00002  -0.00183  -0.00090  -0.00273  -1.03724
   D78        2.00707  -0.00010  -0.00303  -0.00487  -0.00791   1.99916
   D79       -3.12072   0.00000  -0.00220  -0.00135  -0.00355  -3.12427
   D80       -0.07915  -0.00012  -0.00340  -0.00532  -0.00872  -0.08787
   D81        1.08428   0.00005  -0.00203  -0.00088  -0.00291   1.08137
   D82       -2.15733  -0.00008  -0.00324  -0.00485  -0.00809  -2.16542
         Item               Value     Threshold  Converged?
 Maximum Force            0.004733     0.000450     NO 
 RMS     Force            0.000854     0.000300     NO 
 Maximum Displacement     0.123295     0.001800     NO 
 RMS     Displacement     0.020203     0.001200     NO 
 Predicted change in Energy=-2.151105D-04
 GradGradGradGradGradGradGradGradGradGradGradGradGradGradGradGradGradGrad

                          Input orientation:                          
 ---------------------------------------------------------------------
 Center     Atomic      Atomic             Coordinates (Angstroms)
 Number     Number       Type             X           Y           Z
 ---------------------------------------------------------------------
      1          6           0        5.663201    2.488402    4.512249
      2          6           0        4.489926    1.643962    4.381420
      3          1           0        4.305754    0.928826    5.174261
      4          6           0        3.661126    1.761954    3.306589
      5          1           0        2.787234    1.126366    3.220074
      6          6           0        3.932413    2.714111    2.297154
      7          1           0        3.262310    2.798589    1.450424
      8          6           0        5.049086    3.536156    2.377916
      9          1           0        5.252001    4.254699    1.592673
     10          6           0        5.930659    3.431982    3.440229
     11          6           0        7.137909    4.281281    3.532525
     12          6           0        8.331459    3.967006    2.919349
     13          1           0        8.332164    3.038231    2.359545
     14          6           0        9.474676    4.738875    2.980093
     15          1           0        9.424706    5.653246    3.561494
     16          6           0       10.738238    4.449957    2.345468
     17          6           0       10.990173    3.308000    1.567032
     18          1           0       10.206652    2.575449    1.411430
     19          6           0       12.219383    3.074049    0.980977
     20          1           0       12.347539    2.174844    0.393537
     21          6           0       13.289174    3.977080    1.140747
     22          6           0       13.045549    5.127647    1.915979
     23          1           0       13.826149    5.859635    2.072496
     24          6           0       11.809985    5.345367    2.494463
     25          1           0       11.662603    6.243997    3.085154
     26          6           0       14.717946    2.572556   -0.258965
     27          1           0       14.520551    1.649477    0.298588
     28          1           0       15.753803    2.539418   -0.594205
     29          1           0       14.073876    2.578299   -1.148808
     30          6           0       15.568076    4.729922    0.677854
     31          1           0       15.273916    5.693240    0.240899
     32          1           0       16.453016    4.377859    0.149423
     33          1           0       15.851618    4.902531    1.723120
     34          7           0       14.519266    3.742353    0.564935
     35          8           0        6.393943    2.433385    5.516854
     36          1           0        6.450311    5.360046    4.957716
     37          8           0        7.004982    5.470392    4.183473
 ---------------------------------------------------------------------
                    Distance matrix (angstroms):
                    1          2          3          4          5
     1  C    0.000000
     2  C    1.451471   0.000000
     3  H    2.170991   1.083483   0.000000
     4  C    2.447376   1.362385   2.144259   0.000000
     5  H    3.434537   2.125039   2.482694   1.084040   0.000000
     6  C    2.820145   2.408362   3.406520   1.413917   2.164290
     7  H    3.903237   3.380967   4.295550   2.163103   2.480663
     8  C    2.455668   2.811955   3.894903   2.436527   3.410615
     9  H    3.436977   3.895358   4.978413   3.417919   4.302322
    10  C    1.452964   2.481646   3.451518   2.820928   3.904543
    11  C    2.519730   3.832478   4.685655   4.299544   5.383260
    12  C    3.441395   4.721394   5.524624   5.179210   6.236834
    13  H    3.472724   4.560127   5.346419   4.934002   5.928067
    14  C    4.683959   6.032407   6.785912   6.539574   7.604583
    15  H    5.006905   6.410826   7.150164   6.958879   8.041470
    16  C    5.856504   7.145636   7.859853   7.631162   8.661966
    17  C    6.141879   7.276195   7.959525   7.689685   8.647559
    18  H    5.501418   6.509183   7.189636   6.862748   7.772952
    19  C    7.469698   8.564617   9.209296   8.965145   9.887995
    20  H    7.857638   8.827634   9.438124   9.171157  10.024372
    21  C    8.469867   9.662927  10.308391  10.114196  11.078849
    22  C    8.258649   9.561022  10.228906  10.066234  11.088008
    23  H    9.162495  10.500861  11.161171  11.029128  12.065587
    24  C    7.072246   8.416904   9.110469   8.938921   9.986817
    25  H    7.220382   8.619044   9.313358   9.173951  10.246000
    26  C   10.235231  11.269776  11.858985  11.645751  12.511477
[...]
     9  H   -0.013025   0.304569   0.525094   0.078816  -0.005059  -0.036711
    10  C    0.051758  -4.403998   0.078816  17.331002  -0.658486  -4.173523
    11  C    0.026928  -1.243555  -0.005059  -0.658486  14.682843   0.862534
    12  C    0.001378   1.203230  -0.036711  -4.173523   0.862534  12.295719
    13  H   -0.001702   0.015596   0.005164   0.084167   0.126721   0.430258
    14  C   -0.002239  -0.397167  -0.017532  -0.567583  -3.425722   2.173420
    15  H    0.000072  -0.005404  -0.001078  -0.092060  -0.126817   0.058651
    16  C   -0.000639   0.034217   0.002969   0.310252  -1.170785  -1.152645
    17  C    0.000809  -0.267676  -0.011705  -0.265309  -1.481208  -1.039864
    18  H    0.000355  -0.023316  -0.001738  -0.019792  -0.089443  -0.169618
    19  C    0.000393  -0.117059  -0.004646   0.058231  -0.133467  -0.702540
    20  H   -0.000021   0.002280   0.000144   0.001472   0.019013   0.075902
    21  C    0.000035  -0.019869  -0.000500   0.019160  -0.332693  -1.111336
    22  C   -0.000059   0.034035   0.001409  -0.011895   0.035221   0.011927
    23  H    0.000001   0.000240  -0.000008  -0.000998   0.002631  -0.001423
    24  C   -0.000314   0.032876   0.003823   0.127292  -0.708916  -1.644643
    25  H   -0.000005  -0.002386   0.000063   0.012847   0.018872  -0.002422
    26  C    0.000000  -0.000061  -0.000014   0.000385   0.001454   0.004144
    27  H    0.000000  -0.000021  -0.000001  -0.000099  -0.000439  -0.002159
    28  H    0.000000  -0.000008  -0.000001   0.000029   0.000089   0.000392
    29  H    0.000000   0.000004   0.000000  -0.000050  -0.000309  -0.001264
    30  C    0.000000   0.000140   0.000009  -0.000116   0.000708  -0.009224
    31  H    0.000000  -0.000015   0.000000   0.000031  -0.000206  -0.000438
    32  H    0.000000   0.000011   0.000000  -0.000020   0.000087   0.000172
    33  H    0.000000  -0.000012   0.000000   0.000043  -0.000119  -0.000873
    34  N    0.000000  -0.000003   0.000001   0.000042   0.001314   0.001599
    35  O    0.000080   0.008425  -0.001936  -0.199714   0.264583   0.101635
    36  H   -0.000267   0.044313   0.001019  -0.035890   0.165571   0.024444
    37  O   -0.000273  -0.261886  -0.000169   0.266957   0.519157  -0.402243
             13         14         15         16         17         18
     1  C    0.018394   0.422425  -0.020283   0.083090   0.013389  -0.000507
     2  C    0.024537  -0.173577   0.009798  -0.066453   0.026947  -0.005069
     3  H   -0.000745  -0.002500   0.000208  -0.000327   0.000316   0.000103
     4  C    0.017913   0.083591  -0.006612   0.030167  -0.019460  -0.003159
     5  H   -0.000188   0.002838  -0.000053   0.000655   0.000053   0.000062
     6  C   -0.024670  -0.015099   0.002079  -0.027574   0.023104   0.006065
     7  H   -0.001702  -0.002239   0.000072  -0.000639   0.000809   0.000355
     8  C    0.015596  -0.397167  -0.005404   0.034217  -0.267676  -0.023316
     9  H    0.005164  -0.017532  -0.001078   0.002969  -0.011705  -0.001738
    10  C    0.084167  -0.567583  -0.092060   0.310252  -0.265309  -0.019792
    11  C    0.126721  -3.425722  -0.126817  -1.170785  -1.481208  -0.089443
    12  C    0.430258   2.173420   0.058651  -1.152645  -1.039864  -0.169618
    13  H    0.593688  -0.114089  -0.000602   0.048334  -0.202292  -0.062195
    14  C   -0.114089   9.731855   0.433651   0.734153  -0.220733  -0.117563
    15  H   -0.000602   0.433651   0.460429  -0.062693   0.093007   0.004658
    16  C    0.048334   0.734153  -0.062693  11.509737   0.508833  -0.327478
    17  C   -0.202292  -0.220733   0.093007   0.508833  11.250850   0.509619
    18  H   -0.062195  -0.117563   0.004658  -0.327478   0.509619   0.591537
    19  C   -0.134043  -0.424156   0.022924  -1.392385   1.862490   0.276048
    20  H    0.017033   0.075400  -0.000295   0.244214   0.097223  -0.064612
    21  C   -0.078702  -1.472095   0.011347  -2.149761  -1.294819   0.333766
    22  C    0.031650   0.422435  -0.028386  -1.601580  -1.586863  -0.051868
    23  H    0.001162   0.043510   0.001979  -0.027874  -0.024030  -0.002661
    24  C   -0.001865  -1.279910   0.011060  -0.303711  -0.796460   0.073556
    25  H   -0.001187   0.002862  -0.006930  -0.058309  -0.016413   0.000771
    26  C   -0.001127  -0.017555   0.000582  -0.052824  -0.077127   0.010409
    27  H   -0.000576  -0.002460  -0.000017  -0.016137  -0.002868   0.003563
    28  H   -0.000001  -0.001816   0.000030  -0.000193  -0.006067   0.000179
    29  H   -0.000331  -0.001016   0.000054  -0.009306  -0.012356   0.002778
    30  C    0.000072   0.019295  -0.001379  -0.139410  -0.046434   0.000292
    31  H   -0.000030  -0.003516   0.000005  -0.001094  -0.005108   0.000024
    32  H    0.000018   0.004123  -0.000073  -0.001980   0.005637  -0.000334
    33  H   -0.000092  -0.007381  -0.000121  -0.001340  -0.009462   0.000578
    34  N   -0.000635  -0.005196  -0.000719  -0.064881  -0.039447   0.001412
    35  O   -0.001460  -0.041707   0.004255  -0.000482   0.002652   0.001029
    36  H    0.004392  -0.067723   0.000088  -0.015044  -0.010050  -0.000601
    37  O    0.013900  -0.003341  -0.011586  -0.009604  -0.022516  -0.002869
             19         20         21         22         23         24
     1  C    0.006474  -0.000197   0.004014  -0.004000  -0.000140   0.044007
     2  C    0.007455   0.000074  -0.000012  -0.002771   0.000048  -0.023299
     3  H    0.000093  -0.000007   0.000015  -0.000032   0.000001  -0.000276
     4  C   -0.005818   0.000154  -0.000054   0.001170  -0.000022   0.011321
     5  H    0.000040  -0.000003   0.000021   0.000002   0.000000   0.000124
     6  C    0.007000  -0.000219  -0.000223  -0.001081   0.000011  -0.011412
     7  H    0.000393  -0.000021   0.000035  -0.000059   0.000001  -0.000314
     8  C   -0.117059   0.002280  -0.019869   0.034035   0.000240   0.032876
     9  H   -0.004646   0.000144  -0.000500   0.001409  -0.000008   0.003823
    10  C    0.058231   0.001472   0.019160  -0.011895  -0.000998   0.127292
    11  C   -0.133467   0.019013  -0.332693   0.035221   0.002631  -0.708916
    12  C   -0.702540   0.075902  -1.111336   0.011927  -0.001423  -1.644643
    13  H   -0.134043   0.017033  -0.078702   0.031650   0.001162  -0.001865
    14  C   -0.424156   0.075400  -1.472095   0.422435   0.043510  -1.279910
    15  H    0.022924  -0.000295   0.011347  -0.028386   0.001979   0.011060
    16  C   -1.392385   0.244214  -2.149761  -1.601580  -0.027874  -0.303711
    17  C    1.862490   0.097223  -1.294819  -1.586863  -0.024030  -0.796460
    18  H    0.276048  -0.064612   0.333766  -0.051868  -0.002661   0.073556
    19  C    9.602187   0.290754   0.368567  -1.864432  -0.004122  -0.879365
    20  H    0.290754   0.548447  -0.453286   0.018500   0.004318  -0.063492
    21  C    0.368567  -0.453286  13.503362  -0.718788  -0.151650   0.078240
    22  C   -1.864432   0.018500  -0.718788   9.277331   0.510609   1.745178
    23  H   -0.004122   0.004318  -0.151650   0.510609   0.506709  -0.013478
    24  C   -0.879365  -0.063492   0.078240   1.745178  -0.013478   9.489446
    25  H    0.002297  -0.000939   0.044328  -0.022411  -0.014807   0.335602
    26  C    0.003618  -0.005108  -0.009911  -0.100753  -0.003514  -0.003272
    27  H    0.050799  -0.005948   0.004735  -0.026952  -0.000934  -0.004345
    28  H    0.006057   0.002799   0.010983  -0.000567   0.000217   0.004349
    29  H    0.007951  -0.017991  -0.001853   0.005689   0.000050   0.000186
    30  C   -0.096789  -0.002809  -0.171313   0.167955   0.015992  -0.041334
    31  H   -0.000821  -0.000771  -0.016601   0.013129  -0.012114  -0.001464
    32  H    0.017455   0.001758  -0.026333   0.017203   0.006162  -0.007322
    33  H   -0.042428  -0.001790   0.018199   0.035749  -0.006638   0.012246
    34  N   -0.290057  -0.032726   0.349177  -0.182202  -0.031344   0.022043
    35  O    0.000733  -0.000047   0.000140  -0.000167   0.000015  -0.003785
    36  H   -0.000595   0.000029  -0.000515   0.000205   0.000002  -0.003155
    37  O   -0.005875   0.000241  -0.002744   0.004364   0.000056  -0.001069
             25         26         27         28         29         30
     1  C    0.002342  -0.000151   0.000036  -0.000006   0.000000  -0.000027
     2  C   -0.000874  -0.000005  -0.000009   0.000000   0.000003  -0.000002
     3  H   -0.000018   0.000000   0.000000   0.000000   0.000000   0.000000
     4  C    0.000376  -0.000006   0.000003   0.000000  -0.000001   0.000001
     5  H    0.000005   0.000000   0.000000   0.000000   0.000000   0.000000
     6  C   -0.000083   0.000024  -0.000002   0.000001   0.000000  -0.000003
     7  H   -0.000005   0.000000   0.000000   0.000000   0.000000   0.000000
     8  C   -0.002386  -0.000061  -0.000021  -0.000008   0.000004   0.000140
     9  H    0.000063  -0.000014  -0.000001  -0.000001   0.000000   0.000009
    10  C    0.012847   0.000385  -0.000099   0.000029  -0.000050  -0.000116
    11  C    0.018872   0.001454  -0.000439   0.000089  -0.000309   0.000708
    12  C   -0.002422   0.004144  -0.002159   0.000392  -0.001264  -0.009224
    13  H   -0.001187  -0.001127  -0.000576  -0.000001  -0.000331   0.000072
    14  C    0.002862  -0.017555  -0.002460  -0.001816  -0.001016   0.019295
    15  H   -0.006930   0.000582  -0.000017   0.000030   0.000054  -0.001379
    16  C   -0.058309  -0.052824  -0.016137  -0.000193  -0.009306  -0.139410
    17  C   -0.016413  -0.077127  -0.002868  -0.006067  -0.012356  -0.046434
    18  H    0.000771   0.010409   0.003563   0.000179   0.002778   0.000292
    19  C    0.002297   0.003618   0.050799   0.006057   0.007951  -0.096789
    20  H   -0.000939  -0.005108  -0.005948   0.002799  -0.017991  -0.002809
    21  C    0.044328  -0.009911   0.004735   0.010983  -0.001853  -0.171313
    22  C   -0.022411  -0.100753  -0.026952  -0.000567   0.005689   0.167955
    23  H   -0.014807  -0.003514  -0.000934   0.000217   0.000050   0.015992
    24  C    0.335602  -0.003272  -0.004345   0.004349   0.000186  -0.041334
    25  H    0.479033  -0.000557   0.000184  -0.000070  -0.000256   0.004564
    26  C   -0.000557   5.331722   0.379404   0.412511   0.440080  -0.152062
    27  H    0.000184   0.379404   0.552214  -0.028081  -0.046757   0.013824
    28  H   -0.000070   0.412511  -0.028081   0.508234  -0.019929  -0.017405
    29  H   -0.000256   0.440080  -0.046757  -0.019929   0.519899  -0.008090
    30  C    0.004564  -0.152062   0.013824  -0.017405  -0.008090   5.366498
    31  H    0.000461  -0.007289   0.000422  -0.005142   0.005739   0.438309
    32  H   -0.000089  -0.015204   0.004081   0.012909  -0.005816   0.416592
    33  H    0.001520   0.013489  -0.005086   0.004423   0.000323   0.377307
    34  N    0.000727   0.280262  -0.035190  -0.047964  -0.053914   0.293261
    35  O   -0.000307   0.000000   0.000000   0.000000   0.000000   0.000000
    36  H   -0.000058   0.000002   0.000000   0.000000   0.000000   0.000002
    37  O    0.001139  -0.000005  -0.000001   0.000000   0.000000   0.000005
             31         32         33         34         35         36
     1  C    0.000002  -0.000002   0.000001   0.000011   0.177717  -0.089368
     2  C   -0.000001   0.000000   0.000000  -0.000002  -0.144094  -0.016442
     3  H    0.000000   0.000000   0.000000   0.000000  -0.015704  -0.000572
     4  C    0.000000   0.000000   0.000000   0.000000  -0.015025   0.005844
     5  H    0.000000   0.000000   0.000000   0.000000   0.001729   0.000103
     6  C   -0.000001   0.000000   0.000000  -0.000001  -0.001136   0.010511
     7  H    0.000000   0.000000   0.000000   0.000000   0.000080  -0.000267
     8  C   -0.000015   0.000011  -0.000012  -0.000003   0.008425   0.044313
     9  H    0.000000   0.000000   0.000000   0.000001  -0.001936   0.001019
    10  C    0.000031  -0.000020   0.000043   0.000042  -0.199714  -0.035890
    11  C   -0.000206   0.000087  -0.000119   0.001314   0.264583   0.165571
    12  C   -0.000438   0.000172  -0.000873   0.001599   0.101635   0.024444
    13  H   -0.000030   0.000018  -0.000092  -0.000635  -0.001460   0.004392
    14  C   -0.003516   0.004123  -0.007381  -0.005196  -0.041707  -0.067723
    15  H    0.000005  -0.000073  -0.000121  -0.000719   0.004255   0.000088
    16  C   -0.001094  -0.001980  -0.001340  -0.064881  -0.000482  -0.015044
    17  C   -0.005108   0.005637  -0.009462  -0.039447   0.002652  -0.010050
    18  H    0.000024  -0.000334   0.000578   0.001412   0.001029  -0.000601
    19  C   -0.000821   0.017455  -0.042428  -0.290057   0.000733  -0.000595
    20  H   -0.000771   0.001758  -0.001790  -0.032726  -0.000047   0.000029
    21  C   -0.016601  -0.026333   0.018199   0.349177   0.000140  -0.000515
    22  C    0.013129   0.017203   0.035749  -0.182202  -0.000167   0.000205
    23  H   -0.012114   0.006162  -0.006638  -0.031344   0.000015   0.000002
    24  C   -0.001464  -0.007322   0.012246   0.022043  -0.003785  -0.003155
    25  H    0.000461  -0.000089   0.001520   0.000727  -0.000307  -0.000058
    26  C   -0.007289  -0.015204   0.013489   0.280262   0.000000   0.000002
    27  H    0.000422   0.004081  -0.005086  -0.035190   0.000000   0.000000
    28  H   -0.005142   0.012909   0.004423  -0.047964   0.000000   0.000000
    29  H    0.005739  -0.005816   0.000323  -0.053914   0.000000   0.000000
    30  C    0.438309   0.416592   0.377307   0.293261   0.000000   0.000002
    31  H    0.522531  -0.021232  -0.048641  -0.052018   0.000000   0.000000
    32  H   -0.021232   0.510067  -0.028509  -0.049551   0.000000   0.000000
    33  H   -0.048641  -0.028509   0.556933  -0.039041   0.000000   0.000000
    34  N   -0.052018  -0.049551  -0.039041   6.883741   0.000000   0.000001
    35  O    0.000000   0.000000   0.000000   0.000000   8.332116  -0.007222
    36  H    0.000000   0.000000   0.000000   0.000001  -0.007222   0.385655
    37  O   -0.000002   0.000001  -0.000003   0.000000  -0.002926   0.250087
             37
     1  C    0.097943
     2  C   -0.015392
     3  H   -0.000451
     4  C    0.009411
     5  H    0.000096
     6  C   -0.039304
     7  H   -0.000273
     8  C   -0.261886
     9  H   -0.000169
    10  C    0.266957
    11  C    0.519157
    12  C   -0.402243
    13  H    0.013900
    14  C   -0.003341
    15  H   -0.011586
    16  C   -0.009604
    17  C   -0.022516
    18  H   -0.002869
    19  C   -0.005875
    20  H    0.000241
    21  C   -0.002744
    22  C    0.004364
    23  H    0.000056
    24  C   -0.001069
    25  H    0.001139
    26  C   -0.000005
    27  H   -0.000001
    28  H    0.000000
    29  H    0.000000
    30  C    0.000005
    31  H   -0.000002
    32  H    0.000001
    33  H   -0.000003
    34  N    0.000000
    35  O   -0.002926
    36  H    0.250087
    37  O    7.750694
 Mulliken atomic charges:
              1
     1  C   -0.437956
     2  C    0.022748
     3  H    0.213962
     4  C   -0.278015
     5  H    0.187566
     6  C   -0.454288
     7  H    0.169977
     8  C   -0.175256
     9  H    0.195540
    10  C    1.128103
    11  C   -0.169014
    12  C   -0.587243
    13  H    0.193537
    14  C    0.232121
    15  H    0.250233
    16  C    1.147887
    17  C   -0.936666
    18  H    0.126019
    19  C   -0.492967
    20  H    0.250506
    21  C   -0.733030
    22  C   -0.128955
    23  H    0.202045
    24  C   -0.198463
    25  H    0.220131
    26  C   -0.431545
    27  H    0.168815
    28  H    0.164048
    29  H    0.196484
    30  C   -0.428428
    31  H    0.195849
    32  H    0.160189
    33  H    0.170723
    34  N    0.091300
    35  O   -0.459397
    36  H    0.355231
    37  O   -0.131792
 Sum of Mulliken atomic charges =   0.00000
 Mulliken charges with hydrogens summed into heavy atoms:
              1
     1  C   -0.437956
     2  C    0.236710
     4  C   -0.090449
     6  C   -0.284310
     8  C    0.020285
    10  C    1.128103
    11  C   -0.169014
    12  C   -0.393706
    14  C    0.482354
    16  C    1.147887
    17  C   -0.810647
    19  C   -0.242462
    21  C   -0.733030
    22  C    0.073090
    24  C    0.021668
    26  C    0.097803
    30  C    0.098332
    34  N    0.091300
    35  O   -0.459397
    37  O    0.223439
 Sum of Mulliken charges with hydrogens summed into heavy atoms =   0.00000
 Electronic spatial extent (au):  <R**2>=          10049.0916
 Charge=              0.0000 electrons
 Dipole moment (field-independent basis, Debye):
    X=            -15.6676    Y=             -0.6958    Z=             -4.2382  Tot=             16.2456
 Quadrupole moment (field-independent basis, Debye-Ang):
   XX=           -106.9364   YY=           -106.1152   ZZ=           -133.7764
   XY=             -7.5478   XZ=            -13.1582   YZ=              3.8861
 Traceless Quadrupole moment (field-independent basis, Debye-Ang):
   XX=              8.6730   YY=              9.4941   ZZ=            -18.1671
   XY=             -7.5478   XZ=            -13.1582   YZ=              3.8861
 Octapole moment (field-independent basis, Debye-Ang**2):
  XXX=           -479.9469  YYY=            -29.8319  ZZZ=            -24.7001  XYY=            -33.6027
  XXY=             19.9690  XXZ=            -43.0787  XZZ=            -40.4552  YZZ=              7.5645
  YYZ=              2.7167  XYZ=             10.2536
 Hexadecapole moment (field-independent basis, Debye-Ang**3):
 XXXX=         -10803.4863 YYYY=          -1037.0020 ZZZZ=           -625.7671 XXXY=           -181.9438
 XXXZ=            -79.9682 YYYX=           -162.4664 YYYZ=             10.8658 ZZZX=            -80.8788
 ZZZY=             17.0813 XXYY=          -1983.1963 XXZZ=          -2335.9775 YYZZ=           -294.3617
 XXYZ=             59.9273 YYXZ=             -5.8248 ZZXY=             21.4940
 N-N= 1.359876695413D+03 E-N=-4.728549556085D+03  KE= 8.594610335606D+02
 1\1\GINC-DN15\FOpt\RwB97XD TD-FC\6-311++G(d,p)\C17H17N1O2\BTX008\28-Oc
 t-2015\0\\# opt wb97xd/6-311++g** td(nstates=1,root=1)\\H K s1\\0,1\C,
 5.6679692123,2.5060283747,4.5194437415\C,4.5013519467,1.6559459055,4.4
 028908749\H,4.3246297794,0.9483948783,5.2041590298\C,3.66724476,1.7589
 87715,3.3276903053\H,2.7932302606,1.1223831467,3.2496437572\C,3.933448
 5451,2.6964150699,2.3062798041\H,3.2628101324,2.7660967988,1.458324247
 9\C,5.0515742887,3.5225731192,2.3721828854\H,5.2475045917,4.2302241955
 ,1.5751115591\C,5.9329108832,3.435008703,3.4338686292\C,7.1386106402,4
 .2910899489,3.5199490695\C,8.3371299814,3.9675128654,2.9208989288\H,8.
 3455556398,3.0244108929,2.3856344533\C,9.4777090397,4.7413341428,2.973
 9307925\H,9.4238030587,5.6700643871,3.532272554\C,10.749683672,4.43560
 68878,2.3620022384\C,10.9997599536,3.2939117059,1.5841334995\H,10.2077
 794313,2.5761445305,1.4034564893\C,12.2379248874,3.0447468886,1.022986
 5007\H,12.3612583084,2.1474263402,0.4317161564\C,13.3190428272,3.92694
 36274,1.2125235338\C,13.0730020569,5.0818207838,1.9773768615\H,13.8573
 566296,5.8070914037,2.1461791283\C,11.8287860146,5.3167224428,2.531558
 5281\H,11.6815270506,6.2193084211,3.1165102073\C,14.7016314236,2.62127
 70232,-0.3164993096\H,14.4204691299,1.6486343906,0.0968335414\H,15.744
 315366,2.5512554482,-0.6247818611\H,14.0877037012,2.8059540085,-1.2104
 324297\C,15.5648372975,4.7160868352,0.6848963092\H,15.2406609419,5.611
 25395,0.1338198771\H,16.4811335366,4.3445622169,0.2272604702\H,15.8104
 457405,5.0144280496,1.7080293989\N,14.5704348331,3.6646473461,0.677679
 8319\O,6.4085074015,2.4681399039,5.5199797749\H,6.2950347978,5.4329792
 22,4.7990854298\O,7.0045962089,5.4837764904,4.1575689113\\Version=EM64
 L-G09RevC.01\State=1-A\HF=-863.0804787\RMSD=8.972e-09\RMSF=8.010e-06\D
 ipole=-0.6351573,-0.2850712,-1.406917\PG=C01 [X(C17H17N1O2)]\\@


 IF IT HAPPENS, IT MUST BE POSSIBLE.

 -- THE UNNAMED LAW FROM PAUL DICKSON'S 
    "THE OFFICIAL RULES"
 Job cpu time:  8 days 18 hours 18 minutes 43.1 seconds.
 File lengths (MBytes):  RWF=    229 Int=      0 D2E=      0 Chk=     44 Scr=      1
 Normal termination of Gaussian 09 at Wed Oct 28 21:21:34 2015.
