 Entering Gaussian System, Link 0=g09
 Input=methyl_optS1_rotated.com
 Output=methyl_optS1_rotated.out
 Initial command:
 /share/apps/gaussian/g09_D01/g09/l1.exe "/tmp/61373.1.all.q/Gau-5071.inp" -scrdir="/tmp/61373.1.all.q/"
 Entering Link 1 = /share/apps/gaussian/g09_D01/g09/l1.exe PID=      5072.
  
 Copyright (c) 1988,1990,1992,1993,1995,1998,2003,2009,2013,
            Gaussian, Inc.  All Rights Reserved.
  
 This is part of the Gaussian(R) 09 program.  It is based on
 the Gaussian(R) 03 system (copyright 2003, Gaussian, Inc.),
 the Gaussian(R) 98 system (copyright 1998, Gaussian, Inc.),
 the Gaussian(R) 94 system (copyright 1995, Gaussian, Inc.),
 the Gaussian 92(TM) system (copyright 1992, Gaussian, Inc.),
 the Gaussian 90(TM) system (copyright 1990, Gaussian, Inc.),
 the Gaussian 88(TM) system (copyright 1988, Gaussian, Inc.),
 the Gaussian 86(TM) system (copyright 1986, Carnegie Mellon
 University), and the Gaussian 82(TM) system (copyright 1983,
 Carnegie Mellon University). Gaussian is a federally registered
 trademark of Gaussian, Inc.
  
 This software contains proprietary and confidential information,
 including trade secrets, belonging to Gaussian, Inc.
  
 This software is provided under written license and may be
 used, copied, transmitted, or stored only in accord with that
 written license.
  
 The following legend is applicable only to US Government
 contracts under FAR:
  
                    RESTRICTED RIGHTS LEGEND
  
 Use, reproduction and disclosure by the US Government is
 subject to restrictions as set forth in subparagraphs (a)
 and (c) of the Commercial Computer Software - Restricted
 Rights clause in FAR 52.227-19.
  
 Gaussian, Inc.
 340 Quinnipiac St., Bldg. 40, Wallingford CT 06492
  
  
 ---------------------------------------------------------------
 Warning -- This program may not be used in any manner that
 competes with the business of Gaussian, Inc. or will provide
 assistance to any competitor of Gaussian, Inc.  The licensee
 of this program is prohibited from giving any competitor of
 Gaussian, Inc. access to this program.  By using this program,
 the user acknowledges that Gaussian, Inc. is engaged in the
 business of creating and licensing software in the field of
 computational chemistry and represents and warrants to the
 licensee that it is not a competitor of Gaussian, Inc. and that
 it will not use this program in any manner prohibited above.
 ---------------------------------------------------------------
  

 Cite this work as:
 Gaussian 09, Revision D.01,
 M. J. Frisch, G. W. Trucks, H. B. Schlegel, G. E. Scuseria, 
 M. A. Robb, J. R. Cheeseman, G. Scalmani, V. Barone, B. Mennucci, 
 G. A. Petersson, H. Nakatsuji, M. Caricato, X. Li, H. P. Hratchian, 
 A. F. Izmaylov, J. Bloino, G. Zheng, J. L. Sonnenberg, M. Hada, 
 M. Ehara, K. Toyota, R. Fukuda, J. Hasegawa, M. Ishida, T. Nakajima, 
 Y. Honda, O. Kitao, H. Nakai, T. Vreven, J. A. Montgomery, Jr., 
 J. E. Peralta, F. Ogliaro, M. Bearpark, J. J. Heyd, E. Brothers, 
 K. N. Kudin, V. N. Staroverov, T. Keith, R. Kobayashi, J. Normand, 
 K. Raghavachari, A. Rendell, J. C. Burant, S. S. Iyengar, J. Tomasi, 
 M. Cossi, N. Rega, J. M. Millam, M. Klene, J. E. Knox, J. B. Cross, 
 V. Bakken, C. Adamo, J. Jaramillo, R. Gomperts, R. E. Stratmann, 
 O. Yazyev, A. J. Austin, R. Cammi, C. Pomelli, J. W. Ochterski, 
 R. L. Martin, K. Morokuma, V. G. Zakrzewski, G. A. Voth, 
 P. Salvador, J. J. Dannenberg, S. Dapprich, A. D. Daniels, 
 O. Farkas, J. B. Foresman, J. V. Ortiz, J. Cioslowski, 
 and D. J. Fox, Gaussian, Inc., Wallingford CT, 2013.
 
 ******************************************
 Gaussian 09:  ES64L-G09RevD.01 24-Apr-2013
                19-Jul-2017 
 ******************************************
 %chk=methyl_optS1_rotated
 %mem=28GB
 %nproc=4
 Will use up to    4 processors via shared memory.
 ----------------------------------------------
 #p wb97xd 6-311++G** opt td=(nstates=1,root=1)
 ----------------------------------------------
 1/14=-1,18=20,19=15,26=3,38=1/1,3;
 2/9=110,12=2,17=6,18=5,40=1/2;
 3/5=4,6=6,7=1111,11=9,16=1,25=1,30=1,71=1,74=-58/1,2,8,3;
 4//1;
 5/5=2,38=5/2;
 8/6=1,10=2,107=1,108=1/1;
 9/8=1,15=2,41=1,42=1,70=2/14;
 10/5=4/2;
 6/7=2,8=2,9=2,10=2/1;
 7/12=6,13=5,14=1/1,2,3,16;
 1/14=-1,18=20,19=15,26=3/3(2);
 2/9=110/2;
 99//99;
 2/9=110/2;
 3/5=4,6=6,7=1111,11=9,16=1,25=1,30=1,71=1,74=-58/1,2,8,3;
 4/5=5,16=3,69=1/1;
 5/5=2,38=5/2;
 8/6=1,10=2,107=1,108=1/1;
 9/8=1,15=2,41=1,42=1,49=4,70=2/14;
 10/5=4/2;
 7/12=6,13=5,14=1/1,2,3,16;
 1/14=-1,18=20,19=15,26=3/3(-8);
 2/9=110/2;
 6/7=2,8=2,9=2,10=2/1;
 99//99;
 Leave Link    1 at Wed Jul 19 11:18:37 2017, MaxMem=  3758096384 cpu:         0.1
 (Enter /share/apps/gaussian/g09_D01/g09/l101.exe)
 ----------
 rotated E*
 ----------
 Symbolic Z-matrix:
 Charge =  0 Multiplicity = 1
 H                     0.98139   16.25755   5.04052 
 H                     0.65098   16.61343   7.25898 
 C                     0.53892   17.07625   4.48943 
 C                     1.31501   17.48151   7.1876 
 C                     0.34547   18.34364   5.11627 
 C                     0.17291   16.87448   3.189 
 N                     0.7095    18.54902   6.41435 
 H                     2.26578   17.15718   6.74903 
 H                     1.51185   17.83795   8.19653 
 C                    -0.23897   19.37613   4.33925 
 C                    -0.41402   17.90131   2.39227 
 H                     0.33463   15.90181   2.73671 
 C                     0.52683   19.85051   7.02637 
 C                    -0.60529   19.16507   3.03424 
 H                    -0.40892   20.352    4.77406 
 C                    -0.77242   17.63911   1.0472 
 H                     1.09568   20.62353   6.49672 
 H                    -0.52938   20.14239   7.03507 
 H                     0.87708   19.81578   8.05583 
 H                    -1.05539   19.98281   2.48512 
 H                    -0.62062   16.63767   0.65716 
 C                    -1.30524   18.57712   0.1681 
 C                    -1.67238   18.21104  -1.17045 
 H                    -1.46131   19.59619   0.4968 
 C                    -2.21795   19.21664  -2.09293 
 O                    -1.54852   17.00465  -1.54789 
 C                    -1.52827   19.45667  -3.32402 
 C                    -3.37876   19.97203  -1.85737 
 C                    -2.01888   20.38957  -4.24126 
 O                    -0.41569   18.80099  -3.61772 
 C                    -3.84832   20.8933  -2.77266 
 H                    -3.92308   19.84587  -0.92944 
 H                    -1.46266   20.53142  -5.16186 
 C                    -3.17396   21.11133  -3.98521 
 H                    -0.23343   18.20727  -2.82115 
 H                    -4.74638   21.46005  -2.55016 
 C                    -3.69031   22.10406  -4.99105 
 H                    -4.00076   21.59878  -5.91096 
 H                    -4.54944   22.65487  -4.60316 
 H                    -2.91604   22.82722  -5.26276 
 
 NAtoms=     40 NQM=       40 NQMF=       0 NMMI=      0 NMMIF=      0
                NMic=       0 NMicF=      0.
                    Isotopes and Nuclear Properties:
 (Nuclear quadrupole moments (NQMom) in fm**2, nuclear magnetic moments (NMagM)
  in nuclear magnetons)

  Atom         1           2           3           4           5           6           7           8           9          10
 IAtWgt=           1           1          12          12          12          12          14           1           1          12
 AtmWgt=   1.0078250   1.0078250  12.0000000  12.0000000  12.0000000  12.0000000  14.0030740   1.0078250   1.0078250  12.0000000
 NucSpn=           1           1           0           0           0           0           2           1           1           0
 AtZEff=   0.0000000   0.0000000   0.0000000   0.0000000   0.0000000   0.0000000   0.0000000   0.0000000   0.0000000   0.0000000
 NQMom=    0.0000000   0.0000000   0.0000000   0.0000000   0.0000000   0.0000000   2.0440000   0.0000000   0.0000000   0.0000000
 NMagM=    2.7928460   2.7928460   0.0000000   0.0000000   0.0000000   0.0000000   0.4037610   2.7928460   2.7928460   0.0000000
 AtZNuc=   1.0000000   1.0000000   6.0000000   6.0000000   6.0000000   6.0000000   7.0000000   1.0000000   1.0000000   6.0000000

  Atom        11          12          13          14          15          16          17          18          19          20
 IAtWgt=          12           1          12          12           1          12           1           1           1           1
 AtmWgt=  12.0000000   1.0078250  12.0000000  12.0000000   1.0078250  12.0000000   1.0078250   1.0078250   1.0078250   1.0078250
 NucSpn=           0           1           0           0           1           0           1           1           1           1
 AtZEff=   0.0000000   0.0000000   0.0000000   0.0000000   0.0000000   0.0000000   0.0000000   0.0000000   0.0000000   0.0000000
 NQMom=    0.0000000   0.0000000   0.0000000   0.0000000   0.0000000   0.0000000   0.0000000   0.0000000   0.0000000   0.0000000
 NMagM=    0.0000000   2.7928460   0.0000000   0.0000000   2.7928460   0.0000000   2.7928460   2.7928460   2.7928460   2.7928460
 AtZNuc=   6.0000000   1.0000000   6.0000000   6.0000000   1.0000000   6.0000000   1.0000000   1.0000000   1.0000000   1.0000000

  Atom        21          22          23          24          25          26          27          28          29          30
 IAtWgt=           1          12          12           1          12          16          12          12          12          16
 AtmWgt=   1.0078250  12.0000000  12.0000000   1.0078250  12.0000000  15.9949146  12.0000000  12.0000000  12.0000000  15.9949146
 NucSpn=           1           0           0           1           0           0           0           0           0           0
 AtZEff=   0.0000000   0.0000000   0.0000000   0.0000000   0.0000000   0.0000000   0.0000000   0.0000000   0.0000000   0.0000000
 NQMom=    0.0000000   0.0000000   0.0000000   0.0000000   0.0000000   0.0000000   0.0000000   0.0000000   0.0000000   0.0000000
 NMagM=    2.7928460   0.0000000   0.0000000   2.7928460   0.0000000   0.0000000   0.0000000   0.0000000   0.0000000   0.0000000
 AtZNuc=   1.0000000   6.0000000   6.0000000   1.0000000   6.0000000   8.0000000   6.0000000   6.0000000   6.0000000   8.0000000

  Atom        31          32          33          34          35          36          37          38          39          40
 IAtWgt=          12           1           1          12           1           1          12           1           1           1
 AtmWgt=  12.0000000   1.0078250   1.0078250  12.0000000   1.0078250   1.0078250  12.0000000   1.0078250   1.0078250   1.0078250
 NucSpn=           0           1           1           0           1           1           0           1           1           1
 AtZEff=   0.0000000   0.0000000   0.0000000   0.0000000   0.0000000   0.0000000   0.0000000   0.0000000   0.0000000   0.0000000
 NQMom=    0.0000000   0.0000000   0.0000000   0.0000000   0.0000000   0.0000000   0.0000000   0.0000000   0.0000000   0.0000000
 NMagM=    0.0000000   2.7928460   2.7928460   0.0000000   2.7928460   2.7928460   0.0000000   2.7928460   2.7928460   2.7928460
 AtZNuc=   6.0000000   1.0000000   1.0000000   6.0000000   1.0000000   1.0000000   6.0000000   1.0000000   1.0000000   1.0000000
 Leave Link  101 at Wed Jul 19 11:18:37 2017, MaxMem=  3758096384 cpu:         1.2
 (Enter /share/apps/gaussian/g09_D01/g09/l103.exe)

 GradGradGradGradGradGradGradGradGradGradGradGradGradGradGradGradGradGrad
 Berny optimization.
 Initialization pass.
                           ----------------------------
                           !    Initial Parameters    !
                           ! (Angstroms and Degrees)  !
 --------------------------                            --------------------------
 ! Name  Definition              Value          Derivative Info.                !
 --------------------------------------------------------------------------------
 ! R1    R(1,3)                  1.0816         estimate D2E/DX2                !
 ! R2    R(2,4)                  1.0953         estimate D2E/DX2                !
 ! R3    R(3,5)                  1.4271         estimate D2E/DX2                !
 ! R4    R(3,6)                  1.3659         estimate D2E/DX2                !
 ! R5    R(4,7)                  1.4506         estimate D2E/DX2                !
 ! R6    R(4,8)                  1.0961         estimate D2E/DX2                !
 ! R7    R(4,9)                  1.088          estimate D2E/DX2                !
 ! R8    R(5,7)                  1.3637         estimate D2E/DX2                !
 ! R9    R(5,10)                 1.4182         estimate D2E/DX2                !
 ! R10   R(6,11)                 1.4261         estimate D2E/DX2                !
 ! R11   R(6,12)                 1.0848         estimate D2E/DX2                !
 ! R12   R(7,13)                 1.4498         estimate D2E/DX2                !
 ! R13   R(10,14)                1.3718         estimate D2E/DX2                !
 ! R14   R(10,15)                1.0818         estimate D2E/DX2                !
 ! R15   R(11,14)                1.4303         estimate D2E/DX2                !
 ! R16   R(11,16)                1.4165         estimate D2E/DX2                !
 ! R17   R(13,17)                1.0962         estimate D2E/DX2                !
 ! R18   R(13,18)                1.0958         estimate D2E/DX2                !
 ! R19   R(13,19)                1.088          estimate D2E/DX2                !
 ! R20   R(14,20)                1.083          estimate D2E/DX2                !
 ! R21   R(16,21)                1.0854         estimate D2E/DX2                !
 ! R22   R(16,22)                1.3916         estimate D2E/DX2                !
 ! R23   R(22,23)                1.4355         estimate D2E/DX2                !
 ! R24   R(22,24)                1.0821         estimate D2E/DX2                !
 ! R25   R(23,25)                1.4696         estimate D2E/DX2                !
 ! R26   R(23,26)                1.2701         estimate D2E/DX2                !
 ! R27   R(25,27)                1.4314         estimate D2E/DX2                !
 ! R28   R(25,28)                1.4048         estimate D2E/DX2                !
 ! R29   R(27,29)                1.3973         estimate D2E/DX2                !
 ! R30   R(27,30)                1.3244         estimate D2E/DX2                !
 ! R31   R(28,31)                1.3809         estimate D2E/DX2                !
 ! R32   R(28,32)                1.0832         estimate D2E/DX2                !
 ! R33   R(29,33)                1.0849         estimate D2E/DX2                !
 ! R34   R(29,34)                1.3859         estimate D2E/DX2                !
 ! R35   R(30,35)                1.0101         estimate D2E/DX2                !
 ! R36   R(31,34)                1.4045         estimate D2E/DX2                !
 ! R37   R(31,36)                1.085          estimate D2E/DX2                !
 ! R38   R(34,37)                1.5046         estimate D2E/DX2                !
 ! R39   R(37,38)                1.0945         estimate D2E/DX2                !
 ! R40   R(37,39)                1.0918         estimate D2E/DX2                !
 ! R41   R(37,40)                1.0937         estimate D2E/DX2                !
 ! A1    A(1,3,5)              120.2585         estimate D2E/DX2                !
 ! A2    A(1,3,6)              118.8756         estimate D2E/DX2                !
 ! A3    A(5,3,6)              120.8659         estimate D2E/DX2                !
 ! A4    A(2,4,7)              111.4043         estimate D2E/DX2                !
 ! A5    A(2,4,8)              108.5081         estimate D2E/DX2                !
 ! A6    A(2,4,9)              107.9938         estimate D2E/DX2                !
 ! A7    A(7,4,8)              111.5028         estimate D2E/DX2                !
 ! A8    A(7,4,9)              109.1927         estimate D2E/DX2                !
 ! A9    A(8,4,9)              108.1215         estimate D2E/DX2                !
 ! A10   A(3,5,7)              121.0419         estimate D2E/DX2                !
 ! A11   A(3,5,10)             117.5003         estimate D2E/DX2                !
 ! A12   A(7,5,10)             121.4578         estimate D2E/DX2                !
 ! A13   A(3,6,11)             122.3996         estimate D2E/DX2                !
 ! A14   A(3,6,12)             119.3034         estimate D2E/DX2                !
 ! A15   A(11,6,12)            118.2965         estimate D2E/DX2                !
 ! A16   A(4,7,5)              120.5309         estimate D2E/DX2                !
 ! A17   A(4,7,13)             119.2241         estimate D2E/DX2                !
 ! A18   A(5,7,13)             120.2253         estimate D2E/DX2                !
 ! A19   A(5,10,14)            121.2817         estimate D2E/DX2                !
 ! A20   A(5,10,15)            120.0837         estimate D2E/DX2                !
 ! A21   A(14,10,15)           118.6339         estimate D2E/DX2                !
 ! A22   A(6,11,14)            116.1344         estimate D2E/DX2                !
 ! A23   A(6,11,16)            120.0911         estimate D2E/DX2                !
 ! A24   A(14,11,16)           123.7745         estimate D2E/DX2                !
 ! A25   A(7,13,17)            111.3279         estimate D2E/DX2                !
 ! A26   A(7,13,18)            111.3405         estimate D2E/DX2                !
 ! A27   A(7,13,19)            109.2824         estimate D2E/DX2                !
 ! A28   A(17,13,18)           108.4314         estimate D2E/DX2                !
 ! A29   A(17,13,19)           108.218          estimate D2E/DX2                !
 ! A30   A(18,13,19)           108.1365         estimate D2E/DX2                !
 ! A31   A(10,14,11)           121.8176         estimate D2E/DX2                !
 ! A32   A(10,14,20)           118.5012         estimate D2E/DX2                !
 ! A33   A(11,14,20)           119.6805         estimate D2E/DX2                !
 ! A34   A(11,16,21)           118.4666         estimate D2E/DX2                !
 ! A35   A(11,16,22)           124.8876         estimate D2E/DX2                !
 ! A36   A(21,16,22)           116.6449         estimate D2E/DX2                !
 ! A37   A(16,22,23)           121.0038         estimate D2E/DX2                !
 ! A38   A(16,22,24)           119.8766         estimate D2E/DX2                !
 ! A39   A(23,22,24)           119.1134         estimate D2E/DX2                !
 ! A40   A(22,23,25)           120.3819         estimate D2E/DX2                !
 ! A41   A(22,23,26)           119.6302         estimate D2E/DX2                !
 ! A42   A(25,23,26)           119.973          estimate D2E/DX2                !
 ! A43   A(23,25,27)           118.4073         estimate D2E/DX2                !
 ! A44   A(23,25,28)           124.7091         estimate D2E/DX2                !
 ! A45   A(27,25,28)           116.8836         estimate D2E/DX2                !
 ! A46   A(25,27,29)           120.4892         estimate D2E/DX2                !
 ! A47   A(25,27,30)           120.8295         estimate D2E/DX2                !
 ! A48   A(29,27,30)           118.6813         estimate D2E/DX2                !
 ! A49   A(25,28,31)           121.9074         estimate D2E/DX2                !
 ! A50   A(25,28,32)           119.7522         estimate D2E/DX2                !
 ! A51   A(31,28,32)           118.3361         estimate D2E/DX2                !
 ! A52   A(27,29,33)           117.6665         estimate D2E/DX2                !
 ! A53   A(27,29,34)           121.2705         estimate D2E/DX2                !
 ! A54   A(33,29,34)           121.0629         estimate D2E/DX2                !
 ! A55   A(27,30,35)           105.5271         estimate D2E/DX2                !
 ! A56   A(28,31,34)           120.8323         estimate D2E/DX2                !
 ! A57   A(28,31,36)           119.6037         estimate D2E/DX2                !
 ! A58   A(34,31,36)           119.563          estimate D2E/DX2                !
 ! A59   A(29,34,31)           118.6095         estimate D2E/DX2                !
 ! A60   A(29,34,37)           120.4064         estimate D2E/DX2                !
 ! A61   A(31,34,37)           120.984          estimate D2E/DX2                !
 ! A62   A(34,37,38)           110.7702         estimate D2E/DX2                !
 ! A63   A(34,37,39)           111.4333         estimate D2E/DX2                !
 ! A64   A(34,37,40)           111.0617         estimate D2E/DX2                !
 ! A65   A(38,37,39)           107.9577         estimate D2E/DX2                !
 ! A66   A(38,37,40)           107.2917         estimate D2E/DX2                !
 ! A67   A(39,37,40)           108.1647         estimate D2E/DX2                !
 ! D1    D(1,3,5,7)             -0.0897         estimate D2E/DX2                !
 ! D2    D(1,3,5,10)           179.9657         estimate D2E/DX2                !
 ! D3    D(6,3,5,7)            179.9972         estimate D2E/DX2                !
 ! D4    D(6,3,5,10)             0.0526         estimate D2E/DX2                !
 ! D5    D(1,3,6,11)          -179.8723         estimate D2E/DX2                !
 ! D6    D(1,3,6,12)            -0.1207         estimate D2E/DX2                !
 ! D7    D(5,3,6,11)             0.042          estimate D2E/DX2                !
 ! D8    D(5,3,6,12)           179.7936         estimate D2E/DX2                !
 ! D9    D(2,4,7,5)            -59.7033         estimate D2E/DX2                !
 ! D10   D(2,4,7,13)           121.9061         estimate D2E/DX2                !
 ! D11   D(8,4,7,5)             61.6887         estimate D2E/DX2                !
 ! D12   D(8,4,7,13)          -116.702          estimate D2E/DX2                !
 ! D13   D(9,4,7,5)           -178.8976         estimate D2E/DX2                !
 ! D14   D(9,4,7,13)             2.7117         estimate D2E/DX2                !
 ! D15   D(3,5,7,4)              0.5251         estimate D2E/DX2                !
 ! D16   D(3,5,7,13)           178.8996         estimate D2E/DX2                !
 ! D17   D(10,5,7,4)          -179.5326         estimate D2E/DX2                !
 ! D18   D(10,5,7,13)           -1.158          estimate D2E/DX2                !
 ! D19   D(3,5,10,14)            0.0244         estimate D2E/DX2                !
 ! D20   D(3,5,10,15)          179.7135         estimate D2E/DX2                !
 ! D21   D(7,5,10,14)         -179.9199         estimate D2E/DX2                !
 ! D22   D(7,5,10,15)           -0.2308         estimate D2E/DX2                !
 ! D23   D(3,6,11,14)           -0.2012         estimate D2E/DX2                !
 ! D24   D(3,6,11,16)          179.8595         estimate D2E/DX2                !
 ! D25   D(12,6,11,14)        -179.9551         estimate D2E/DX2                !
 ! D26   D(12,6,11,16)           0.1055         estimate D2E/DX2                !
 ! D27   D(4,7,13,17)          118.0539         estimate D2E/DX2                !
 ! D28   D(4,7,13,18)         -120.8184         estimate D2E/DX2                !
 ! D29   D(4,7,13,19)           -1.4288         estimate D2E/DX2                !
 ! D30   D(5,7,13,17)          -60.3418         estimate D2E/DX2                !
 ! D31   D(5,7,13,18)           60.7859         estimate D2E/DX2                !
 ! D32   D(5,7,13,19)         -179.8245         estimate D2E/DX2                !
 ! D33   D(5,10,14,11)          -0.1967         estimate D2E/DX2                !
 ! D34   D(5,10,14,20)         179.4951         estimate D2E/DX2                !
 ! D35   D(15,10,14,11)       -179.8901         estimate D2E/DX2                !
 ! D36   D(15,10,14,20)         -0.1983         estimate D2E/DX2                !
 ! D37   D(6,11,14,10)           0.2779         estimate D2E/DX2                !
 ! D38   D(6,11,14,20)        -179.4104         estimate D2E/DX2                !
 ! D39   D(16,11,14,10)       -179.7853         estimate D2E/DX2                !
 ! D40   D(16,11,14,20)          0.5265         estimate D2E/DX2                !
 ! D41   D(6,11,16,21)           2.0514         estimate D2E/DX2                !
 ! D42   D(6,11,16,22)        -177.5796         estimate D2E/DX2                !
 ! D43   D(14,11,16,21)       -177.8831         estimate D2E/DX2                !
 ! D44   D(14,11,16,22)          2.486          estimate D2E/DX2                !
 ! D45   D(11,16,22,23)       -178.333          estimate D2E/DX2                !
 ! D46   D(11,16,22,24)          0.7534         estimate D2E/DX2                !
 ! D47   D(21,16,22,23)          2.03           estimate D2E/DX2                !
 ! D48   D(21,16,22,24)       -178.8836         estimate D2E/DX2                !
 ! D49   D(16,22,23,25)       -179.2161         estimate D2E/DX2                !
 ! D50   D(16,22,23,26)          2.1843         estimate D2E/DX2                !
 ! D51   D(24,22,23,25)          1.6906         estimate D2E/DX2                !
 ! D52   D(24,22,23,26)       -176.909          estimate D2E/DX2                !
 ! D53   D(22,23,25,27)        121.4052         estimate D2E/DX2                !
 ! D54   D(22,23,25,28)        -58.5385         estimate D2E/DX2                !
 ! D55   D(26,23,25,27)        -60.0            estimate D2E/DX2                !
 ! D56   D(26,23,25,28)        120.0563         estimate D2E/DX2                !
 ! D57   D(23,25,27,29)        179.1025         estimate D2E/DX2                !
 ! D58   D(23,25,27,30)         -0.8534         estimate D2E/DX2                !
 ! D59   D(28,25,27,29)         -0.9494         estimate D2E/DX2                !
 ! D60   D(28,25,27,30)        179.0947         estimate D2E/DX2                !
 ! D61   D(23,25,28,31)       -179.2872         estimate D2E/DX2                !
 ! D62   D(23,25,28,32)          1.4807         estimate D2E/DX2                !
 ! D63   D(27,25,28,31)          0.7683         estimate D2E/DX2                !
 ! D64   D(27,25,28,32)       -178.4638         estimate D2E/DX2                !
 ! D65   D(25,27,29,33)       -179.6902         estimate D2E/DX2                !
 ! D66   D(25,27,29,34)          0.4244         estimate D2E/DX2                !
 ! D67   D(30,27,29,33)          0.2666         estimate D2E/DX2                !
 ! D68   D(30,27,29,34)       -179.6188         estimate D2E/DX2                !
 ! D69   D(25,27,30,35)         -1.4453         estimate D2E/DX2                !
 ! D70   D(29,27,30,35)        178.5981         estimate D2E/DX2                !
 ! D71   D(25,28,31,34)         -0.05           estimate D2E/DX2                !
 ! D72   D(25,28,31,36)       -179.7026         estimate D2E/DX2                !
 ! D73   D(32,28,31,34)        179.1926         estimate D2E/DX2                !
 ! D74   D(32,28,31,36)         -0.46           estimate D2E/DX2                !
 ! D75   D(27,29,34,31)          0.318          estimate D2E/DX2                !
 ! D76   D(27,29,34,37)       -179.5628         estimate D2E/DX2                !
 ! D77   D(33,29,34,31)       -179.5636         estimate D2E/DX2                !
 ! D78   D(33,29,34,37)          0.5557         estimate D2E/DX2                !
 ! D79   D(28,31,34,29)         -0.5112         estimate D2E/DX2                !
 ! D80   D(28,31,34,37)        179.3689         estimate D2E/DX2                !
 ! D81   D(36,31,34,29)        179.1415         estimate D2E/DX2                !
 ! D82   D(36,31,34,37)         -0.9784         estimate D2E/DX2                !
 ! D83   D(29,34,37,38)         65.1583         estimate D2E/DX2                !
 ! D84   D(29,34,37,39)       -174.6343         estimate D2E/DX2                !
 ! D85   D(29,34,37,40)        -53.9663         estimate D2E/DX2                !
 ! D86   D(31,34,37,38)       -114.7196         estimate D2E/DX2                !
 ! D87   D(31,34,37,39)          5.4878         estimate D2E/DX2                !
 ! D88   D(31,34,37,40)        126.1558         estimate D2E/DX2                !
 --------------------------------------------------------------------------------
 Trust Radius=3.00D-01 FncErr=1.00D-07 GrdErr=1.00D-06
 Number of steps in this run=    206 maximum allowed number of steps=    240.
 GradGradGradGradGradGradGradGradGradGradGradGradGradGradGradGradGradGrad

 Leave Link  103 at Wed Jul 19 11:18:37 2017, MaxMem=  3758096384 cpu:         0.1
 (Enter /share/apps/gaussian/g09_D01/g09/l202.exe)
                          Input orientation:                          
 ---------------------------------------------------------------------
 Center     Atomic      Atomic             Coordinates (Angstroms)
 Number     Number       Type             X           Y           Z
 ---------------------------------------------------------------------
      1          1           0        0.981394   16.257549    5.040521
      2          1           0        0.650984   16.613430    7.258976
      3          6           0        0.538917   17.076248    4.489432
      4          6           0        1.315008   17.481507    7.187596
      5          6           0        0.345470   18.343635    5.116266
      6          6           0        0.172906   16.874482    3.189002
      7          7           0        0.709498   18.549020    6.414350
      8          1           0        2.265783   17.157178    6.749031
      9          1           0        1.511851   17.837954    8.196528
     10          6           0       -0.238965   19.376126    4.339249
     11          6           0       -0.414015   17.901314    2.392271
     12          1           0        0.334629   15.901806    2.736707
     13          6           0        0.526828   19.850510    7.026366
     14          6           0       -0.605285   19.165068    3.034241
     15          1           0       -0.408924   20.351998    4.774062
     16          6           0       -0.772417   17.639108    1.047197
     17          1           0        1.095676   20.623529    6.496721
     18          1           0       -0.529379   20.142389    7.035068
     19          1           0        0.877081   19.815776    8.055827
     20          1           0       -1.055392   19.982814    2.485122
     21          1           0       -0.620619   16.637672    0.657162
     22          6           0       -1.305236   18.577118    0.168104
     23          6           0       -1.672384   18.211037   -1.170449
     24          1           0       -1.461313   19.596188    0.496799
     25          6           0       -2.217946   19.216642   -2.092932
     26          8           0       -1.548523   17.004653   -1.547887
     27          6           0       -1.528270   19.456666   -3.324020
     28          6           0       -3.378760   19.972030   -1.857372
     29          6           0       -2.018880   20.389566   -4.241256
     30          8           0       -0.415686   18.800992   -3.617723
     31          6           0       -3.848319   20.893297   -2.772661
     32          1           0       -3.923077   19.845871   -0.929439
     33          1           0       -1.462660   20.531423   -5.161860
     34          6           0       -3.173959   21.111328   -3.985209
     35          1           0       -0.233430   18.207275   -2.821147
     36          1           0       -4.746383   21.460045   -2.550157
     37          6           0       -3.690308   22.104057   -4.991049
     38          1           0       -4.000762   21.598780   -5.910961
     39          1           0       -4.549435   22.654868   -4.603161
     40          1           0       -2.916037   22.827219   -5.262759
 ---------------------------------------------------------------------
                    Distance matrix (angstroms):
                    1          2          3          4          5
     1  H    0.000000
     2  H    2.270983   0.000000
     3  C    1.081552   2.810184   0.000000
     4  C    2.493853   1.095254   2.836661   0.000000
     5  C    2.182176   2.770949   1.427100   2.444111   0.000000
     6  C    2.112435   4.106263   1.365940   4.202575   2.429514
     7  N    2.685549   2.112658   2.429705   1.450564   1.363716
     8  H    2.319050   1.778562   2.845067   1.096130   2.785894
     9  H    3.569236   1.766226   3.907603   1.088001   3.332293
    10  C    3.421489   4.116954   2.432508   3.757325   1.418223
    11  C    3.415020   5.145647   2.446813   5.114773   2.862274
    12  H    2.419177   4.588835   2.119691   4.823589   3.409538
    13  C    4.130324   3.247801   3.759350   2.501878   2.439681
    14  C    3.872516   5.092883   2.791048   4.875680   2.431772
    15  H    4.332262   4.612493   3.421981   4.127566   2.172495
    16  C    4.575062   6.454787   3.726310   6.487424   4.278241
    17  H    4.603842   4.106054   4.113683   3.224549   2.768823
    18  H    4.620892   3.727861   4.125863   3.241191   2.771765
    19  H    4.665183   3.307736   4.509828   2.528718   3.330290
    20  H    4.955417   6.087212   3.873913   5.829973   3.401799
    21  H    4.682390   6.723207   4.027799   6.863328   4.871062
    22  C    5.860847   7.613366   4.932280   7.572273   5.221461
    23  C    7.030989   8.888509   6.181573   8.905821   6.603946
    24  H    6.144815   7.686722   5.127586   7.546298   5.115939
    25  C    8.359316  10.122532   7.450442  10.080707   7.701024
    26  O    7.096884   9.085798   6.388407   9.205208   7.056275
    27  C    9.300447  11.172867   8.425537  11.067048   8.717119
    28  C    8.966005  10.517929   8.000979  10.490263   8.071752
    29  C   10.593705  12.395270   9.682216  12.255214   9.866063
    30  O    9.131601  11.145663   8.343379  11.022308   8.779015
    31  C   10.288932  11.798082   9.303532  11.726337   9.291061
    32  H    8.518822   9.920729   7.546149   9.945553   7.551672
    33  H   11.328194  13.194519  10.444711  13.020234  10.662815
    34  C   11.058478  12.700117  10.093902  12.576088  10.143143
    35  H    8.190425  10.243604   7.437762  10.153785   7.959664
    36  H   10.839363  12.200014   9.834017  12.140554   9.716636
    37  C   12.515545  14.108753  11.534501  13.954947  11.514603
    38  H   13.163798  14.830364  12.215979  14.723503  12.291681
    39  H   12.826394  14.291733  11.818950  14.148403  11.705302
    40  H   12.826072  14.426665  11.837044  14.194708  11.767078
                    6          7          8          9         10
     6  C    0.000000
     7  N    3.673538   0.000000
     8  H    4.139306   2.114535   0.000000
     9  H    5.272227   2.079794   1.768366   0.000000
    10  C    2.784050   2.426877   4.123656   4.506654   0.000000
    11  C    1.426058   4.225982   5.168792   6.115748   2.448763
    12  H    1.084814   4.546793   4.626452   5.911359   3.868857
    13  C    4.869021   1.449761   3.217905   2.527831   2.834092
    14  C    2.424113   3.678764   5.106302   5.735216   1.371780
    15  H    3.865755   2.681817   4.611012   4.660801   1.081792
    16  C    2.462847   5.641838   6.478720   7.508019   3.760241
    17  H    5.084080   2.111754   3.667206   3.289677   2.827006
    18  H    5.095553   2.111619   4.099541   3.290294   2.817612
    19  H    5.730014   2.080193   3.271751   2.081949   3.905355
    20  H    3.415537   4.539761   6.098798   6.619012   2.114807
    21  H    2.663827   6.210287   6.761070   7.926547   4.604623
    22  C    3.769576   6.563196   7.620827   8.540372   4.378790
    23  C    4.918972   7.957184   8.907185   9.900445   5.811101
    24  H    4.162490   6.389554   7.676616   8.439013   4.038192
    25  C    6.253056   9.021613  10.125489  11.031100   6.731624
    26  O    5.041664   8.419082   9.132964  10.247629   6.480524
    27  C    7.209794  10.033309  11.006763  12.024375   7.771390
    28  C    6.904711   9.335963  10.670259  11.382147   6.972197
    29  C    8.506966  11.152291  12.230824  13.178591   8.821577
    30  O    7.098548  10.098120  10.833374  12.009137   7.979688
    31  C    8.237874  10.520005  11.916520  12.585296   8.118406
    32  H    6.524400   8.779169  10.222033  10.809878   6.446117
    33  H    9.262030  11.943904  12.928888  13.948084   9.649001
    34  C    8.978957  11.392870  12.666886  13.456096   8.995650
    35  H    6.169549   9.289796   9.946712  11.161164   7.255172
    36  H    8.841083  10.890505  12.416120  12.952849   8.492553
    37  C   10.449216  12.731053  14.063289  14.804536  10.315418
    38  H   11.070132  13.542558  14.807863  15.606215  11.142626
    39  H   10.790328  12.880214  14.336808  14.959074  10.454521
    40  H   10.789297  12.953856  14.257760  15.021697  10.548712
                   11         12         13         14         15
    11  C    0.000000
    12  H    2.162669   0.000000
    13  C    5.114625   5.833556   0.000000
    14  C    1.430310   3.408936   4.205778   0.000000
    15  H    3.417427   4.950545   2.489979   2.115262   0.000000
    16  C    1.416484   2.664246   6.506058   2.510943   4.624005
    17  H    5.151323   6.083713   1.096207   4.124214   2.303281
    18  H    5.156675   6.099587   1.095830   4.119167   2.273894
    19  H    6.116205   6.626195   1.087967   5.276092   3.565294
    20  H    2.180052   4.318574   4.810802   1.082975   2.406961
    21  H    2.156404   2.403852   7.225352   3.469650   5.548864
    22  C    2.489560   4.055142   7.212056   3.008382   5.016814
    23  C    3.791094   4.962511   8.643621   4.441655   6.443389
    24  H    2.749954   4.678788   6.830274   2.712428   4.469201
    25  C    5.010120   6.389772   9.544484   5.375057   7.191467
    26  O    4.197136   4.808355   9.269509   5.152959   7.243648
    27  C    6.027990   7.269101  10.559784   6.431518   8.223959
    28  C    5.580058   7.173670   9.705112   5.680778   7.276003
    29  C    7.264342   8.623860  11.564191   7.512024   9.158020
    30  O    6.076961   7.024744  10.737153   6.664618   8.533916
    31  C    6.886431   8.530251  10.781941   6.871984   8.311166
    32  H    5.208510   6.864717   9.115729   5.213636   6.718286
    33  H    8.067343   9.330111  12.368289   8.353328   9.993253
    34  C    7.654654   9.199645  11.685045   7.723904   9.216660
    35  H    5.225510   6.043808  10.012579   5.944848   7.894165
    36  H    7.474060   9.201176  11.050211   7.321278   8.584026
    37  C    9.105524  10.695151  12.933715   9.086270  10.449621
    38  H    9.771370  11.226455  13.817740   9.872632  11.341317
    39  H    9.414566  11.105476  12.995337   9.277119  10.506158
    40  H    9.440559  11.068859  13.104836   9.359014  10.637205
                   16         17         18         19         20
    16  C    0.000000
    17  H    6.487977   0.000000
    18  H    6.494620   1.778234   0.000000
    19  H    7.521942   1.769480   1.768263   0.000000
    20  H    2.764175   4.596796   4.583030   5.898737   0.000000
    21  H    1.085377   7.275518   7.277984   8.190463   3.836722
    22  C    1.391606   7.071320   7.085706   8.277256   2.721576
    23  C    2.460691   8.501045   8.506885   9.705623   4.108902
    24  H    2.146551   6.602476   6.626900   7.915505   2.065837
    25  C    3.799813   9.313515   9.328915  10.627110   4.785095
    26  O    2.781966   9.208896   9.195170  10.296469   5.037636
    27  C    4.793994  10.231990  10.429704  11.636821   5.852058
    28  C    4.546656   9.499258   9.339352  10.789259   4.924979
    29  C    6.089863  11.182993  11.376959  12.646504   6.807196
    30  O    4.820655  10.387870  10.737516  11.788673   6.249052
    31  C    5.885766  10.508916  10.381271  11.863668   6.022766
    32  H    4.324761   8.996693   8.662476  10.187121   4.461121
    33  H    6.884353  11.936334  12.238767  13.442239   7.677446
    34  C    6.568777  11.328662  11.374496  12.770118   6.901236
    35  H    3.946823   9.717380  10.048743  11.051203   5.655498
    36  H    6.582775  10.801639  10.554425  12.116677   6.415580
    37  C    8.056692  12.532616  12.588372  14.011361   8.205827
    38  H    8.632334  13.448991  13.482256  14.901128   9.043272
    39  H    8.446909  12.617488  12.566694  14.062628   8.342181
    40  H    8.445541  12.618854  12.811753  14.171848   8.460633
                   21         22         23         24         25
    21  H    0.000000
    22  C    2.114079   0.000000
    23  C    2.630941   1.435457   0.000000
    24  H    3.079822   1.082083   2.177822   0.000000
    25  C    4.094577   2.520776   1.469644   2.724565   0.000000
    26  O    2.420314   2.340183   1.270103   3.302180   2.374467
    27  C    4.961892   3.608085   2.492033   3.823952   1.431378
    28  C    5.004814   3.216805   2.546503   3.059408   1.404845
    29  C    6.326637   4.820446   3.780992   4.836268   2.455743
    30  O    4.795477   3.895369   2.813625   4.319139   2.397059
    31  C    6.347604   4.525490   3.807400   4.250842   2.435431
    32  H    4.869915   3.109248   2.792201   2.856007   2.158035
    33  H    7.052046   5.679137   4.621638   5.735424   3.423073
    34  C    6.934317   5.211943   4.311530   5.031619   2.843327
    35  H    3.835649   3.197057   2.189842   3.800729   2.342525
    36  H    7.110844   5.248019   4.680718   4.852791   3.410998
    37  C    8.438403   6.689150   5.815893   6.432285   4.347884
    38  H    8.898213   7.304199   6.274599   7.177642   4.840491
    39  H    8.905799   7.065256   6.309404   6.700866   4.853709
    40  H    8.867069   7.081829   6.293077   6.762269   4.855039
                   26         27         28         29         30
    26  O    0.000000
    27  C    3.027775   0.000000
    28  C    3.500125   2.416810   0.000000
    29  C    4.351219   1.397255   2.776061   0.000000
    30  O    2.965531   1.324391   3.640051   2.341493   0.000000
    31  C    4.680885   2.783979   1.380932   2.399451   4.107900
    32  H    3.754131   3.408900   1.083169   3.858717   4.540972
    33  H    5.050374   2.130038   3.860570   1.084904   2.544584
    34  C    5.044538   2.425566   2.422320   1.385896   3.616734
    35  H    2.190196   1.868280   3.733139   3.157045   1.010074
    36  H    5.575067   3.868934   2.136477   3.383048   5.192802
    37  C    6.515100   3.802904   3.802964   2.509052   4.849682
    38  H    6.793813   4.170627   4.411891   2.859715   5.093066
    39  H    7.089789   4.581718   4.013410   3.415594   5.736840
    40  H    7.040784   4.128588   4.467984   2.791149   5.016812
                   31         32         33         34         35
    31  C    0.000000
    32  H    2.121357   0.000000
    33  H    3.395673   4.943381   0.000000
    34  C    1.404483   3.391207   2.156233   0.000000
    35  H    4.503831   4.458369   3.520172   4.293632   0.000000
    36  H    1.085002   2.431073   4.297228   2.157196   5.569623
    37  C    2.532223   4.652984   2.732173   1.504607   5.642995
    38  H    3.220228   5.281504   2.853482   2.151681   5.936501
    39  H    2.635418   4.666800   3.788053   2.157850   6.448610
    40  H    3.287825   5.355392   2.719037   2.154748   5.873818
                   36         37         38         39         40
    36  H    0.000000
    37  C    2.736421   0.000000
    38  H    3.445316   1.094497   0.000000
    39  H    2.383530   1.091765   1.768249   0.000000
    40  H    3.546483   1.093749   1.762343   1.769962   0.000000
 Stoichiometry    C18H19NO2
 Framework group  C1[X(C18H19NO2)]
 Deg. of freedom   114
 Full point group                 C1      NOp   1
 Largest Abelian subgroup         C1      NOp   1
 Largest concise Abelian subgroup C1      NOp   1
                         Standard orientation:                         
 ---------------------------------------------------------------------
 Center     Atomic      Atomic             Coordinates (Angstroms)
 Number     Number       Type             X           Y           Z
 ---------------------------------------------------------------------
      1          1           0       -5.137907   -1.805660   -0.230195
      2          1           0       -7.020316   -0.689990   -0.837797
      3          6           0       -4.323850   -1.097119   -0.159232
      4          6           0       -6.991340   -0.176233    0.129051
      5          6           0       -4.591839    0.285213    0.073044
      6          6           0       -3.042030   -1.549468   -0.293802
      7          7           0       -5.870136    0.740730    0.207886
      8          1           0       -6.949800   -0.930869    0.922965
      9          1           0       -7.918491    0.381992    0.240948
     10          6           0       -3.480773    1.162668    0.156485
     11          6           0       -1.913018   -0.682240   -0.210798
     12          1           0       -2.867245   -2.606101   -0.466422
     13          6           0       -6.121001    2.144883    0.467169
     14          6           0       -2.196458    0.700795    0.018684
     15          1           0       -3.636101    2.219606    0.326863
     16          6           0       -0.604224   -1.204502   -0.354770
     17          1           0       -5.655777    2.466231    1.406302
     18          1           0       -5.736933    2.774850   -0.343064
     19          1           0       -7.193570    2.309824    0.545031
     20          1           0       -1.382005    1.411767    0.082102
     21          1           0       -0.489774   -2.263871   -0.561363
     22          6           0        0.566395   -0.460195   -0.244207
     23          6           0        1.851231   -1.069268   -0.441084
     24          1           0        0.513704    0.597317   -0.021056
     25          6           0        3.079580   -0.274123   -0.304123
     26          8           0        1.922041   -2.296269   -0.761421
     27          6           0        4.051133   -0.683177    0.664176
     28          6           0        3.378563    0.872484   -1.058769
     29          6           0        5.242763    0.030075    0.817828
     30          8           0        3.841181   -1.742692    1.430570
     31          6           0        4.559415    1.568692   -0.891867
     32          1           0        2.664894    1.237799   -1.787108
     33          1           0        5.948994   -0.323248    1.561747
     34          6           0        5.514236    1.151265    0.049749
     35          1           0        2.926501   -2.085444    1.173410
     36          1           0        4.749862    2.452586   -1.491611
     37          6           0        6.808102    1.899058    0.224564
     38          1           0        7.658990    1.276390   -0.069030
     39          1           0        6.829659    2.806345   -0.382326
     40          1           0        6.959184    2.184209    1.269623
 ---------------------------------------------------------------------
 Rotational constants (GHZ):      0.8689756      0.0951562      0.0889686
 Leave Link  202 at Wed Jul 19 11:18:38 2017, MaxMem=  3758096384 cpu:         0.1
 (Enter /share/apps/gaussian/g09_D01/g09/l301.exe)
 Standard basis: 6-311++G(d,p) (5D, 7F)
 Ernie: Thresh=  0.10000D-02 Tol=  0.10000D-05 Strict=F.
 There are   616 symmetry adapted cartesian basis functions of A   symmetry.
 There are   595 symmetry adapted basis functions of A   symmetry.
   595 basis functions,   927 primitive gaussians,   616 cartesian basis functions
    75 alpha electrons       75 beta electrons
       nuclear repulsion energy      1473.8550797539 Hartrees.
 IExCor= 4639 DFT=T Ex+Corr=wB97XD ExCW=0 ScaHFX=  1.000000
 ScaDFX=  1.000000  1.000000  1.000000  1.000000 ScalE2=  1.000000  1.000000
 IRadAn=      0 IRanWt=     -1 IRanGd=            0 ICorTp=0 IEmpDi=121
  HFx wShort=  0.000000 wLong=  0.200000 cFull=  0.222036 cShort=  0.000000 cLong=  0.777964
  DFx wShort=  0.000000 wLong=  0.200000 cFull=  0.000000 cShort=  0.000000 cLong=  1.000000
 NAtoms=   40 NActive=   40 NUniq=   40 SFac= 1.00D+00 NAtFMM=   60 NAOKFM=F Big=F
 Integral buffers will be    131072 words long.
 Raffenetti 1 integral format.
 Two-electron integral symmetry is turned on.
 R6Disp:  Grimme-D2 Dispersion energy=       -0.0254991773 Hartrees.
 Nuclear repulsion after empirical dispersion term =     1473.8295805766 Hartrees.
 Leave Link  301 at Wed Jul 19 11:18:38 2017, MaxMem=  3758096384 cpu:         0.3
 (Enter /share/apps/gaussian/g09_D01/g09/l302.exe)
 NPDir=0 NMtPBC=     1 NCelOv=     1 NCel=       1 NClECP=     1 NCelD=      1
         NCelK=      1 NCelE2=     1 NClLst=     1 CellRange=     0.0.
 One-electron integrals computed using PRISM.
 NBasis=   595 RedAO= T EigKep=  1.31D-06  NBF=   595
 NBsUse=   589 1.00D-06 EigRej=  8.64D-07 NBFU=   589
 Precomputing XC quadrature grid using
 IXCGrd= 4 IRadAn=           0 IRanWt=          -1 IRanGd=           0 AccXCQ= 0.00D+00.
 Generated NRdTot=       0 NPtTot=           0 NUsed=           0 NTot=          32
 NSgBfM=   602   602   602   602   602 MxSgAt=    40 MxSgA2=    40.
 Leave Link  302 at Wed Jul 19 11:18:39 2017, MaxMem=  3758096384 cpu:         3.9
 (Enter /share/apps/gaussian/g09_D01/g09/l308.exe)
 Leave Link  308 at Wed Jul 19 11:18:40 2017, MaxMem=  3758096384 cpu:         0.6
 (Enter /share/apps/gaussian/g09_D01/g09/l303.exe)
 DipDrv:  MaxL=1.
 Leave Link  303 at Wed Jul 19 11:18:40 2017, MaxMem=  3758096384 cpu:         0.7
 (Enter /share/apps/gaussian/g09_D01/g09/l401.exe)
 ExpMin= 3.60D-02 ExpMax= 8.59D+03 ExpMxC= 1.30D+03 IAcc=3 IRadAn=         5 AccDes= 0.00D+00
 Harris functional with IExCor= 4639 and IRadAn=       5 diagonalized for initial guess.
 HarFok:  IExCor= 4639 AccDes= 0.00D+00 IRadAn=         5 IDoV= 1 UseB2=F ITyADJ=14
 ICtDFT=  3500011 ScaDFX=  1.000000  1.000000  1.000000  1.000000
 FoFCou: FMM=F IPFlag=           0 FMFlag=      100000 FMFlg1=           0
         NFxFlg=           0 DoJE=T BraDBF=F KetDBF=T FulRan=T
         wScrn=  0.000000 ICntrl=     500 IOpCl=  0 I1Cent=   200000004 NGrid=           0
         NMat0=    1 NMatS0=      1 NMatT0=    0 NMatD0=    1 NMtDS0=    0 NMtDT0=    0
 Petite list used in FoFCou.
 Harris En= -862.818174136492    
 JPrj=0 DoOrth=F DoCkMO=F.
 Leave Link  401 at Wed Jul 19 11:18:53 2017, MaxMem=  3758096384 cpu:        48.9
 (Enter /share/apps/gaussian/g09_D01/g09/l502.exe)
 Closed shell SCF:
 Using DIIS extrapolation, IDIIS=  1040.
 Integral symmetry usage will be decided dynamically.
 IVT=     1165206 IEndB=     1165206 NGot=  3758096384 MDV=  3757327891
 LenX=  3757327891 LenY=  3756947819
 Requested convergence on RMS density matrix=1.00D-08 within 128 cycles.
 Requested convergence on MAX density matrix=1.00D-06.
 Requested convergence on             energy=1.00D-06.
 No special actions if energy rises.
 Fock matrices will be formed incrementally for  20 cycles.

 Cycle   1  Pass 1  IDiag  1:
 FoFJK:  IHMeth= 1 ICntrl=       0 DoSepK=T KAlg= 0 I1Cent=   0 FoldK=F
 IRaf=         1 NMat=   1 IRICut=       1 DoRegI=T DoRafI=F ISym2E= 0.
 FoFCou: FMM=F IPFlag=           0 FMFlag=      100000 FMFlg1=           0
         NFxFlg=           0 DoJE=T BraDBF=F KetDBF=F FulRan=T
         wScrn=  0.000000 ICntrl=     500 IOpCl=  0 I1Cent=           0 NGrid=           0
         NMat0=    1 NMatS0=      1 NMatT0=    0 NMatD0=    1 NMtDS0=    0 NMtDT0=    0
 Symmetry not used in FoFCou.
 E= -902.143000795798    
 DIIS: error= 5.79D-02 at cycle   1 NSaved=   1.
 NSaved= 1 IEnMin= 1 EnMin= -902.143000795798     IErMin= 1 ErrMin= 5.79D-02
 ErrMax= 5.79D-02  0.00D+00 EMaxC= 1.00D-01 BMatC= 1.96D+00 BMatP= 1.96D+00
 IDIUse=3 WtCom= 4.21D-01 WtEn= 5.79D-01
 Coeff-Com:  0.100D+01
 Coeff-En:   0.100D+01
 Coeff:      0.100D+01
 Gap=     0.281 Goal=   None    Shift=    0.000
 GapD=    0.281 DampG=1.000 DampE=0.500 DampFc=0.5000 IDamp=-1.
 Damping current iteration by 5.00D-01
 RMSDP=2.81D-02 MaxDP=2.80D+00              OVMax= 1.67D-01

 Cycle   2  Pass 1  IDiag  1:
 RMSU=  6.20D-03    CP:  8.46D-01
 E= -902.284628807513     Delta-E=       -0.141628011715 Rises=F Damp=T
 DIIS: error= 2.71D-02 at cycle   2 NSaved=   2.
 NSaved= 2 IEnMin= 2 EnMin= -902.284628807513     IErMin= 2 ErrMin= 2.71D-02
 ErrMax= 2.71D-02  0.00D+00 EMaxC= 1.00D-01 BMatC= 4.14D-01 BMatP= 1.96D+00
 IDIUse=3 WtCom= 7.29D-01 WtEn= 2.71D-01
 Coeff-Com: -0.574D+00 0.157D+01
 Coeff-En:   0.000D+00 0.100D+01
 Coeff:     -0.419D+00 0.142D+01
 Gap=     0.279 Goal=   None    Shift=    0.000
 RMSDP=1.08D-02 MaxDP=1.32D+00 DE=-1.42D-01 OVMax= 2.39D-01

 Cycle   3  Pass 1  IDiag  1:
 RMSU=  6.96D-03    CP:  7.60D-01  1.69D+00
 E= -902.342420444619     Delta-E=       -0.057791637107 Rises=F Damp=F
 DIIS: error= 2.06D-02 at cycle   3 NSaved=   3.
 NSaved= 3 IEnMin= 3 EnMin= -902.342420444619     IErMin= 3 ErrMin= 2.06D-02
 ErrMax= 2.06D-02  0.00D+00 EMaxC= 1.00D-01 BMatC= 1.33D-01 BMatP= 4.14D-01
 IDIUse=3 WtCom= 7.94D-01 WtEn= 2.06D-01
 Coeff-Com: -0.370D+00 0.797D+00 0.574D+00
 Coeff-En:   0.000D+00 0.189D+00 0.811D+00
 Coeff:     -0.294D+00 0.672D+00 0.623D+00
 Gap=     0.273 Goal=   None    Shift=    0.000
 RMSDP=7.87D-03 MaxDP=1.18D+00 DE=-5.78D-02 OVMax= 1.15D-01

 Cycle   4  Pass 1  IDiag  1:
 RMSU=  1.89D-03    CP:  6.75D-01  1.71D+00  5.72D-01
 E= -902.448322864663     Delta-E=       -0.105902420043 Rises=F Damp=F
 DIIS: error= 6.07D-03 at cycle   4 NSaved=   4.
 NSaved= 4 IEnMin= 4 EnMin= -902.448322864663     IErMin= 4 ErrMin= 6.07D-03
 ErrMax= 6.07D-03  0.00D+00 EMaxC= 1.00D-01 BMatC= 1.24D-02 BMatP= 1.33D-01
 IDIUse=3 WtCom= 9.39D-01 WtEn= 6.07D-02
 Coeff-Com: -0.147D+00 0.316D+00 0.354D+00 0.477D+00
 Coeff-En:   0.000D+00 0.000D+00 0.145D-01 0.985D+00
 Coeff:     -0.138D+00 0.297D+00 0.333D+00 0.508D+00
 Gap=     0.240 Goal=   None    Shift=    0.000
 RMSDP=3.17D-03 MaxDP=5.04D-01 DE=-1.06D-01 OVMax= 2.83D-02

 Cycle   5  Pass 1  IDiag  1:
 RMSU=  7.10D-04    CP:  7.07D-01  1.86D+00  7.43D-01  7.96D-01
 E= -902.458514524609     Delta-E=       -0.010191659947 Rises=F Damp=F
 DIIS: error= 6.37D-04 at cycle   5 NSaved=   5.
 NSaved= 5 IEnMin= 5 EnMin= -902.458514524609     IErMin= 5 ErrMin= 6.37D-04
 ErrMax= 6.37D-04  0.00D+00 EMaxC= 1.00D-01 BMatC= 2.68D-04 BMatP= 1.24D-02
 IDIUse=3 WtCom= 9.94D-01 WtEn= 6.37D-03
 Coeff-Com:  0.113D-01-0.241D-01 0.273D-01 0.183D+00 0.802D+00
 Coeff-En:   0.000D+00 0.000D+00 0.000D+00 0.000D+00 0.100D+01
 Coeff:      0.112D-01-0.240D-01 0.271D-01 0.182D+00 0.803D+00
 Gap=     0.240 Goal=   None    Shift=    0.000
 RMSDP=5.96D-04 MaxDP=6.92D-02 DE=-1.02D-02 OVMax= 9.30D-03

 Cycle   6  Pass 1  IDiag  1:
 RMSU=  2.49D-04    CP:  7.03D-01  1.85D+00  7.62D-01  1.01D+00  1.21D+00
 E= -902.458841887735     Delta-E=       -0.000327363126 Rises=F Damp=F
 DIIS: error= 4.38D-04 at cycle   6 NSaved=   6.
 NSaved= 6 IEnMin= 6 EnMin= -902.458841887735     IErMin= 6 ErrMin= 4.38D-04
 ErrMax= 4.38D-04  0.00D+00 EMaxC= 1.00D-01 BMatC= 8.01D-05 BMatP= 2.68D-04
 IDIUse=3 WtCom= 9.96D-01 WtEn= 4.38D-03
 Coeff-Com:  0.305D-01-0.656D-01-0.471D-01-0.232D-02 0.422D+00 0.662D+00
 Coeff-En:   0.000D+00 0.000D+00 0.000D+00 0.000D+00 0.000D+00 0.100D+01
 Coeff:      0.304D-01-0.653D-01-0.469D-01-0.231D-02 0.420D+00 0.664D+00
 Gap=     0.242 Goal=   None    Shift=    0.000
 RMSDP=4.14D-04 MaxDP=5.98D-02 DE=-3.27D-04 OVMax= 6.56D-03

 Cycle   7  Pass 1  IDiag  1:
 RMSU=  8.48D-05    CP:  7.07D-01  1.88D+00  7.86D-01  1.03D+00  1.46D+00
                    CP:  1.05D+00
 E= -902.458949161961     Delta-E=       -0.000107274226 Rises=F Damp=F
 DIIS: error= 1.19D-04 at cycle   7 NSaved=   7.
 NSaved= 7 IEnMin= 7 EnMin= -902.458949161961     IErMin= 7 ErrMin= 1.19D-04
 ErrMax= 1.19D-04  0.00D+00 EMaxC= 1.00D-01 BMatC= 6.25D-06 BMatP= 8.01D-05
 IDIUse=3 WtCom= 9.99D-01 WtEn= 1.19D-03
 Coeff-Com:  0.601D-02-0.129D-01-0.137D-01-0.199D-01 0.112D-01 0.197D+00
 Coeff-Com:  0.832D+00
 Coeff-En:   0.000D+00 0.000D+00 0.000D+00 0.000D+00 0.000D+00 0.000D+00
 Coeff-En:   0.100D+01
 Coeff:      0.601D-02-0.129D-01-0.137D-01-0.199D-01 0.112D-01 0.197D+00
 Coeff:      0.833D+00
 Gap=     0.242 Goal=   None    Shift=    0.000
 RMSDP=1.30D-04 MaxDP=1.38D-02 DE=-1.07D-04 OVMax= 2.97D-03

 Cycle   8  Pass 1  IDiag  1:
 RMSU=  4.47D-05    CP:  7.07D-01  1.88D+00  7.93D-01  1.06D+00  1.56D+00
                    CP:  1.21D+00  1.21D+00
 E= -902.458964590252     Delta-E=       -0.000015428291 Rises=F Damp=F
 DIIS: error= 7.22D-05 at cycle   8 NSaved=   8.
 NSaved= 8 IEnMin= 8 EnMin= -902.458964590252     IErMin= 8 ErrMin= 7.22D-05
 ErrMax= 7.22D-05  0.00D+00 EMaxC= 1.00D-01 BMatC= 2.00D-06 BMatP= 6.25D-06
 IDIUse=1 WtCom= 1.00D+00 WtEn= 0.00D+00
 Coeff-Com: -0.345D-02 0.747D-02 0.325D-02-0.106D-01-0.961D-01-0.398D-01
 Coeff-Com:  0.411D+00 0.729D+00
 Coeff:     -0.345D-02 0.747D-02 0.325D-02-0.106D-01-0.961D-01-0.398D-01
 Coeff:      0.411D+00 0.729D+00
 Gap=     0.242 Goal=   None    Shift=    0.000
 RMSDP=8.59D-05 MaxDP=1.09D-02 DE=-1.54D-05 OVMax= 1.92D-03

 Cycle   9  Pass 1  IDiag  1:
 RMSU=  1.71D-05    CP:  7.08D-01  1.88D+00  7.97D-01  1.08D+00  1.61D+00
                    CP:  1.30D+00  1.42D+00  1.08D+00
 E= -902.458969511687     Delta-E=       -0.000004921435 Rises=F Damp=F
 DIIS: error= 2.61D-05 at cycle   9 NSaved=   9.
 NSaved= 9 IEnMin= 9 EnMin= -902.458969511687     IErMin= 9 ErrMin= 2.61D-05
 ErrMax= 2.61D-05  0.00D+00 EMaxC= 1.00D-01 BMatC= 2.12D-07 BMatP= 2.00D-06
 IDIUse=1 WtCom= 1.00D+00 WtEn= 0.00D+00
 Coeff-Com: -0.143D-02 0.308D-02 0.298D-02 0.124D-02-0.226D-01-0.330D-01
 Coeff-Com: -0.780D-01 0.130D+00 0.998D+00
 Coeff:     -0.143D-02 0.308D-02 0.298D-02 0.124D-02-0.226D-01-0.330D-01
 Coeff:     -0.780D-01 0.130D+00 0.998D+00
 Gap=     0.242 Goal=   None    Shift=    0.000
 RMSDP=3.21D-05 MaxDP=3.29D-03 DE=-4.92D-06 OVMax= 9.49D-04

 Cycle  10  Pass 1  IDiag  1:
 RMSU=  6.83D-06    CP:  7.08D-01  1.89D+00  7.99D-01  1.08D+00  1.64D+00
                    CP:  1.34D+00  1.49D+00  1.24D+00  1.29D+00
 E= -902.458970355261     Delta-E=       -0.000000843575 Rises=F Damp=F
 DIIS: error= 8.27D-06 at cycle  10 NSaved=  10.
 NSaved=10 IEnMin=10 EnMin= -902.458970355261     IErMin=10 ErrMin= 8.27D-06
 ErrMax= 8.27D-06  0.00D+00 EMaxC= 1.00D-01 BMatC= 4.13D-08 BMatP= 2.12D-07
 IDIUse=1 WtCom= 1.00D+00 WtEn= 0.00D+00
 Coeff-Com:  0.159D-03-0.352D-03 0.468D-03 0.229D-02 0.765D-02-0.347D-02
 Coeff-Com: -0.100D+00-0.724D-01 0.371D+00 0.794D+00
 Coeff:      0.159D-03-0.352D-03 0.468D-03 0.229D-02 0.765D-02-0.347D-02
 Coeff:     -0.100D+00-0.724D-01 0.371D+00 0.794D+00
 Gap=     0.242 Goal=   None    Shift=    0.000
 RMSDP=9.98D-06 MaxDP=7.75D-04 DE=-8.44D-07 OVMax= 3.05D-04

 Cycle  11  Pass 1  IDiag  1:
 RMSU=  2.91D-06    CP:  7.08D-01  1.89D+00  7.99D-01  1.08D+00  1.64D+00
                    CP:  1.36D+00  1.52D+00  1.29D+00  1.49D+00  1.10D+00
 E= -902.458970466936     Delta-E=       -0.000000111675 Rises=F Damp=F
 DIIS: error= 4.16D-06 at cycle  11 NSaved=  11.
 NSaved=11 IEnMin=11 EnMin= -902.458970466936     IErMin=11 ErrMin= 4.16D-06
 ErrMax= 4.16D-06  0.00D+00 EMaxC= 1.00D-01 BMatC= 5.44D-09 BMatP= 4.13D-08
 IDIUse=1 WtCom= 1.00D+00 WtEn= 0.00D+00
 Coeff-Com:  0.263D-03-0.564D-03-0.302D-03 0.647D-03 0.576D-02 0.423D-02
 Coeff-Com: -0.146D-01-0.364D-01-0.610D-01 0.223D+00 0.879D+00
 Coeff:      0.263D-03-0.564D-03-0.302D-03 0.647D-03 0.576D-02 0.423D-02
 Coeff:     -0.146D-01-0.364D-01-0.610D-01 0.223D+00 0.879D+00
 Gap=     0.242 Goal=   None    Shift=    0.000
 RMSDP=2.35D-06 MaxDP=1.24D-04 DE=-1.12D-07 OVMax= 9.47D-05

 Cycle  12  Pass 1  IDiag  1:
 RMSU=  1.23D-06    CP:  7.08D-01  1.89D+00  7.99D-01  1.08D+00  1.65D+00
                    CP:  1.36D+00  1.52D+00  1.30D+00  1.53D+00  1.23D+00
                    CP:  8.93D-01
 E= -902.458970482069     Delta-E=       -0.000000015133 Rises=F Damp=F
 DIIS: error= 1.50D-06 at cycle  12 NSaved=  12.
 NSaved=12 IEnMin=12 EnMin= -902.458970482069     IErMin=12 ErrMin= 1.50D-06
 ErrMax= 1.50D-06  0.00D+00 EMaxC= 1.00D-01 BMatC= 9.76D-10 BMatP= 5.44D-09
 IDIUse=1 WtCom= 1.00D+00 WtEn= 0.00D+00
 Coeff-Com:  0.650D-04-0.137D-03-0.160D-03-0.359D-04 0.105D-02 0.177D-02
 Coeff-Com:  0.100D-01-0.224D-02-0.801D-01-0.466D-01 0.302D+00 0.814D+00
 Coeff:      0.650D-04-0.137D-03-0.160D-03-0.359D-04 0.105D-02 0.177D-02
 Coeff:      0.100D-01-0.224D-02-0.801D-01-0.466D-01 0.302D+00 0.814D+00
 Gap=     0.242 Goal=   None    Shift=    0.000
 RMSDP=1.10D-06 MaxDP=7.58D-05 DE=-1.51D-08 OVMax= 2.79D-05

 Cycle  13  Pass 1  IDiag  1:
 RMSU=  4.01D-07    CP:  7.08D-01  1.89D+00  7.99D-01  1.09D+00  1.65D+00
                    CP:  1.36D+00  1.52D+00  1.29D+00  1.55D+00  1.30D+00
                    CP:  1.01D+00  1.15D+00
 E= -902.458970484453     Delta-E=       -0.000000002383 Rises=F Damp=F
 DIIS: error= 6.19D-07 at cycle  13 NSaved=  13.
 NSaved=13 IEnMin=13 EnMin= -902.458970484453     IErMin=13 ErrMin= 6.19D-07
 ErrMax= 6.19D-07  0.00D+00 EMaxC= 1.00D-01 BMatC= 1.78D-10 BMatP= 9.76D-10
 IDIUse=1 WtCom= 1.00D+00 WtEn= 0.00D+00
 Coeff-Com: -0.127D-04 0.280D-04-0.199D-04-0.121D-03-0.505D-03 0.213D-04
 Coeff-Com:  0.634D-02 0.484D-02-0.198D-01-0.531D-01-0.206D-01 0.341D+00
 Coeff-Com:  0.742D+00
 Coeff:     -0.127D-04 0.280D-04-0.199D-04-0.121D-03-0.505D-03 0.213D-04
 Coeff:      0.634D-02 0.484D-02-0.198D-01-0.531D-01-0.206D-01 0.341D+00
 Coeff:      0.742D+00
 Gap=     0.242 Goal=   None    Shift=    0.000
 RMSDP=4.83D-07 MaxDP=4.33D-05 DE=-2.38D-09 OVMax= 9.83D-06

 Cycle  14  Pass 1  IDiag  1:
 RMSU=  2.41D-07    CP:  7.08D-01  1.89D+00  7.99D-01  1.09D+00  1.65D+00
                    CP:  1.36D+00  1.52D+00  1.29D+00  1.55D+00  1.32D+00
                    CP:  9.73D-01  1.29D+00  1.42D+00
 E= -902.458970484923     Delta-E=       -0.000000000471 Rises=F Damp=F
 DIIS: error= 2.11D-07 at cycle  14 NSaved=  14.
 NSaved=14 IEnMin=14 EnMin= -902.458970484923     IErMin=14 ErrMin= 2.11D-07
 ErrMax= 2.11D-07  0.00D+00 EMaxC= 1.00D-01 BMatC= 1.49D-11 BMatP= 1.78D-10
 IDIUse=1 WtCom= 1.00D+00 WtEn= 0.00D+00
 Coeff-Com: -0.853D-05 0.180D-04 0.928D-05-0.389D-04-0.260D-03-0.184D-03
 Coeff-Com:  0.315D-03 0.112D-02 0.475D-02-0.843D-02-0.447D-01-0.753D-02
 Coeff-Com:  0.166D+00 0.889D+00
 Coeff:     -0.853D-05 0.180D-04 0.928D-05-0.389D-04-0.260D-03-0.184D-03
 Coeff:      0.315D-03 0.112D-02 0.475D-02-0.843D-02-0.447D-01-0.753D-02
 Coeff:      0.166D+00 0.889D+00
 Gap=     0.242 Goal=   None    Shift=    0.000
 RMSDP=2.36D-07 MaxDP=1.80D-05 DE=-4.71D-10 OVMax= 4.91D-06

 Cycle  15  Pass 1  IDiag  1:
 RMSU=  5.92D-08    CP:  7.08D-01  1.89D+00  7.99D-01  1.09D+00  1.65D+00
                    CP:  1.36D+00  1.53D+00  1.29D+00  1.55D+00  1.32D+00
                    CP:  9.57D-01  1.37D+00  1.66D+00  1.21D+00
 E= -902.458970484881     Delta-E=        0.000000000043 Rises=F Damp=F
 DIIS: error= 7.96D-08 at cycle  15 NSaved=  15.
 NSaved=15 IEnMin=14 EnMin= -902.458970484923     IErMin=15 ErrMin= 7.96D-08
 ErrMax= 7.96D-08  0.00D+00 EMaxC= 1.00D-01 BMatC= 2.69D-12 BMatP= 1.49D-11
 IDIUse=1 WtCom= 1.00D+00 WtEn= 0.00D+00
 Coeff-Com: -0.252D-05 0.529D-05 0.765D-05 0.229D-05-0.273D-04-0.592D-04
 Coeff-Com: -0.633D-03-0.236D-03 0.407D-02 0.440D-02-0.114D-01-0.398D-01
 Coeff-Com: -0.595D-01 0.256D+00 0.847D+00
 Coeff:     -0.252D-05 0.529D-05 0.765D-05 0.229D-05-0.273D-04-0.592D-04
 Coeff:     -0.633D-03-0.236D-03 0.407D-02 0.440D-02-0.114D-01-0.398D-01
 Coeff:     -0.595D-01 0.256D+00 0.847D+00
 Gap=     0.242 Goal=   None    Shift=    0.000
 RMSDP=1.22D-07 MaxDP=1.18D-05 DE= 4.27D-11 OVMax= 2.09D-06

 Cycle  16  Pass 1  IDiag  1:
 RMSU=  2.35D-08    CP:  7.08D-01  1.89D+00  7.99D-01  1.09D+00  1.65D+00
                    CP:  1.36D+00  1.53D+00  1.29D+00  1.55D+00  1.32D+00
                    CP:  9.39D-01  1.39D+00  1.78D+00  1.41D+00  1.37D+00
 E= -902.458970484752     Delta-E=        0.000000000129 Rises=F Damp=F
 DIIS: error= 4.21D-08 at cycle  16 NSaved=  16.
 NSaved=16 IEnMin=14 EnMin= -902.458970484923     IErMin=16 ErrMin= 4.21D-08
 ErrMax= 4.21D-08  0.00D+00 EMaxC= 1.00D-01 BMatC= 5.53D-13 BMatP= 2.69D-12
 IDIUse=1 WtCom= 1.00D+00 WtEn= 0.00D+00
 Coeff-Com:  0.909D-06-0.195D-05-0.144D-06 0.638D-05 0.412D-04 0.121D-04
 Coeff-Com: -0.232D-03-0.304D-03 0.240D-03 0.276D-02 0.381D-02-0.742D-02
 Coeff-Com: -0.531D-01-0.922D-01 0.225D+00 0.922D+00
 Coeff:      0.909D-06-0.195D-05-0.144D-06 0.638D-05 0.412D-04 0.121D-04
 Coeff:     -0.232D-03-0.304D-03 0.240D-03 0.276D-02 0.381D-02-0.742D-02
 Coeff:     -0.531D-01-0.922D-01 0.225D+00 0.922D+00
 Gap=     0.242 Goal=   None    Shift=    0.000
 RMSDP=6.77D-08 MaxDP=6.09D-06 DE= 1.29D-10 OVMax= 1.20D-06

 Cycle  17  Pass 1  IDiag  1:
 RMSU=  8.87D-09    CP:  7.08D-01  1.89D+00  7.99D-01  1.09D+00  1.65D+00
                    CP:  1.36D+00  1.53D+00  1.29D+00  1.55D+00  1.32D+00
                    CP:  9.31D-01  1.41D+00  1.85D+00  1.53D+00  1.64D+00
                    CP:  1.53D+00
 E= -902.458970484915     Delta-E=       -0.000000000163 Rises=F Damp=F
 DIIS: error= 1.78D-08 at cycle  17 NSaved=  17.
 NSaved=17 IEnMin=14 EnMin= -902.458970484923     IErMin=17 ErrMin= 1.78D-08
 ErrMax= 1.78D-08  0.00D+00 EMaxC= 1.00D-01 BMatC= 1.28D-13 BMatP= 5.53D-13
 IDIUse=1 WtCom= 1.00D+00 WtEn= 0.00D+00
 Coeff-Com:  0.405D-06-0.853D-06-0.916D-06 0.200D-05 0.176D-04 0.127D-04
 Coeff-Com:  0.598D-04-0.331D-04-0.725D-03 0.847D-04 0.322D-02 0.693D-02
 Coeff-Com: -0.625D-02-0.808D-01-0.934D-01 0.344D+00 0.827D+00
 Coeff:      0.405D-06-0.853D-06-0.916D-06 0.200D-05 0.176D-04 0.127D-04
 Coeff:      0.598D-04-0.331D-04-0.725D-03 0.847D-04 0.322D-02 0.693D-02
 Coeff:     -0.625D-02-0.808D-01-0.934D-01 0.344D+00 0.827D+00
 Gap=     0.242 Goal=   None    Shift=    0.000
 RMSDP=2.49D-08 MaxDP=1.76D-06 DE=-1.63D-10 OVMax= 4.53D-07

 Cycle  18  Pass 1  IDiag  1:
 RMSU=  3.65D-09    CP:  7.08D-01  1.89D+00  7.99D-01  1.09D+00  1.65D+00
                    CP:  1.36D+00  1.52D+00  1.29D+00  1.55D+00  1.32D+00
                    CP:  9.28D-01  1.41D+00  1.87D+00  1.57D+00  1.77D+00
                    CP:  1.76D+00  1.31D+00
 E= -902.458970484899     Delta-E=        0.000000000015 Rises=F Damp=F
 DIIS: error= 9.66D-09 at cycle  18 NSaved=  18.
 NSaved=18 IEnMin=14 EnMin= -902.458970484923     IErMin=18 ErrMin= 9.66D-09
 ErrMax= 9.66D-09  0.00D+00 EMaxC= 1.00D-01 BMatC= 1.77D-14 BMatP= 1.28D-13
 IDIUse=1 WtCom= 1.00D+00 WtEn= 0.00D+00
 Coeff-Com:  0.959D-07-0.202D-06-0.434D-06-0.589D-06-0.433D-06 0.289D-05
 Coeff-Com:  0.468D-04 0.341D-04-0.249D-03-0.404D-03 0.113D-03 0.314D-02
 Coeff-Com:  0.759D-02-0.438D-02-0.689D-01-0.734D-01 0.218D+00 0.918D+00
 Coeff:      0.959D-07-0.202D-06-0.434D-06-0.589D-06-0.433D-06 0.289D-05
 Coeff:      0.468D-04 0.341D-04-0.249D-03-0.404D-03 0.113D-03 0.314D-02
 Coeff:      0.759D-02-0.438D-02-0.689D-01-0.734D-01 0.218D+00 0.918D+00
 Gap=     0.242 Goal=   None    Shift=    0.000
 RMSDP=8.19D-09 MaxDP=5.84D-07 DE= 1.55D-11 OVMax= 2.43D-07

 SCF Done:  E(RwB97XD) =  -902.458970485     A.U. after   18 cycles
            NFock= 18  Conv=0.82D-08     -V/T= 2.0044
 KE= 8.985009343613D+02 PE=-5.048043259127D+03 EE= 1.773253773704D+03
 Leave Link  502 at Wed Jul 19 11:32:00 2017, MaxMem=  3758096384 cpu:      3143.4
 (Enter /share/apps/gaussian/g09_D01/g09/l801.exe)
 DoSCS=F DFT=T ScalE2(SS,OS)=  1.000000  1.000000
 ExpMin= 3.60D-02 ExpMax= 8.59D+03 ExpMxC= 1.30D+03 IAcc=3 IRadAn=         5 AccDes= 0.00D+00
 HarFok:  IExCor=  205 AccDes= 0.00D+00 IRadAn=         5 IDoV=-2 UseB2=F ITyADJ=14
 ICtDFT= 12500011 ScaDFX=  1.000000  1.000000  1.000000  1.000000
 Largest valence mixing into a core orbital is  5.59D-05
 Largest core mixing into a valence orbital is  1.70D-05
 Range of M.O.s used for correlation:    22   589
 NBasis=   595 NAE=    75 NBE=    75 NFC=    21 NFV=     0
 NROrb=    568 NOA=    54 NOB=    54 NVA=   514 NVB=   514

 **** Warning!!: The largest alpha MO coefficient is  0.14498008D+03

 Leave Link  801 at Wed Jul 19 11:32:01 2017, MaxMem=  3758096384 cpu:         2.5
 (Enter /share/apps/gaussian/g09_D01/g09/l914.exe)
 RHF ground state
 MDV=  3758096384 DFT=T DoStab=F Mixed=T DoRPA=T DoScal=F NonHer=T
 Would need an additional         90676400000 words for in-memory AO integral storage.
 Making orbital integer symmetry assigments:
 Orbital symmetries:
       Occupied  (A) (A) (A) (A) (A) (A) (A) (A) (A) (A) (A) (A)
                 (A) (A) (A) (A) (A) (A) (A) (A) (A) (A) (A) (A)
                 (A) (A) (A) (A) (A) (A) (A) (A) (A) (A) (A) (A)
                 (A) (A) (A) (A) (A) (A) (A) (A) (A) (A) (A) (A)
                 (A) (A) (A) (A) (A) (A) (A) (A) (A) (A) (A) (A)
                 (A) (A) (A) (A) (A) (A) (A) (A) (A) (A) (A) (A)
                 (A) (A) (A)
       Virtual   (A) (A) (A) (A) (A) (A) (A) (A) (A) (A) (A) (A)
                 (A) (A) (A) (A) (A) (A) (A) (A) (A) (A) (A) (A)
                 (A) (A) (A) (A) (A) (A) (A) (A) (A) (A) (A) (A)
                 (A) (A) (A) (A) (A) (A) (A) (A) (A) (A) (A) (A)
                 (A) (A) (A) (A) (A) (A) (A) (A) (A) (A) (A) (A)
                 (A) (A) (A) (A) (A) (A) (A) (A) (A) (A) (A) (A)
                 (A) (A) (A) (A) (A) (A) (A) (A) (A) (A) (A) (A)
                 (A) (A) (A) (A) (A) (A) (A) (A) (A) (A) (A) (A)
                 (A) (A) (A) (A) (A) (A) (A) (A) (A) (A) (A) (A)
                 (A) (A) (A) (A) (A) (A) (A) (A) (A) (A) (A) (A)
                 (A) (A) (A) (A) (A) (A) (A) (A) (A) (A) (A) (A)
                 (A) (A) (A) (A) (A) (A) (A) (A) (A) (A) (A) (A)
                 (A) (A) (A) (A) (A) (A) (A) (A) (A) (A) (A) (A)
                 (A) (A) (A) (A) (A) (A) (A) (A) (A) (A) (A) (A)
                 (A) (A) (A) (A) (A) (A) (A) (A) (A) (A) (A) (A)
                 (A) (A) (A) (A) (A) (A) (A) (A) (A) (A) (A) (A)
                 (A) (A) (A) (A) (A) (A) (A) (A) (A) (A) (A) (A)
                 (A) (A) (A) (A) (A) (A) (A) (A) (A) (A) (A) (A)
                 (A) (A) (A) (A) (A) (A) (A) (A) (A) (A) (A) (A)
                 (A) (A) (A) (A) (A) (A) (A) (A) (A) (A) (A) (A)
                 (A) (A) (A) (A) (A) (A) (A) (A) (A) (A) (A) (A)
                 (A) (A) (A) (A) (A) (A) (A) (A) (A) (A) (A) (A)
                 (A) (A) (A) (A) (A) (A) (A) (A) (A) (A) (A) (A)
                 (A) (A) (A) (A) (A) (A) (A) (A) (A) (A) (A) (A)
                 (A) (A) (A) (A) (A) (A) (A) (A) (A) (A) (A) (A)
                 (A) (A) (A) (A) (A) (A) (A) (A) (A) (A) (A) (A)
                 (A) (A) (A) (A) (A) (A) (A) (A) (A) (A) (A) (A)
                 (A) (A) (A) (A) (A) (A) (A) (A) (A) (A) (A) (A)
                 (A) (A) (A) (A) (A) (A) (A) (A) (A) (A) (A) (A)
                 (A) (A) (A) (A) (A) (A) (A) (A) (A) (A) (A) (A)
                 (A) (A) (A) (A) (A) (A) (A) (A) (A) (A) (A) (A)
                 (A) (A) (A) (A) (A) (A) (A) (A) (A) (A) (A) (A)
                 (A) (A) (A) (A) (A) (A) (A) (A) (A) (A) (A) (A)
                 (A) (A) (A) (A) (A) (A) (A) (A) (A) (A) (A) (A)
                 (A) (A) (A) (A) (A) (A) (A) (A) (A) (A) (A) (A)
                 (A) (A) (A) (A) (A) (A) (A) (A) (A) (A) (A) (A)
                 (A) (A) (A) (A) (A) (A) (A) (A) (A) (A) (A) (A)
                 (A) (A) (A) (A) (A) (A) (A) (A) (A) (A) (A) (A)
                 (A) (A) (A) (A) (A) (A) (A) (A) (A) (A) (A) (A)
                 (A) (A) (A) (A) (A) (A) (A) (A) (A) (A) (A) (A)
                 (A) (A) (A) (A) (A) (A) (A) (A) (A) (A) (A) (A)
                 (A) (A) (A) (A) (A) (A) (A) (A) (A) (A) (A) (A)
                 (A) (A) (A) (A) (A) (A) (A) (A) (A) (A)
     8 initial guesses have been made.
 Convergence on wavefunction:    0.000001000000000
 Davidson Disk Diagonalization:  ConvIn= 1.00D-06 SkipCon=T Conv= 1.00D-06.
 Max sub-space:   200 roots to seek:     8 dimension of matrix:        55512
 Iteration     1 Dimension     8 NMult     0 NNew      8
 CISAX will form     8 AO SS matrices at one time.
 NMat=     8 NSing=     8 JSym2X= 0.
 FoFJK:  IHMeth= 1 ICntrl=       0 DoSepK=T KAlg= 0 I1Cent=   0 FoldK=F
 IRaf=         1 NMat=  16 IRICut=       1 DoRegI=T DoRafI=F ISym2E= 0.
 FoFCou: FMM=F IPFlag=           0 FMFlag=      100000 FMFlg1=           0
         NFxFlg=           0 DoJE=F BraDBF=F KetDBF=F FulRan=T
         wScrn=  0.000000 ICntrl=     500 IOpCl=  0 I1Cent=           0 NGrid=           0
         NMat0=    8 NMatS0=      8 NMatT0=    0 NMatD0=    8 NMtDS0=    0 NMtDT0=    0
 Symmetry not used in FoFCou.
 New state      1 was old state      5
 Excitation Energies [eV] at current iteration:
 Root      1 :     3.814801878801855
 Root      2 :     4.043666208599705
 Root      3 :     4.348750417229830
 Root      4 :     5.197684449121845
 Root      5 :     5.486341969795281
 Root      6 :     5.496039572277604
 Root      7 :     5.942929959519298
 Root      8 :     6.259787692483311
 Iteration     2 Dimension    12 NMult     8 NNew      4
 CISAX will form     4 AO SS matrices at one time.
 NMat=     4 NSing=     4 JSym2X= 0.
 Root      1 not converged, maximum delta is    0.084757377596474
 Excitation Energies [eV] at current iteration:
 Root      1 :     3.323440518163229   Change is   -0.491361360638625
 Root      2 :     3.461030063094477   Change is   -0.582636145505228
 Iteration     3 Dimension    16 NMult    12 NNew      4
 CISAX will form     4 AO SS matrices at one time.
 NMat=     4 NSing=     4 JSym2X= 0.
 Root      1 not converged, maximum delta is    0.035495356606902
 Excitation Energies [eV] at current iteration:
 Root      1 :     3.276541112653851   Change is   -0.046899405509379
 Root      2 :     3.404249633179414   Change is   -0.056780429915063
 Iteration     4 Dimension    20 NMult    16 NNew      4
 CISAX will form     4 AO SS matrices at one time.
 NMat=     4 NSing=     4 JSym2X= 0.
 Root      1 not converged, maximum delta is    0.015168587353105
 Excitation Energies [eV] at current iteration:
 Root      1 :     3.270732643857956   Change is   -0.005808468795894
 Root      2 :     3.395453877377187   Change is   -0.008795755802227
 Iteration     5 Dimension    24 NMult    20 NNew      4
 CISAX will form     4 AO SS matrices at one time.
 NMat=     4 NSing=     4 JSym2X= 0.
 Root      1 not converged, maximum delta is    0.003138807804773
 Excitation Energies [eV] at current iteration:
 Root      1 :     3.269959344087325   Change is   -0.000773299770632
 Root      2 :     3.393949700080646   Change is   -0.001504177296540
 Iteration     6 Dimension    28 NMult    24 NNew      4
 CISAX will form     4 AO SS matrices at one time.
 NMat=     4 NSing=     4 JSym2X= 0.
 Root      1 not converged, maximum delta is    0.000488852541661
 Excitation Energies [eV] at current iteration:
 Root      1 :     3.269887929838529   Change is   -0.000071414248795
 Root      2 :     3.393729906171563   Change is   -0.000219793909084
 Iteration     7 Dimension    32 NMult    28 NNew      4
 CISAX will form     4 AO SS matrices at one time.
 NMat=     4 NSing=     4 JSym2X= 0.
 Root      1 not converged, maximum delta is    0.000190265190786
 Excitation Energies [eV] at current iteration:
 Root      1 :     3.269879886926880   Change is   -0.000008042911649
 Root      2 :     3.393692204612933   Change is   -0.000037701558629
 Iteration     8 Dimension    36 NMult    32 NNew      4
 CISAX will form     4 AO SS matrices at one time.
 NMat=     4 NSing=     4 JSym2X= 0.
 Root      1 not converged, maximum delta is    0.000069961218125
 Excitation Energies [eV] at current iteration:
 Root      1 :     3.269879254715938   Change is   -0.000000632210942
 Root      2 :     3.393686828274862   Change is   -0.000005376338071
 Iteration     9 Dimension    40 NMult    36 NNew      4
 CISAX will form     4 AO SS matrices at one time.
 NMat=     4 NSing=     4 JSym2X= 0.
 Root      1 not converged, maximum delta is    0.000040104074408
 Excitation Energies [eV] at current iteration:
 Root      1 :     3.269879167599158   Change is   -0.000000087116780
 Root      2 :     3.393686162618004   Change is   -0.000000665656858
 Iteration    10 Dimension    44 NMult    40 NNew      4
 CISAX will form     4 AO SS matrices at one time.
 NMat=     4 NSing=     4 JSym2X= 0.
 Root      1 not converged, maximum delta is    0.000021571937234
 Excitation Energies [eV] at current iteration:
 Root      1 :     3.269879152532831   Change is   -0.000000015066327
 Root      2 :     3.393686060348702   Change is   -0.000000102269302
 Iteration    11 Dimension    48 NMult    44 NNew      4
 CISAX will form     4 AO SS matrices at one time.
 NMat=     4 NSing=     4 JSym2X= 0.
 Root      1 not converged, maximum delta is    0.000006817872916
 Excitation Energies [eV] at current iteration:
 Root      1 :     3.269879150865742   Change is   -0.000000001667089
 Root      2 :     3.393686047730281   Change is   -0.000000012618421
 Iteration    12 Dimension    52 NMult    48 NNew      4
 CISAX will form     4 AO SS matrices at one time.
 NMat=     4 NSing=     4 JSym2X= 0.
 Root      1 not converged, maximum delta is    0.000001489184389
 Excitation Energies [eV] at current iteration:
 Root      1 :     3.269879150669668   Change is   -0.000000000196074
 Root      2 :     3.393686046002383   Change is   -0.000000001727898
 Iteration    13 Dimension    56 NMult    52 NNew      4
 CISAX will form     4 AO SS matrices at one time.
 NMat=     4 NSing=     4 JSym2X= 0.
 Root      1 has converged.
 Excitation Energies [eV] at current iteration:
 Root      1 :     3.269879150633541   Change is   -0.000000000036127
 Root      2 :     3.393686045819325   Change is   -0.000000000183058
 Convergence achieved on expansion vectors.
 ***********************************************************************
 Excited states from <AA,BB:AA,BB> singles matrix:
 ***********************************************************************
 
 1PDM for each excited state written to RWF  633
 Ground to excited state transition densities written to RWF  633
 Ground to excited state transition electric dipole moments (Au):
       state          X           Y           Z        Dip. S.      Osc.
         1        -2.6033      0.2202      0.0804      6.8320      0.5473
 Ground to excited state transition velocity dipole moments (Au):
       state          X           Y           Z        Dip. S.      Osc.
         1         0.3111     -0.0283     -0.0078      0.0976      0.5416
 Ground to excited state transition magnetic dipole moments (Au):
       state          X           Y           Z
         1         0.1013     -0.8134      0.5770
 Ground to excited state transition velocity quadrupole moments (Au):
       state          XX          YY          ZZ          XY          XZ          YZ
         1        -0.7169      0.0173      0.0385      0.2680      0.1034     -0.0236
 <0|del|b> * <b|rxdel|0> + <0|del|b> * <b|delr+rdel|0>
 Rotatory Strengths (R) in cgs (10**-40 erg-esu-cm/Gauss)
       state          XX          YY          ZZ    R(velocity)    E-M Angle
         1        56.9406     63.9979    173.4339     98.1241       80.81
 1/2[<0|r|b>*<b|rxdel|0> + (<0|rxdel|b>*<b|r|0>)*]
 Rotatory Strengths (R) in cgs (10**-40 erg-esu-cm/Gauss)
       state          XX          YY          ZZ     R(length)
         1       186.4784    126.6553    -32.8150     93.4396
  1/2[<0|del|b>*<b|r|0> + (<0|r|b>*<b|del|0>)*] (Au)
       state          X           Y           Z        Dip. S.   Osc.(frdel)
         1        -0.8098     -0.0062     -0.0006      0.8166      0.5444

 Excitation energies and oscillator strengths:
 
 Excited State   1:      Singlet-A      3.2699 eV  379.17 nm  f=0.5473  <S**2>=0.000
      72 -> 76         0.36446
      73 -> 76         0.21860
      74 -> 76        -0.20586
      75 -> 76         0.47572
 This state for optimization and/or second-order correction.
 Total Energy, E(TD-HF/TD-KS) =  -902.338804632    
 Copying the excited state density for this state as the 1-particle RhoCI density.
 SavETr:  write IOETrn=   770 NScale= 10 NData=  16 NLR=1 NState=    1 LETran=      28.
 The selected state is a singlet
 CISAX will form     1 AO SS matrices at one time.
 NMat=     1 NSing=     1 JSym2X= 0.
 CISAX will form     1 AO SS matrices at one time.
 NMat=     1 NSing=     1 JSym2X= 0.
 Leave Link  914 at Wed Jul 19 12:14:50 2017, MaxMem=  3758096384 cpu:     10267.3
 (Enter /share/apps/gaussian/g09_D01/g09/l1002.exe)
[...]
     6  C    0.018681  -0.840643  -0.040507  -1.146792  -0.007662  -0.006561
     7  N    0.282553  -0.052359  -0.033603  -0.006705  -0.040629  -0.056593
     8  H    0.014490  -0.007656  -0.001239  -0.004691  -0.004882  -0.000021
     9  H   -0.016132   0.005985   0.001018   0.002652   0.004714  -0.005201
    10  C   -0.027864   1.125698   0.325516  -0.459195   0.053559   0.016640
    11  C   -0.017478  -0.381629   0.202539  -0.155764  -0.012137  -0.010122
    12  H   -0.001118   0.004814  -0.000583   0.039884   0.000153  -0.000168
    13  C    5.334568  -0.110687  -0.000756  -0.021841   0.378801   0.437322
    14  C   -0.110687  10.911886   0.001152   0.288005   0.013589  -0.002938
    15  H   -0.000756   0.001152   0.561366   0.049446  -0.003484  -0.018629
    16  C   -0.021841   0.288005   0.049446   9.089204  -0.000301  -0.000343
    17  H    0.378801   0.013589  -0.003484  -0.000301   0.563290  -0.049140
    18  H    0.437322  -0.002938  -0.018629  -0.000343  -0.049140   0.535107
    19  H    0.416006  -0.012213   0.003462  -0.001947  -0.028857  -0.023579
    20  H    0.008623   0.570152  -0.059817  -0.021440   0.002387   0.002804
    21  H    0.000581   0.010215   0.000080   0.389726  -0.000026   0.000013
    22  C    0.010957  -0.397726   0.057428   3.042542  -0.002236  -0.001429
    23  C    0.006118  -1.997356   0.035476  -3.723634  -0.001149  -0.000943
    24  H   -0.001305  -0.137228   0.014737  -0.117969  -0.000369  -0.000278
    25  C    0.000911  -0.235543   0.002340  -0.943237  -0.000125  -0.000090
    26  O   -0.000004   0.005542  -0.000095   0.073659   0.000002   0.000000
    27  C   -0.000127  -0.010384  -0.000217   0.058410   0.000024   0.000014
    28  C    0.000317  -0.097355   0.002315  -0.330961  -0.000091  -0.000028
    29  C    0.000005  -0.017899   0.000300  -0.131270  -0.000006  -0.000001
    30  O    0.000000  -0.001598   0.000015  -0.046824   0.000000   0.000000
    31  C   -0.000066   0.072019  -0.002026   0.343695   0.000035   0.000021
    32  H    0.000011  -0.022268   0.000647  -0.069077  -0.000013  -0.000007
    33  H    0.000000   0.000047  -0.000001   0.000522   0.000000   0.000000
    34  C    0.000013  -0.005972   0.000058  -0.069314  -0.000003  -0.000001
    35  H    0.000002   0.000217  -0.000028  -0.018574   0.000000   0.000000
    36  H    0.000001   0.001487  -0.000071   0.009411   0.000001   0.000000
    37  C    0.000000   0.001209  -0.000010   0.000859   0.000000   0.000000
    38  H    0.000000  -0.000018   0.000000  -0.000193   0.000000   0.000000
    39  H    0.000000  -0.000045   0.000002  -0.000403   0.000000   0.000000
    40  H    0.000000  -0.000004   0.000000   0.000106   0.000000   0.000000
              19         20         21         22         23         24
     1  H    0.000879  -0.002660   0.002361  -0.005201   0.009021   0.001178
     2  H   -0.004879   0.000176  -0.000038  -0.000019   0.000040  -0.000092
     3  C    0.012011  -0.040336  -0.025774   0.283560  -0.268329   0.030924
     4  C   -0.017596  -0.000189  -0.001217  -0.012293  -0.002471   0.000015
     5  C    0.004687   0.270345  -0.008597  -0.790752  -0.360197  -0.089408
     6  C    0.011104   0.095790   0.014377  -0.917377  -0.807888  -0.047301
     7  N   -0.050768   0.000298  -0.000520   0.000473   0.001576  -0.000330
     8  H    0.004259   0.000345  -0.000084  -0.000929   0.000026  -0.000067
     9  H    0.010433  -0.000218  -0.000064  -0.000504  -0.000254   0.000036
    10  C   -0.008930   0.117918   0.018332  -0.983430   0.311954  -0.122460
    11  C    0.003732  -0.269381  -0.049300  -2.054181   0.506775  -0.004582
    12  H   -0.000152  -0.000194  -0.002723   0.003579  -0.006039  -0.001248
    13  C    0.416006   0.008623   0.000581   0.010957   0.006118  -0.001305
    14  C   -0.012213   0.570152   0.010215  -0.397726  -1.997356  -0.137228
    15  H    0.003462  -0.059817   0.000080   0.057428   0.035476   0.014737
    16  C   -0.001947  -0.021440   0.389726   3.042542  -3.723634  -0.117969
    17  H   -0.028857   0.002387  -0.000026  -0.002236  -0.001149  -0.000369
    18  H   -0.023579   0.002804   0.000013  -0.001429  -0.000943  -0.000278
    19  H    0.523649   0.000135   0.000033   0.001201   0.000507  -0.000044
    20  H    0.000135   0.607332   0.003217  -0.084055  -0.224699  -0.052821
    21  H    0.000033   0.003217   0.450308  -0.065802   0.030181   0.001004
    22  C    0.001201  -0.084055  -0.065802  17.107387  -4.456573   0.605744
    23  C    0.000507  -0.224699   0.030181  -4.456573  14.778233   0.215732
    24  H   -0.000044  -0.052821   0.001004   0.605744   0.215732   0.605706
    25  C    0.000063  -0.018084   0.008695  -5.380930   1.788093  -0.066171
    26  O    0.000000   0.003699   0.018491  -0.065943   0.528892  -0.008078
    27  C   -0.000008   0.007316  -0.016485   1.826141  -1.323622  -0.003779
    28  C    0.000018  -0.040733  -0.000261  -2.084455   1.785746   0.080189
    29  C    0.000000  -0.007293  -0.001795  -0.525971  -0.096502   0.030542
    30  O    0.000000  -0.000637   0.000098  -0.176075   0.065486   0.003270
    31  C   -0.000005   0.028823  -0.005031   1.511283  -1.108825  -0.074005
    32  H    0.000001  -0.006643  -0.000483  -0.072631   0.124481   0.005831
    33  H    0.000000  -0.000012  -0.000085  -0.011089  -0.020610  -0.000156
    34  C    0.000001   0.000155   0.000650  -0.110121   0.381978   0.001166
    35  H    0.000000   0.000238  -0.001753  -0.004249  -0.021172  -0.002345
    36  H    0.000000   0.000918   0.000023   0.010385  -0.013043  -0.002753
    37  C    0.000000   0.000448   0.000113  -0.041644   0.042928  -0.004149
    38  H    0.000000  -0.000014  -0.000002  -0.001464  -0.001147   0.000151
    39  H    0.000000  -0.000030   0.000003  -0.002143   0.001320  -0.000100
    40  H    0.000000   0.000013  -0.000003   0.003718   0.001683   0.000050
              25         26         27         28         29         30
     1  H    0.000703   0.000064  -0.000266   0.000136   0.000007   0.000009
     2  H    0.000032  -0.000001  -0.000003   0.000008   0.000000   0.000000
     3  C   -0.120399  -0.000648   0.014663   0.003131   0.000536  -0.000190
     4  C   -0.000638   0.000005  -0.000022   0.000105   0.000000   0.000000
     5  C   -0.018057  -0.000199  -0.003384   0.004615  -0.000668  -0.000049
     6  C   -0.144526   0.000648   0.078879  -0.097510  -0.004256  -0.002193
     7  N    0.000150   0.000000   0.000016  -0.000062   0.000001   0.000000
     8  H    0.000026  -0.000001   0.000001   0.000001   0.000000   0.000000
     9  H   -0.000047   0.000000   0.000001   0.000002   0.000000   0.000000
    10  C    0.100532  -0.002257  -0.053560   0.084935   0.003461   0.000313
    11  C    0.507635   0.047247  -0.140976   0.009102  -0.034369   0.007143
    12  H   -0.001529  -0.000341   0.001115   0.000003  -0.000096  -0.000044
    13  C    0.000911  -0.000004  -0.000127   0.000317   0.000005   0.000000
    14  C   -0.235543   0.005542  -0.010384  -0.097355  -0.017899  -0.001598
    15  H    0.002340  -0.000095  -0.000217   0.002315   0.000300   0.000015
    16  C   -0.943237   0.073659   0.058410  -0.330961  -0.131270  -0.046824
    17  H   -0.000125   0.000002   0.000024  -0.000091  -0.000006   0.000000
    18  H   -0.000090   0.000000   0.000014  -0.000028  -0.000001   0.000000
    19  H    0.000063   0.000000  -0.000008   0.000018   0.000000   0.000000
    20  H   -0.018084   0.003699   0.007316  -0.040733  -0.007293  -0.000637
    21  H    0.008695   0.018491  -0.016485  -0.000261  -0.001795   0.000098
    22  C   -5.380930  -0.065943   1.826141  -2.084455  -0.525971  -0.176075
    23  C    1.788093   0.528892  -1.323622   1.785746  -0.096502   0.065486
    24  H   -0.066171  -0.008078  -0.003779   0.080189   0.030542   0.003270
    25  C   17.149758  -0.447661  -0.799812  -4.124884  -2.733987   0.268029
    26  O   -0.447661   8.170102   0.165994  -0.159624  -0.034935  -0.047410
    27  C   -0.799812   0.165994  15.798121  -8.994750  -2.042303   0.145323
    28  C   -4.124884  -0.159624  -8.994750  21.538802   4.509631   0.101292
    29  C   -2.733987  -0.034935  -2.042303   4.509631  12.646829  -0.324355
    30  O    0.268029  -0.047410   0.145323   0.101292  -0.324355   7.975983
    31  C    0.371239   0.045859   3.222472  -6.137113  -4.675756  -0.023402
    32  H   -0.112712  -0.007934  -0.084576   0.681747   0.098175  -0.000452
    33  H   -0.067514  -0.001370  -0.077739   0.068534   0.589067  -0.032010
    34  C   -0.381642   0.005262  -1.121553  -0.552289  -1.100683   0.042446
    35  H   -0.143449   0.040283   0.029708   0.093149   0.123860   0.243617
    36  H    0.019110   0.000515   0.029053  -0.098491  -0.001223   0.000593
    37  C    0.176672  -0.004830   0.022087   0.086538   0.372460   0.006724
    38  H    0.000714  -0.000043  -0.008071  -0.000577  -0.077432   0.000025
    39  H   -0.002058  -0.000041  -0.034413   0.035269  -0.012589   0.000065
    40  H    0.029441   0.000236   0.040795  -0.047135   0.059638   0.001265
              31         32         33         34         35         36
     1  H   -0.000089   0.000025   0.000000   0.000010   0.000003  -0.000001
     2  H    0.000000  -0.000001   0.000000   0.000000   0.000000   0.000000
     3  C    0.002776   0.000468  -0.000012  -0.000460  -0.000294  -0.000079
     4  C    0.000016   0.000015   0.000000   0.000000   0.000001   0.000000
     5  C    0.004983  -0.001652   0.000016  -0.000235   0.000189   0.000220
     6  C    0.027267  -0.007113   0.000038  -0.005664   0.000647   0.000400
     7  N   -0.000010  -0.000004   0.000000   0.000000   0.000000   0.000000
     8  H    0.000000   0.000001   0.000000   0.000000   0.000000   0.000000
     9  H    0.000001   0.000001   0.000000   0.000000   0.000000   0.000000
    10  C   -0.015112   0.000079   0.000122   0.004277   0.000554   0.000513
    11  C    0.025781  -0.005018   0.000192  -0.001763  -0.001162   0.001086
    12  H    0.000636  -0.000046   0.000005  -0.000032   0.000036   0.000004
    13  C   -0.000066   0.000011   0.000000   0.000013   0.000002   0.000001
    14  C    0.072019  -0.022268   0.000047  -0.005972   0.000217   0.001487
    15  H   -0.002026   0.000647  -0.000001   0.000058  -0.000028  -0.000071
    16  C    0.343695  -0.069077   0.000522  -0.069314  -0.018574   0.009411
    17  H    0.000035  -0.000013   0.000000  -0.000003   0.000000   0.000001
    18  H    0.000021  -0.000007   0.000000  -0.000001   0.000000   0.000000
    19  H   -0.000005   0.000001   0.000000   0.000001   0.000000   0.000000
    20  H    0.028823  -0.006643  -0.000012   0.000155   0.000238   0.000918
    21  H   -0.005031  -0.000483  -0.000085   0.000650  -0.001753   0.000023
    22  C    1.511283  -0.072631  -0.011089  -0.110121  -0.004249   0.010385
    23  C   -1.108825   0.124481  -0.020610   0.381978  -0.021172  -0.013043
    24  H   -0.074005   0.005831  -0.000156   0.001166  -0.002345  -0.002753
    25  C    0.371239  -0.112712  -0.067514  -0.381642  -0.143449   0.019110
    26  O    0.045859  -0.007934  -0.001370   0.005262   0.040283   0.000515
    27  C    3.222472  -0.084576  -0.077739  -1.121553   0.029708   0.029053
    28  C   -6.137113   0.681747   0.068534  -0.552289   0.093149  -0.098491
    29  C   -4.675756   0.098175   0.589067  -1.100683   0.123860  -0.001223
    30  O   -0.023402  -0.000452  -0.032010   0.042446   0.243617   0.000593
    31  C   12.821739  -0.240746  -0.041121   0.661850  -0.013430   0.366008
    32  H   -0.240746   0.518672   0.002458   0.011136   0.001401  -0.015592
    33  H   -0.041121   0.002458   0.501996  -0.113788   0.003707  -0.001906
    34  C    0.661850   0.011136  -0.113788   9.128381  -0.032667   0.005375
    35  H   -0.013430   0.001401   0.003707  -0.032667   0.396577   0.000215
    36  H    0.366008  -0.015592  -0.001906   0.005375   0.000215   0.487885
    37  C   -0.803130   0.001010  -0.000037  -1.255848  -0.002773  -0.003622
    38  H    0.084284  -0.000095   0.001111  -0.037087  -0.000046   0.000602
    39  H   -0.030417   0.001323   0.001336   0.066014   0.000026  -0.002809
    40  H   -0.023702  -0.000923  -0.005741  -0.076357  -0.000401   0.001883
              37         38         39         40
     1  H    0.000000   0.000000   0.000000   0.000000
     2  H    0.000000   0.000000   0.000000   0.000000
     3  C   -0.000060   0.000000   0.000000   0.000002
     4  C    0.000000   0.000000   0.000000   0.000000
     5  C    0.000032   0.000000  -0.000003  -0.000001
     6  C   -0.000407  -0.000002  -0.000020   0.000017
     7  N    0.000000   0.000000   0.000000   0.000000
     8  H    0.000000   0.000000   0.000000   0.000000
     9  H    0.000000   0.000000   0.000000   0.000000
    10  C    0.000598   0.000003   0.000014  -0.000027
    11  C    0.001037  -0.000003  -0.000064   0.000009
    12  H    0.000004   0.000000   0.000000   0.000000
    13  C    0.000000   0.000000   0.000000   0.000000
    14  C    0.001209  -0.000018  -0.000045  -0.000004
    15  H   -0.000010   0.000000   0.000002   0.000000
    16  C    0.000859  -0.000193  -0.000403   0.000106
    17  H    0.000000   0.000000   0.000000   0.000000
    18  H    0.000000   0.000000   0.000000   0.000000
    19  H    0.000000   0.000000   0.000000   0.000000
    20  H    0.000448  -0.000014  -0.000030   0.000013
    21  H    0.000113  -0.000002   0.000003  -0.000003
    22  C   -0.041644  -0.001464  -0.002143   0.003718
    23  C    0.042928  -0.001147   0.001320   0.001683
    24  H   -0.004149   0.000151  -0.000100   0.000050
    25  C    0.176672   0.000714  -0.002058   0.029441
    26  O   -0.004830  -0.000043  -0.000041   0.000236
    27  C    0.022087  -0.008071  -0.034413   0.040795
    28  C    0.086538  -0.000577   0.035269  -0.047135
    29  C    0.372460  -0.077432  -0.012589   0.059638
    30  O    0.006724   0.000025   0.000065   0.001265
    31  C   -0.803130   0.084284  -0.030417  -0.023702
    32  H    0.001010  -0.000095   0.001323  -0.000923
    33  H   -0.000037   0.001111   0.001336  -0.005741
    34  C   -1.255848  -0.037087   0.066014  -0.076357
    35  H   -0.002773  -0.000046   0.000026  -0.000401
    36  H   -0.003622   0.000602  -0.002809   0.001883
    37  C    6.922134   0.396643   0.337492   0.360462
    38  H    0.396643   0.547993  -0.058033  -0.017828
    39  H    0.337492  -0.058033   0.543087  -0.019486
    40  H    0.360462  -0.017828  -0.019486   0.519275
 Mulliken charges:
               1
     1  H    0.191477
     2  H    0.189564
     3  C   -0.175820
     4  C   -0.421738
     5  C   -0.698850
     6  C   -0.299856
     7  N    0.087843
     8  H    0.163724
     9  H    0.151514
    10  C   -0.402673
    11  C    1.169025
    12  H    0.211611
    13  C   -0.423422
    14  C   -0.910701
    15  H    0.232728
    16  C    0.229719
    17  H    0.161801
    18  H    0.187283
    19  H    0.156797
    20  H    0.108124
    21  H    0.231541
    22  C   -0.215177
    23  C   -0.181793
    24  H    0.140762
    25  C    1.318950
    26  O   -0.325085
    27  C   -0.724084
    28  C   -0.319264
    29  C   -0.611123
    30  O   -0.206455
    31  C   -0.396802
    32  H    0.200504
    33  H    0.204039
    34  C    0.556707
    35  H    0.307914
    36  H    0.203906
    37  C   -0.612940
    38  H    0.170528
    39  H    0.176702
    40  H    0.173018
 Sum of Mulliken charges =   0.00000
 Mulliken charges with hydrogens summed into heavy atoms:
               1
     3  C    0.015657
     4  C    0.083065
     5  C   -0.698850
     6  C   -0.088245
     7  N    0.087843
    10  C   -0.169944
    11  C    1.169025
    13  C    0.082459
    14  C   -0.802577
    16  C    0.461261
    22  C   -0.074416
    23  C   -0.181793
    25  C    1.318950
    26  O   -0.325085
    27  C   -0.724084
    28  C   -0.118760
    29  C   -0.407084
    30  O    0.101459
    31  C   -0.192897
    34  C    0.556707
    37  C   -0.092692
 Electronic spatial extent (au):  <R**2>=          11863.6758
 Charge=              0.0000 electrons
 Dipole moment (field-independent basis, Debye):
    X=             -8.3081    Y=              3.9461    Z=              0.0955  Tot=              9.1981
 Quadrupole moment (field-independent basis, Debye-Ang):
   XX=            -89.6335   YY=           -121.4655   ZZ=           -131.4507
   XY=              8.8087   XZ=              0.7826   YZ=             -1.4196
 Traceless Quadrupole moment (field-independent basis, Debye-Ang):
   XX=             24.5497   YY=             -7.2823   ZZ=            -17.2674
   XY=              8.8087   XZ=              0.7826   YZ=             -1.4196
 Octapole moment (field-independent basis, Debye-Ang**2):
  XXX=           -274.8231  YYY=              8.7411  ZZZ=              0.6850  XYY=            -47.1384
  XXY=             78.4589  XXZ=             12.1677  XZZ=              1.2396  YZZ=              5.1928
  YYZ=              4.4936  XYZ=            -12.0977
 Hexadecapole moment (field-independent basis, Debye-Ang**3):
 XXXX=         -11983.9284 YYYY=          -1411.7191 ZZZZ=           -395.0856 XXXY=              8.4955
 XXXZ=             50.3156 YYYX=            -11.4679 YYYZ=            -14.8589 ZZZX=              6.8623
 ZZZY=             -3.6282 XXYY=          -2501.6066 XXZZ=          -2573.5944 YYZZ=           -314.1437
 XXYZ=             22.1336 YYXZ=            -16.4144 ZZXY=              4.5621
 N-N= 1.472997015707D+03 E-N=-5.046455646404D+03  KE= 8.986323748758D+02
 No NMR shielding tensors so no spin-rotation constants.
 Leave Link  601 at Fri Jul 21 22:23:04 2017, MaxMem=  3758096384 cpu:         2.1
 (Enter /share/apps/gaussian/g09_D01/g09/l9999.exe)
 1\1\GINC-NXV32\FOpt\RwB97XD TD-FC\6-311++G(d,p)\C18H19N1O2\BTX008\21-J
 ul-2017\0\\#p wb97xd 6-311++G** opt td=(nstates=1,root=1)\\rotated E*\
 \0,1\H,1.1645020888,16.3538745325,4.9955953228\H,0.5009842125,16.73037
 88477,7.344744519\C,0.6776630606,17.168652528,4.4768908988\C,1.2936546
 151,17.483793997,7.2239714278\C,0.4530311475,18.3970897086,5.124976731
 8\C,0.2866188719,16.9732245739,3.1655714092\N,0.8706201162,18.61636753
 33,6.4281588396\H,2.1650380675,16.995601165,6.7788014397\H,1.588397033
 4,17.8326700178,8.2132541741\C,-0.2089496486,19.3970084947,4.385682531
 6\C,-0.3554619823,17.9701075712,2.4148056898\H,0.4836386149,16.0116910
 941,2.701410929\C,0.3810703075,19.7823503651,7.1321565755\C,-0.5943925
 673,19.1858683157,3.0755841573\H,-0.430552108,20.3546496562,4.83735370
 98\C,-0.7328781498,17.7048323571,1.0452745784\H,0.6902944078,20.702307
 4745,6.6282526041\H,-0.7149651792,19.7926848974,7.2272495155\H,0.81175
 65401,19.8015951819,8.1328922872\H,-1.1052247265,19.9917451632,2.56012
 36127\H,-0.5527354532,16.6958832506,0.6870026789\C,-1.2687865421,18.61
 06560698,0.1549255267\C,-1.5823636456,18.2921004495,-1.1600956731\H,-1
 .4652566299,19.6393063173,0.4388566924\C,-2.1917762073,19.2070568795,-
 2.1548818804\O,-1.4462965806,17.1400008808,-1.7379454028\C,-1.57553518
 25,19.3606579131,-3.4216419064\C,-3.3633149069,19.93208125,-1.87962909
 07\C,-2.0490932135,20.3349148232,-4.3051691618\O,-0.5147201321,18.6440
 451597,-3.8011114768\C,-3.8176641671,20.8840426246,-2.7632081653\H,-3.
 8705399988,19.7618118299,-0.9375720011\H,-1.5346440159,20.4557077063,-
 5.251445171\C,-3.1580799832,21.0989751736,-3.9916244711\H,-0.422849678
 2,17.8834407904,-3.2047504018\H,-4.6894413353,21.4796265812,-2.5146767
 808\C,-3.6777415297,22.137658264,-4.9451821385\H,-4.7334315909,21.9625
 491963,-5.1699531153\H,-3.5992423829,23.1360150661,-4.5046500396\H,-3.
 1216721674,22.13514476,-5.8834440002\\Version=ES64L-G09RevD.01\State=1
 -A\HF=-902.4576665\RMSD=4.099e-09\RMSF=7.994e-06\Dipole=-0.521224,1.26
 63604,0.6522301\PG=C01 [X(C18H19N1O2)]\\@


 MY GROUP MEETINGS AREN'T VERY STRUCTURED.
     -- PROF. M. S. GORDON, OCT. 5, 1984
 Job cpu time:       9 days 18 hours 50 minutes 54.9 seconds.
 File lengths (MBytes):  RWF=    336 Int=      0 D2E=      0 Chk=     51 Scr=      1
 Normal termination of Gaussian 09 at Fri Jul 21 22:23:04 2017.
