 Entering Gaussian System, Link 0=g09
 Input=methyl_optS1.com
 Output=methyl_optS1.out
 Initial command:
 /share/apps/gaussian/g09/l1.exe /tmp/3520768.1.chemistry.q/Gau-22676.inp -scrdir=/tmp/3520768.1.chemistry.q/
 Entering Link 1 = /share/apps/gaussian/g09/l1.exe PID=     22677.
  
 Copyright (c) 1988,1990,1992,1993,1995,1998,2003,2009,2011,
            Gaussian, Inc.  All Rights Reserved.
  
 This is part of the Gaussian(R) 09 program.  It is based on
 the Gaussian(R) 03 system (copyright 2003, Gaussian, Inc.),
 the Gaussian(R) 98 system (copyright 1998, Gaussian, Inc.),
 the Gaussian(R) 94 system (copyright 1995, Gaussian, Inc.),
 the Gaussian 92(TM) system (copyright 1992, Gaussian, Inc.),
 the Gaussian 90(TM) system (copyright 1990, Gaussian, Inc.),
 the Gaussian 88(TM) system (copyright 1988, Gaussian, Inc.),
 the Gaussian 86(TM) system (copyright 1986, Carnegie Mellon
 University), and the Gaussian 82(TM) system (copyright 1983,
 Carnegie Mellon University). Gaussian is a federally registered
 trademark of Gaussian, Inc.
  
 This software contains proprietary and confidential information,
 including trade secrets, belonging to Gaussian, Inc.
  
 This software is provided under written license and may be
 used, copied, transmitted, or stored only in accord with that
 written license.
  
 The following legend is applicable only to US Government
 contracts under FAR:
  
                    RESTRICTED RIGHTS LEGEND
  
 Use, reproduction and disclosure by the US Government is
 subject to restrictions as set forth in subparagraphs (a)
 and (c) of the Commercial Computer Software - Restricted
 Rights clause in FAR 52.227-19.
  
 Gaussian, Inc.
 340 Quinnipiac St., Bldg. 40, Wallingford CT 06492
  
  
 ---------------------------------------------------------------
 Warning -- This program may not be used in any manner that
 competes with the business of Gaussian, Inc. or will provide
 assistance to any competitor of Gaussian, Inc.  The licensee
 of this program is prohibited from giving any competitor of
 Gaussian, Inc. access to this program.  By using this program,
 the user acknowledges that Gaussian, Inc. is engaged in the
 business of creating and licensing software in the field of
 computational chemistry and represents and warrants to the
 licensee that it is not a competitor of Gaussian, Inc. and that
 it will not use this program in any manner prohibited above.
 ---------------------------------------------------------------
  

 Cite this work as:
 Gaussian 09, Revision C.01,
 M. J. Frisch, G. W. Trucks, H. B. Schlegel, G. E. Scuseria, 
 M. A. Robb, J. R. Cheeseman, G. Scalmani, V. Barone, B. Mennucci, 
 G. A. Petersson, H. Nakatsuji, M. Caricato, X. Li, H. P. Hratchian, 
 A. F. Izmaylov, J. Bloino, G. Zheng, J. L. Sonnenberg, M. Hada, 
 M. Ehara, K. Toyota, R. Fukuda, J. Hasegawa, M. Ishida, T. Nakajima, 
 Y. Honda, O. Kitao, H. Nakai, T. Vreven, J. A. Montgomery, Jr., 
 J. E. Peralta, F. Ogliaro, M. Bearpark, J. J. Heyd, E. Brothers, 
 K. N. Kudin, V. N. Staroverov, T. Keith, R. Kobayashi, J. Normand, 
 K. Raghavachari, A. Rendell, J. C. Burant, S. S. Iyengar, J. Tomasi, 
 M. Cossi, N. Rega, J. M. Millam, M. Klene, J. E. Knox, J. B. Cross, 
 V. Bakken, C. Adamo, J. Jaramillo, R. Gomperts, R. E. Stratmann, 
 O. Yazyev, A. J. Austin, R. Cammi, C. Pomelli, J. W. Ochterski, 
 R. L. Martin, K. Morokuma, V. G. Zakrzewski, G. A. Voth, 
 P. Salvador, J. J. Dannenberg, S. Dapprich, A. D. Daniels, 
 O. Farkas, J. B. Foresman, J. V. Ortiz, J. Cioslowski, 
 and D. J. Fox, Gaussian, Inc., Wallingford CT, 2010.
 
 ******************************************
 Gaussian 09:  EM64L-G09RevC.01 23-Sep-2011
                26-Oct-2015 
 ******************************************
 %chk=methyl_optS1
 %mem=4GB
 %nproc=4
 Will use up to    4 processors via shared memory.
 -----------------------------------------------------------------
 #wb97xd 6-311++g** opt td(nstates=1,root=1) scf(maxcycle=500,xqc)
 -----------------------------------------------------------------
 1/14=-1,18=20,19=15,26=3,38=1/1,3;
 2/9=110,12=2,17=6,18=5,40=1/2;
 3/5=4,6=6,7=1111,11=2,16=1,25=1,30=1,71=1,74=-58/1,2,8,3;
 4//1;
 5/5=2,7=500,8=3,13=1,38=5/2,8;
 8/6=1,10=2,107=1,108=1/1;
 9/8=1,15=2,41=1,42=1/14;
 10/5=4/2;
 6/7=2,8=2,9=2,10=2/1;
 7/12=6,13=5,14=1/1,2,3,16;
 1/14=-1,18=20,19=15/3(2);
 2/9=110/2;
 99//99;
 2/9=110/2;
 3/5=4,6=6,7=1111,11=2,16=1,25=1,30=1,71=1,74=-58/1,2,8,3;
 4/5=5,16=3/1;
 5/5=2,7=500,8=3,13=1,38=5/2,8;
 8/6=1,10=2,107=1,108=1/1;
 9/8=1,15=2,41=1,42=1,49=4/14;
 10/5=4/2;
 7/12=6,13=5,14=1/1,2,3,16;
 1/14=-1,18=20,19=15/3(-8);
 2/9=110/2;
 6/7=2,8=2,9=2,10=2/1;
 99//99;
 -------
 GeomOpt
 -------
 Charge =  0 Multiplicity = 1
 Symbolic Z-Matrix:
 H                    -0.84263   15.64255   5.1619 
 H                    -2.00924   15.34391   7.25345 
 C                    -1.23006   16.34483   4.69216 
 C                    -1.61308   16.17524   7.52246 
 C                    -1.97112   17.31008   5.38315 
 C                    -1.06688   16.41887   3.33471 
 N                    -2.1674    17.2494   6.73305 
 H                    -0.66357   16.1361   7.38633 
 H                    -1.79641   16.33257   8.45048 
 C                    -2.50034   18.36303   4.62118 
 C                    -1.6178    17.44588   2.56604 
 H                    -0.56973   15.75887   2.90829 
 C                    -3.03918   18.18352   7.4034 
 C                    -2.32348   18.41961   3.26384 
 H                    -2.98025   19.03607   5.0463 
 C                    -1.46252   17.44918   1.1268 
 H                    -2.71599   19.07694   7.2675 
 H                    -3.92642   18.10556   7.04602 
 H                    -3.05475   17.98925   8.34352 
 H                    -2.68813   19.13352   2.7927 
 H                    -0.93775   16.76796   0.77353 
 C                    -1.97772   18.30754   0.24254 
 C                    -1.71863   18.19704  -1.18482 
 H                    -2.51888   18.99835   0.54882 
 C                    -2.28009   19.15568  -2.13228 
 O                    -0.97938   17.27785  -1.61037 
 C                    -2.01074   19.03906  -3.50843 
 C                    -3.06664   20.25312  -1.73849 
 C                    -2.51327   19.95589  -4.4143 
 O                    -1.2389    18.04049  -3.99426 
 C                    -3.55463   21.16099  -2.65042 
 H                    -3.26236   20.36896  -0.83619 
 H                    -2.3362    19.84398  -5.32071 
 C                    -3.26897   21.03021  -4.00441 
 H                    -1.00038   17.55543  -3.37825 
 H                    -4.08075   21.87003  -2.35732 
 C                    -3.77435   22.04748  -4.99444 
 H                    -4.37552   21.62325  -5.61024 
 H                    -4.23808   22.74709  -4.52665 
 H                    -3.03323   22.42173  -5.47628 
 

 GradGradGradGradGradGradGradGradGradGradGradGradGradGradGradGradGradGrad
 Berny optimization.
 Initialization pass.
                           ----------------------------
                           !    Initial Parameters    !
                           ! (Angstroms and Degrees)  !
 --------------------------                            --------------------------
 ! Name  Definition              Value          Derivative Info.                !
 --------------------------------------------------------------------------------
 ! R1    R(1,3)                  0.9295         estimate D2E/DX2                !
 ! R2    R(2,4)                  0.9594         estimate D2E/DX2                !
 ! R3    R(3,5)                  1.3994         estimate D2E/DX2                !
 ! R4    R(3,6)                  1.3692         estimate D2E/DX2                !
 ! R5    R(4,7)                  1.4437         estimate D2E/DX2                !
 ! R6    R(4,8)                  0.96           estimate D2E/DX2                !
 ! R7    R(4,9)                  0.9589         estimate D2E/DX2                !
 ! R8    R(5,7)                  1.3654         estimate D2E/DX2                !
 ! R9    R(5,10)                 1.4033         estimate D2E/DX2                !
 ! R10   R(6,11)                 1.3961         estimate D2E/DX2                !
 ! R11   R(6,12)                 0.9298         estimate D2E/DX2                !
 ! R12   R(7,13)                 1.4429         estimate D2E/DX2                !
 ! R13   R(10,14)                1.37           estimate D2E/DX2                !
 ! R14   R(10,15)                0.9295         estimate D2E/DX2                !
 ! R15   R(11,14)                1.3903         estimate D2E/DX2                !
 ! R16   R(11,16)                1.4476         estimate D2E/DX2                !
 ! R17   R(13,17)                0.9597         estimate D2E/DX2                !
 ! R18   R(13,18)                0.9597         estimate D2E/DX2                !
 ! R19   R(13,19)                0.9601         estimate D2E/DX2                !
 ! R20   R(14,20)                0.9298         estimate D2E/DX2                !
 ! R21   R(16,21)                0.9296         estimate D2E/DX2                !
 ! R22   R(16,22)                1.3357         estimate D2E/DX2                !
 ! R23   R(22,23)                1.4549         estimate D2E/DX2                !
 ! R24   R(22,24)                0.9295         estimate D2E/DX2                !
 ! R25   R(23,25)                1.4601         estimate D2E/DX2                !
 ! R26   R(23,26)                1.254          estimate D2E/DX2                !
 ! R27   R(25,27)                1.4071         estimate D2E/DX2                !
 ! R28   R(25,28)                1.4065         estimate D2E/DX2                !
 ! R29   R(27,29)                1.3834         estimate D2E/DX2                !
 ! R30   R(27,30)                1.3524         estimate D2E/DX2                !
 ! R31   R(28,31)                1.3762         estimate D2E/DX2                !
 ! R32   R(28,32)                0.9305         estimate D2E/DX2                !
 ! R33   R(29,33)                0.9303         estimate D2E/DX2                !
 ! R34   R(29,34)                1.376          estimate D2E/DX2                !
 ! R35   R(30,35)                0.8195         estimate D2E/DX2                !
 ! R36   R(31,34)                1.39           estimate D2E/DX2                !
 ! R37   R(31,36)                0.9303         estimate D2E/DX2                !
 ! R38   R(34,37)                1.5068         estimate D2E/DX2                !
 ! R39   R(37,38)                0.9595         estimate D2E/DX2                !
 ! R40   R(37,39)                0.9609         estimate D2E/DX2                !
 ! R41   R(37,40)                0.9599         estimate D2E/DX2                !
 ! A1    A(1,3,5)              119.4942         estimate D2E/DX2                !
 ! A2    A(1,3,6)              119.4858         estimate D2E/DX2                !
 ! A3    A(5,3,6)              121.0201         estimate D2E/DX2                !
 ! A4    A(2,4,7)              109.4421         estimate D2E/DX2                !
 ! A5    A(2,4,8)              109.4706         estimate D2E/DX2                !
 ! A6    A(2,4,9)              109.5469         estimate D2E/DX2                !
 ! A7    A(7,4,8)              109.4239         estimate D2E/DX2                !
 ! A8    A(7,4,9)              109.4927         estimate D2E/DX2                !
 ! A9    A(8,4,9)              109.451          estimate D2E/DX2                !
 ! A10   A(3,5,7)              122.2505         estimate D2E/DX2                !
 ! A11   A(3,5,10)             116.688          estimate D2E/DX2                !
 ! A12   A(7,5,10)             121.059          estimate D2E/DX2                !
 ! A13   A(3,6,11)             122.5881         estimate D2E/DX2                !
 ! A14   A(3,6,12)             118.6848         estimate D2E/DX2                !
 ! A15   A(11,6,12)            118.7271         estimate D2E/DX2                !
 ! A16   A(4,7,5)              121.228          estimate D2E/DX2                !
 ! A17   A(4,7,13)             117.3633         estimate D2E/DX2                !
 ! A18   A(5,7,13)             121.1566         estimate D2E/DX2                !
 ! A19   A(5,10,14)            121.3497         estimate D2E/DX2                !
 ! A20   A(5,10,15)            119.3177         estimate D2E/DX2                !
 ! A21   A(14,10,15)           119.3325         estimate D2E/DX2                !
 ! A22   A(6,11,14)            116.0498         estimate D2E/DX2                !
 ! A23   A(6,11,16)            120.4476         estimate D2E/DX2                !
 ! A24   A(14,11,16)           123.4934         estimate D2E/DX2                !
 ! A25   A(7,13,17)            109.4758         estimate D2E/DX2                !
 ! A26   A(7,13,18)            109.4497         estimate D2E/DX2                !
 ! A27   A(7,13,19)            109.4946         estimate D2E/DX2                !
 ! A28   A(17,13,18)           109.5248         estimate D2E/DX2                !
 ! A29   A(17,13,19)           109.4188         estimate D2E/DX2                !
 ! A30   A(18,13,19)           109.4638         estimate D2E/DX2                !
 ! A31   A(10,14,11)           122.2665         estimate D2E/DX2                !
 ! A32   A(10,14,20)           118.8876         estimate D2E/DX2                !
 ! A33   A(11,14,20)           118.8459         estimate D2E/DX2                !
 ! A34   A(11,16,21)           115.8929         estimate D2E/DX2                !
 ! A35   A(11,16,22)           128.1908         estimate D2E/DX2                !
 ! A36   A(21,16,22)           115.9162         estimate D2E/DX2                !
 ! A37   A(16,22,23)           122.1401         estimate D2E/DX2                !
 ! A38   A(16,22,24)           118.9502         estimate D2E/DX2                !
 ! A39   A(23,22,24)           118.9096         estimate D2E/DX2                !
 ! A40   A(22,23,25)           121.2167         estimate D2E/DX2                !
 ! A41   A(22,23,26)           119.5769         estimate D2E/DX2                !
 ! A42   A(25,23,26)           119.1924         estimate D2E/DX2                !
 ! A43   A(23,25,27)           120.4377         estimate D2E/DX2                !
 ! A44   A(23,25,28)           123.0703         estimate D2E/DX2                !
 ! A45   A(27,25,28)           116.4586         estimate D2E/DX2                !
 ! A46   A(25,27,29)           121.0615         estimate D2E/DX2                !
 ! A47   A(25,27,30)           121.4522         estimate D2E/DX2                !
 ! A48   A(29,27,30)           117.4806         estimate D2E/DX2                !
 ! A49   A(25,28,31)           121.8378         estimate D2E/DX2                !
 ! A50   A(25,28,32)           119.0952         estimate D2E/DX2                !
 ! A51   A(31,28,32)           119.067          estimate D2E/DX2                !
 ! A52   A(27,29,33)           119.2844         estimate D2E/DX2                !
 ! A53   A(27,29,34)           121.4601         estimate D2E/DX2                !
 ! A54   A(33,29,34)           119.2555         estimate D2E/DX2                !
 ! A55   A(27,30,35)           109.4575         estimate D2E/DX2                !
 ! A56   A(28,31,34)           120.7            estimate D2E/DX2                !
 ! A57   A(28,31,36)           119.6403         estimate D2E/DX2                !
 ! A58   A(34,31,36)           119.6597         estimate D2E/DX2                !
 ! A59   A(29,34,31)           118.4584         estimate D2E/DX2                !
 ! A60   A(29,34,37)           121.0378         estimate D2E/DX2                !
 ! A61   A(31,34,37)           120.5035         estimate D2E/DX2                !
 ! A62   A(34,37,38)           109.4719         estimate D2E/DX2                !
 ! A63   A(34,37,39)           109.4839         estimate D2E/DX2                !
 ! A64   A(34,37,40)           109.5157         estimate D2E/DX2                !
 ! A65   A(38,37,39)           109.3896         estimate D2E/DX2                !
 ! A66   A(38,37,40)           109.5093         estimate D2E/DX2                !
 ! A67   A(39,37,40)           109.4568         estimate D2E/DX2                !
 ! D1    D(1,3,5,7)             -1.0474         estimate D2E/DX2                !
 ! D2    D(1,3,5,10)           178.3833         estimate D2E/DX2                !
 ! D3    D(6,3,5,7)            178.9504         estimate D2E/DX2                !
 ! D4    D(6,3,5,10)            -1.6188         estimate D2E/DX2                !
 ! D5    D(1,3,6,11)          -179.8826         estimate D2E/DX2                !
 ! D6    D(1,3,6,12)             0.1361         estimate D2E/DX2                !
 ! D7    D(5,3,6,11)             0.1195         estimate D2E/DX2                !
 ! D8    D(5,3,6,12)          -179.8618         estimate D2E/DX2                !
 ! D9    D(2,4,7,5)            -64.1244         estimate D2E/DX2                !
 ! D10   D(2,4,7,13)           110.1706         estimate D2E/DX2                !
 ! D11   D(8,4,7,5)             55.8281         estimate D2E/DX2                !
 ! D12   D(8,4,7,13)          -129.8769         estimate D2E/DX2                !
 ! D13   D(9,4,7,5)            175.7876         estimate D2E/DX2                !
 ! D14   D(9,4,7,13)            -9.9174         estimate D2E/DX2                !
 ! D15   D(3,5,7,4)              0.0493         estimate D2E/DX2                !
 ! D16   D(3,5,7,13)          -174.0292         estimate D2E/DX2                !
 ! D17   D(10,5,7,4)          -179.3569         estimate D2E/DX2                !
 ! D18   D(10,5,7,13)            6.5645         estimate D2E/DX2                !
 ! D19   D(3,5,10,14)            1.5175         estimate D2E/DX2                !
 ! D20   D(3,5,10,15)         -178.4455         estimate D2E/DX2                !
 ! D21   D(7,5,10,14)         -179.0446         estimate D2E/DX2                !
 ! D22   D(7,5,10,15)            0.9925         estimate D2E/DX2                !
 ! D23   D(3,6,11,14)            1.4841         estimate D2E/DX2                !
 ! D24   D(3,6,11,16)         -177.4513         estimate D2E/DX2                !
 ! D25   D(12,6,11,14)        -178.5346         estimate D2E/DX2                !
 ! D26   D(12,6,11,16)           2.53           estimate D2E/DX2                !
 ! D27   D(4,7,13,17)          125.6076         estimate D2E/DX2                !
 ! D28   D(4,7,13,18)         -114.3372         estimate D2E/DX2                !
 ! D29   D(4,7,13,19)            5.6548         estimate D2E/DX2                !
 ! D30   D(5,7,13,17)          -60.0931         estimate D2E/DX2                !
 ! D31   D(5,7,13,18)           59.9621         estimate D2E/DX2                !
 ! D32   D(5,7,13,19)          179.9541         estimate D2E/DX2                !
 ! D33   D(5,10,14,11)           0.1004         estimate D2E/DX2                !
 ! D34   D(5,10,14,20)        -179.9252         estimate D2E/DX2                !
 ! D35   D(15,10,14,11)       -179.9367         estimate D2E/DX2                !
 ! D36   D(15,10,14,20)          0.0378         estimate D2E/DX2                !
 ! D37   D(6,11,14,10)          -1.5881         estimate D2E/DX2                !
 ! D38   D(6,11,14,20)         178.4375         estimate D2E/DX2                !
 ! D39   D(16,11,14,10)        177.3114         estimate D2E/DX2                !
 ! D40   D(16,11,14,20)         -2.6631         estimate D2E/DX2                !
 ! D41   D(6,11,16,21)          -3.7739         estimate D2E/DX2                !
 ! D42   D(6,11,16,22)         176.2449         estimate D2E/DX2                !
 ! D43   D(14,11,16,21)        177.373          estimate D2E/DX2                !
 ! D44   D(14,11,16,22)         -2.6082         estimate D2E/DX2                !
 ! D45   D(11,16,22,23)        179.096          estimate D2E/DX2                !
 ! D46   D(11,16,22,24)         -0.8591         estimate D2E/DX2                !
 ! D47   D(21,16,22,23)         -0.8852         estimate D2E/DX2                !
 ! D48   D(21,16,22,24)        179.1597         estimate D2E/DX2                !
 ! D49   D(16,22,23,25)       -179.3011         estimate D2E/DX2                !
 ! D50   D(16,22,23,26)         -0.6705         estimate D2E/DX2                !
 ! D51   D(24,22,23,25)          0.654          estimate D2E/DX2                !
 ! D52   D(24,22,23,26)        179.2846         estimate D2E/DX2                !
 ! D53   D(22,23,25,27)        179.5256         estimate D2E/DX2                !
 ! D54   D(22,23,25,28)          1.7038         estimate D2E/DX2                !
 ! D55   D(26,23,25,27)          0.8899         estimate D2E/DX2                !
 ! D56   D(26,23,25,28)       -176.9319         estimate D2E/DX2                !
 ! D57   D(23,25,27,29)       -178.6543         estimate D2E/DX2                !
 ! D58   D(23,25,27,30)          0.4625         estimate D2E/DX2                !
 ! D59   D(28,25,27,29)         -0.6932         estimate D2E/DX2                !
 ! D60   D(28,25,27,30)        178.4237         estimate D2E/DX2                !
 ! D61   D(23,25,28,31)        178.2921         estimate D2E/DX2                !
 ! D62   D(23,25,28,32)         -1.682          estimate D2E/DX2                !
 ! D63   D(27,25,28,31)          0.3898         estimate D2E/DX2                !
 ! D64   D(27,25,28,32)       -179.5842         estimate D2E/DX2                !
 ! D65   D(25,27,29,33)       -178.5897         estimate D2E/DX2                !
 ! D66   D(25,27,29,34)          1.4343         estimate D2E/DX2                !
 ! D67   D(30,27,29,33)          2.2595         estimate D2E/DX2                !
 ! D68   D(30,27,29,34)       -177.7166         estimate D2E/DX2                !
 ! D69   D(25,27,30,35)          1.2447         estimate D2E/DX2                !
 ! D70   D(29,27,30,35)       -179.608          estimate D2E/DX2                !
 ! D71   D(25,28,31,34)         -0.7967         estimate D2E/DX2                !
 ! D72   D(25,28,31,36)        179.2474         estimate D2E/DX2                !
 ! D73   D(32,28,31,34)        179.1774         estimate D2E/DX2                !
 ! D74   D(32,28,31,36)         -0.7785         estimate D2E/DX2                !
 ! D75   D(27,29,34,31)         -1.784          estimate D2E/DX2                !
 ! D76   D(27,29,34,37)        178.0117         estimate D2E/DX2                !
 ! D77   D(33,29,34,31)        178.24           estimate D2E/DX2                !
 ! D78   D(33,29,34,37)         -1.9643         estimate D2E/DX2                !
 ! D79   D(28,31,34,29)          1.4623         estimate D2E/DX2                !
 ! D80   D(28,31,34,37)       -178.3345         estimate D2E/DX2                !
 ! D81   D(36,31,34,29)       -178.5818         estimate D2E/DX2                !
 ! D82   D(36,31,34,37)          1.6214         estimate D2E/DX2                !
 ! D83   D(29,34,37,38)         63.2048         estimate D2E/DX2                !
 ! D84   D(29,34,37,39)       -176.8869         estimate D2E/DX2                !
 ! D85   D(29,34,37,40)        -56.8695         estimate D2E/DX2                !
 ! D86   D(31,34,37,38)       -117.0036         estimate D2E/DX2                !
 ! D87   D(31,34,37,39)          2.9046         estimate D2E/DX2                !
 ! D88   D(31,34,37,40)        122.922          estimate D2E/DX2                !
 --------------------------------------------------------------------------------
 Trust Radius=3.00D-01 FncErr=1.00D-07 GrdErr=1.00D-06
 Number of steps in this run=    206 maximum allowed number of steps=    240.
 GradGradGradGradGradGradGradGradGradGradGradGradGradGradGradGradGradGrad

                          Input orientation:                          
 ---------------------------------------------------------------------
 Center     Atomic      Atomic             Coordinates (Angstroms)
 Number     Number       Type             X           Y           Z
 ---------------------------------------------------------------------
      1          1           0       -0.842630   15.642550    5.161900
      2          1           0       -2.009240   15.343910    7.253450
      3          6           0       -1.230060   16.344830    4.692160
      4          6           0       -1.613080   16.175240    7.522460
      5          6           0       -1.971120   17.310080    5.383150
      6          6           0       -1.066880   16.418870    3.334710
      7          7           0       -2.167400   17.249400    6.733050
      8          1           0       -0.663570   16.136100    7.386330
      9          1           0       -1.796410   16.332570    8.450480
     10          6           0       -2.500340   18.363030    4.621180
     11          6           0       -1.617800   17.445880    2.566040
     12          1           0       -0.569730   15.758870    2.908290
     13          6           0       -3.039180   18.183520    7.403400
     14          6           0       -2.323480   18.419610    3.263840
     15          1           0       -2.980250   19.036070    5.046300
     16          6           0       -1.462520   17.449180    1.126800
     17          1           0       -2.715990   19.076940    7.267500
     18          1           0       -3.926420   18.105560    7.046020
     19          1           0       -3.054750   17.989250    8.343520
     20          1           0       -2.688130   19.133520    2.792700
     21          1           0       -0.937750   16.767960    0.773530
     22          6           0       -1.977720   18.307540    0.242540
     23          6           0       -1.718630   18.197040   -1.184820
     24          1           0       -2.518880   18.998350    0.548820
     25          6           0       -2.280090   19.155680   -2.132280
     26          8           0       -0.979380   17.277850   -1.610370
     27          6           0       -2.010740   19.039060   -3.508430
     28          6           0       -3.066640   20.253120   -1.738490
     29          6           0       -2.513270   19.955890   -4.414300
     30          8           0       -1.238900   18.040490   -3.994260
     31          6           0       -3.554630   21.160990   -2.650420
     32          1           0       -3.262360   20.368960   -0.836190
     33          1           0       -2.336200   19.843980   -5.320710
     34          6           0       -3.268970   21.030210   -4.004410
     35          1           0       -1.000380   17.555430   -3.378250
     36          1           0       -4.080750   21.870030   -2.357320
     37          6           0       -3.774350   22.047480   -4.994440
     38          1           0       -4.375520   21.623250   -5.610240
     39          1           0       -4.238080   22.747090   -4.526650
     40          1           0       -3.033230   22.421730   -5.476280
 ---------------------------------------------------------------------
                    Distance matrix (angstroms):
                    1          2          3          4          5
     1  H    0.000000
     2  H    2.413451   0.000000
     3  C    0.929492   2.858176   0.000000
     4  C    2.539605   0.959385   2.861130   0.000000
     5  C    2.025610   2.713909   1.399409   2.448000   0.000000
     6  C    1.997895   4.171343   1.369226   4.230241   2.409982
     7  N    2.608734   1.981596   2.421174   1.443696   1.365444
     8  H    2.285551   1.567179   2.760984   0.960017   2.664704
     9  H    3.492933   1.567044   3.800773   0.958949   3.224060
    10  C    3.231314   4.035481   2.385745   3.740465   1.403345
    11  C    3.254440   5.152021   2.425498   5.116703   2.842426
    12  H    2.273051   4.596172   1.990371   4.748948   3.239611
    13  C    4.038030   3.024342   3.742261   2.465994   2.446438
    14  C    3.675270   5.047342   2.745975   4.865975   2.417993
    15  H    4.012326   4.409809   3.229761   4.023042   2.027524
    16  C    4.464326   6.501300   3.739708   6.523041   4.288885
    17  H    4.442754   3.799369   4.037919   3.114687   2.688383
    18  H    4.373338   3.368281   3.988883   3.050356   2.687215
    19  H    4.530252   3.046173   4.400686   2.458289   3.224797
    20  H    4.604981   5.892396   3.675692   5.681354   3.247994
    21  H    4.531378   6.720519   3.952233   6.808483   4.755034
    22  C    5.708827   7.611633   4.920401   7.594531   5.236491
    23  C    6.897365   8.912306   6.181284   8.939549   6.632396
    24  H    5.945731   7.652890   5.086206   7.577736   5.149859
    25  C    8.222739  10.133848   7.454960  10.126299   7.744894
    26  O    6.968253   9.130610   6.376147   9.220949   7.063562
    27  C    9.384849  11.378585   8.667065  11.403514   9.058208
    28  C    8.591796  10.299195   7.746032  10.222873   7.783277
    29  C   10.634827  12.556305   9.879980  12.553481  10.162887
    30  O    9.473247  11.592064   8.850380  11.672789   9.434271
    31  C    9.941854  11.589361   9.083639  11.494121   9.048495
    32  H    8.010688   9.605400   7.133479   9.496022   7.050123
    33  H   11.391570  13.359155  10.664200  13.376456  11.005751
    34  C   10.905744  12.675186  10.086638  12.616713  10.180868
    35  H    8.753180  10.906038   8.163934  11.004808   8.818427
    36  H   10.286185  11.800352   9.399438  11.667480   9.228139
    37  C   12.359990  14.073531  11.524923  13.993823  11.549414
    38  H   12.817530  14.508753  11.995628  14.483774  12.051523
    39  H   12.484854  14.090619  11.619965  13.973578  11.528414
    40  H   12.803393  14.601031  11.982375  14.491470  12.049243
                    6          7          8          9         10
     6  C    0.000000
     7  N    3.667375   0.000000
     8  H    4.081451   1.981847   0.000000
     9  H    5.168246   1.981862   1.566634   0.000000
    10  C    2.736708   2.410605   3.997374   4.391107   0.000000
    11  C    1.396107   4.207688   5.085398   5.991494   2.417362
    12  H    0.929834   4.404886   4.494880   5.705238   3.666456
    13  C    4.853679   1.442896   3.136199   2.463102   2.839599
    14  C    2.363689   3.664583   4.996463   5.615583   1.369983
    15  H    3.666096   2.588057   4.387775   4.505422   0.929529
    16  C    2.468387   5.653920   6.445480   7.415834   3.758043
    17  H    5.025111   1.981537   3.588187   3.126761   2.749397
    18  H    4.979530   1.981189   3.826326   3.106919   2.824862
    19  H    5.613011   1.982015   3.173030   2.083134   3.781917
    20  H    3.208045   4.398571   5.846777   6.375811   1.993053
    21  H    2.588084   6.104073   6.648575   7.737081   4.448634
    22  C    3.736070   6.578933   7.581285   8.444149   4.410068
    23  C    4.900288   7.986995   8.878358   9.814342   5.860739
    24  H    4.064874   6.436386   7.641086   8.370459   4.121661
    25  C    6.232976   9.068665  10.116073  10.963517   6.803383
    26  O    5.019892   8.427625   9.074356  10.138136   6.505625
    27  C    7.388155  10.397853  11.355080  12.263220   8.172349
    28  C    6.666174   9.033159  10.294996  10.990874   6.658719
    29  C    8.640006  11.476416  12.540616  13.384502   9.174817
    30  O    7.508198  10.796440  11.553161  12.573757   8.713270
    31  C    8.031089  10.260334  11.590690  12.232537   7.862333
    32  H    6.149776   8.259781   9.606282  10.231505   5.864070
    33  H    9.394618  12.330996  13.342224  14.222062  10.052927
    34  C    8.942949  11.436828  12.668440  13.392555   9.061205
    35  H    6.808819  10.183024  10.862970  11.918385   8.178813
    36  H    8.437877  10.375257  11.810749  12.356788   7.968451
    37  C   10.410878  12.772544  14.067865  14.742399  10.375858
    38  H   10.864842  13.280179  14.587605  15.242931  10.900793
    39  H   10.578462  12.700124  14.085503  14.680386  10.291867
    40  H   10.841329  13.287979  14.511071  15.249991  10.895674
                   11         12         13         14         15
    11  C    0.000000
    12  H    2.015338   0.000000
    13  C    5.095536   5.673017   0.000000
    14  C    1.390345   3.206492   4.207603   0.000000
    15  H    3.246023   4.595839   2.507236   1.997131   0.000000
    16  C    1.447596   2.613031   6.513127   2.499985   4.492683
    17  H    5.096087   5.883769   0.959750   4.076204   2.237238
    18  H    5.082826   5.821953   0.959684   4.119822   2.399993
    19  H    5.978240   6.379000   0.960109   5.150060   3.460208
    20  H    2.011246   3.986131   4.720624   0.929844   2.274542
    21  H    2.033503   2.389749   7.097534   3.293909   5.250971
    22  C    2.504127   3.947705   7.240165   3.043085   4.961041
    23  C    3.826664   4.900836   8.689163   4.495104   6.412684
    24  H    2.700238   4.456514   6.922422   2.782886   4.521240
    25  C    5.043437   6.314348   9.615119   5.446264   7.213636
    26  O    4.228264   4.784705   9.290375   5.183449   7.169803
    27  C    6.292202   7.349180  10.993529   6.807728   8.609493
    28  C    5.339355   6.930037   9.373268   5.379345   6.893624
    29  C    7.471758   8.660984  11.961434   7.832625   9.516674
    30  O    6.598080   7.300601  11.539849   7.348473   9.260411
    31  C    6.690651   8.306129  10.498110   6.633956   8.005292
    32  H    4.777462   6.521067   8.527415   4.635915   6.038201
    33  H    8.274528   9.355479  12.851237   8.701925  10.418369
    34  C    7.664502   9.102656  11.759871   7.780530   9.272287
    35  H    5.977273   6.552379  10.990686   6.827500   8.779819
    36  H    7.062485   8.797738  10.485556   6.825748   8.003500
    37  C    9.109681  10.595723  13.006810   9.135954  10.512642
    38  H    9.586814  11.019997  13.526728   9.655230  11.054507
    39  H    9.234443  10.842986  12.829249   9.115071  10.343847
    40  H    9.562502  10.989247  13.559079   9.639004  11.053967
                   16         17         18         19         20
    16  C    0.000000
    17  H    6.475260   0.000000
    18  H    6.445060   1.567729   0.000000
    19  H    7.409988   1.567050   1.567432   0.000000
    20  H    2.667273   4.475244   4.547614   5.679381   0.000000
    21  H    0.929647   7.117947   7.075695   7.954746   3.568859
    22  C    1.335713   7.105426   7.079941   8.178458   2.773128
    23  C    2.443046   8.556323   8.522290   9.623807   4.199713
    24  H    1.962112   6.722030   6.707596   7.877994   2.254310
    25  C    3.768576   9.410211   9.383728  10.568966   4.941904
    26  O    2.784758   9.223292   9.181679  10.192800   5.074482
    27  C    4.930884  10.799050  10.767435  11.944069   6.338140
    28  C    4.318005   9.089236   9.083989  10.333062   4.682783
    29  C    6.171828  11.716574  11.694428  12.919862   7.255875
    30  O    5.159933  11.405405  11.362868  12.470796   7.025511
    31  C    5.694019  10.169155  10.173241  11.453232   5.872735
    32  H    3.951945   8.224210   8.227587   9.485420   3.876196
    33  H    6.933164  12.617275  12.589159  13.808241   8.152057
    34  C    6.512784  11.453253  11.449796  12.718675   7.080644
    35  H    4.529938  10.889918  10.841114  11.908339   6.589347
    36  H    6.207909  10.114400  10.130047  11.428959   5.995881
    37  C    7.997406  12.660940  12.670222  13.960238   8.385141
    38  H    8.443704  13.231550  13.143696  14.479565   8.924990
    39  H    8.230011  12.445430  12.472675  13.772385   8.308617
    40  H    8.413920  13.179233  13.275357  14.513243   8.905473
                   21         22         23         24         25
    21  H    0.000000
    22  C    1.932303   0.000000
    23  C    2.546994   1.454886   0.000000
    24  H    2.743193   0.929451   2.070750   0.000000
    25  C    3.993346   2.539791   1.460106   2.696307   0.000000
    26  O    2.438176   2.343122   1.253991   3.161057   2.343178
    27  C    4.964311   3.821778   2.488672   4.089149   1.407103
    28  C    4.794659   2.982534   2.520148   2.665760   1.406452
    29  C    6.289574   4.968906   3.762253   5.054649   2.429470
    30  O    4.943869   4.309019   2.854400   4.816162   2.407217
    31  C    6.153877   4.358674   3.782047   3.998115   2.431911
    32  H    4.578451   2.657708   2.687356   2.085566   2.028978
    33  H    6.968308   5.782638   4.494373   5.932946   3.262360
    34  C    6.813962   5.207383   4.287248   5.042122   2.827829
    35  H    4.226264   3.825047   2.395555   4.450813   2.398103
    36  H    6.761049   4.886035   4.521639   4.373972   3.265075
    37  C    8.317999   6.681391   5.793538   6.449894   4.334430
    38  H    8.726089   7.141317   6.195347   6.947750   4.751414
    39  H    8.644888   6.896666   6.182104   6.539809   4.739721
    40  H    8.684255   7.123592   6.163831   6.948807   4.734621
                   26         27         28         29         30
    26  O    0.000000
    27  C    2.787148   0.000000
    28  C    3.636661   2.391977   0.000000
    29  C    4.169741   1.383371   2.748549   0.000000
    30  O    2.516327   1.352372   3.650324   2.338634   0.000000
    31  C    4.774138   2.760863   1.376219   2.376546   4.111694
    32  H    3.919989   3.236673   0.930522   3.678945   4.414699
    33  H    4.710903   2.009522   3.678755   0.930299   2.493213
    34  C    5.005383   2.407035   2.403997   1.375956   3.613822
    35  H    1.789662   1.799703   3.773033   3.020669   0.819538
    36  H    5.591471   3.691123   2.006432   3.217467   5.041930
    37  C    6.481756   3.790664   3.784414   2.510306   4.846116
    38  H    6.812872   4.085074   4.310553   2.770981   5.028513
    39  H    7.002600   4.443794   3.919948   3.283046   5.606300
    40  H    6.754485   4.044796   4.321465   2.734690   4.960974
                   31         32         33         34         35
    31  C    0.000000
    32  H    2.001041   0.000000
    33  H    3.217069   4.609153   0.000000
    34  C    1.389962   3.236497   2.002460   0.000000
    35  H    4.478168   4.415266   3.285579   4.196746   0.000000
    36  H    0.930294   2.288408   3.991242   2.019205   5.398773
    37  C    2.515665   4.513381   2.651441   1.506787   5.521367
    38  H    3.106136   5.060032   2.721848   2.038342   5.737640
    39  H    2.550109   4.497447   3.560299   2.039506   6.225340
    40  H    3.137962   5.079055   2.674855   2.039192   5.675833
                   36         37         38         39         40
    36  H    0.000000
    37  C    2.660784   0.000000
    38  H    3.275558   0.959472   0.000000
    39  H    2.345204   0.960899   1.567186   0.000000
    40  H    3.336103   0.959944   1.567564   1.568222   0.000000
 Stoichiometry    C18H19NO2
 Framework group  C1[X(C18H19NO2)]
 Deg. of freedom   114
 Full point group                 C1      NOp   1
 Largest Abelian subgroup         C1      NOp   1
 Largest concise Abelian subgroup C1      NOp   1
                         Standard orientation:                         
 ---------------------------------------------------------------------
 Center     Atomic      Atomic             Coordinates (Angstroms)
 Number     Number       Type             X           Y           Z
 ---------------------------------------------------------------------
      1          1           0        4.997283   -1.775146    0.012117
      2          1           0        7.006070   -0.768187    0.892772
      3          6           0        4.320848   -1.138185   -0.013788
      4          6           0        7.048737   -0.279167    0.068480
      5          6           0        4.654480    0.220733   -0.033166
      6          6           0        3.013295   -1.544068   -0.032355
      7          7           0        5.948826    0.653850    0.005771
      8          1           0        6.991354   -0.890422   -0.669563
      9          1           0        7.877996    0.200194    0.022365
     10          6           0        3.588524    1.130446   -0.107569
     11          6           0        1.947022   -0.643803   -0.073602
     12          1           0        2.828544   -2.455227   -0.016607
     13          6           0        6.263277    2.057963    0.113170
     14          6           0        2.286999    0.703258   -0.127465
     15          1           0        3.769383    2.041457   -0.144619
     16          6           0        0.581242   -1.122122   -0.036323
     17          1           0        5.896513    2.526525   -0.639860
     18          1           0        5.887044    2.408629    0.923401
     19          1           0        7.216404    2.172695    0.127173
     20          1           0        1.607342    1.335780   -0.178391
     21          1           0        0.474278   -2.045589   -0.039597
     22          6           0       -0.544472   -0.404179    0.001834
     23          6           0       -1.859354   -1.026710    0.017195
     24          1           0       -0.486223    0.523296    0.018504
     25          6           0       -3.077370   -0.221950    0.043802
     26          8           0       -1.952829   -2.276700   -0.018583
     27          6           0       -4.340903   -0.841144    0.048329
     28          6           0       -3.068732    1.184294    0.021213
     29          6           0       -5.503315   -0.091141    0.045600
     30          8           0       -4.466947   -2.187588    0.037710
     31          6           0       -4.233407    1.917391    0.012364
     32          1           0       -2.252870    1.631673    0.011624
     33          1           0       -6.325442   -0.525917    0.068683
     34          6           0       -5.470631    1.283940    0.009006
     35          1           0       -3.723095   -2.531481    0.045727
     36          1           0       -4.192038    2.846754    0.007968
     37          6           0       -6.742609    2.090309   -0.038417
     38          1           0       -7.247287    1.939027    0.763456
     39          1           0       -6.527610    3.024212   -0.108617
     40          1           0       -7.263005    1.823885   -0.799795
 ---------------------------------------------------------------------
 Rotational constants (GHZ):      0.9420220      0.0945029      0.0860223
 Standard basis: 6-311++G(d,p) (5D, 7F)
 There are   595 symmetry adapted basis functions of A   symmetry.
 Integral buffers will be    131072 words long.
 Raffenetti 2 integral format.
 Two-electron integral symmetry is turned on.
   595 basis functions,   927 primitive gaussians,   616 cartesian basis functions
    75 alpha electrons       75 beta electrons
       nuclear repulsion energy      1493.2727604994 Hartrees.
 NAtoms=   40 NActive=   40 NUniq=   40 SFac= 1.00D+00 NAtFMM=   60 NAOKFM=F Big=F
 Nuclear repulsion after empirical dispersion term =     1493.2473131680 Hartrees.
 One-electron integrals computed using PRISM.
 NBasis=   595 RedAO= T  NBF=   595
 NBsUse=   587 1.00D-06 NBFU=   587
 Harris functional with IExCor= 4639 diagonalized for initial guess.
 ExpMin= 3.60D-02 ExpMax= 8.59D+03 ExpMxC= 1.30D+03 IAcc=3 IRadAn=         5 AccDes= 0.00D+00
 HarFok:  IExCor= 4639 AccDes= 0.00D+00 IRadAn=         5 IDoV= 1
 ScaDFX=  1.000000  1.000000  1.000000  1.000000
 FoFCou: FMM=F IPFlag=           0 FMFlag=      100000 FMFlg1=           0
         NFxFlg=           0 DoJE=T BraDBF=F KetDBF=T FulRan=T
         Omega=  0.000000  0.000000  1.000000  0.000000  0.000000 ICntrl=     500 IOpCl=  0
         NMat0=    1 NMatS0=    1 NMatT0=    0 NMatD0=    1 NMtDS0=    0 NMtDT0=    0
         I1Cent=           4 NGrid=           0.
 Petite list used in FoFCou.
 Initial guess orbital symmetries:
       Occupied  (A) (A) (A) (A) (A) (A) (A) (A) (A) (A) (A) (A)
                 (A) (A) (A) (A) (A) (A) (A) (A) (A) (A) (A) (A)
                 (A) (A) (A) (A) (A) (A) (A) (A) (A) (A) (A) (A)
                 (A) (A) (A) (A) (A) (A) (A) (A) (A) (A) (A) (A)
                 (A) (A) (A) (A) (A) (A) (A) (A) (A) (A) (A) (A)
                 (A) (A) (A) (A) (A) (A) (A) (A) (A) (A) (A) (A)
                 (A) (A) (A)
       Virtual   (A) (A) (A) (A) (A) (A) (A) (A) (A) (A) (A) (A)
                 (A) (A) (A) (A) (A) (A) (A) (A) (A) (A) (A) (A)
                 (A) (A) (A) (A) (A) (A) (A) (A) (A) (A) (A) (A)
                 (A) (A) (A) (A) (A) (A) (A) (A) (A) (A) (A) (A)
                 (A) (A) (A) (A) (A) (A) (A) (A) (A) (A) (A) (A)
                 (A) (A) (A) (A) (A) (A) (A) (A) (A) (A) (A) (A)
                 (A) (A) (A) (A) (A) (A) (A) (A) (A) (A) (A) (A)
                 (A) (A) (A) (A) (A) (A) (A) (A) (A) (A) (A) (A)
                 (A) (A) (A) (A) (A) (A) (A) (A) (A) (A) (A) (A)
                 (A) (A) (A) (A) (A) (A) (A) (A) (A) (A) (A) (A)
                 (A) (A) (A) (A) (A) (A) (A) (A) (A) (A) (A) (A)
                 (A) (A) (A) (A) (A) (A) (A) (A) (A) (A) (A) (A)
                 (A) (A) (A) (A) (A) (A) (A) (A) (A) (A) (A) (A)
                 (A) (A) (A) (A) (A) (A) (A) (A) (A) (A) (A) (A)
                 (A) (A) (A) (A) (A) (A) (A) (A) (A) (A) (A) (A)
                 (A) (A) (A) (A) (A) (A) (A) (A) (A) (A) (A) (A)
                 (A) (A) (A) (A) (A) (A) (A) (A) (A) (A) (A) (A)
                 (A) (A) (A) (A) (A) (A) (A) (A) (A) (A) (A) (A)
                 (A) (A) (A) (A) (A) (A) (A) (A) (A) (A) (A) (A)
                 (A) (A) (A) (A) (A) (A) (A) (A) (A) (A) (A) (A)
                 (A) (A) (A) (A) (A) (A) (A) (A) (A) (A) (A) (A)
                 (A) (A) (A) (A) (A) (A) (A) (A) (A) (A) (A) (A)
                 (A) (A) (A) (A) (A) (A) (A) (A) (A) (A) (A) (A)
                 (A) (A) (A) (A) (A) (A) (A) (A) (A) (A) (A) (A)
                 (A) (A) (A) (A) (A) (A) (A) (A) (A) (A) (A) (A)
                 (A) (A) (A) (A) (A) (A) (A) (A) (A) (A) (A) (A)
                 (A) (A) (A) (A) (A) (A) (A) (A) (A) (A) (A) (A)
                 (A) (A) (A) (A) (A) (A) (A) (A) (A) (A) (A) (A)
                 (A) (A) (A) (A) (A) (A) (A) (A) (A) (A) (A) (A)
                 (A) (A) (A) (A) (A) (A) (A) (A) (A) (A) (A) (A)
                 (A) (A) (A) (A) (A) (A) (A) (A) (A) (A) (A) (A)
                 (A) (A) (A) (A) (A) (A) (A) (A) (A) (A) (A) (A)
                 (A) (A) (A) (A) (A) (A) (A) (A) (A) (A) (A) (A)
                 (A) (A) (A) (A) (A) (A) (A) (A) (A) (A) (A) (A)
                 (A) (A) (A) (A) (A) (A) (A) (A) (A) (A) (A) (A)
                 (A) (A) (A) (A) (A) (A) (A) (A) (A) (A) (A) (A)
                 (A) (A) (A) (A) (A) (A) (A) (A) (A) (A) (A) (A)
                 (A) (A) (A) (A) (A) (A) (A) (A) (A) (A) (A) (A)
                 (A) (A) (A) (A) (A) (A) (A) (A) (A) (A) (A) (A)
                 (A) (A) (A) (A) (A) (A) (A) (A) (A) (A) (A) (A)
                 (A) (A) (A) (A) (A) (A) (A) (A) (A) (A) (A) (A)
                 (A) (A) (A) (A) (A) (A) (A) (A) (A) (A) (A) (A)
                 (A) (A) (A) (A) (A) (A) (A) (A)
 The electronic state of the initial guess is 1-A.
 Requested convergence on RMS density matrix=1.00D-08 within 128 cycles.
 Requested convergence on MAX density matrix=1.00D-06.
 Requested convergence on             energy=1.00D-06.
 No special actions if energy rises.
 FoFJK:  IHMeth= 1 ICntrl=     0 DoSepK=T KAlg= 1 I1Cent= 0 FoldK=F
 FoFJK:  IHMeth= 1 ICntrl=     0 DoSepK=T KAlg= 1 I1Cent= 0 FoldK=F
 FoFJK:  IHMeth= 1 ICntrl=     0 DoSepK=T KAlg= 1 I1Cent= 0 FoldK=F
 FoFJK:  IHMeth= 1 ICntrl=     0 DoSepK=T KAlg= 1 I1Cent= 0 FoldK=F
 FoFJK:  IHMeth= 1 ICntrl=     0 DoSepK=T KAlg= 1 I1Cent= 0 FoldK=F
 FoFJK:  IHMeth= 1 ICntrl=     0 DoSepK=T KAlg= 1 I1Cent= 0 FoldK=F
 FoFJK:  IHMeth= 1 ICntrl=     0 DoSepK=T KAlg= 1 I1Cent= 0 FoldK=F
 FoFJK:  IHMeth= 1 ICntrl=     0 DoSepK=T KAlg= 1 I1Cent= 0 FoldK=F
 FoFJK:  IHMeth= 1 ICntrl=     0 DoSepK=T KAlg= 1 I1Cent= 0 FoldK=F
 FoFJK:  IHMeth= 1 ICntrl=     0 DoSepK=T KAlg= 1 I1Cent= 0 FoldK=F
 FoFJK:  IHMeth= 1 ICntrl=     0 DoSepK=T KAlg= 1 I1Cent= 0 FoldK=F
 FoFJK:  IHMeth= 1 ICntrl=     0 DoSepK=T KAlg= 1 I1Cent= 0 FoldK=F
 FoFJK:  IHMeth= 1 ICntrl=     0 DoSepK=T KAlg= 1 I1Cent= 0 FoldK=F
 FoFJK:  IHMeth= 1 ICntrl=     0 DoSepK=T KAlg= 1 I1Cent= 0 FoldK=F
 FoFJK:  IHMeth= 1 ICntrl=     0 DoSepK=T KAlg= 1 I1Cent= 0 FoldK=F
 FoFJK:  IHMeth= 1 ICntrl=     0 DoSepK=T KAlg= 1 I1Cent= 0 FoldK=F
 SCF Done:  E(RwB97XD) =  -902.135331569     A.U. after   16 cycles
             Convg  =    0.9434D-08             -V/T =  1.9982
 QCSCF skips out because SCF is already converged.
 ExpMin= 3.60D-02 ExpMax= 8.59D+03 ExpMxC= 1.30D+03 IAcc=3 IRadAn=         5 AccDes= 0.00D+00
 HarFok:  IExCor=  205 AccDes= 0.00D+00 IRadAn=         5 IDoV=-2
 ScaDFX=  1.000000  1.000000  1.000000  1.000000
 Range of M.O.s used for correlation:    22   587
 NBasis=   595 NAE=    75 NBE=    75 NFC=    21 NFV=     0
 NROrb=    566 NOA=    54 NOB=    54 NVA=   512 NVB=   512

 **** Warning!!: The largest alpha MO coefficient is  0.14086348D+03

 Would need an additional 53812200000 words for in-memory AO integral storage.
 Orbital symmetries:
       Occupied  (A) (A) (A) (A) (A) (A) (A) (A) (A) (A) (A) (A)
                 (A) (A) (A) (A) (A) (A) (A) (A) (A) (A) (A) (A)
                 (A) (A) (A) (A) (A) (A) (A) (A) (A) (A) (A) (A)
                 (A) (A) (A) (A) (A) (A) (A) (A) (A) (A) (A) (A)
                 (A) (A) (A) (A) (A) (A) (A) (A) (A) (A) (A) (A)
                 (A) (A) (A) (A) (A) (A) (A) (A) (A) (A) (A) (A)
                 (A) (A) (A)
       Virtual   (A) (A) (A) (A) (A) (A) (A) (A) (A) (A) (A) (A)
                 (A) (A) (A) (A) (A) (A) (A) (A) (A) (A) (A) (A)
                 (A) (A) (A) (A) (A) (A) (A) (A) (A) (A) (A) (A)
                 (A) (A) (A) (A) (A) (A) (A) (A) (A) (A) (A) (A)
                 (A) (A) (A) (A) (A) (A) (A) (A) (A) (A) (A) (A)
                 (A) (A) (A) (A) (A) (A) (A) (A) (A) (A) (A) (A)
                 (A) (A) (A) (A) (A) (A) (A) (A) (A) (A) (A) (A)
                 (A) (A) (A) (A) (A) (A) (A) (A) (A) (A) (A) (A)
                 (A) (A) (A) (A) (A) (A) (A) (A) (A) (A) (A) (A)
                 (A) (A) (A) (A) (A) (A) (A) (A) (A) (A) (A) (A)
                 (A) (A) (A) (A) (A) (A) (A) (A) (A) (A) (A) (A)
                 (A) (A) (A) (A) (A) (A) (A) (A) (A) (A) (A) (A)
                 (A) (A) (A) (A) (A) (A) (A) (A) (A) (A) (A) (A)
                 (A) (A) (A) (A) (A) (A) (A) (A) (A) (A) (A) (A)
                 (A) (A) (A) (A) (A) (A) (A) (A) (A) (A) (A) (A)
                 (A) (A) (A) (A) (A) (A) (A) (A) (A) (A) (A) (A)
                 (A) (A) (A) (A) (A) (A) (A) (A) (A) (A) (A) (A)
                 (A) (A) (A) (A) (A) (A) (A) (A) (A) (A) (A) (A)
                 (A) (A) (A) (A) (A) (A) (A) (A) (A) (A) (A) (A)
                 (A) (A) (A) (A) (A) (A) (A) (A) (A) (A) (A) (A)
                 (A) (A) (A) (A) (A) (A) (A) (A) (A) (A) (A) (A)
                 (A) (A) (A) (A) (A) (A) (A) (A) (A) (A) (A) (A)
                 (A) (A) (A) (A) (A) (A) (A) (A) (A) (A) (A) (A)
                 (A) (A) (A) (A) (A) (A) (A) (A) (A) (A) (A) (A)
                 (A) (A) (A) (A) (A) (A) (A) (A) (A) (A) (A) (A)
                 (A) (A) (A) (A) (A) (A) (A) (A) (A) (A) (A) (A)
                 (A) (A) (A) (A) (A) (A) (A) (A) (A) (A) (A) (A)
                 (A) (A) (A) (A) (A) (A) (A) (A) (A) (A) (A) (A)
                 (A) (A) (A) (A) (A) (A) (A) (A) (A) (A) (A) (A)
                 (A) (A) (A) (A) (A) (A) (A) (A) (A) (A) (A) (A)
                 (A) (A) (A) (A) (A) (A) (A) (A) (A) (A) (A) (A)
                 (A) (A) (A) (A) (A) (A) (A) (A) (A) (A) (A) (A)
                 (A) (A) (A) (A) (A) (A) (A) (A) (A) (A) (A) (A)
                 (A) (A) (A) (A) (A) (A) (A) (A) (A) (A) (A) (A)
                 (A) (A) (A) (A) (A) (A) (A) (A) (A) (A) (A) (A)
                 (A) (A) (A) (A) (A) (A) (A) (A) (A) (A) (A) (A)
                 (A) (A) (A) (A) (A) (A) (A) (A) (A) (A) (A) (A)
                 (A) (A) (A) (A) (A) (A) (A) (A) (A) (A) (A) (A)
                 (A) (A) (A) (A) (A) (A) (A) (A) (A) (A) (A) (A)
                 (A) (A) (A) (A) (A) (A) (A) (A) (A) (A) (A) (A)
                 (A) (A) (A) (A) (A) (A) (A) (A) (A) (A) (A) (A)
                 (A) (A) (A) (A) (A) (A) (A) (A) (A) (A) (A) (A)
                 (A) (A) (A) (A) (A) (A) (A) (A)
     8 initial guesses have been made.
 Convergence on wavefunction:    0.000001000000000
 Iteration     1 Dimension     8 NMult     8
 CISAX will form     8 AO SS matrices at one time.
 FoFJK:  IHMeth= 1 ICntrl=     0 DoSepK=T KAlg= 1 I1Cent= 0 FoldK=F
 FoFJK:  IHMeth= 1 ICntrl=     0 DoSepK=T KAlg= 1 I1Cent= 0 FoldK=F
 Iteration     2 Dimension    12 NMult    12
 FoFJK:  IHMeth= 1 ICntrl=     0 DoSepK=T KAlg= 1 I1Cent= 0 FoldK=F
 FoFJK:  IHMeth= 1 ICntrl=     0 DoSepK=T KAlg= 1 I1Cent= 0 FoldK=F
 Iteration     3 Dimension    16 NMult    16
 FoFJK:  IHMeth= 1 ICntrl=     0 DoSepK=T KAlg= 1 I1Cent= 0 FoldK=F
 FoFJK:  IHMeth= 1 ICntrl=     0 DoSepK=T KAlg= 1 I1Cent= 0 FoldK=F
 Iteration     4 Dimension    20 NMult    20
 FoFJK:  IHMeth= 1 ICntrl=     0 DoSepK=T KAlg= 1 I1Cent= 0 FoldK=F
 FoFJK:  IHMeth= 1 ICntrl=     0 DoSepK=T KAlg= 1 I1Cent= 0 FoldK=F
 Iteration     5 Dimension    24 NMult    24
 FoFJK:  IHMeth= 1 ICntrl=     0 DoSepK=T KAlg= 1 I1Cent= 0 FoldK=F
 FoFJK:  IHMeth= 1 ICntrl=     0 DoSepK=T KAlg= 1 I1Cent= 0 FoldK=F
 Iteration     6 Dimension    28 NMult    28
 FoFJK:  IHMeth= 1 ICntrl=     0 DoSepK=T KAlg= 1 I1Cent= 0 FoldK=F
 FoFJK:  IHMeth= 1 ICntrl=     0 DoSepK=T KAlg= 1 I1Cent= 0 FoldK=F
 Iteration     7 Dimension    32 NMult    32
 FoFJK:  IHMeth= 1 ICntrl=     0 DoSepK=T KAlg= 1 I1Cent= 0 FoldK=F
 FoFJK:  IHMeth= 1 ICntrl=     0 DoSepK=T KAlg= 1 I1Cent= 0 FoldK=F
 Iteration     8 Dimension    36 NMult    36
 FoFJK:  IHMeth= 1 ICntrl=     0 DoSepK=T KAlg= 1 I1Cent= 0 FoldK=F
 FoFJK:  IHMeth= 1 ICntrl=     0 DoSepK=T KAlg= 1 I1Cent= 0 FoldK=F
 Iteration     9 Dimension    40 NMult    40
 FoFJK:  IHMeth= 1 ICntrl=     0 DoSepK=T KAlg= 1 I1Cent= 0 FoldK=F
 FoFJK:  IHMeth= 1 ICntrl=     0 DoSepK=T KAlg= 1 I1Cent= 0 FoldK=F
 Iteration    10 Dimension    44 NMult    44
 FoFJK:  IHMeth= 1 ICntrl=     0 DoSepK=T KAlg= 1 I1Cent= 0 FoldK=F
 FoFJK:  IHMeth= 1 ICntrl=     0 DoSepK=T KAlg= 1 I1Cent= 0 FoldK=F
 Iteration    11 Dimension    48 NMult    48
 FoFJK:  IHMeth= 1 ICntrl=     0 DoSepK=T KAlg= 1 I1Cent= 0 FoldK=F
 FoFJK:  IHMeth= 1 ICntrl=     0 DoSepK=T KAlg= 1 I1Cent= 0 FoldK=F
 Iteration    12 Dimension    52 NMult    52
 FoFJK:  IHMeth= 1 ICntrl=     0 DoSepK=T KAlg= 1 I1Cent= 0 FoldK=F
 FoFJK:  IHMeth= 1 ICntrl=     0 DoSepK=T KAlg= 1 I1Cent= 0 FoldK=F
 Iteration    13 Dimension    56 NMult    56
 FoFJK:  IHMeth= 1 ICntrl=     0 DoSepK=T KAlg= 1 I1Cent= 0 FoldK=F
 FoFJK:  IHMeth= 1 ICntrl=     0 DoSepK=T KAlg= 1 I1Cent= 0 FoldK=F
 Iteration    14 Dimension    60 NMult    60
 FoFJK:  IHMeth= 1 ICntrl=     0 DoSepK=T KAlg= 1 I1Cent= 0 FoldK=F
 FoFJK:  IHMeth= 1 ICntrl=     0 DoSepK=T KAlg= 1 I1Cent= 0 FoldK=F
 Iteration    15 Dimension    64 NMult    64
 FoFJK:  IHMeth= 1 ICntrl=     0 DoSepK=T KAlg= 1 I1Cent= 0 FoldK=F
 FoFJK:  IHMeth= 1 ICntrl=     0 DoSepK=T KAlg= 1 I1Cent= 0 FoldK=F
 Iteration    16 Dimension    68 NMult    68
 FoFJK:  IHMeth= 1 ICntrl=     0 DoSepK=T KAlg= 1 I1Cent= 0 FoldK=F
 FoFJK:  IHMeth= 1 ICntrl=     0 DoSepK=T KAlg= 1 I1Cent= 0 FoldK=F
 ***********************************************************************
 Excited states from <AA,BB:AA,BB> singles matrix:
 ***********************************************************************
 
 Ground to excited state transition densities written to RWF  633
 Ground to excited state transition electric dipole moments (Au):
       state          X           Y           Z        Dip. S.      Osc.
         1        -3.5869     -0.3158      0.0005     12.9655      1.1617
 Ground to excited state transition velocity dipole moments (Au):
       state          X           Y           Z        Dip. S.      Osc.
         1         0.4757      0.0444      0.0000      0.2282      1.1320
 Ground to excited state transition magnetic dipole moments (Au):
       state          X           Y           Z
         1         0.0177     -0.1488      0.9941
 Ground to excited state transition velocity quadrupole moments (Au):
       state          XX          YY          ZZ          XY          XZ          YZ
         1         1.2347     -0.1039     -0.0006      0.3753      0.0268     -0.0006
 <0|del|b> * <b|rxdel|0> + <0|del|b> * <b|delr+rdel|0>
 Rotatory Strengths (R) in cgs (10**-40 erg-esu-cm/Gauss)
       state          XX          YY          ZZ    R(velocity)
         1       -20.4150     21.4545      8.6655      3.2350
 1/2[<0|r|b>*<b|rxdel|0> + (<0|rxdel|b>*<b|r|0>)*]
 Rotatory Strengths (R) in cgs (10**-40 erg-esu-cm/Gauss)
       state          XX          YY          ZZ     R(length)
         1        44.9354    -33.2394     -0.3598      3.7787
  1/2[<0|del|b>*<b|r|0> + (<0|r|b>*<b|del|0>)*] (Au)
       state          X           Y           Z        Dip. S.   Osc.(frdel)
         1        -1.7061     -0.0140      0.0000      1.7202      1.1468

 Excitation energies and oscillator strengths:
 
 Excited State   1:      Singlet-A      3.6573 eV  339.00 nm  f=1.1617  <S**2>=0.000
      70 -> 76        -0.13353
      74 -> 76         0.11841
      75 -> 76         0.64937
      75 -> 78        -0.12450
 This state for optimization and/or second-order correction.
 Total Energy, E(TD-HF/TD-KS) =  -902.000928346    
 Copying the excited state density for this state as the 1-particle RhoCI density.
 SavETr:  write IOETrn=   770 NScale= 10 NData=  16 NLR=1 LETran=      28.
 FoFJK:  IHMeth= 1 ICntrl=     0 DoSepK=T KAlg= 1 I1Cent= 0 FoldK=F
 FoFJK:  IHMeth= 1 ICntrl=     0 DoSepK=T KAlg= 1 I1Cent= 0 FoldK=F
          IDoAtm=1111111111111111111111111111111111111111
          Differentiating once with respect to electric field.
                with respect to dipole field.
          Differentiating once with respect to nuclear coordinates.
          There are     1 degrees of freedom in the 1st order CPHF.  IDoFFX=0.
 FoFJK:  IHMeth= 1 ICntrl=     0 DoSepK=T KAlg= 1 I1Cent= 0 FoldK=F
 LinEq1:  Iter=  0 NonCon=     1 RMS=2.89D-03 Max=3.45D-01
 AX will form     1 AO Fock derivatives at one time.
 FoFJK:  IHMeth= 1 ICntrl=     0 DoSepK=T KAlg= 1 I1Cent= 0 FoldK=F
 LinEq1:  Iter=  1 NonCon=     1 RMS=1.22D-03 Max=9.60D-02
 FoFJK:  IHMeth= 1 ICntrl=     0 DoSepK=T KAlg= 1 I1Cent= 0 FoldK=F
 LinEq1:  Iter=  2 NonCon=     1 RMS=6.37D-04 Max=4.25D-02
 FoFJK:  IHMeth= 1 ICntrl=     0 DoSepK=T KAlg= 1 I1Cent= 0 FoldK=F
 LinEq1:  Iter=  3 NonCon=     1 RMS=2.58D-04 Max=1.28D-02
 FoFJK:  IHMeth= 1 ICntrl=     0 DoSepK=T KAlg= 1 I1Cent= 0 FoldK=F
 LinEq1:  Iter=  4 NonCon=     1 RMS=1.79D-04 Max=1.16D-02
 FoFJK:  IHMeth= 1 ICntrl=     0 DoSepK=T KAlg= 1 I1Cent= 0 FoldK=F
 LinEq1:  Iter=  5 NonCon=     1 RMS=9.54D-05 Max=6.89D-03
 FoFJK:  IHMeth= 1 ICntrl=     0 DoSepK=T KAlg= 1 I1Cent= 0 FoldK=F
 LinEq1:  Iter=  6 NonCon=     1 RMS=4.48D-05 Max=3.50D-03
 FoFJK:  IHMeth= 1 ICntrl=     0 DoSepK=T KAlg= 1 I1Cent= 0 FoldK=F
 LinEq1:  Iter=  7 NonCon=     1 RMS=2.01D-05 Max=1.07D-03
 FoFJK:  IHMeth= 1 ICntrl=     0 DoSepK=T KAlg= 1 I1Cent= 0 FoldK=F
 LinEq1:  Iter=  8 NonCon=     1 RMS=1.22D-05 Max=7.44D-04
 FoFJK:  IHMeth= 1 ICntrl=     0 DoSepK=T KAlg= 1 I1Cent= 0 FoldK=F
 LinEq1:  Iter=  9 NonCon=     1 RMS=5.31D-06 Max=3.06D-04
 FoFJK:  IHMeth= 1 ICntrl=     0 DoSepK=T KAlg= 1 I1Cent= 0 FoldK=F
 LinEq1:  Iter= 10 NonCon=     1 RMS=2.50D-06 Max=1.65D-04
 FoFJK:  IHMeth= 1 ICntrl=     0 DoSepK=T KAlg= 1 I1Cent= 0 FoldK=F
 LinEq1:  Iter= 11 NonCon=     1 RMS=1.03D-06 Max=6.88D-05
 FoFJK:  IHMeth= 1 ICntrl=     0 DoSepK=T KAlg= 1 I1Cent= 0 FoldK=F
 LinEq1:  Iter= 12 NonCon=     1 RMS=5.05D-07 Max=2.93D-05
 FoFJK:  IHMeth= 1 ICntrl=     0 DoSepK=T KAlg= 1 I1Cent= 0 FoldK=F
 LinEq1:  Iter= 13 NonCon=     1 RMS=2.54D-07 Max=1.50D-05
 FoFJK:  IHMeth= 1 ICntrl=     0 DoSepK=T KAlg= 1 I1Cent= 0 FoldK=F
 LinEq1:  Iter= 14 NonCon=     1 RMS=9.48D-08 Max=4.44D-06
 FoFJK:  IHMeth= 1 ICntrl=     0 DoSepK=T KAlg= 1 I1Cent= 0 FoldK=F
 LinEq1:  Iter= 15 NonCon=     1 RMS=4.29D-08 Max=1.98D-06
 FoFJK:  IHMeth= 1 ICntrl=     0 DoSepK=T KAlg= 1 I1Cent= 0 FoldK=F
 LinEq1:  Iter= 16 NonCon=     1 RMS=1.91D-08 Max=1.62D-06
 FoFJK:  IHMeth= 1 ICntrl=     0 DoSepK=T KAlg= 1 I1Cent= 0 FoldK=F
 LinEq1:  Iter= 17 NonCon=     1 RMS=8.26D-09 Max=3.93D-07
 FoFJK:  IHMeth= 1 ICntrl=     0 DoSepK=T KAlg= 1 I1Cent= 0 FoldK=F
 LinEq1:  Iter= 18 NonCon=     1 RMS=3.40D-09 Max=1.66D-07
 FoFJK:  IHMeth= 1 ICntrl=     0 DoSepK=T KAlg= 1 I1Cent= 0 FoldK=F
 LinEq1:  Iter= 19 NonCon=     1 RMS=1.43D-09 Max=7.33D-08
 FoFJK:  IHMeth= 1 ICntrl=     0 DoSepK=T KAlg= 1 I1Cent= 0 FoldK=F
 LinEq1:  Iter= 20 NonCon=     1 RMS=7.32D-10 Max=5.88D-08
 FoFJK:  IHMeth= 1 ICntrl=     0 DoSepK=T KAlg= 1 I1Cent= 0 FoldK=F
 LinEq1:  Iter= 21 NonCon=     1 RMS=3.05D-10 Max=1.33D-08
 FoFJK:  IHMeth= 1 ICntrl=     0 DoSepK=T KAlg= 1 I1Cent= 0 FoldK=F
 LinEq1:  Iter= 22 NonCon=     1 RMS=1.40D-10 Max=7.37D-09
 FoFJK:  IHMeth= 1 ICntrl=     0 DoSepK=T KAlg= 1 I1Cent= 0 FoldK=F
 LinEq1:  Iter= 23 NonCon=     1 RMS=5.96D-11 Max=2.04D-09
 FoFJK:  IHMeth= 1 ICntrl=     0 DoSepK=T KAlg= 1 I1Cent= 0 FoldK=F
 LinEq1:  Iter= 24 NonCon=     0 RMS=2.78D-11 Max=8.00D-10
 Linear equations converged to 1.000D-10 1.000D-09 after    24 iterations.
 FoFJK:  IHMeth= 1 ICntrl=     0 DoSepK=T KAlg= 1 I1Cent= 0 FoldK=F
 End of Minotr Frequency-dependent properties file   721 does not exist.
 End of Minotr Frequency-dependent properties file   722 does not exist.

 **********************************************************************

            Population analysis using the SCF density.

 **********************************************************************

 Orbital symmetries:
       Occupied  (A) (A) (A) (A) (A) (A) (A) (A) (A) (A) (A) (A)
                 (A) (A) (A) (A) (A) (A) (A) (A) (A) (A) (A) (A)
                 (A) (A) (A) (A) (A) (A) (A) (A) (A) (A) (A) (A)
                 (A) (A) (A) (A) (A) (A) (A) (A) (A) (A) (A) (A)
                 (A) (A) (A) (A) (A) (A) (A) (A) (A) (A) (A) (A)
                 (A) (A) (A) (A) (A) (A) (A) (A) (A) (A) (A) (A)
                 (A) (A) (A)
       Virtual   (A) (A) (A) (A) (A) (A) (A) (A) (A) (A) (A) (A)
                 (A) (A) (A) (A) (A) (A) (A) (A) (A) (A) (A) (A)
                 (A) (A) (A) (A) (A) (A) (A) (A) (A) (A) (A) (A)
                 (A) (A) (A) (A) (A) (A) (A) (A) (A) (A) (A) (A)
                 (A) (A) (A) (A) (A) (A) (A) (A) (A) (A) (A) (A)
                 (A) (A) (A) (A) (A) (A) (A) (A) (A) (A) (A) (A)
                 (A) (A) (A) (A) (A) (A) (A) (A) (A) (A) (A) (A)
                 (A) (A) (A) (A) (A) (A) (A) (A) (A) (A) (A) (A)
                 (A) (A) (A) (A) (A) (A) (A) (A) (A) (A) (A) (A)
                 (A) (A) (A) (A) (A) (A) (A) (A) (A) (A) (A) (A)
                 (A) (A) (A) (A) (A) (A) (A) (A) (A) (A) (A) (A)
                 (A) (A) (A) (A) (A) (A) (A) (A) (A) (A) (A) (A)
                 (A) (A) (A) (A) (A) (A) (A) (A) (A) (A) (A) (A)
                 (A) (A) (A) (A) (A) (A) (A) (A) (A) (A) (A) (A)
                 (A) (A) (A) (A) (A) (A) (A) (A) (A) (A) (A) (A)
                 (A) (A) (A) (A) (A) (A) (A) (A) (A) (A) (A) (A)
                 (A) (A) (A) (A) (A) (A) (A) (A) (A) (A) (A) (A)
                 (A) (A) (A) (A) (A) (A) (A) (A) (A) (A) (A) (A)
                 (A) (A) (A) (A) (A) (A) (A) (A) (A) (A) (A) (A)
                 (A) (A) (A) (A) (A) (A) (A) (A) (A) (A) (A) (A)
                 (A) (A) (A) (A) (A) (A) (A) (A) (A) (A) (A) (A)
                 (A) (A) (A) (A) (A) (A) (A) (A) (A) (A) (A) (A)
                 (A) (A) (A) (A) (A) (A) (A) (A) (A) (A) (A) (A)
                 (A) (A) (A) (A) (A) (A) (A) (A) (A) (A) (A) (A)
                 (A) (A) (A) (A) (A) (A) (A) (A) (A) (A) (A) (A)
                 (A) (A) (A) (A) (A) (A) (A) (A) (A) (A) (A) (A)
                 (A) (A) (A) (A) (A) (A) (A) (A) (A) (A) (A) (A)
                 (A) (A) (A) (A) (A) (A) (A) (A) (A) (A) (A) (A)
                 (A) (A) (A) (A) (A) (A) (A) (A) (A) (A) (A) (A)
                 (A) (A) (A) (A) (A) (A) (A) (A) (A) (A) (A) (A)
                 (A) (A) (A) (A) (A) (A) (A) (A) (A) (A) (A) (A)
                 (A) (A) (A) (A) (A) (A) (A) (A) (A) (A) (A) (A)
                 (A) (A) (A) (A) (A) (A) (A) (A) (A) (A) (A) (A)
                 (A) (A) (A) (A) (A) (A) (A) (A) (A) (A) (A) (A)
                 (A) (A) (A) (A) (A) (A) (A) (A) (A) (A) (A) (A)
                 (A) (A) (A) (A) (A) (A) (A) (A) (A) (A) (A) (A)
                 (A) (A) (A) (A) (A) (A) (A) (A) (A) (A) (A) (A)
                 (A) (A) (A) (A) (A) (A) (A) (A) (A) (A) (A) (A)
                 (A) (A) (A) (A) (A) (A) (A) (A) (A) (A) (A) (A)
                 (A) (A) (A) (A) (A) (A) (A) (A) (A) (A) (A) (A)
                 (A) (A) (A) (A) (A) (A) (A) (A) (A) (A) (A) (A)
                 (A) (A) (A) (A) (A) (A) (A) (A) (A) (A) (A) (A)
                 (A) (A) (A) (A) (A) (A) (A) (A)
 The electronic state is 1-A.
 Alpha  occ. eigenvalues --  -19.24581 -19.21602 -14.45820 -10.36743 -10.35295
 Alpha  occ. eigenvalues --  -10.33588 -10.29969 -10.28922 -10.28391 -10.28351
 Alpha  occ. eigenvalues --  -10.28230 -10.28177 -10.28010 -10.27468 -10.27455
 Alpha  occ. eigenvalues --  -10.26718 -10.26548 -10.26048 -10.26039 -10.25851
 Alpha  occ. eigenvalues --  -10.23882  -1.18840  -1.11813  -1.07493  -0.97289
 Alpha  occ. eigenvalues --   -0.97173  -0.91542  -0.89829  -0.88545  -0.86479
 Alpha  occ. eigenvalues --   -0.86315  -0.86119  -0.82796  -0.79745  -0.74949
 Alpha  occ. eigenvalues --   -0.73826  -0.73127  -0.72388  -0.69710  -0.66542
 Alpha  occ. eigenvalues --   -0.65201  -0.62563  -0.61759  -0.59553  -0.59455
 Alpha  occ. eigenvalues --   -0.59083  -0.57849  -0.56992  -0.55356  -0.54280
 Alpha  occ. eigenvalues --   -0.54150  -0.53964  -0.53680  -0.53449  -0.51628
 Alpha  occ. eigenvalues --   -0.51261  -0.50998  -0.50800  -0.49997  -0.48040
 Alpha  occ. eigenvalues --   -0.47869  -0.46880  -0.46403  -0.45692  -0.45224
 Alpha  occ. eigenvalues --   -0.43238  -0.42806  -0.42117  -0.40798  -0.34458
 Alpha  occ. eigenvalues --   -0.34067  -0.33449  -0.32826  -0.30215  -0.26311
 Alpha virt. eigenvalues --   -0.01380   0.03024   0.04053   0.04087   0.04546
 Alpha virt. eigenvalues --    0.04966   0.05370   0.05756   0.06353   0.06650
 Alpha virt. eigenvalues --    0.06733   0.07066   0.07834   0.07981   0.08220
 Alpha virt. eigenvalues --    0.08475   0.09245   0.09656   0.10173   0.10375
 Alpha virt. eigenvalues --    0.10903   0.11294   0.11660   0.12088   0.12605
 Alpha virt. eigenvalues --    0.13264   0.13754   0.14118   0.14357   0.14819
 Alpha virt. eigenvalues --    0.15051   0.15080   0.15473   0.15785   0.16303
 Alpha virt. eigenvalues --    0.16500   0.16677   0.17081   0.17371   0.17424
 Alpha virt. eigenvalues --    0.17473   0.18004   0.18164   0.18810   0.18984
 Alpha virt. eigenvalues --    0.19195   0.19421   0.19982   0.20311   0.20499
 Alpha virt. eigenvalues --    0.20722   0.20875   0.21066   0.21193   0.21549
 Alpha virt. eigenvalues --    0.21877   0.22044   0.22538   0.22851   0.23157
 Alpha virt. eigenvalues --    0.23261   0.23591   0.23837   0.24126   0.24560
 Alpha virt. eigenvalues --    0.24985   0.25398   0.25577   0.25965   0.26074
 Alpha virt. eigenvalues --    0.26473   0.26824   0.26925   0.27339   0.27783
 Alpha virt. eigenvalues --    0.28027   0.28305   0.28421   0.29179   0.29341
 Alpha virt. eigenvalues --    0.29432   0.29690   0.30485   0.30730   0.31636
 Alpha virt. eigenvalues --    0.31819   0.31895   0.32229   0.32425   0.33013
 Alpha virt. eigenvalues --    0.33105   0.33707   0.34144   0.34564   0.34631
 Alpha virt. eigenvalues --    0.35212   0.35461   0.35648   0.35827   0.36336
 Alpha virt. eigenvalues --    0.36948   0.37288   0.37517   0.37691   0.38062
 Alpha virt. eigenvalues --    0.38703   0.39059   0.39477   0.39707   0.40532
 Alpha virt. eigenvalues --    0.41204   0.41596   0.41813   0.42011   0.42159
 Alpha virt. eigenvalues --    0.42510   0.42680   0.43017   0.43455   0.44048
 Alpha virt. eigenvalues --    0.44245   0.44722   0.45777   0.45805   0.46650
 Alpha virt. eigenvalues --    0.46987   0.47829   0.48267   0.49171   0.49421
 Alpha virt. eigenvalues --    0.50219   0.50504   0.51289   0.51911   0.52835
 Alpha virt. eigenvalues --    0.53625   0.53767   0.54500   0.55222   0.56186
 Alpha virt. eigenvalues --    0.57975   0.58057   0.59125   0.61191   0.61757
 Alpha virt. eigenvalues --    0.62625   0.62835   0.63746   0.64302   0.64720
 Alpha virt. eigenvalues --    0.65152   0.65397   0.65686   0.65941   0.66252
 Alpha virt. eigenvalues --    0.66716   0.67170   0.68283   0.68544   0.68765
 Alpha virt. eigenvalues --    0.69025   0.69449   0.70024   0.71547   0.72461
 Alpha virt. eigenvalues --    0.72964   0.73185   0.73611   0.74025   0.74664
 Alpha virt. eigenvalues --    0.75584   0.76123   0.76515   0.76913   0.77500
 Alpha virt. eigenvalues --    0.77802   0.78196   0.79013   0.79075   0.79652
 Alpha virt. eigenvalues --    0.80026   0.80667   0.81000   0.81200   0.82245
 Alpha virt. eigenvalues --    0.82933   0.83694   0.84027   0.84947   0.85236
 Alpha virt. eigenvalues --    0.86390   0.86680   0.88392   0.88983   0.89685
 Alpha virt. eigenvalues --    0.90597   0.90932   0.91230   0.92737   0.93878
 Alpha virt. eigenvalues --    0.94723   0.95242   0.96223   0.97178   0.97321
 Alpha virt. eigenvalues --    0.97755   0.98349   0.98863   0.99371   1.00196
 Alpha virt. eigenvalues --    1.00804   1.00831   1.02139   1.02359   1.03156
 Alpha virt. eigenvalues --    1.03613   1.04026   1.04870   1.05443   1.06235
 Alpha virt. eigenvalues --    1.06753   1.07378   1.07868   1.08120   1.09087
 Alpha virt. eigenvalues --    1.09547   1.10026   1.10332   1.10891   1.12201
 Alpha virt. eigenvalues --    1.12518   1.13831   1.15175   1.15732   1.17158
 Alpha virt. eigenvalues --    1.17730   1.18526   1.18611   1.18979   1.19414
 Alpha virt. eigenvalues --    1.20702   1.21107   1.21876   1.22550   1.23999
 Alpha virt. eigenvalues --    1.25247   1.25769   1.26303   1.29163   1.32151
 Alpha virt. eigenvalues --    1.33038   1.34491   1.35313   1.36188   1.38101
 Alpha virt. eigenvalues --    1.40116   1.42229   1.43586   1.47236   1.47852
 Alpha virt. eigenvalues --    1.48647   1.50805   1.50996   1.51969   1.54503
 Alpha virt. eigenvalues --    1.55364   1.57049   1.58295   1.59374   1.60235
 Alpha virt. eigenvalues --    1.61359   1.62134   1.62525   1.63360   1.63565
 Alpha virt. eigenvalues --    1.63970   1.64539   1.65169   1.65502   1.66554
 Alpha virt. eigenvalues --    1.66740   1.66883   1.68139   1.68509   1.69617
 Alpha virt. eigenvalues --    1.70185   1.70460   1.70576   1.72447   1.73518
 Alpha virt. eigenvalues --    1.73671   1.74339   1.75376   1.76179   1.78202
 Alpha virt. eigenvalues --    1.78425   1.79805   1.80192   1.80963   1.81727
 Alpha virt. eigenvalues --    1.83556   1.84417   1.85321   1.86292   1.86710
 Alpha virt. eigenvalues --    1.87475   1.88960   1.90392   1.90766   1.91541
 Alpha virt. eigenvalues --    1.92583   1.93464   1.93886   1.94319   1.95394
 Alpha virt. eigenvalues --    1.96964   1.97257   1.98499   1.99549   2.01033
 Alpha virt. eigenvalues --    2.01687   2.02326   2.02878   2.03479   2.03776
 Alpha virt. eigenvalues --    2.04618   2.06550   2.06826   2.08441   2.09812
 Alpha virt. eigenvalues --    2.10496   2.10653   2.11237   2.13335   2.13660
 Alpha virt. eigenvalues --    2.14387   2.17511   2.17798   2.19908   2.20109
 Alpha virt. eigenvalues --    2.20979   2.21809   2.24564   2.25634   2.26118
 Alpha virt. eigenvalues --    2.27494   2.28093   2.29517   2.29913   2.32039
 Alpha virt. eigenvalues --    2.34419   2.36590   2.37302   2.37722   2.39405
 Alpha virt. eigenvalues --    2.40344   2.41027   2.42988   2.45570   2.46467
 Alpha virt. eigenvalues --    2.47488   2.48715   2.50657   2.51040   2.51852
 Alpha virt. eigenvalues --    2.53610   2.55650   2.55882   2.59110   2.60495
 Alpha virt. eigenvalues --    2.62487   2.63957   2.64459   2.64935   2.66438
 Alpha virt. eigenvalues --    2.66983   2.68421   2.69148   2.69775   2.71825
 Alpha virt. eigenvalues --    2.74717   2.75983   2.76888   2.78275   2.79119
 Alpha virt. eigenvalues --    2.79979   2.82005   2.82241   2.83484   2.87108
 Alpha virt. eigenvalues --    2.87635   2.87866   2.88390   2.89778   2.90626
 Alpha virt. eigenvalues --    2.91137   2.91617   2.92541   2.92923   2.94436
 Alpha virt. eigenvalues --    2.94691   2.95992   2.97184   2.98487   2.98553
 Alpha virt. eigenvalues --    3.01851   3.02480   3.02759   3.03533   3.04608
 Alpha virt. eigenvalues --    3.04890   3.05849   3.06254   3.06560   3.06783
 Alpha virt. eigenvalues --    3.08207   3.08520   3.09768   3.11240   3.11934
 Alpha virt. eigenvalues --    3.12219   3.12721   3.13537   3.16335   3.19007
 Alpha virt. eigenvalues --    3.20423   3.21011   3.21736   3.22507   3.26469
 Alpha virt. eigenvalues --    3.27164   3.27660   3.28852   3.31740   3.34763
 Alpha virt. eigenvalues --    3.34830   3.36839   3.38697   3.39533   3.40806
 Alpha virt. eigenvalues --    3.43809   3.44377   3.46932   3.51946   3.53297
 Alpha virt. eigenvalues --    3.53806   3.58725   3.67365   3.68723   3.73329
 Alpha virt. eigenvalues --    3.74553   3.76384   3.78883   3.80748   3.85201
 Alpha virt. eigenvalues --    3.85989   3.90618   3.91771   3.93653   3.95714
 Alpha virt. eigenvalues --    3.99337   4.03382   4.15339   4.23986   4.24474
 Alpha virt. eigenvalues --    4.24908   4.25434   4.26736   4.26848   4.29514
 Alpha virt. eigenvalues --    4.30658   4.35816   4.44443   4.45984   4.46825
 Alpha virt. eigenvalues --    4.54383   4.55801   4.60073   4.62567   4.71543
 Alpha virt. eigenvalues --    4.82550   4.97507   4.98100   5.13699   5.14399
 Alpha virt. eigenvalues --    5.20291   5.26845   5.46823   5.70216   5.92895
 Alpha virt. eigenvalues --    6.26699  23.82423  23.95538  24.03492  24.11487
 Alpha virt. eigenvalues --   24.14353  24.15597  24.19063  24.26349  24.26466
 Alpha virt. eigenvalues --   24.28151  24.38912  24.39482  24.42461  24.45766
 Alpha virt. eigenvalues --   24.47081  24.49165  24.50146  24.50684  35.76883
 Alpha virt. eigenvalues --   50.19498  50.23451
          Condensed to atoms (all electrons):
              1          2          3          4          5          6
     1  H    0.556269  -0.015065   0.549256   0.018340  -0.081984  -0.028375
     2  H   -0.015065   0.545678  -0.002672   0.450174  -0.005843   0.005174
     3  C    0.549256  -0.002672   9.524722   0.164324   0.174577   1.030599
     4  C    0.018340   0.450174   0.164324   4.971967  -0.028430  -0.073580
     5  C   -0.081984  -0.005843   0.174577  -0.028430  11.423123  -1.321930
     6  C   -0.028375   0.005174   1.030599  -0.073580  -1.321930  10.094734
     7  N   -0.033436  -0.064067  -0.224182   0.327924   0.294521   0.041118
     8  H   -0.015643  -0.060004   0.026525   0.429836  -0.003471   0.001726
     9  H    0.008185  -0.019826   0.017016   0.418199  -0.004991  -0.020479
    10  C   -0.005534   0.001762  -1.728259  -0.137609   0.632158  -1.488692
    11  C   -0.072738   0.007240  -2.170749  -0.126586  -1.702050  -0.096907
    12  H   -0.028636   0.001169  -0.110440   0.004234   0.023542   0.366218
    13  C   -0.005198  -0.000894  -0.163880  -0.090003  -0.046316  -0.041215
    14  C   -0.015687  -0.003619  -1.728696  -0.062016  -1.792479  -1.099649
    15  H   -0.003491   0.000413  -0.032163  -0.008233  -0.383716  -0.086507
    16  C   -0.007072  -0.001101   0.267757   0.006869  -0.484298  -1.154893
    17  H    0.000401   0.001890  -0.006635   0.010249   0.038041  -0.001895
    18  H    0.000249  -0.000199   0.000000  -0.005480   0.019824   0.000752
    19  H    0.001794  -0.003326   0.003986  -0.016123  -0.023706   0.010154
    20  H    0.004462  -0.000188  -0.012828   0.001830   0.233350   0.096790
    21  H    0.004400  -0.000155   0.065662  -0.000685  -0.000847   0.040384
    22  C   -0.005227  -0.000438   0.541957  -0.003212  -0.451469  -0.285686
    23  C    0.002367  -0.000038   0.034827   0.000729   0.001038   0.169200
    24  H   -0.001583   0.000002   0.033305  -0.000408  -0.071204  -0.006213
    25  C   -0.000424   0.000046  -0.103951  -0.000286   0.037318  -0.140818
    26  O    0.000080  -0.000001  -0.005260  -0.000002  -0.001456  -0.025327
    27  C   -0.000468   0.000010  -0.023604   0.000007   0.016088  -0.057736
    28  C    0.001104  -0.000030   0.083109   0.000173  -0.026008   0.222298
    29  C   -0.000068   0.000001  -0.002328  -0.000001   0.000975  -0.009527
    30  O    0.000002   0.000000  -0.000270   0.000000  -0.000026  -0.001133
    31  C    0.000081  -0.000001   0.006092   0.000010  -0.001546   0.029576
    32  H    0.000107  -0.000003   0.002336   0.000045   0.003137   0.006138
    33  H   -0.000002   0.000000  -0.000049   0.000000   0.000014  -0.000175
    34  C    0.000034  -0.000001   0.002499   0.000003  -0.000885   0.011407
    35  H    0.000020   0.000000   0.000190   0.000001  -0.000117   0.002569
    36  H   -0.000003   0.000000  -0.000248  -0.000002  -0.000036  -0.000823
    37  C    0.000002   0.000000   0.000033   0.000000   0.000008   0.000106
    38  H    0.000000   0.000000   0.000000   0.000000  -0.000001  -0.000002
    39  H    0.000000   0.000000   0.000007   0.000000  -0.000001   0.000053
    40  H    0.000000   0.000000   0.000000   0.000000   0.000000   0.000000
              7          8          9         10         11         12
     1  H   -0.033436  -0.015643   0.008185  -0.005534  -0.072738  -0.028636
     2  H   -0.064067  -0.060004  -0.019826   0.001762   0.007240   0.001169
     3  C   -0.224182   0.026525   0.017016  -1.728259  -2.170749  -0.110440
     4  C    0.327924   0.429836   0.418199  -0.137609  -0.126586   0.004234
     5  C    0.294521  -0.003471  -0.004991   0.632158  -1.702050   0.023542
     6  C    0.041118   0.001726  -0.020479  -1.488692  -0.096907   0.366218
     7  N    7.112105  -0.053536  -0.033283  -0.308858  -0.019114  -0.001918
     8  H   -0.053536   0.569805  -0.025349  -0.019424   0.007131   0.001753
     9  H   -0.033283  -0.025349   0.520605   0.018913  -0.005182  -0.000183
    10  C   -0.308858  -0.019424   0.018913   8.886574  -0.816263  -0.011703
    11  C   -0.019114   0.007131  -0.005182  -0.816263   9.874264   0.048226
    12  H   -0.001918   0.001753  -0.000183  -0.011703   0.048226   0.522788
    13  C    0.307571   0.005331  -0.014544   0.071086  -0.031823  -0.000564
    14  C   -0.027519  -0.005920   0.005267   1.758898   1.080467  -0.006829
    15  H   -0.034882   0.000194   0.002752   0.394136   0.146514   0.001374
    16  C   -0.002060  -0.001016   0.002063  -0.163185   0.051753   0.028212
    17  H   -0.055051  -0.007080   0.003110   0.016899  -0.008572  -0.000133
    18  H   -0.059469   0.002585  -0.004365   0.008041  -0.010036  -0.000346
    19  H   -0.036777   0.001754   0.007218   0.018046   0.002820  -0.000193
    20  H   -0.002843  -0.000422  -0.000596   0.075332  -0.085227  -0.005743
    21  H   -0.000439  -0.000214   0.000035   0.007083  -0.167425  -0.018753
    22  C    0.002744   0.000109   0.000354  -0.787488  -0.889173  -0.001398
    23  C    0.000080  -0.000004  -0.000012  -0.012445   0.214501  -0.000845
    24  H   -0.000297   0.000087   0.000025  -0.148083  -0.018617   0.001741
    25  C   -0.000085   0.000048  -0.000039   0.170409   0.128162   0.004444
    26  O    0.000001  -0.000001   0.000000   0.001334   0.066152   0.001177
    27  C   -0.000031   0.000002  -0.000001   0.038096   0.010526   0.003473
    28  C    0.000069  -0.000037   0.000027  -0.123110  -0.093006  -0.005891
    29  C   -0.000001   0.000000   0.000000   0.000961  -0.037342   0.000427
    30  O    0.000000   0.000000   0.000000   0.000248   0.004123   0.000064
    31  C    0.000015  -0.000002   0.000001  -0.011441   0.028121  -0.000240
    32  H    0.000005  -0.000004   0.000004   0.001533  -0.001835  -0.000269
    33  H    0.000000   0.000000   0.000000   0.000034  -0.001059   0.000022
    34  C    0.000001  -0.000001   0.000000  -0.008197   0.014735  -0.000399
[...]
     6  C   -0.044194  -0.873779  -0.046552  -1.013004  -0.003135  -0.002905
     7  N    0.298189  -0.029269  -0.036496  -0.004967  -0.055115  -0.055191
     8  H   -0.000962  -0.003509  -0.001027  -0.002721  -0.001257   0.002206
     9  H   -0.011615   0.003661   0.002442   0.003112  -0.003125  -0.001220
    10  C    0.095297   1.707407   0.368379  -0.162466   0.026625   0.015550
    11  C   -0.010950   0.774037   0.131347  -0.171105  -0.006969  -0.010492
    12  H   -0.001142  -0.019625   0.000468   0.053124  -0.000077  -0.000034
    13  C    5.214176   0.001799   0.011577  -0.002445   0.424640   0.415196
    14  C    0.001799   9.467619   0.088525  -0.265188  -0.009934  -0.014529
    15  H    0.011577   0.088525   0.545407   0.046242  -0.013917  -0.013585
    16  C   -0.002445  -0.265188   0.046242   7.107051  -0.001142  -0.001041
    17  H    0.424640  -0.009934  -0.013917  -0.001142   0.558399  -0.063210
    18  H    0.415196  -0.014529  -0.013585  -0.001041  -0.063210   0.565621
    19  H    0.400058   0.002771   0.007312  -0.001309  -0.020213  -0.023491
    20  H    0.005053   0.383068  -0.047568  -0.086955   0.001964   0.002834
    21  H    0.000586   0.009680   0.000385   0.350659   0.000015   0.000024
    22  C    0.004649  -1.214075   0.043470   0.365778  -0.000525  -0.000706
    23  C   -0.000665  -0.302682  -0.004371  -0.747162   0.000059   0.000108
    24  H   -0.000857  -0.166655   0.019375  -0.024687  -0.000450  -0.000523
    25  C    0.000329   0.302403  -0.005640   0.522037   0.000050   0.000003
    26  O    0.000007   0.016979   0.000043   0.112525  -0.000001  -0.000001
    27  C   -0.000103   0.230697  -0.001795   0.135060   0.000022   0.000019
    28  C   -0.000385  -0.163082   0.000413  -0.336548   0.000003   0.000073
    29  C   -0.000007   0.030321  -0.000095   0.052069   0.000002   0.000001
    30  O    0.000000   0.001554  -0.000005   0.047501   0.000000   0.000000
    31  C   -0.000082  -0.006045  -0.001360   0.025044   0.000011   0.000033
    32  H   -0.000039   0.015876  -0.001238  -0.000882   0.000046   0.000034
    33  H    0.000000   0.000412  -0.000001   0.002426   0.000000   0.000000
    34  C   -0.000004   0.002741  -0.000210  -0.035052   0.000002   0.000004
    35  H   -0.000002  -0.003254  -0.000020  -0.020628   0.000000   0.000000
    36  H    0.000003  -0.001279   0.000063   0.000281  -0.000001  -0.000002
    37  C    0.000000   0.001585  -0.000038   0.002785   0.000000   0.000000
    38  H    0.000000   0.000005   0.000000  -0.000083   0.000000   0.000000
    39  H    0.000000   0.000008  -0.000002  -0.000082   0.000000   0.000000
    40  H    0.000000  -0.000025   0.000000  -0.000049   0.000000   0.000000
             19         20         21         22         23         24
     1  H    0.001945   0.001257   0.001806  -0.010743   0.001646  -0.000241
     2  H   -0.001411  -0.000345  -0.000158   0.000063  -0.000049   0.000099
     3  C    0.007920  -0.028622   0.025329   0.536238   0.029080   0.042618
     4  C   -0.014972   0.000284  -0.000864  -0.006376   0.001735  -0.000067
     5  C   -0.015875   0.208986  -0.000580  -0.373619   0.077519  -0.087692
     6  C    0.008694   0.062089   0.031044  -0.203202   0.125898  -0.002637
     7  N   -0.047570  -0.000806  -0.000405  -0.000102  -0.000062  -0.000935
     8  H   -0.002985   0.000245  -0.000048   0.000250  -0.000009  -0.000112
     9  H    0.014515  -0.000503  -0.000013   0.000095   0.000039   0.000054
    10  C    0.015709   0.091957   0.013877  -0.776668   0.045111  -0.179858
    11  C    0.005233  -0.141410  -0.136935  -1.110279   0.273850   0.115279
    12  H   -0.000228  -0.003330  -0.003818   0.011465   0.000140   0.001942
    13  C    0.400058   0.005053   0.000586   0.004649  -0.000665  -0.000857
    14  C    0.002771   0.383068   0.009680  -1.214075  -0.302682  -0.166655
    15  H    0.007312  -0.047568   0.000385   0.043470  -0.004371   0.019375
    16  C   -0.001309  -0.086955   0.350659   0.365778  -0.747162  -0.024687
    17  H   -0.020213   0.001964   0.000015  -0.000525   0.000059  -0.000450
    18  H   -0.023491   0.002834   0.000024  -0.000706   0.000108  -0.000523
    19  H    0.508542  -0.000089   0.000023   0.000145  -0.000043  -0.000002
    20  H   -0.000089   0.598906   0.001412  -0.187774  -0.015819  -0.083143
    21  H    0.000023   0.001412   0.452227   0.023800   0.003558   0.001784
    22  C    0.000145  -0.187774   0.023800  10.011200   0.234905   0.857342
    23  C   -0.000043  -0.015819   0.003558   0.234905   7.876764   0.108967
    24  H   -0.000002  -0.083143   0.001784   0.857342   0.108967   0.944515
    25  C    0.000030   0.033239  -0.033930  -1.025843   0.426165  -0.085750
    26  O    0.000000   0.002258   0.002050  -0.385486   0.692687  -0.004936
    27  C   -0.000006   0.019607  -0.001135   0.148826  -2.007664  -0.043288
    28  C   -0.000028  -0.014252   0.006418  -0.273151   0.231504   0.012388
    29  C    0.000000   0.000552   0.001551   0.214346  -0.455455   0.004289
    30  O    0.000000   0.000269  -0.001827  -0.062317  -0.094490  -0.000878
    31  C   -0.000005   0.016183   0.000365  -0.830556  -0.650504  -0.135002
    32  H   -0.000009   0.000230   0.001900  -0.027363  -0.052085  -0.047258
    33  H    0.000000   0.000006  -0.000122   0.000642  -0.025028  -0.000518
    34  C   -0.000001   0.003426   0.003375  -0.063599   0.044551  -0.016885
    35  H    0.000000  -0.000034   0.000278   0.023345   0.040563   0.001474
    36  H    0.000000  -0.000737  -0.000217   0.005185   0.005197   0.009339
    37  C    0.000000   0.001183   0.000386  -0.024420   0.033690  -0.013391
    38  H    0.000000  -0.000010   0.000000   0.000359   0.001102   0.000140
    39  H    0.000000   0.000016   0.000005  -0.002040  -0.001245  -0.000544
    40  H    0.000000  -0.000001   0.000001   0.000042   0.001888   0.000140
             25         26         27         28         29         30
     1  H   -0.000496   0.000061  -0.000183  -0.000107  -0.000031  -0.000001
     2  H    0.000041  -0.000001   0.000000  -0.000026   0.000000   0.000000
     3  C   -0.100656  -0.005568  -0.012389   0.050165  -0.000980  -0.000324
     4  C   -0.000351   0.000004   0.000030   0.000056   0.000000   0.000000
     5  C    0.048347  -0.001296   0.013289  -0.008087   0.000261  -0.000017
     6  C   -0.099298  -0.024731  -0.035240   0.147201  -0.004360  -0.001006
     7  N   -0.000084   0.000001  -0.000022   0.000029   0.000000   0.000000
     8  H    0.000042  -0.000002   0.000003   0.000016   0.000000   0.000000
     9  H   -0.000035   0.000000   0.000001   0.000013   0.000000   0.000000
    10  C    0.161827   0.001573   0.024068  -0.059468  -0.002376   0.000325
    11  C    0.154632   0.065351  -0.024902  -0.199774  -0.043013   0.001466
    12  H    0.001553   0.000406   0.001565  -0.001405   0.000222   0.000079
    13  C    0.000329   0.000007  -0.000103  -0.000385  -0.000007   0.000000
    14  C    0.302403   0.016979   0.230697  -0.163082   0.030321   0.001554
    15  H   -0.005640   0.000043  -0.001795   0.000413  -0.000095  -0.000005
    16  C    0.522037   0.112525   0.135060  -0.336548   0.052069   0.047501
    17  H    0.000050  -0.000001   0.000022   0.000003   0.000002   0.000000
    18  H    0.000003  -0.000001   0.000019   0.000073   0.000001   0.000000
    19  H    0.000030   0.000000  -0.000006  -0.000028   0.000000   0.000000
    20  H    0.033239   0.002258   0.019607  -0.014252   0.000552   0.000269
    21  H   -0.033930   0.002050  -0.001135   0.006418   0.001551  -0.001827
    22  C   -1.025843  -0.385486   0.148826  -0.273151   0.214346  -0.062317
    23  C    0.426165   0.692687  -2.007664   0.231504  -0.455455  -0.094490
    24  H   -0.085750  -0.004936  -0.043288   0.012388   0.004289  -0.000878
    25  C   12.525362  -0.044367  -1.411076  -0.149275  -3.200405   0.135553
    26  O   -0.044367   8.131664  -0.186674  -0.077711   0.000179   0.011256
    27  C   -1.411076  -0.186674   9.411401  -0.739265   1.445230   0.317555
    28  C   -0.149275  -0.077711  -0.739265   8.688199  -0.411544  -0.032444
    29  C   -3.200405   0.000179   1.445230  -0.411544   9.468292  -0.349645
    30  O    0.135553   0.011256   0.317555  -0.032444  -0.349645   8.156666
    31  C   -2.575767  -0.023461  -0.019658   1.284484  -1.001772  -0.017402
    32  H   -0.096113  -0.000934   0.039589   0.449279   0.025822  -0.002569
    33  H   -0.109231   0.000644  -0.114363   0.035793   0.539863  -0.030718
    34  C   -0.264237  -0.017772  -0.921398  -1.542950   0.306669  -0.001838
    35  H   -0.146780   0.096725   0.035505   0.013677   0.054988   0.223003
    36  H    0.081884   0.000306   0.004939   0.026745   0.011120   0.000210
    37  C   -0.177438  -0.000392  -0.169576  -0.100670  -0.461634   0.004897
    38  H    0.017433  -0.000027  -0.002666  -0.012342  -0.018408   0.000278
    39  H   -0.015197   0.000027  -0.007689   0.006650  -0.018700   0.000344
    40  H    0.011709  -0.000020   0.018248  -0.020977   0.046928   0.000196
             31         32         33         34         35         36
     1  H   -0.000069  -0.000054  -0.000001  -0.000002   0.000003   0.000002
     2  H   -0.000002  -0.000003   0.000000  -0.000001   0.000000   0.000000
     3  C    0.003625  -0.000295  -0.000028   0.001459  -0.000030  -0.000100
     4  C   -0.000003   0.000021   0.000000   0.000002  -0.000002  -0.000001
     5  C   -0.000085   0.003838   0.000006  -0.000076  -0.000026   0.000046
     6  C    0.029135   0.003598  -0.000066   0.007912   0.002781  -0.000472
     7  N    0.000011   0.000037   0.000000   0.000000   0.000000  -0.000001
     8  H    0.000004   0.000006   0.000000   0.000000   0.000001   0.000000
     9  H    0.000001   0.000001   0.000000   0.000000   0.000000   0.000000
    10  C   -0.003713   0.005574   0.000010  -0.003395   0.000142   0.000445
    11  C   -0.060158  -0.027489  -0.000726  -0.007715  -0.002290   0.001555
    12  H   -0.000009   0.000030   0.000011  -0.000150  -0.000040   0.000004
    13  C   -0.000082  -0.000039   0.000000  -0.000004  -0.000002   0.000003
    14  C   -0.006045   0.015876   0.000412   0.002741  -0.003254  -0.001279
    15  H   -0.001360  -0.001238  -0.000001  -0.000210  -0.000020   0.000063
    16  C    0.025044  -0.000882   0.002426  -0.035052  -0.020628   0.000281
    17  H    0.000011   0.000046   0.000000   0.000002   0.000000  -0.000001
    18  H    0.000033   0.000034   0.000000   0.000004   0.000000  -0.000002
    19  H   -0.000005  -0.000009   0.000000  -0.000001   0.000000   0.000000
    20  H    0.016183   0.000230   0.000006   0.003426  -0.000034  -0.000737
    21  H    0.000365   0.001900  -0.000122   0.003375   0.000278  -0.000217
    22  C   -0.830556  -0.027363   0.000642  -0.063599   0.023345   0.005185
    23  C   -0.650504  -0.052085  -0.025028   0.044551   0.040563   0.005197
    24  H   -0.135002  -0.047258  -0.000518  -0.016885   0.001474   0.009339
    25  C   -2.575767  -0.096113  -0.109231  -0.264237  -0.146780   0.081884
    26  O   -0.023461  -0.000934   0.000644  -0.017772   0.096725   0.000306
    27  C   -0.019658   0.039589  -0.114363  -0.921398   0.035505   0.004939
    28  C    1.284484   0.449279   0.035793  -1.542950   0.013677   0.026745
    29  C   -1.001772   0.025822   0.539863   0.306669   0.054988   0.011120
    30  O   -0.017402  -0.002569  -0.030718  -0.001838   0.223003   0.000210
    31  C   10.033192   0.004741   0.043731   0.552979   0.012370   0.291262
    32  H    0.004741   0.585644   0.002160  -0.024679   0.000404  -0.027601
    33  H    0.043731   0.002160   0.476094  -0.008690   0.001126  -0.000318
    34  C    0.552979  -0.024679  -0.008690   8.337067  -0.006703  -0.072178
    35  H    0.012370   0.000404   0.001126  -0.006703   0.287182   0.000344
    36  H    0.291262  -0.027601  -0.000318  -0.072178   0.000344   0.517689
    37  C    0.171177   0.018854  -0.032922  -0.852797  -0.001810  -0.031497
    38  H   -0.042837  -0.000343  -0.001843   0.068049  -0.000042   0.000213
    39  H    0.101033   0.002524   0.001753  -0.100769   0.000049  -0.005482
    40  H   -0.073289  -0.000715  -0.003076   0.001663  -0.000041   0.000740
             37         38         39         40
     1  H    0.000000   0.000000   0.000000   0.000000
     2  H    0.000000   0.000000   0.000000   0.000000
     3  C    0.000019   0.000000   0.000004   0.000000
     4  C    0.000000   0.000000   0.000000   0.000000
     5  C    0.000038   0.000001  -0.000003  -0.000001
     6  C    0.000182  -0.000003   0.000035  -0.000001
     7  N    0.000000   0.000000   0.000000   0.000000
     8  H    0.000000   0.000000   0.000000   0.000000
     9  H    0.000000   0.000000   0.000000   0.000000
    10  C    0.000319   0.000007  -0.000047  -0.000002
    11  C   -0.001056   0.000042  -0.000150   0.000035
    12  H   -0.000008   0.000000   0.000000   0.000000
    13  C    0.000000   0.000000   0.000000   0.000000
    14  C    0.001585   0.000005   0.000008  -0.000025
    15  H   -0.000038   0.000000  -0.000002   0.000000
    16  C    0.002785  -0.000083  -0.000082  -0.000049
    17  H    0.000000   0.000000   0.000000   0.000000
    18  H    0.000000   0.000000   0.000000   0.000000
    19  H    0.000000   0.000000   0.000000   0.000000
    20  H    0.001183  -0.000010   0.000016  -0.000001
    21  H    0.000386   0.000000   0.000005   0.000001
    22  C   -0.024420   0.000359  -0.002040   0.000042
    23  C    0.033690   0.001102  -0.001245   0.001888
    24  H   -0.013391   0.000140  -0.000544   0.000140
    25  C   -0.177438   0.017433  -0.015197   0.011709
    26  O   -0.000392  -0.000027   0.000027  -0.000020
    27  C   -0.169576  -0.002666  -0.007689   0.018248
    28  C   -0.100670  -0.012342   0.006650  -0.020977
    29  C   -0.461634  -0.018408  -0.018700   0.046928
    30  O    0.004897   0.000278   0.000344   0.000196
    31  C    0.171177  -0.042837   0.101033  -0.073289
    32  H    0.018854  -0.000343   0.002524  -0.000715
    33  H   -0.032922  -0.001843   0.001753  -0.003076
    34  C   -0.852797   0.068049  -0.100769   0.001663
    35  H   -0.001810  -0.000042   0.000049  -0.000041
    36  H   -0.031497   0.000213  -0.005482   0.000740
    37  C    7.067315   0.352800   0.382824   0.374252
    38  H    0.352800   0.520938  -0.018837  -0.051423
    39  H    0.382824  -0.018837   0.526933  -0.020319
    40  H    0.374252  -0.051423  -0.020319   0.537343
 Mulliken atomic charges:
              1
     1  H    0.189092
     2  H    0.175216
     3  C   -0.221170
     4  C   -0.379586
     5  C   -0.422085
     6  C   -0.255549
     7  N    0.052039
     8  H    0.179270
     9  H    0.154486
    10  C   -0.360144
    11  C    0.643695
    12  H    0.213917
    13  C   -0.386933
    14  C   -0.441592
    15  H    0.219460
    16  C    0.059277
    17  H    0.177260
    18  H    0.173835
    19  H    0.155338
    20  H    0.176371
    21  H    0.247512
    22  C    0.096698
    23  C    0.100611
    24  H   -0.223436
    25  C    1.119329
    26  O   -0.361368
    27  C   -0.146562
    28  C   -0.809616
    29  C   -0.234278
    30  O   -0.305672
    31  C   -1.127602
    32  H    0.149462
    33  H    0.222978
    34  C    0.611198
    35  H    0.387741
    36  H    0.182310
    37  C   -0.544655
    38  H    0.187497
    39  H    0.168902
    40  H    0.176754
 Sum of Mulliken atomic charges =   0.00000
 Mulliken charges with hydrogens summed into heavy atoms:
              1
     3  C   -0.032079
     4  C    0.129386
     5  C   -0.422085
     6  C   -0.041631
     7  N    0.052039
    10  C   -0.140684
    11  C    0.643695
    13  C    0.119499
    14  C   -0.265220
    16  C    0.306789
    22  C   -0.126738
    23  C    0.100611
    25  C    1.119329
    26  O   -0.361368
    27  C   -0.146562
    28  C   -0.660153
    29  C   -0.011300
    30  O    0.082070
    31  C   -0.945292
    34  C    0.611198
    37  C   -0.011502
 Sum of Mulliken charges with hydrogens summed into heavy atoms =   0.00000
 Electronic spatial extent (au):  <R**2>=          11873.0722
 Charge=              0.0000 electrons
 Dipole moment (field-independent basis, Debye):
    X=              7.6290    Y=              4.6094    Z=             -0.1130  Tot=              8.9141
 Quadrupole moment (field-independent basis, Debye-Ang):
   XX=            -82.7166   YY=           -121.6582   ZZ=           -131.5854
   XY=             -9.8932   XZ=              0.3041   YZ=              0.7433
 Traceless Quadrupole moment (field-independent basis, Debye-Ang):
   XX=             29.2701   YY=             -9.6715   ZZ=            -19.5987
   XY=             -9.8932   XZ=              0.3041   YZ=              0.7433
 Octapole moment (field-independent basis, Debye-Ang**2):
  XXX=            265.1982  YYY=             19.2606  ZZZ=              2.0676  XYY=             49.4928
  XXY=             93.3670  XXZ=              1.1712  XZZ=             -1.5087  YZZ=             -5.0104
  YYZ=             -1.8578  XYZ=              2.2208
 Hexadecapole moment (field-independent basis, Debye-Ang**3):
 XXXX=         -11606.4552 YYYY=          -1571.4093 ZZZZ=           -174.4880 XXXY=            -58.5965
 XXXZ=             -6.4747 YYYX=            -25.9567 YYYZ=             -0.4060 ZZZX=             -7.4873
 ZZZY=              1.0221 XXYY=          -2560.8267 XXZZ=          -2542.9722 YYZZ=           -309.6997
 XXYZ=             21.6507 YYXZ=              9.2298 ZZXY=             30.8867
 N-N= 1.475218692405D+03 E-N=-5.050920756581D+03  KE= 8.985811734121D+02
 1\1\GINC-NXN32\FOpt\RwB97XD TD-FC\6-311++G(d,p)\C18H19N1O2\ROOT\28-Oct
 -2015\0\\#wb97xd 6-311++g** opt td(nstates=1,root=1) scf(maxcycle=500,
 xqc)\\GeomOpt\\0,1\H,-0.6795892409,15.5644873404,5.2673248798\H,-1.827
 2049031,15.2099693775,7.1946700165\C,-1.1879155399,16.3310544927,4.698
 3502819\C,-1.5510262574,16.2219727083,7.5095587653\C,-2.033993197,17.2
 73147696,5.3565493983\C,-1.0035272269,16.3800802152,3.3458010375\N,-2.
 2206813856,17.2274783871,6.7066542785\H,-0.4609651691,16.3199284729,7.
 4489539923\H,-1.8442180683,16.3418629407,8.5504286893\C,-2.6710644956,
 18.2536929076,4.5540346215\C,-1.6341760598,17.3598830926,2.5236643372\
 H,-0.3521311746,15.6533914113,2.8720618894\C,-3.0652517204,18.20797636
 43,7.3602069076\C,-2.4819780688,18.2952975537,3.1959863459\H,-3.325061
 6453,18.9854900749,5.0090437718\C,-1.4060001286,17.3673880797,1.125699
 1279\H,-2.6858255715,19.2252210072,7.2088191756\H,-4.093628436,18.1622
 696087,6.984445125\H,-3.0862184582,18.0083935931,8.429506469\H,-2.9972
 178022,19.0582195831,2.6256238619\H,-0.7729344188,16.5949659143,0.7006
 87883\C,-1.9295475149,18.3032420568,0.2387713163\C,-1.6723836465,18.21
 10371215,-1.1704491871\H,-2.5527678068,19.1067462588,0.6087467606\C,-2
 .2179459828,19.2166423101,-2.0929323795\O,-0.9913044202,17.2388059821,
 -1.6221780546\C,-2.0405281005,19.0179573785,-3.4993066606\C,-2.9085280
 132,20.3742098522,-1.6970510232\C,-2.5577417174,19.9369867035,-4.41592
 94111\O,-1.3856329555,17.9623041844,-3.9583503316\C,-3.4101241066,21.2
 74963633,-2.6157552241\H,-3.0473472881,20.5833897187,-0.6433766521\H,-
 2.4010325047,19.7387553355,-5.4709940302\C,-3.2450758351,21.0642283097
 ,-3.9944940191\H,-1.0842285461,17.4538840359,-3.1392555105\H,-3.933509
 8408,22.1595979978,-2.2683083533\C,-3.8023931508,22.0361415541,-4.9987
 957423\H,-4.5884899761,21.5666377356,-5.5984130803\H,-4.2305938204,22.
 9133969958,-4.5099016648\H,-3.0256658052,22.3760120146,-5.6897876073\\
 Version=EM64L-G09RevC.01\State=1-A\HF=-902.4801469\RMSD=4.489e-09\RMSF
 =5.113e-06\Dipole=-0.8729621,0.3239871,4.9095808\PG=C01 [X(C18H19N1O2)
 ]\\@


 IT TAKES GREATER CHARACTER TO CARRY OFF GOOD FORTUNE THAN BAD.
                     FRENCH PROVERB.
 Job cpu time:  6 days 16 hours 27 minutes  5.1 seconds.
 File lengths (MBytes):  RWF=    329 Int=      0 D2E=      0 Chk=     45 Scr=      1
 Normal termination of Gaussian 09 at Wed Oct 28 08:39:43 2015.
