 Entering Gaussian System, Link 0=g09
 Input=methyl_opt.com
 Output=methyl_opt.out
 Initial command:
 /share/apps/gaussian/g09/l1.exe /tmp/3520767.1.smserial.q/Gau-40934.inp -scrdir=/tmp/3520767.1.smserial.q/
 Entering Link 1 = /share/apps/gaussian/g09/l1.exe PID=     40935.
  
 Copyright (c) 1988,1990,1992,1993,1995,1998,2003,2009,2011,
            Gaussian, Inc.  All Rights Reserved.
  
 This is part of the Gaussian(R) 09 program.  It is based on
 the Gaussian(R) 03 system (copyright 2003, Gaussian, Inc.),
 the Gaussian(R) 98 system (copyright 1998, Gaussian, Inc.),
 the Gaussian(R) 94 system (copyright 1995, Gaussian, Inc.),
 the Gaussian 92(TM) system (copyright 1992, Gaussian, Inc.),
 the Gaussian 90(TM) system (copyright 1990, Gaussian, Inc.),
 the Gaussian 88(TM) system (copyright 1988, Gaussian, Inc.),
 the Gaussian 86(TM) system (copyright 1986, Carnegie Mellon
 University), and the Gaussian 82(TM) system (copyright 1983,
 Carnegie Mellon University). Gaussian is a federally registered
 trademark of Gaussian, Inc.
  
 This software contains proprietary and confidential information,
 including trade secrets, belonging to Gaussian, Inc.
  
 This software is provided under written license and may be
 used, copied, transmitted, or stored only in accord with that
 written license.
  
 The following legend is applicable only to US Government
 contracts under FAR:
  
                    RESTRICTED RIGHTS LEGEND
  
 Use, reproduction and disclosure by the US Government is
 subject to restrictions as set forth in subparagraphs (a)
 and (c) of the Commercial Computer Software - Restricted
 Rights clause in FAR 52.227-19.
  
 Gaussian, Inc.
 340 Quinnipiac St., Bldg. 40, Wallingford CT 06492
  
  
 ---------------------------------------------------------------
 Warning -- This program may not be used in any manner that
 competes with the business of Gaussian, Inc. or will provide
 assistance to any competitor of Gaussian, Inc.  The licensee
 of this program is prohibited from giving any competitor of
 Gaussian, Inc. access to this program.  By using this program,
 the user acknowledges that Gaussian, Inc. is engaged in the
 business of creating and licensing software in the field of
 computational chemistry and represents and warrants to the
 licensee that it is not a competitor of Gaussian, Inc. and that
 it will not use this program in any manner prohibited above.
 ---------------------------------------------------------------
  

 Cite this work as:
 Gaussian 09, Revision C.01,
 M. J. Frisch, G. W. Trucks, H. B. Schlegel, G. E. Scuseria, 
 M. A. Robb, J. R. Cheeseman, G. Scalmani, V. Barone, B. Mennucci, 
 G. A. Petersson, H. Nakatsuji, M. Caricato, X. Li, H. P. Hratchian, 
 A. F. Izmaylov, J. Bloino, G. Zheng, J. L. Sonnenberg, M. Hada, 
 M. Ehara, K. Toyota, R. Fukuda, J. Hasegawa, M. Ishida, T. Nakajima, 
 Y. Honda, O. Kitao, H. Nakai, T. Vreven, J. A. Montgomery, Jr., 
 J. E. Peralta, F. Ogliaro, M. Bearpark, J. J. Heyd, E. Brothers, 
 K. N. Kudin, V. N. Staroverov, T. Keith, R. Kobayashi, J. Normand, 
 K. Raghavachari, A. Rendell, J. C. Burant, S. S. Iyengar, J. Tomasi, 
 M. Cossi, N. Rega, J. M. Millam, M. Klene, J. E. Knox, J. B. Cross, 
 V. Bakken, C. Adamo, J. Jaramillo, R. Gomperts, R. E. Stratmann, 
 O. Yazyev, A. J. Austin, R. Cammi, C. Pomelli, J. W. Ochterski, 
 R. L. Martin, K. Morokuma, V. G. Zakrzewski, G. A. Voth, 
 P. Salvador, J. J. Dannenberg, S. Dapprich, A. D. Daniels, 
 O. Farkas, J. B. Foresman, J. V. Ortiz, J. Cioslowski, 
 and D. J. Fox, Gaussian, Inc., Wallingford CT, 2010.
 
 ******************************************
 Gaussian 09:  EM64L-G09RevC.01 23-Sep-2011
                26-Oct-2015 
 ******************************************
 %chk=methyl_opt
 %mem=4GB
 %nproc=4
 Will use up to    4 processors via shared memory.
 --------------------------------------------
 #wb97xd 6-311++g** opt scf(maxcycle=999,xqc)
 --------------------------------------------
 1/14=-1,18=20,19=15,26=3,38=1/1,3;
 2/9=110,12=2,17=6,18=5,40=1/2;
 3/5=4,6=6,7=1111,11=2,16=1,25=1,30=1,71=1,74=-58/1,2,3;
 4//1;
 5/5=2,7=999,8=3,13=1,38=5/2,8;
 6/7=2,8=2,9=2,10=2,28=1/1;
 7//1,2,3,16;
 1/14=-1,18=20,19=15/3(2);
 2/9=110/2;
 99//99;
 2/9=110/2;
 3/5=4,6=6,7=1111,11=2,16=1,25=1,30=1,71=1,74=-58/1,2,3;
 4/5=5,16=3/1;
 5/5=2,7=999,8=3,13=1,38=5/2,8;
 7//1,2,3,16;
 1/14=-1,18=20,19=15/3(-5);
 2/9=110/2;
 6/7=2,8=2,9=2,10=2,19=2,28=1/1;
 99/9=1/99;
 -----
 title
 -----
 Charge =  0 Multiplicity = 1
 Symbolic Z-Matrix:
 H                    -0.84263   15.64255   5.1619 
 H                    -2.00924   15.34391   7.25345 
 C                    -1.23006   16.34483   4.69216 
 C                    -1.61308   16.17524   7.52246 
 C                    -1.97112   17.31008   5.38315 
 C                    -1.06688   16.41887   3.33471 
 N                    -2.1674    17.2494   6.73305 
 H                    -0.66357   16.1361   7.38633 
 H                    -1.79641   16.33257   8.45048 
 C                    -2.50034   18.36303   4.62118 
 C                    -1.6178    17.44588   2.56604 
 H                    -0.56973   15.75887   2.90829 
 C                    -3.03918   18.18352   7.4034 
 C                    -2.32348   18.41961   3.26384 
 H                    -2.98025   19.03607   5.0463 
 C                    -1.46252   17.44918   1.1268 
 H                    -2.71599   19.07694   7.2675 
 H                    -3.92642   18.10556   7.04602 
 H                    -3.05475   17.98925   8.34352 
 H                    -2.68813   19.13352   2.7927 
 H                    -0.93775   16.76796   0.77353 
 C                    -1.97772   18.30754   0.24254 
 C                    -1.71863   18.19704  -1.18482 
 H                    -2.51888   18.99835   0.54882 
 C                    -2.28009   19.15568  -2.13228 
 O                    -0.97938   17.27785  -1.61037 
 C                    -2.01074   19.03906  -3.50843 
 C                    -3.06664   20.25312  -1.73849 
 C                    -2.51327   19.95589  -4.4143 
 O                    -1.2389    18.04049  -3.99426 
 C                    -3.55463   21.16099  -2.65042 
 H                    -3.26236   20.36896  -0.83619 
 H                    -2.3362    19.84398  -5.32071 
 C                    -3.26897   21.03021  -4.00441 
 H                    -1.00038   17.55543  -3.37825 
 H                    -4.08075   21.87003  -2.35732 
 C                    -3.77435   22.04748  -4.99444 
 H                    -4.37552   21.62325  -5.61024 
 H                    -4.23808   22.74709  -4.52665 
 H                    -3.03323   22.42173  -5.47628 
 

 GradGradGradGradGradGradGradGradGradGradGradGradGradGradGradGradGradGrad
 Berny optimization.
 Initialization pass.
                           ----------------------------
                           !    Initial Parameters    !
                           ! (Angstroms and Degrees)  !
 --------------------------                            --------------------------
 ! Name  Definition              Value          Derivative Info.                !
 --------------------------------------------------------------------------------
 ! R1    R(1,3)                  0.9295         estimate D2E/DX2                !
 ! R2    R(2,4)                  0.9594         estimate D2E/DX2                !
 ! R3    R(3,5)                  1.3994         estimate D2E/DX2                !
 ! R4    R(3,6)                  1.3692         estimate D2E/DX2                !
 ! R5    R(4,7)                  1.4437         estimate D2E/DX2                !
 ! R6    R(4,8)                  0.96           estimate D2E/DX2                !
 ! R7    R(4,9)                  0.9589         estimate D2E/DX2                !
 ! R8    R(5,7)                  1.3654         estimate D2E/DX2                !
 ! R9    R(5,10)                 1.4033         estimate D2E/DX2                !
 ! R10   R(6,11)                 1.3961         estimate D2E/DX2                !
 ! R11   R(6,12)                 0.9298         estimate D2E/DX2                !
 ! R12   R(7,13)                 1.4429         estimate D2E/DX2                !
 ! R13   R(10,14)                1.37           estimate D2E/DX2                !
 ! R14   R(10,15)                0.9295         estimate D2E/DX2                !
 ! R15   R(11,14)                1.3903         estimate D2E/DX2                !
 ! R16   R(11,16)                1.4476         estimate D2E/DX2                !
 ! R17   R(13,17)                0.9597         estimate D2E/DX2                !
 ! R18   R(13,18)                0.9597         estimate D2E/DX2                !
 ! R19   R(13,19)                0.9601         estimate D2E/DX2                !
 ! R20   R(14,20)                0.9298         estimate D2E/DX2                !
 ! R21   R(16,21)                0.9296         estimate D2E/DX2                !
 ! R22   R(16,22)                1.3357         estimate D2E/DX2                !
 ! R23   R(22,23)                1.4549         estimate D2E/DX2                !
 ! R24   R(22,24)                0.9295         estimate D2E/DX2                !
 ! R25   R(23,25)                1.4601         estimate D2E/DX2                !
 ! R26   R(23,26)                1.254          estimate D2E/DX2                !
 ! R27   R(25,27)                1.4071         estimate D2E/DX2                !
 ! R28   R(25,28)                1.4065         estimate D2E/DX2                !
 ! R29   R(27,29)                1.3834         estimate D2E/DX2                !
 ! R30   R(27,30)                1.3524         estimate D2E/DX2                !
 ! R31   R(28,31)                1.3762         estimate D2E/DX2                !
 ! R32   R(28,32)                0.9305         estimate D2E/DX2                !
 ! R33   R(29,33)                0.9303         estimate D2E/DX2                !
 ! R34   R(29,34)                1.376          estimate D2E/DX2                !
 ! R35   R(30,35)                0.8195         estimate D2E/DX2                !
 ! R36   R(31,34)                1.39           estimate D2E/DX2                !
 ! R37   R(31,36)                0.9303         estimate D2E/DX2                !
 ! R38   R(34,37)                1.5068         estimate D2E/DX2                !
 ! R39   R(37,38)                0.9595         estimate D2E/DX2                !
 ! R40   R(37,39)                0.9609         estimate D2E/DX2                !
 ! R41   R(37,40)                0.9599         estimate D2E/DX2                !
 ! A1    A(1,3,5)              119.4942         estimate D2E/DX2                !
 ! A2    A(1,3,6)              119.4858         estimate D2E/DX2                !
 ! A3    A(5,3,6)              121.0201         estimate D2E/DX2                !
 ! A4    A(2,4,7)              109.4421         estimate D2E/DX2                !
 ! A5    A(2,4,8)              109.4706         estimate D2E/DX2                !
 ! A6    A(2,4,9)              109.5469         estimate D2E/DX2                !
 ! A7    A(7,4,8)              109.4239         estimate D2E/DX2                !
 ! A8    A(7,4,9)              109.4927         estimate D2E/DX2                !
 ! A9    A(8,4,9)              109.451          estimate D2E/DX2                !
 ! A10   A(3,5,7)              122.2505         estimate D2E/DX2                !
 ! A11   A(3,5,10)             116.688          estimate D2E/DX2                !
 ! A12   A(7,5,10)             121.059          estimate D2E/DX2                !
 ! A13   A(3,6,11)             122.5881         estimate D2E/DX2                !
 ! A14   A(3,6,12)             118.6848         estimate D2E/DX2                !
 ! A15   A(11,6,12)            118.7271         estimate D2E/DX2                !
 ! A16   A(4,7,5)              121.228          estimate D2E/DX2                !
 ! A17   A(4,7,13)             117.3633         estimate D2E/DX2                !
 ! A18   A(5,7,13)             121.1566         estimate D2E/DX2                !
 ! A19   A(5,10,14)            121.3497         estimate D2E/DX2                !
 ! A20   A(5,10,15)            119.3177         estimate D2E/DX2                !
 ! A21   A(14,10,15)           119.3325         estimate D2E/DX2                !
 ! A22   A(6,11,14)            116.0498         estimate D2E/DX2                !
 ! A23   A(6,11,16)            120.4476         estimate D2E/DX2                !
 ! A24   A(14,11,16)           123.4934         estimate D2E/DX2                !
 ! A25   A(7,13,17)            109.4758         estimate D2E/DX2                !
 ! A26   A(7,13,18)            109.4497         estimate D2E/DX2                !
 ! A27   A(7,13,19)            109.4946         estimate D2E/DX2                !
 ! A28   A(17,13,18)           109.5248         estimate D2E/DX2                !
 ! A29   A(17,13,19)           109.4188         estimate D2E/DX2                !
 ! A30   A(18,13,19)           109.4638         estimate D2E/DX2                !
 ! A31   A(10,14,11)           122.2665         estimate D2E/DX2                !
 ! A32   A(10,14,20)           118.8876         estimate D2E/DX2                !
 ! A33   A(11,14,20)           118.8459         estimate D2E/DX2                !
 ! A34   A(11,16,21)           115.8929         estimate D2E/DX2                !
 ! A35   A(11,16,22)           128.1908         estimate D2E/DX2                !
 ! A36   A(21,16,22)           115.9162         estimate D2E/DX2                !
 ! A37   A(16,22,23)           122.1401         estimate D2E/DX2                !
 ! A38   A(16,22,24)           118.9502         estimate D2E/DX2                !
 ! A39   A(23,22,24)           118.9096         estimate D2E/DX2                !
 ! A40   A(22,23,25)           121.2167         estimate D2E/DX2                !
 ! A41   A(22,23,26)           119.5769         estimate D2E/DX2                !
 ! A42   A(25,23,26)           119.1924         estimate D2E/DX2                !
 ! A43   A(23,25,27)           120.4377         estimate D2E/DX2                !
 ! A44   A(23,25,28)           123.0703         estimate D2E/DX2                !
 ! A45   A(27,25,28)           116.4586         estimate D2E/DX2                !
 ! A46   A(25,27,29)           121.0615         estimate D2E/DX2                !
 ! A47   A(25,27,30)           121.4522         estimate D2E/DX2                !
 ! A48   A(29,27,30)           117.4806         estimate D2E/DX2                !
 ! A49   A(25,28,31)           121.8378         estimate D2E/DX2                !
 ! A50   A(25,28,32)           119.0952         estimate D2E/DX2                !
 ! A51   A(31,28,32)           119.067          estimate D2E/DX2                !
 ! A52   A(27,29,33)           119.2844         estimate D2E/DX2                !
 ! A53   A(27,29,34)           121.4601         estimate D2E/DX2                !
 ! A54   A(33,29,34)           119.2555         estimate D2E/DX2                !
 ! A55   A(27,30,35)           109.4575         estimate D2E/DX2                !
 ! A56   A(28,31,34)           120.7            estimate D2E/DX2                !
 ! A57   A(28,31,36)           119.6403         estimate D2E/DX2                !
 ! A58   A(34,31,36)           119.6597         estimate D2E/DX2                !
 ! A59   A(29,34,31)           118.4584         estimate D2E/DX2                !
 ! A60   A(29,34,37)           121.0378         estimate D2E/DX2                !
 ! A61   A(31,34,37)           120.5035         estimate D2E/DX2                !
 ! A62   A(34,37,38)           109.4719         estimate D2E/DX2                !
 ! A63   A(34,37,39)           109.4839         estimate D2E/DX2                !
 ! A64   A(34,37,40)           109.5157         estimate D2E/DX2                !
 ! A65   A(38,37,39)           109.3896         estimate D2E/DX2                !
 ! A66   A(38,37,40)           109.5093         estimate D2E/DX2                !
 ! A67   A(39,37,40)           109.4568         estimate D2E/DX2                !
 ! D1    D(1,3,5,7)             -1.0474         estimate D2E/DX2                !
 ! D2    D(1,3,5,10)           178.3833         estimate D2E/DX2                !
 ! D3    D(6,3,5,7)            178.9504         estimate D2E/DX2                !
 ! D4    D(6,3,5,10)            -1.6188         estimate D2E/DX2                !
 ! D5    D(1,3,6,11)          -179.8826         estimate D2E/DX2                !
 ! D6    D(1,3,6,12)             0.1361         estimate D2E/DX2                !
 ! D7    D(5,3,6,11)             0.1195         estimate D2E/DX2                !
 ! D8    D(5,3,6,12)          -179.8618         estimate D2E/DX2                !
 ! D9    D(2,4,7,5)            -64.1244         estimate D2E/DX2                !
 ! D10   D(2,4,7,13)           110.1706         estimate D2E/DX2                !
 ! D11   D(8,4,7,5)             55.8281         estimate D2E/DX2                !
 ! D12   D(8,4,7,13)          -129.8769         estimate D2E/DX2                !
 ! D13   D(9,4,7,5)            175.7876         estimate D2E/DX2                !
 ! D14   D(9,4,7,13)            -9.9174         estimate D2E/DX2                !
 ! D15   D(3,5,7,4)              0.0493         estimate D2E/DX2                !
 ! D16   D(3,5,7,13)          -174.0292         estimate D2E/DX2                !
 ! D17   D(10,5,7,4)          -179.3569         estimate D2E/DX2                !
 ! D18   D(10,5,7,13)            6.5645         estimate D2E/DX2                !
 ! D19   D(3,5,10,14)            1.5175         estimate D2E/DX2                !
 ! D20   D(3,5,10,15)         -178.4455         estimate D2E/DX2                !
 ! D21   D(7,5,10,14)         -179.0446         estimate D2E/DX2                !
 ! D22   D(7,5,10,15)            0.9925         estimate D2E/DX2                !
 ! D23   D(3,6,11,14)            1.4841         estimate D2E/DX2                !
 ! D24   D(3,6,11,16)         -177.4513         estimate D2E/DX2                !
 ! D25   D(12,6,11,14)        -178.5346         estimate D2E/DX2                !
 ! D26   D(12,6,11,16)           2.53           estimate D2E/DX2                !
 ! D27   D(4,7,13,17)          125.6076         estimate D2E/DX2                !
 ! D28   D(4,7,13,18)         -114.3372         estimate D2E/DX2                !
 ! D29   D(4,7,13,19)            5.6548         estimate D2E/DX2                !
 ! D30   D(5,7,13,17)          -60.0931         estimate D2E/DX2                !
 ! D31   D(5,7,13,18)           59.9621         estimate D2E/DX2                !
 ! D32   D(5,7,13,19)          179.9541         estimate D2E/DX2                !
 ! D33   D(5,10,14,11)           0.1004         estimate D2E/DX2                !
 ! D34   D(5,10,14,20)        -179.9252         estimate D2E/DX2                !
 ! D35   D(15,10,14,11)       -179.9367         estimate D2E/DX2                !
 ! D36   D(15,10,14,20)          0.0378         estimate D2E/DX2                !
 ! D37   D(6,11,14,10)          -1.5881         estimate D2E/DX2                !
 ! D38   D(6,11,14,20)         178.4375         estimate D2E/DX2                !
 ! D39   D(16,11,14,10)        177.3114         estimate D2E/DX2                !
 ! D40   D(16,11,14,20)         -2.6631         estimate D2E/DX2                !
 ! D41   D(6,11,16,21)          -3.7739         estimate D2E/DX2                !
 ! D42   D(6,11,16,22)         176.2449         estimate D2E/DX2                !
 ! D43   D(14,11,16,21)        177.373          estimate D2E/DX2                !
 ! D44   D(14,11,16,22)         -2.6082         estimate D2E/DX2                !
 ! D45   D(11,16,22,23)        179.096          estimate D2E/DX2                !
 ! D46   D(11,16,22,24)         -0.8591         estimate D2E/DX2                !
 ! D47   D(21,16,22,23)         -0.8852         estimate D2E/DX2                !
 ! D48   D(21,16,22,24)        179.1597         estimate D2E/DX2                !
 ! D49   D(16,22,23,25)       -179.3011         estimate D2E/DX2                !
 ! D50   D(16,22,23,26)         -0.6705         estimate D2E/DX2                !
 ! D51   D(24,22,23,25)          0.654          estimate D2E/DX2                !
 ! D52   D(24,22,23,26)        179.2846         estimate D2E/DX2                !
 ! D53   D(22,23,25,27)        179.5256         estimate D2E/DX2                !
 ! D54   D(22,23,25,28)          1.7038         estimate D2E/DX2                !
 ! D55   D(26,23,25,27)          0.8899         estimate D2E/DX2                !
 ! D56   D(26,23,25,28)       -176.9319         estimate D2E/DX2                !
 ! D57   D(23,25,27,29)       -178.6543         estimate D2E/DX2                !
 ! D58   D(23,25,27,30)          0.4625         estimate D2E/DX2                !
 ! D59   D(28,25,27,29)         -0.6932         estimate D2E/DX2                !
 ! D60   D(28,25,27,30)        178.4237         estimate D2E/DX2                !
 ! D61   D(23,25,28,31)        178.2921         estimate D2E/DX2                !
 ! D62   D(23,25,28,32)         -1.682          estimate D2E/DX2                !
 ! D63   D(27,25,28,31)          0.3898         estimate D2E/DX2                !
 ! D64   D(27,25,28,32)       -179.5842         estimate D2E/DX2                !
 ! D65   D(25,27,29,33)       -178.5897         estimate D2E/DX2                !
 ! D66   D(25,27,29,34)          1.4343         estimate D2E/DX2                !
 ! D67   D(30,27,29,33)          2.2595         estimate D2E/DX2                !
 ! D68   D(30,27,29,34)       -177.7166         estimate D2E/DX2                !
 ! D69   D(25,27,30,35)          1.2447         estimate D2E/DX2                !
 ! D70   D(29,27,30,35)       -179.608          estimate D2E/DX2                !
 ! D71   D(25,28,31,34)         -0.7967         estimate D2E/DX2                !
 ! D72   D(25,28,31,36)        179.2474         estimate D2E/DX2                !
 ! D73   D(32,28,31,34)        179.1774         estimate D2E/DX2                !
 ! D74   D(32,28,31,36)         -0.7785         estimate D2E/DX2                !
 ! D75   D(27,29,34,31)         -1.784          estimate D2E/DX2                !
 ! D76   D(27,29,34,37)        178.0117         estimate D2E/DX2                !
 ! D77   D(33,29,34,31)        178.24           estimate D2E/DX2                !
 ! D78   D(33,29,34,37)         -1.9643         estimate D2E/DX2                !
 ! D79   D(28,31,34,29)          1.4623         estimate D2E/DX2                !
 ! D80   D(28,31,34,37)       -178.3345         estimate D2E/DX2                !
 ! D81   D(36,31,34,29)       -178.5818         estimate D2E/DX2                !
 ! D82   D(36,31,34,37)          1.6214         estimate D2E/DX2                !
 ! D83   D(29,34,37,38)         63.2048         estimate D2E/DX2                !
 ! D84   D(29,34,37,39)       -176.8869         estimate D2E/DX2                !
 ! D85   D(29,34,37,40)        -56.8695         estimate D2E/DX2                !
 ! D86   D(31,34,37,38)       -117.0036         estimate D2E/DX2                !
 ! D87   D(31,34,37,39)          2.9046         estimate D2E/DX2                !
 ! D88   D(31,34,37,40)        122.922          estimate D2E/DX2                !
 --------------------------------------------------------------------------------
 Trust Radius=3.00D-01 FncErr=1.00D-07 GrdErr=1.00D-06
 Number of steps in this run=    206 maximum allowed number of steps=    240.
 GradGradGradGradGradGradGradGradGradGradGradGradGradGradGradGradGradGrad

                          Input orientation:                          
 ---------------------------------------------------------------------
 Center     Atomic      Atomic             Coordinates (Angstroms)
 Number     Number       Type             X           Y           Z
 ---------------------------------------------------------------------
      1          1           0       -0.842630   15.642550    5.161900
      2          1           0       -2.009240   15.343910    7.253450
      3          6           0       -1.230060   16.344830    4.692160
      4          6           0       -1.613080   16.175240    7.522460
      5          6           0       -1.971120   17.310080    5.383150
      6          6           0       -1.066880   16.418870    3.334710
      7          7           0       -2.167400   17.249400    6.733050
      8          1           0       -0.663570   16.136100    7.386330
      9          1           0       -1.796410   16.332570    8.450480
     10          6           0       -2.500340   18.363030    4.621180
     11          6           0       -1.617800   17.445880    2.566040
     12          1           0       -0.569730   15.758870    2.908290
     13          6           0       -3.039180   18.183520    7.403400
     14          6           0       -2.323480   18.419610    3.263840
     15          1           0       -2.980250   19.036070    5.046300
     16          6           0       -1.462520   17.449180    1.126800
     17          1           0       -2.715990   19.076940    7.267500
     18          1           0       -3.926420   18.105560    7.046020
     19          1           0       -3.054750   17.989250    8.343520
     20          1           0       -2.688130   19.133520    2.792700
     21          1           0       -0.937750   16.767960    0.773530
     22          6           0       -1.977720   18.307540    0.242540
     23          6           0       -1.718630   18.197040   -1.184820
     24          1           0       -2.518880   18.998350    0.548820
     25          6           0       -2.280090   19.155680   -2.132280
     26          8           0       -0.979380   17.277850   -1.610370
     27          6           0       -2.010740   19.039060   -3.508430
     28          6           0       -3.066640   20.253120   -1.738490
     29          6           0       -2.513270   19.955890   -4.414300
     30          8           0       -1.238900   18.040490   -3.994260
     31          6           0       -3.554630   21.160990   -2.650420
     32          1           0       -3.262360   20.368960   -0.836190
     33          1           0       -2.336200   19.843980   -5.320710
     34          6           0       -3.268970   21.030210   -4.004410
     35          1           0       -1.000380   17.555430   -3.378250
     36          1           0       -4.080750   21.870030   -2.357320
     37          6           0       -3.774350   22.047480   -4.994440
     38          1           0       -4.375520   21.623250   -5.610240
     39          1           0       -4.238080   22.747090   -4.526650
     40          1           0       -3.033230   22.421730   -5.476280
 ---------------------------------------------------------------------
                    Distance matrix (angstroms):
                    1          2          3          4          5
     1  H    0.000000
     2  H    2.413451   0.000000
     3  C    0.929492   2.858176   0.000000
     4  C    2.539605   0.959385   2.861130   0.000000
     5  C    2.025610   2.713909   1.399409   2.448000   0.000000
     6  C    1.997895   4.171343   1.369226   4.230241   2.409982
     7  N    2.608734   1.981596   2.421174   1.443696   1.365444
     8  H    2.285551   1.567179   2.760984   0.960017   2.664704
     9  H    3.492933   1.567044   3.800773   0.958949   3.224060
    10  C    3.231314   4.035481   2.385745   3.740465   1.403345
    11  C    3.254440   5.152021   2.425498   5.116703   2.842426
    12  H    2.273051   4.596172   1.990371   4.748948   3.239611
    13  C    4.038030   3.024342   3.742261   2.465994   2.446438
    14  C    3.675270   5.047342   2.745975   4.865975   2.417993
    15  H    4.012326   4.409809   3.229761   4.023042   2.027524
    16  C    4.464326   6.501300   3.739708   6.523041   4.288885
    17  H    4.442754   3.799369   4.037919   3.114687   2.688383
    18  H    4.373338   3.368281   3.988883   3.050356   2.687215
    19  H    4.530252   3.046173   4.400686   2.458289   3.224797
    20  H    4.604981   5.892396   3.675692   5.681354   3.247994
    21  H    4.531378   6.720519   3.952233   6.808483   4.755034
    22  C    5.708827   7.611633   4.920401   7.594531   5.236491
    23  C    6.897365   8.912306   6.181284   8.939549   6.632396
    24  H    5.945731   7.652890   5.086206   7.577736   5.149859
    25  C    8.222739  10.133848   7.454960  10.126299   7.744894
    26  O    6.968253   9.130610   6.376147   9.220949   7.063562
    27  C    9.384849  11.378585   8.667065  11.403514   9.058208
    28  C    8.591796  10.299195   7.746032  10.222873   7.783277
    29  C   10.634827  12.556305   9.879980  12.553481  10.162887
    30  O    9.473247  11.592064   8.850380  11.672789   9.434271
    31  C    9.941854  11.589361   9.083639  11.494121   9.048495
    32  H    8.010688   9.605400   7.133479   9.496022   7.050123
    33  H   11.391570  13.359155  10.664200  13.376456  11.005751
    34  C   10.905744  12.675186  10.086638  12.616713  10.180868
    35  H    8.753180  10.906038   8.163934  11.004808   8.818427
    36  H   10.286185  11.800352   9.399438  11.667480   9.228139
    37  C   12.359990  14.073531  11.524923  13.993823  11.549414
    38  H   12.817530  14.508753  11.995628  14.483774  12.051523
    39  H   12.484854  14.090619  11.619965  13.973578  11.528414
    40  H   12.803393  14.601031  11.982375  14.491470  12.049243
                    6          7          8          9         10
     6  C    0.000000
     7  N    3.667375   0.000000
     8  H    4.081451   1.981847   0.000000
     9  H    5.168246   1.981862   1.566634   0.000000
    10  C    2.736708   2.410605   3.997374   4.391107   0.000000
    11  C    1.396107   4.207688   5.085398   5.991494   2.417362
    12  H    0.929834   4.404886   4.494880   5.705238   3.666456
    13  C    4.853679   1.442896   3.136199   2.463102   2.839599
    14  C    2.363689   3.664583   4.996463   5.615583   1.369983
    15  H    3.666096   2.588057   4.387775   4.505422   0.929529
    16  C    2.468387   5.653920   6.445480   7.415834   3.758043
    17  H    5.025111   1.981537   3.588187   3.126761   2.749397
    18  H    4.979530   1.981189   3.826326   3.106919   2.824862
    19  H    5.613011   1.982015   3.173030   2.083134   3.781917
    20  H    3.208045   4.398571   5.846777   6.375811   1.993053
    21  H    2.588084   6.104073   6.648575   7.737081   4.448634
    22  C    3.736070   6.578933   7.581285   8.444149   4.410068
    23  C    4.900288   7.986995   8.878358   9.814342   5.860739
    24  H    4.064874   6.436386   7.641086   8.370459   4.121661
    25  C    6.232976   9.068665  10.116073  10.963517   6.803383
    26  O    5.019892   8.427625   9.074356  10.138136   6.505625
    27  C    7.388155  10.397853  11.355080  12.263220   8.172349
    28  C    6.666174   9.033159  10.294996  10.990874   6.658719
    29  C    8.640006  11.476416  12.540616  13.384502   9.174817
    30  O    7.508198  10.796440  11.553161  12.573757   8.713270
    31  C    8.031089  10.260334  11.590690  12.232537   7.862333
    32  H    6.149776   8.259781   9.606282  10.231505   5.864070
    33  H    9.394618  12.330996  13.342224  14.222062  10.052927
    34  C    8.942949  11.436828  12.668440  13.392555   9.061205
    35  H    6.808819  10.183024  10.862970  11.918385   8.178813
    36  H    8.437877  10.375257  11.810749  12.356788   7.968451
    37  C   10.410878  12.772544  14.067865  14.742399  10.375858
    38  H   10.864842  13.280179  14.587605  15.242931  10.900793
    39  H   10.578462  12.700124  14.085503  14.680386  10.291867
    40  H   10.841329  13.287979  14.511071  15.249991  10.895674
                   11         12         13         14         15
    11  C    0.000000
    12  H    2.015338   0.000000
    13  C    5.095536   5.673017   0.000000
    14  C    1.390345   3.206492   4.207603   0.000000
    15  H    3.246023   4.595839   2.507236   1.997131   0.000000
    16  C    1.447596   2.613031   6.513127   2.499985   4.492683
    17  H    5.096087   5.883769   0.959750   4.076204   2.237238
    18  H    5.082826   5.821953   0.959684   4.119822   2.399993
    19  H    5.978240   6.379000   0.960109   5.150060   3.460208
    20  H    2.011246   3.986131   4.720624   0.929844   2.274542
    21  H    2.033503   2.389749   7.097534   3.293909   5.250971
    22  C    2.504127   3.947705   7.240165   3.043085   4.961041
    23  C    3.826664   4.900836   8.689163   4.495104   6.412684
    24  H    2.700238   4.456514   6.922422   2.782886   4.521240
    25  C    5.043437   6.314348   9.615119   5.446264   7.213636
    26  O    4.228264   4.784705   9.290375   5.183449   7.169803
    27  C    6.292202   7.349180  10.993529   6.807728   8.609493
    28  C    5.339355   6.930037   9.373268   5.379345   6.893624
    29  C    7.471758   8.660984  11.961434   7.832625   9.516674
    30  O    6.598080   7.300601  11.539849   7.348473   9.260411
    31  C    6.690651   8.306129  10.498110   6.633956   8.005292
    32  H    4.777462   6.521067   8.527415   4.635915   6.038201
    33  H    8.274528   9.355479  12.851237   8.701925  10.418369
    34  C    7.664502   9.102656  11.759871   7.780530   9.272287
    35  H    5.977273   6.552379  10.990686   6.827500   8.779819
    36  H    7.062485   8.797738  10.485556   6.825748   8.003500
    37  C    9.109681  10.595723  13.006810   9.135954  10.512642
    38  H    9.586814  11.019997  13.526728   9.655230  11.054507
    39  H    9.234443  10.842986  12.829249   9.115071  10.343847
    40  H    9.562502  10.989247  13.559079   9.639004  11.053967
                   16         17         18         19         20
    16  C    0.000000
    17  H    6.475260   0.000000
    18  H    6.445060   1.567729   0.000000
    19  H    7.409988   1.567050   1.567432   0.000000
    20  H    2.667273   4.475244   4.547614   5.679381   0.000000
    21  H    0.929647   7.117947   7.075695   7.954746   3.568859
    22  C    1.335713   7.105426   7.079941   8.178458   2.773128
    23  C    2.443046   8.556323   8.522290   9.623807   4.199713
    24  H    1.962112   6.722030   6.707596   7.877994   2.254310
    25  C    3.768576   9.410211   9.383728  10.568966   4.941904
    26  O    2.784758   9.223292   9.181679  10.192800   5.074482
    27  C    4.930884  10.799050  10.767435  11.944069   6.338140
    28  C    4.318005   9.089236   9.083989  10.333062   4.682783
    29  C    6.171828  11.716574  11.694428  12.919862   7.255875
    30  O    5.159933  11.405405  11.362868  12.470796   7.025511
    31  C    5.694019  10.169155  10.173241  11.453232   5.872735
    32  H    3.951945   8.224210   8.227587   9.485420   3.876196
    33  H    6.933164  12.617275  12.589159  13.808241   8.152057
    34  C    6.512784  11.453253  11.449796  12.718675   7.080644
    35  H    4.529938  10.889918  10.841114  11.908339   6.589347
    36  H    6.207909  10.114400  10.130047  11.428959   5.995881
    37  C    7.997406  12.660940  12.670222  13.960238   8.385141
    38  H    8.443704  13.231550  13.143696  14.479565   8.924990
    39  H    8.230011  12.445430  12.472675  13.772385   8.308617
    40  H    8.413920  13.179233  13.275357  14.513243   8.905473
                   21         22         23         24         25
    21  H    0.000000
    22  C    1.932303   0.000000
    23  C    2.546994   1.454886   0.000000
    24  H    2.743193   0.929451   2.070750   0.000000
    25  C    3.993346   2.539791   1.460106   2.696307   0.000000
    26  O    2.438176   2.343122   1.253991   3.161057   2.343178
    27  C    4.964311   3.821778   2.488672   4.089149   1.407103
    28  C    4.794659   2.982534   2.520148   2.665760   1.406452
    29  C    6.289574   4.968906   3.762253   5.054649   2.429470
    30  O    4.943869   4.309019   2.854400   4.816162   2.407217
    31  C    6.153877   4.358674   3.782047   3.998115   2.431911
    32  H    4.578451   2.657708   2.687356   2.085566   2.028978
    33  H    6.968308   5.782638   4.494373   5.932946   3.262360
    34  C    6.813962   5.207383   4.287248   5.042122   2.827829
    35  H    4.226264   3.825047   2.395555   4.450813   2.398103
    36  H    6.761049   4.886035   4.521639   4.373972   3.265075
    37  C    8.317999   6.681391   5.793538   6.449894   4.334430
    38  H    8.726089   7.141317   6.195347   6.947750   4.751414
    39  H    8.644888   6.896666   6.182104   6.539809   4.739721
    40  H    8.684255   7.123592   6.163831   6.948807   4.734621
                   26         27         28         29         30
    26  O    0.000000
    27  C    2.787148   0.000000
    28  C    3.636661   2.391977   0.000000
    29  C    4.169741   1.383371   2.748549   0.000000
    30  O    2.516327   1.352372   3.650324   2.338634   0.000000
    31  C    4.774138   2.760863   1.376219   2.376546   4.111694
    32  H    3.919989   3.236673   0.930522   3.678945   4.414699
    33  H    4.710903   2.009522   3.678755   0.930299   2.493213
    34  C    5.005383   2.407035   2.403997   1.375956   3.613822
    35  H    1.789662   1.799703   3.773033   3.020669   0.819538
    36  H    5.591471   3.691123   2.006432   3.217467   5.041930
    37  C    6.481756   3.790664   3.784414   2.510306   4.846116
    38  H    6.812872   4.085074   4.310553   2.770981   5.028513
    39  H    7.002600   4.443794   3.919948   3.283046   5.606300
    40  H    6.754485   4.044796   4.321465   2.734690   4.960974
                   31         32         33         34         35
    31  C    0.000000
    32  H    2.001041   0.000000
    33  H    3.217069   4.609153   0.000000
    34  C    1.389962   3.236497   2.002460   0.000000
    35  H    4.478168   4.415266   3.285579   4.196746   0.000000
    36  H    0.930294   2.288408   3.991242   2.019205   5.398773
    37  C    2.515665   4.513381   2.651441   1.506787   5.521367
    38  H    3.106136   5.060032   2.721848   2.038342   5.737640
    39  H    2.550109   4.497447   3.560299   2.039506   6.225340
    40  H    3.137962   5.079055   2.674855   2.039192   5.675833
                   36         37         38         39         40
    36  H    0.000000
    37  C    2.660784   0.000000
    38  H    3.275558   0.959472   0.000000
    39  H    2.345204   0.960899   1.567186   0.000000
    40  H    3.336103   0.959944   1.567564   1.568222   0.000000
 Stoichiometry    C18H19NO2
 Framework group  C1[X(C18H19NO2)]
 Deg. of freedom   114
 Full point group                 C1      NOp   1
 Largest Abelian subgroup         C1      NOp   1
 Largest concise Abelian subgroup C1      NOp   1
                         Standard orientation:                         
 ---------------------------------------------------------------------
 Center     Atomic      Atomic             Coordinates (Angstroms)
 Number     Number       Type             X           Y           Z
 ---------------------------------------------------------------------
      1          1           0        4.997283   -1.775146    0.012117
      2          1           0        7.006070   -0.768187    0.892772
      3          6           0        4.320848   -1.138185   -0.013788
      4          6           0        7.048737   -0.279167    0.068480
      5          6           0        4.654480    0.220733   -0.033166
      6          6           0        3.013295   -1.544068   -0.032355
      7          7           0        5.948826    0.653850    0.005771
      8          1           0        6.991354   -0.890422   -0.669563
      9          1           0        7.877996    0.200194    0.022365
     10          6           0        3.588524    1.130446   -0.107569
     11          6           0        1.947022   -0.643803   -0.073602
     12          1           0        2.828544   -2.455227   -0.016607
     13          6           0        6.263277    2.057963    0.113170
     14          6           0        2.286999    0.703258   -0.127465
     15          1           0        3.769383    2.041457   -0.144619
     16          6           0        0.581242   -1.122122   -0.036323
     17          1           0        5.896513    2.526525   -0.639860
     18          1           0        5.887044    2.408629    0.923401
     19          1           0        7.216404    2.172695    0.127173
     20          1           0        1.607342    1.335780   -0.178391
     21          1           0        0.474278   -2.045589   -0.039597
     22          6           0       -0.544472   -0.404179    0.001834
     23          6           0       -1.859354   -1.026710    0.017195
     24          1           0       -0.486223    0.523296    0.018504
     25          6           0       -3.077370   -0.221950    0.043802
     26          8           0       -1.952829   -2.276700   -0.018583
     27          6           0       -4.340903   -0.841144    0.048329
     28          6           0       -3.068732    1.184294    0.021213
     29          6           0       -5.503315   -0.091141    0.045600
     30          8           0       -4.466947   -2.187588    0.037710
     31          6           0       -4.233407    1.917391    0.012364
     32          1           0       -2.252870    1.631673    0.011624
     33          1           0       -6.325442   -0.525917    0.068683
     34          6           0       -5.470631    1.283940    0.009006
     35          1           0       -3.723095   -2.531481    0.045727
     36          1           0       -4.192038    2.846754    0.007968
     37          6           0       -6.742609    2.090309   -0.038417
     38          1           0       -7.247287    1.939027    0.763456
     39          1           0       -6.527610    3.024212   -0.108617
     40          1           0       -7.263005    1.823885   -0.799795
 ---------------------------------------------------------------------
 Rotational constants (GHZ):      0.9420220      0.0945029      0.0860223
 Standard basis: 6-311++G(d,p) (5D, 7F)
 There are   595 symmetry adapted basis functions of A   symmetry.
 Integral buffers will be    131072 words long.
 Raffenetti 2 integral format.
 Two-electron integral symmetry is turned on.
   595 basis functions,   927 primitive gaussians,   616 cartesian basis functions
    75 alpha electrons       75 beta electrons
       nuclear repulsion energy      1493.2727604994 Hartrees.
 NAtoms=   40 NActive=   40 NUniq=   40 SFac= 1.00D+00 NAtFMM=   60 NAOKFM=F Big=F
 Nuclear repulsion after empirical dispersion term =     1493.2473131680 Hartrees.
 One-electron integrals computed using PRISM.
 NBasis=   595 RedAO= T  NBF=   595
 NBsUse=   587 1.00D-06 NBFU=   587
 Harris functional with IExCor= 4639 diagonalized for initial guess.
 ExpMin= 3.60D-02 ExpMax= 8.59D+03 ExpMxC= 1.30D+03 IAcc=3 IRadAn=         5 AccDes= 0.00D+00
 HarFok:  IExCor= 4639 AccDes= 0.00D+00 IRadAn=         5 IDoV= 1
 ScaDFX=  1.000000  1.000000  1.000000  1.000000
 FoFCou: FMM=F IPFlag=           0 FMFlag=      100000 FMFlg1=           0
         NFxFlg=           0 DoJE=T BraDBF=F KetDBF=T FulRan=T
         Omega=  0.000000  0.000000  1.000000  0.000000  0.000000 ICntrl=     500 IOpCl=  0
         NMat0=    1 NMatS0=    1 NMatT0=    0 NMatD0=    1 NMtDS0=    0 NMtDT0=    0
         I1Cent=           4 NGrid=           0.
 Petite list used in FoFCou.
 Initial guess orbital symmetries:
       Occupied  (A) (A) (A) (A) (A) (A) (A) (A) (A) (A) (A) (A)
                 (A) (A) (A) (A) (A) (A) (A) (A) (A) (A) (A) (A)
                 (A) (A) (A) (A) (A) (A) (A) (A) (A) (A) (A) (A)
                 (A) (A) (A) (A) (A) (A) (A) (A) (A) (A) (A) (A)
                 (A) (A) (A) (A) (A) (A) (A) (A) (A) (A) (A) (A)
                 (A) (A) (A) (A) (A) (A) (A) (A) (A) (A) (A) (A)
                 (A) (A) (A)
       Virtual   (A) (A) (A) (A) (A) (A) (A) (A) (A) (A) (A) (A)
                 (A) (A) (A) (A) (A) (A) (A) (A) (A) (A) (A) (A)
                 (A) (A) (A) (A) (A) (A) (A) (A) (A) (A) (A) (A)
                 (A) (A) (A) (A) (A) (A) (A) (A) (A) (A) (A) (A)
                 (A) (A) (A) (A) (A) (A) (A) (A) (A) (A) (A) (A)
                 (A) (A) (A) (A) (A) (A) (A) (A) (A) (A) (A) (A)
                 (A) (A) (A) (A) (A) (A) (A) (A) (A) (A) (A) (A)
                 (A) (A) (A) (A) (A) (A) (A) (A) (A) (A) (A) (A)
                 (A) (A) (A) (A) (A) (A) (A) (A) (A) (A) (A) (A)
                 (A) (A) (A) (A) (A) (A) (A) (A) (A) (A) (A) (A)
                 (A) (A) (A) (A) (A) (A) (A) (A) (A) (A) (A) (A)
                 (A) (A) (A) (A) (A) (A) (A) (A) (A) (A) (A) (A)
                 (A) (A) (A) (A) (A) (A) (A) (A) (A) (A) (A) (A)
                 (A) (A) (A) (A) (A) (A) (A) (A) (A) (A) (A) (A)
                 (A) (A) (A) (A) (A) (A) (A) (A) (A) (A) (A) (A)
                 (A) (A) (A) (A) (A) (A) (A) (A) (A) (A) (A) (A)
                 (A) (A) (A) (A) (A) (A) (A) (A) (A) (A) (A) (A)
                 (A) (A) (A) (A) (A) (A) (A) (A) (A) (A) (A) (A)
                 (A) (A) (A) (A) (A) (A) (A) (A) (A) (A) (A) (A)
                 (A) (A) (A) (A) (A) (A) (A) (A) (A) (A) (A) (A)
                 (A) (A) (A) (A) (A) (A) (A) (A) (A) (A) (A) (A)
                 (A) (A) (A) (A) (A) (A) (A) (A) (A) (A) (A) (A)
                 (A) (A) (A) (A) (A) (A) (A) (A) (A) (A) (A) (A)
                 (A) (A) (A) (A) (A) (A) (A) (A) (A) (A) (A) (A)
                 (A) (A) (A) (A) (A) (A) (A) (A) (A) (A) (A) (A)
                 (A) (A) (A) (A) (A) (A) (A) (A) (A) (A) (A) (A)
                 (A) (A) (A) (A) (A) (A) (A) (A) (A) (A) (A) (A)
                 (A) (A) (A) (A) (A) (A) (A) (A) (A) (A) (A) (A)
                 (A) (A) (A) (A) (A) (A) (A) (A) (A) (A) (A) (A)
                 (A) (A) (A) (A) (A) (A) (A) (A) (A) (A) (A) (A)
                 (A) (A) (A) (A) (A) (A) (A) (A) (A) (A) (A) (A)
                 (A) (A) (A) (A) (A) (A) (A) (A) (A) (A) (A) (A)
                 (A) (A) (A) (A) (A) (A) (A) (A) (A) (A) (A) (A)
                 (A) (A) (A) (A) (A) (A) (A) (A) (A) (A) (A) (A)
                 (A) (A) (A) (A) (A) (A) (A) (A) (A) (A) (A) (A)
                 (A) (A) (A) (A) (A) (A) (A) (A) (A) (A) (A) (A)
                 (A) (A) (A) (A) (A) (A) (A) (A) (A) (A) (A) (A)
                 (A) (A) (A) (A) (A) (A) (A) (A) (A) (A) (A) (A)
                 (A) (A) (A) (A) (A) (A) (A) (A) (A) (A) (A) (A)
                 (A) (A) (A) (A) (A) (A) (A) (A) (A) (A) (A) (A)
                 (A) (A) (A) (A) (A) (A) (A) (A) (A) (A) (A) (A)
                 (A) (A) (A) (A) (A) (A) (A) (A) (A) (A) (A) (A)
                 (A) (A) (A) (A) (A) (A) (A) (A)
 The electronic state of the initial guess is 1-A.
 Requested convergence on RMS density matrix=1.00D-08 within 128 cycles.
 Requested convergence on MAX density matrix=1.00D-06.
 Requested convergence on             energy=1.00D-06.
 No special actions if energy rises.
 FoFJK:  IHMeth= 1 ICntrl=     0 DoSepK=T KAlg= 1 I1Cent= 0 FoldK=F
 FoFJK:  IHMeth= 1 ICntrl=     0 DoSepK=T KAlg= 1 I1Cent= 0 FoldK=F
 FoFJK:  IHMeth= 1 ICntrl=     0 DoSepK=T KAlg= 1 I1Cent= 0 FoldK=F
 FoFJK:  IHMeth= 1 ICntrl=     0 DoSepK=T KAlg= 1 I1Cent= 0 FoldK=F
 FoFJK:  IHMeth= 1 ICntrl=     0 DoSepK=T KAlg= 1 I1Cent= 0 FoldK=F
 FoFJK:  IHMeth= 1 ICntrl=     0 DoSepK=T KAlg= 1 I1Cent= 0 FoldK=F
 FoFJK:  IHMeth= 1 ICntrl=     0 DoSepK=T KAlg= 1 I1Cent= 0 FoldK=F
 FoFJK:  IHMeth= 1 ICntrl=     0 DoSepK=T KAlg= 1 I1Cent= 0 FoldK=F
 FoFJK:  IHMeth= 1 ICntrl=     0 DoSepK=T KAlg= 1 I1Cent= 0 FoldK=F
 FoFJK:  IHMeth= 1 ICntrl=     0 DoSepK=T KAlg= 1 I1Cent= 0 FoldK=F
 FoFJK:  IHMeth= 1 ICntrl=     0 DoSepK=T KAlg= 1 I1Cent= 0 FoldK=F
 FoFJK:  IHMeth= 1 ICntrl=     0 DoSepK=T KAlg= 1 I1Cent= 0 FoldK=F
 FoFJK:  IHMeth= 1 ICntrl=     0 DoSepK=T KAlg= 1 I1Cent= 0 FoldK=F
 FoFJK:  IHMeth= 1 ICntrl=     0 DoSepK=T KAlg= 1 I1Cent= 0 FoldK=F
 FoFJK:  IHMeth= 1 ICntrl=     0 DoSepK=T KAlg= 1 I1Cent= 0 FoldK=F
 FoFJK:  IHMeth= 1 ICntrl=     0 DoSepK=T KAlg= 1 I1Cent= 0 FoldK=F
 SCF Done:  E(RwB97XD) =  -902.135331569     A.U. after   16 cycles
             Convg  =    0.9443D-08             -V/T =  1.9982
 QCSCF skips out because SCF is already converged.

 **********************************************************************

            Population analysis using the SCF density.

 **********************************************************************

 Orbital symmetries:
       Occupied  (A) (A) (A) (A) (A) (A) (A) (A) (A) (A) (A) (A)
                 (A) (A) (A) (A) (A) (A) (A) (A) (A) (A) (A) (A)
                 (A) (A) (A) (A) (A) (A) (A) (A) (A) (A) (A) (A)
                 (A) (A) (A) (A) (A) (A) (A) (A) (A) (A) (A) (A)
                 (A) (A) (A) (A) (A) (A) (A) (A) (A) (A) (A) (A)
                 (A) (A) (A) (A) (A) (A) (A) (A) (A) (A) (A) (A)
                 (A) (A) (A)
       Virtual   (A) (A) (A) (A) (A) (A) (A) (A) (A) (A) (A) (A)
                 (A) (A) (A) (A) (A) (A) (A) (A) (A) (A) (A) (A)
                 (A) (A) (A) (A) (A) (A) (A) (A) (A) (A) (A) (A)
                 (A) (A) (A) (A) (A) (A) (A) (A) (A) (A) (A) (A)
                 (A) (A) (A) (A) (A) (A) (A) (A) (A) (A) (A) (A)
                 (A) (A) (A) (A) (A) (A) (A) (A) (A) (A) (A) (A)
                 (A) (A) (A) (A) (A) (A) (A) (A) (A) (A) (A) (A)
                 (A) (A) (A) (A) (A) (A) (A) (A) (A) (A) (A) (A)
                 (A) (A) (A) (A) (A) (A) (A) (A) (A) (A) (A) (A)
                 (A) (A) (A) (A) (A) (A) (A) (A) (A) (A) (A) (A)
                 (A) (A) (A) (A) (A) (A) (A) (A) (A) (A) (A) (A)
                 (A) (A) (A) (A) (A) (A) (A) (A) (A) (A) (A) (A)
                 (A) (A) (A) (A) (A) (A) (A) (A) (A) (A) (A) (A)
                 (A) (A) (A) (A) (A) (A) (A) (A) (A) (A) (A) (A)
                 (A) (A) (A) (A) (A) (A) (A) (A) (A) (A) (A) (A)
                 (A) (A) (A) (A) (A) (A) (A) (A) (A) (A) (A) (A)
                 (A) (A) (A) (A) (A) (A) (A) (A) (A) (A) (A) (A)
                 (A) (A) (A) (A) (A) (A) (A) (A) (A) (A) (A) (A)
                 (A) (A) (A) (A) (A) (A) (A) (A) (A) (A) (A) (A)
                 (A) (A) (A) (A) (A) (A) (A) (A) (A) (A) (A) (A)
                 (A) (A) (A) (A) (A) (A) (A) (A) (A) (A) (A) (A)
                 (A) (A) (A) (A) (A) (A) (A) (A) (A) (A) (A) (A)
                 (A) (A) (A) (A) (A) (A) (A) (A) (A) (A) (A) (A)
                 (A) (A) (A) (A) (A) (A) (A) (A) (A) (A) (A) (A)
                 (A) (A) (A) (A) (A) (A) (A) (A) (A) (A) (A) (A)
                 (A) (A) (A) (A) (A) (A) (A) (A) (A) (A) (A) (A)
                 (A) (A) (A) (A) (A) (A) (A) (A) (A) (A) (A) (A)
                 (A) (A) (A) (A) (A) (A) (A) (A) (A) (A) (A) (A)
                 (A) (A) (A) (A) (A) (A) (A) (A) (A) (A) (A) (A)
                 (A) (A) (A) (A) (A) (A) (A) (A) (A) (A) (A) (A)
                 (A) (A) (A) (A) (A) (A) (A) (A) (A) (A) (A) (A)
                 (A) (A) (A) (A) (A) (A) (A) (A) (A) (A) (A) (A)
                 (A) (A) (A) (A) (A) (A) (A) (A) (A) (A) (A) (A)
                 (A) (A) (A) (A) (A) (A) (A) (A) (A) (A) (A) (A)
                 (A) (A) (A) (A) (A) (A) (A) (A) (A) (A) (A) (A)
                 (A) (A) (A) (A) (A) (A) (A) (A) (A) (A) (A) (A)
                 (A) (A) (A) (A) (A) (A) (A) (A) (A) (A) (A) (A)
                 (A) (A) (A) (A) (A) (A) (A) (A) (A) (A) (A) (A)
                 (A) (A) (A) (A) (A) (A) (A) (A) (A) (A) (A) (A)
                 (A) (A) (A) (A) (A) (A) (A) (A) (A) (A) (A) (A)
                 (A) (A) (A) (A) (A) (A) (A) (A) (A) (A) (A) (A)
                 (A) (A) (A) (A) (A) (A) (A) (A) (A) (A) (A) (A)
                 (A) (A) (A) (A) (A) (A) (A) (A)
 The electronic state is 1-A.
 Alpha  occ. eigenvalues --  -19.24581 -19.21602 -14.45820 -10.36743 -10.35295
 Alpha  occ. eigenvalues --  -10.33588 -10.29969 -10.28922 -10.28391 -10.28351
 Alpha  occ. eigenvalues --  -10.28230 -10.28177 -10.28010 -10.27468 -10.27455
 Alpha  occ. eigenvalues --  -10.26718 -10.26548 -10.26048 -10.26039 -10.25851
 Alpha  occ. eigenvalues --  -10.23882  -1.18840  -1.11813  -1.07493  -0.97289
 Alpha  occ. eigenvalues --   -0.97173  -0.91542  -0.89829  -0.88545  -0.86479
 Alpha  occ. eigenvalues --   -0.86315  -0.86119  -0.82796  -0.79745  -0.74949
 Alpha  occ. eigenvalues --   -0.73826  -0.73127  -0.72388  -0.69710  -0.66542
 Alpha  occ. eigenvalues --   -0.65201  -0.62563  -0.61759  -0.59553  -0.59455
 Alpha  occ. eigenvalues --   -0.59083  -0.57849  -0.56992  -0.55356  -0.54280
 Alpha  occ. eigenvalues --   -0.54150  -0.53964  -0.53680  -0.53449  -0.51628
 Alpha  occ. eigenvalues --   -0.51261  -0.50998  -0.50800  -0.49997  -0.48040
 Alpha  occ. eigenvalues --   -0.47869  -0.46880  -0.46403  -0.45692  -0.45224
 Alpha  occ. eigenvalues --   -0.43238  -0.42806  -0.42117  -0.40798  -0.34458
 Alpha  occ. eigenvalues --   -0.34067  -0.33449  -0.32826  -0.30215  -0.26311
 Alpha virt. eigenvalues --   -0.01380   0.03024   0.04053   0.04087   0.04546
 Alpha virt. eigenvalues --    0.04966   0.05370   0.05756   0.06353   0.06650
 Alpha virt. eigenvalues --    0.06733   0.07066   0.07834   0.07981   0.08220
 Alpha virt. eigenvalues --    0.08475   0.09245   0.09656   0.10173   0.10375
 Alpha virt. eigenvalues --    0.10903   0.11294   0.11660   0.12088   0.12605
 Alpha virt. eigenvalues --    0.13264   0.13754   0.14118   0.14357   0.14819
 Alpha virt. eigenvalues --    0.15051   0.15080   0.15473   0.15785   0.16303
 Alpha virt. eigenvalues --    0.16500   0.16677   0.17081   0.17371   0.17424
 Alpha virt. eigenvalues --    0.17473   0.18004   0.18164   0.18810   0.18984
 Alpha virt. eigenvalues --    0.19195   0.19421   0.19982   0.20311   0.20499
 Alpha virt. eigenvalues --    0.20722   0.20875   0.21066   0.21193   0.21549
 Alpha virt. eigenvalues --    0.21877   0.22044   0.22538   0.22851   0.23157
 Alpha virt. eigenvalues --    0.23261   0.23591   0.23837   0.24126   0.24560
 Alpha virt. eigenvalues --    0.24985   0.25398   0.25577   0.25965   0.26074
 Alpha virt. eigenvalues --    0.26473   0.26824   0.26925   0.27339   0.27783
 Alpha virt. eigenvalues --    0.28027   0.28305   0.28421   0.29179   0.29341
 Alpha virt. eigenvalues --    0.29432   0.29690   0.30485   0.30730   0.31636
 Alpha virt. eigenvalues --    0.31819   0.31895   0.32229   0.32425   0.33013
 Alpha virt. eigenvalues --    0.33105   0.33707   0.34144   0.34564   0.34631
 Alpha virt. eigenvalues --    0.35212   0.35461   0.35648   0.35827   0.36336
 Alpha virt. eigenvalues --    0.36948   0.37288   0.37517   0.37691   0.38062
 Alpha virt. eigenvalues --    0.38703   0.39059   0.39477   0.39707   0.40532
 Alpha virt. eigenvalues --    0.41204   0.41596   0.41813   0.42011   0.42159
 Alpha virt. eigenvalues --    0.42510   0.42680   0.43017   0.43455   0.44048
 Alpha virt. eigenvalues --    0.44245   0.44722   0.45777   0.45805   0.46650
 Alpha virt. eigenvalues --    0.46987   0.47829   0.48267   0.49171   0.49421
 Alpha virt. eigenvalues --    0.50219   0.50504   0.51289   0.51911   0.52835
 Alpha virt. eigenvalues --    0.53625   0.53767   0.54500   0.55222   0.56186
 Alpha virt. eigenvalues --    0.57975   0.58057   0.59125   0.61191   0.61757
 Alpha virt. eigenvalues --    0.62625   0.62835   0.63746   0.64302   0.64720
 Alpha virt. eigenvalues --    0.65152   0.65397   0.65686   0.65941   0.66252
 Alpha virt. eigenvalues --    0.66716   0.67170   0.68283   0.68544   0.68765
 Alpha virt. eigenvalues --    0.69025   0.69449   0.70024   0.71547   0.72461
 Alpha virt. eigenvalues --    0.72964   0.73185   0.73611   0.74025   0.74664
 Alpha virt. eigenvalues --    0.75584   0.76123   0.76515   0.76913   0.77500
 Alpha virt. eigenvalues --    0.77802   0.78196   0.79013   0.79075   0.79652
 Alpha virt. eigenvalues --    0.80026   0.80667   0.81000   0.81200   0.82245
 Alpha virt. eigenvalues --    0.82933   0.83694   0.84027   0.84947   0.85236
 Alpha virt. eigenvalues --    0.86390   0.86680   0.88392   0.88983   0.89685
 Alpha virt. eigenvalues --    0.90597   0.90932   0.91230   0.92737   0.93878
 Alpha virt. eigenvalues --    0.94723   0.95242   0.96223   0.97178   0.97321
 Alpha virt. eigenvalues --    0.97755   0.98349   0.98863   0.99371   1.00196
 Alpha virt. eigenvalues --    1.00804   1.00831   1.02139   1.02359   1.03156
 Alpha virt. eigenvalues --    1.03613   1.04026   1.04870   1.05443   1.06235
 Alpha virt. eigenvalues --    1.06753   1.07378   1.07868   1.08120   1.09087
 Alpha virt. eigenvalues --    1.09547   1.10026   1.10332   1.10891   1.12201
 Alpha virt. eigenvalues --    1.12518   1.13831   1.15175   1.15732   1.17158
 Alpha virt. eigenvalues --    1.17730   1.18526   1.18611   1.18979   1.19414
 Alpha virt. eigenvalues --    1.20702   1.21107   1.21876   1.22550   1.23999
 Alpha virt. eigenvalues --    1.25247   1.25769   1.26303   1.29163   1.32151
 Alpha virt. eigenvalues --    1.33038   1.34491   1.35313   1.36188   1.38101
 Alpha virt. eigenvalues --    1.40116   1.42229   1.43586   1.47236   1.47852
 Alpha virt. eigenvalues --    1.48647   1.50805   1.50996   1.51969   1.54503
 Alpha virt. eigenvalues --    1.55364   1.57049   1.58295   1.59374   1.60235
 Alpha virt. eigenvalues --    1.61359   1.62134   1.62525   1.63360   1.63565
 Alpha virt. eigenvalues --    1.63970   1.64539   1.65169   1.65502   1.66554
 Alpha virt. eigenvalues --    1.66740   1.66883   1.68139   1.68509   1.69617
 Alpha virt. eigenvalues --    1.70185   1.70460   1.70576   1.72447   1.73518
 Alpha virt. eigenvalues --    1.73671   1.74339   1.75376   1.76179   1.78202
 Alpha virt. eigenvalues --    1.78425   1.79805   1.80192   1.80963   1.81727
 Alpha virt. eigenvalues --    1.83556   1.84417   1.85321   1.86292   1.86710
 Alpha virt. eigenvalues --    1.87475   1.88960   1.90392   1.90766   1.91541
 Alpha virt. eigenvalues --    1.92583   1.93464   1.93886   1.94319   1.95394
 Alpha virt. eigenvalues --    1.96964   1.97257   1.98499   1.99549   2.01033
 Alpha virt. eigenvalues --    2.01687   2.02326   2.02878   2.03479   2.03776
 Alpha virt. eigenvalues --    2.04618   2.06550   2.06826   2.08441   2.09812
 Alpha virt. eigenvalues --    2.10496   2.10653   2.11237   2.13335   2.13660
 Alpha virt. eigenvalues --    2.14387   2.17511   2.17798   2.19908   2.20109
 Alpha virt. eigenvalues --    2.20979   2.21809   2.24564   2.25634   2.26118
 Alpha virt. eigenvalues --    2.27494   2.28093   2.29517   2.29913   2.32039
 Alpha virt. eigenvalues --    2.34419   2.36590   2.37302   2.37722   2.39405
 Alpha virt. eigenvalues --    2.40344   2.41027   2.42988   2.45570   2.46467
 Alpha virt. eigenvalues --    2.47488   2.48715   2.50657   2.51040   2.51852
 Alpha virt. eigenvalues --    2.53610   2.55650   2.55882   2.59110   2.60495
 Alpha virt. eigenvalues --    2.62487   2.63957   2.64459   2.64935   2.66438
 Alpha virt. eigenvalues --    2.66983   2.68421   2.69148   2.69775   2.71825
 Alpha virt. eigenvalues --    2.74717   2.75983   2.76888   2.78275   2.79119
 Alpha virt. eigenvalues --    2.79979   2.82005   2.82241   2.83484   2.87108
 Alpha virt. eigenvalues --    2.87635   2.87866   2.88390   2.89778   2.90626
 Alpha virt. eigenvalues --    2.91137   2.91617   2.92541   2.92923   2.94436
 Alpha virt. eigenvalues --    2.94691   2.95992   2.97184   2.98487   2.98553
 Alpha virt. eigenvalues --    3.01851   3.02480   3.02759   3.03533   3.04608
 Alpha virt. eigenvalues --    3.04890   3.05849   3.06254   3.06560   3.06783
 Alpha virt. eigenvalues --    3.08207   3.08520   3.09768   3.11240   3.11934
 Alpha virt. eigenvalues --    3.12219   3.12721   3.13537   3.16335   3.19007
 Alpha virt. eigenvalues --    3.20423   3.21011   3.21736   3.22507   3.26469
 Alpha virt. eigenvalues --    3.27164   3.27660   3.28852   3.31740   3.34763
 Alpha virt. eigenvalues --    3.34830   3.36839   3.38697   3.39533   3.40806
 Alpha virt. eigenvalues --    3.43809   3.44377   3.46932   3.51946   3.53297
 Alpha virt. eigenvalues --    3.53806   3.58725   3.67365   3.68723   3.73329
 Alpha virt. eigenvalues --    3.74553   3.76384   3.78883   3.80748   3.85201
 Alpha virt. eigenvalues --    3.85989   3.90618   3.91771   3.93653   3.95714
 Alpha virt. eigenvalues --    3.99337   4.03382   4.15339   4.23986   4.24474
 Alpha virt. eigenvalues --    4.24908   4.25434   4.26736   4.26848   4.29514
 Alpha virt. eigenvalues --    4.30658   4.35816   4.44443   4.45984   4.46825
 Alpha virt. eigenvalues --    4.54383   4.55801   4.60073   4.62567   4.71543
 Alpha virt. eigenvalues --    4.82550   4.97507   4.98100   5.13699   5.14399
 Alpha virt. eigenvalues --    5.20291   5.26845   5.46823   5.70216   5.92895
 Alpha virt. eigenvalues --    6.26699  23.82423  23.95538  24.03492  24.11487
 Alpha virt. eigenvalues --   24.14353  24.15597  24.19063  24.26349  24.26466
 Alpha virt. eigenvalues --   24.28151  24.38912  24.39482  24.42461  24.45766
 Alpha virt. eigenvalues --   24.47081  24.49165  24.50146  24.50684  35.76883
 Alpha virt. eigenvalues --   50.19498  50.23451
          Condensed to atoms (all electrons):
              1          2          3          4          5          6
     1  H    0.556269  -0.015065   0.549256   0.018340  -0.081984  -0.028375
     2  H   -0.015065   0.545678  -0.002672   0.450174  -0.005843   0.005174
     3  C    0.549256  -0.002672   9.524722   0.164324   0.174577   1.030599
     4  C    0.018340   0.450174   0.164324   4.971967  -0.028430  -0.073580
     5  C   -0.081984  -0.005843   0.174577  -0.028430  11.423123  -1.321930
     6  C   -0.028375   0.005174   1.030599  -0.073580  -1.321930  10.094734
     7  N   -0.033436  -0.064067  -0.224182   0.327924   0.294521   0.041118
     8  H   -0.015643  -0.060004   0.026525   0.429836  -0.003471   0.001726
     9  H    0.008185  -0.019826   0.017016   0.418199  -0.004991  -0.020479
    10  C   -0.005534   0.001762  -1.728259  -0.137609   0.632158  -1.488692
    11  C   -0.072738   0.007240  -2.170749  -0.126586  -1.702050  -0.096907
    12  H   -0.028636   0.001169  -0.110440   0.004234   0.023542   0.366218
    13  C   -0.005198  -0.000894  -0.163880  -0.090003  -0.046316  -0.041215
    14  C   -0.015687  -0.003619  -1.728696  -0.062016  -1.792479  -1.099649
    15  H   -0.003491   0.000413  -0.032163  -0.008233  -0.383716  -0.086507
    16  C   -0.007072  -0.001101   0.267757   0.006869  -0.484298  -1.154893
    17  H    0.000401   0.001890  -0.006635   0.010249   0.038041  -0.001895
    18  H    0.000249  -0.000199   0.000000  -0.005480   0.019824   0.000752
    19  H    0.001794  -0.003326   0.003986  -0.016123  -0.023706   0.010154
    20  H    0.004462  -0.000188  -0.012828   0.001830   0.233350   0.096790
    21  H    0.004400  -0.000155   0.065662  -0.000685  -0.000847   0.040384
    22  C   -0.005227  -0.000438   0.541957  -0.003212  -0.451469  -0.285686
    23  C    0.002367  -0.000038   0.034827   0.000729   0.001038   0.169200
    24  H   -0.001583   0.000002   0.033305  -0.000408  -0.071204  -0.006213
    25  C   -0.000424   0.000046  -0.103951  -0.000286   0.037318  -0.140818
    26  O    0.000080  -0.000001  -0.005260  -0.000002  -0.001456  -0.025327
    27  C   -0.000468   0.000010  -0.023604   0.000007   0.016088  -0.057736
    28  C    0.001104  -0.000030   0.083109   0.000173  -0.026008   0.222298
    29  C   -0.000068   0.000001  -0.002328  -0.000001   0.000975  -0.009527
    30  O    0.000002   0.000000  -0.000270   0.000000  -0.000026  -0.001133
    31  C    0.000081  -0.000001   0.006092   0.000010  -0.001546   0.029576
    32  H    0.000107  -0.000003   0.002336   0.000045   0.003137   0.006138
    33  H   -0.000002   0.000000  -0.000049   0.000000   0.000014  -0.000175
    34  C    0.000034  -0.000001   0.002499   0.000003  -0.000885   0.011407
    35  H    0.000020   0.000000   0.000190   0.000001  -0.000117   0.002569
    36  H   -0.000003   0.000000  -0.000248  -0.000002  -0.000036  -0.000823
    37  C    0.000002   0.000000   0.000033   0.000000   0.000008   0.000106
    38  H    0.000000   0.000000   0.000000   0.000000  -0.000001  -0.000002
    39  H    0.000000   0.000000   0.000007   0.000000  -0.000001   0.000053
    40  H    0.000000   0.000000   0.000000   0.000000   0.000000   0.000000
              7          8          9         10         11         12
     1  H   -0.033436  -0.015643   0.008185  -0.005534  -0.072738  -0.028636
     2  H   -0.064067  -0.060004  -0.019826   0.001762   0.007240   0.001169
     3  C   -0.224182   0.026525   0.017016  -1.728259  -2.170749  -0.110440
     4  C    0.327924   0.429836   0.418199  -0.137609  -0.126586   0.004234
     5  C    0.294521  -0.003471  -0.004991   0.632158  -1.702050   0.023542
     6  C    0.041118   0.001726  -0.020479  -1.488692  -0.096907   0.366218
     7  N    7.112105  -0.053536  -0.033283  -0.308858  -0.019114  -0.001918
     8  H   -0.053536   0.569805  -0.025349  -0.019424   0.007131   0.001753
     9  H   -0.033283  -0.025349   0.520605   0.018913  -0.005182  -0.000183
    10  C   -0.308858  -0.019424   0.018913   8.886574  -0.816263  -0.011703
    11  C   -0.019114   0.007131  -0.005182  -0.816263   9.874264   0.048226
    12  H   -0.001918   0.001753  -0.000183  -0.011703   0.048226   0.522788
    13  C    0.307571   0.005331  -0.014544   0.071086  -0.031823  -0.000564
    14  C   -0.027519  -0.005920   0.005267   1.758898   1.080467  -0.006829
    15  H   -0.034882   0.000194   0.002752   0.394136   0.146514   0.001374
    16  C   -0.002060  -0.001016   0.002063  -0.163185   0.051753   0.028212
    17  H   -0.055051  -0.007080   0.003110   0.016899  -0.008572  -0.000133
    18  H   -0.059469   0.002585  -0.004365   0.008041  -0.010036  -0.000346
    19  H   -0.036777   0.001754   0.007218   0.018046   0.002820  -0.000193
    20  H   -0.002843  -0.000422  -0.000596   0.075332  -0.085227  -0.005743
    21  H   -0.000439  -0.000214   0.000035   0.007083  -0.167425  -0.018753
    22  C    0.002744   0.000109   0.000354  -0.787488  -0.889173  -0.001398
    23  C    0.000080  -0.000004  -0.000012  -0.012445   0.214501  -0.000845
    24  H   -0.000297   0.000087   0.000025  -0.148083  -0.018617   0.001741
    25  C   -0.000085   0.000048  -0.000039   0.170409   0.128162   0.004444
    26  O    0.000001  -0.000001   0.000000   0.001334   0.066152   0.001177
    27  C   -0.000031   0.000002  -0.000001   0.038096   0.010526   0.003473
    28  C    0.000069  -0.000037   0.000027  -0.123110  -0.093006  -0.005891
    29  C   -0.000001   0.000000   0.000000   0.000961  -0.037342   0.000427
    30  O    0.000000   0.000000   0.000000   0.000248   0.004123   0.000064
    31  C    0.000015  -0.000002   0.000001  -0.011441   0.028121  -0.000240
    32  H    0.000005  -0.000004   0.000004   0.001533  -0.001835  -0.000269
    33  H    0.000000   0.000000   0.000000   0.000034  -0.001059   0.000022
    34  C    0.000001  -0.000001   0.000000  -0.008197   0.014735  -0.000399
    35  H    0.000000   0.000000   0.000000  -0.000113  -0.003703  -0.000110
    36  H   -0.000001   0.000000   0.000000   0.000563  -0.001162   0.000023
    37  C    0.000000   0.000000   0.000000   0.000057   0.001354  -0.000024
    38  H    0.000000   0.000000   0.000000  -0.000001   0.000056   0.000000
    39  H    0.000000   0.000000   0.000000  -0.000046  -0.000049   0.000000
    40  H    0.000000   0.000000   0.000000   0.000002   0.000046   0.000000
             13         14         15         16         17         18
     1  H   -0.005198  -0.015687  -0.003491  -0.007072   0.000401   0.000249
     2  H   -0.000894  -0.003619   0.000413  -0.001101   0.001890  -0.000199
     3  C   -0.163880  -1.728696  -0.032163   0.267757  -0.006635   0.000000
     4  C   -0.090003  -0.062016  -0.008233   0.006869   0.010249  -0.005480
     5  C   -0.046316  -1.792479  -0.383716  -0.484298   0.038041   0.019824
     6  C   -0.041215  -1.099649  -0.086507  -1.154893  -0.001895   0.000752
     7  N    0.307571  -0.027519  -0.034882  -0.002060  -0.055051  -0.059469
     8  H    0.005331  -0.005920   0.000194  -0.001016  -0.007080   0.002585
     9  H   -0.014544   0.005267   0.002752   0.002063   0.003110  -0.004365
    10  C    0.071086   1.758898   0.394136  -0.163185   0.016899   0.008041
    11  C   -0.031823   1.080467   0.146514   0.051753  -0.008572  -0.010036
    12  H   -0.000564  -0.006829   0.001374   0.028212  -0.000133  -0.000346
    13  C    4.955855  -0.015515   0.017798  -0.000513   0.413701   0.460477
    14  C   -0.015515   9.504728   0.139328  -0.021685  -0.018489  -0.018046
    15  H    0.017798   0.139328   0.606867   0.058080  -0.019693  -0.022633
    16  C   -0.000513  -0.021685   0.058080   6.494832  -0.001491  -0.001339
    17  H    0.413701  -0.018489  -0.019693  -0.001491   0.583961  -0.057385
    18  H    0.460477  -0.018046  -0.022633  -0.001339  -0.057385   0.537786
    19  H    0.423262   0.004424   0.009984  -0.000729  -0.034697  -0.015874
    20  H    0.003757   0.353617  -0.067118  -0.099081   0.003587   0.002902
    21  H    0.000582  -0.021134   0.001960   0.363404   0.000016   0.000037
    22  C    0.004150  -1.126172   0.060050   0.884697  -0.000967  -0.001512
    23  C   -0.000396  -0.495731  -0.000164  -0.714402  -0.000046  -0.000008
    24  H   -0.000099  -0.102566   0.015989   0.023772  -0.000438  -0.000402
    25  C    0.000437   0.285373  -0.006899   0.299744   0.000017   0.000032
    26  O    0.000009   0.012279   0.000057   0.064128  -0.000002  -0.000002
    27  C   -0.000066   0.278648  -0.002609   0.340743   0.000023   0.000031
    28  C   -0.000622  -0.346724   0.003706  -0.453312   0.000018   0.000010
    29  C   -0.000003   0.047589  -0.000228   0.125339   0.000002   0.000003
    30  O    0.000000   0.000325  -0.000002   0.021301   0.000000   0.000000
    31  C   -0.000103  -0.048827  -0.000016   0.005522   0.000001   0.000006
    32  H   -0.000055  -0.005158  -0.000635  -0.009965   0.000029   0.000030
    33  H    0.000000   0.000849  -0.000004   0.004456   0.000000   0.000000
    34  C   -0.000009  -0.023227   0.000138  -0.048841   0.000001   0.000000
    35  H   -0.000002  -0.003114  -0.000007  -0.007489   0.000000   0.000000
    36  H    0.000004   0.000703   0.000035   0.001070  -0.000002  -0.000001
    37  C    0.000000  -0.000431  -0.000011  -0.001140   0.000000   0.000000
    38  H    0.000000  -0.000031   0.000000  -0.000169   0.000000   0.000000
    39  H    0.000000  -0.000050  -0.000001  -0.000028   0.000000   0.000000
    40  H    0.000000  -0.000021   0.000000  -0.000165   0.000000   0.000000
             19         20         21         22         23         24
     1  H    0.001794   0.004462   0.004400  -0.005227   0.002367  -0.001583
     2  H   -0.003326  -0.000188  -0.000155  -0.000438  -0.000038   0.000002
     3  C    0.003986  -0.012828   0.065662   0.541957   0.034827   0.033305
     4  C   -0.016123   0.001830  -0.000685  -0.003212   0.000729  -0.000408
     5  C   -0.023706   0.233350  -0.000847  -0.451469   0.001038  -0.071204
     6  C    0.010154   0.096790   0.040384  -0.285686   0.169200  -0.006213
     7  N   -0.036777  -0.002843  -0.000439   0.002744   0.000080  -0.000297
     8  H    0.001754  -0.000422  -0.000214   0.000109  -0.000004   0.000087
     9  H    0.007218  -0.000596   0.000035   0.000354  -0.000012   0.000025
    10  C    0.018046   0.075332   0.007083  -0.787488  -0.012445  -0.148083
    11  C    0.002820  -0.085227  -0.167425  -0.889173   0.214501  -0.018617
    12  H   -0.000193  -0.005743  -0.018753  -0.001398  -0.000845   0.001741
    13  C    0.423262   0.003757   0.000582   0.004150  -0.000396  -0.000099
    14  C    0.004424   0.353617  -0.021134  -1.126172  -0.495731  -0.102566
    15  H    0.009984  -0.067118   0.001960   0.060050  -0.000164   0.015989
    16  C   -0.000729  -0.099081   0.363404   0.884697  -0.714402   0.023772
    17  H   -0.034697   0.003587   0.000016  -0.000967  -0.000046  -0.000438
    18  H   -0.015874   0.002902   0.000037  -0.001512  -0.000008  -0.000402
    19  H    0.526597  -0.000020   0.000006   0.000216   0.000008   0.000026
    20  H   -0.000020   0.621193  -0.004239  -0.197278  -0.022660  -0.055872
    21  H    0.000006  -0.004239   0.512338   0.040379   0.004407   0.007868
    22  C    0.000216  -0.197278   0.040379   9.175345  -0.112250   0.828844
    23  C    0.000008  -0.022660   0.004407  -0.112250   8.177808   0.093692
    24  H    0.000026  -0.055872   0.007868   0.828844   0.093692   0.772988
    25  C    0.000042   0.040917  -0.059414  -0.784066   0.342663  -0.126406
    26  O    0.000000   0.002075  -0.005581  -0.275046   0.771029  -0.004676
    27  C   -0.000006   0.024412  -0.013710   0.402628  -2.003221  -0.045008
    28  C   -0.000048  -0.034393   0.026204  -0.618777   0.550714   0.053877
    29  C    0.000000   0.002362   0.001861   0.338402  -0.377329  -0.000237
    30  O    0.000000   0.000134  -0.002322  -0.054307  -0.088467  -0.000614
    31  C   -0.000005   0.002119  -0.001953  -0.722197  -0.689401  -0.093371
    32  H   -0.000010  -0.000577   0.003731  -0.021873  -0.024985  -0.034211
    33  H    0.000000   0.000046  -0.000164   0.008606  -0.017746  -0.000573
    34  C   -0.000001  -0.002022   0.003801  -0.154369   0.046450   0.002644
    35  H    0.000000  -0.000071   0.000663   0.017833   0.041289   0.001414
    36  H    0.000001  -0.000241  -0.000389   0.008432   0.006778   0.008998
    37  C    0.000000   0.000276   0.000311  -0.012156   0.027349  -0.003689
    38  H    0.000000  -0.000003  -0.000002   0.000217   0.001909   0.000183
    39  H    0.000000  -0.000013   0.000011  -0.003062  -0.002922  -0.000560
    40  H    0.000000  -0.000010   0.000000  -0.000151   0.001618   0.000198
             25         26         27         28         29         30
     1  H   -0.000424   0.000080  -0.000468   0.001104  -0.000068   0.000002
     2  H    0.000046  -0.000001   0.000010  -0.000030   0.000001   0.000000
     3  C   -0.103951  -0.005260  -0.023604   0.083109  -0.002328  -0.000270
     4  C   -0.000286  -0.000002   0.000007   0.000173  -0.000001   0.000000
     5  C    0.037318  -0.001456   0.016088  -0.026008   0.000975  -0.000026
     6  C   -0.140818  -0.025327  -0.057736   0.222298  -0.009527  -0.001133
     7  N   -0.000085   0.000001  -0.000031   0.000069  -0.000001   0.000000
     8  H    0.000048  -0.000001   0.000002  -0.000037   0.000000   0.000000
     9  H   -0.000039   0.000000  -0.000001   0.000027   0.000000   0.000000
    10  C    0.170409   0.001334   0.038096  -0.123110   0.000961   0.000248
    11  C    0.128162   0.066152   0.010526  -0.093006  -0.037342   0.004123
    12  H    0.004444   0.001177   0.003473  -0.005891   0.000427   0.000064
    13  C    0.000437   0.000009  -0.000066  -0.000622  -0.000003   0.000000
    14  C    0.285373   0.012279   0.278648  -0.346724   0.047589   0.000325
    15  H   -0.006899   0.000057  -0.002609   0.003706  -0.000228  -0.000002
    16  C    0.299744   0.064128   0.340743  -0.453312   0.125339   0.021301
    17  H    0.000017  -0.000002   0.000023   0.000018   0.000002   0.000000
    18  H    0.000032  -0.000002   0.000031   0.000010   0.000003   0.000000
    19  H    0.000042   0.000000  -0.000006  -0.000048   0.000000   0.000000
    20  H    0.040917   0.002075   0.024412  -0.034393   0.002362   0.000134
    21  H   -0.059414  -0.005581  -0.013710   0.026204   0.001861  -0.002322
    22  C   -0.784066  -0.275046   0.402628  -0.618777   0.338402  -0.054307
    23  C    0.342663   0.771029  -2.003221   0.550714  -0.377329  -0.088467
    24  H   -0.126406  -0.004676  -0.045008   0.053877  -0.000237  -0.000614
    25  C   12.858978  -0.179582  -1.139262  -0.769798  -3.180591   0.281405
    26  O   -0.179582   8.100975  -0.033797  -0.184336   0.044829  -0.009135
    27  C   -1.139262  -0.033797   9.105933  -1.287609   1.544236   0.249071
    28  C   -0.769798  -0.184336  -1.287609   9.511344  -0.764532  -0.009905
    29  C   -3.180591   0.044829   1.544236  -0.764532   9.853558  -0.426473
    30  O    0.281405  -0.009135   0.249071  -0.009905  -0.426473   8.050716
    31  C   -2.372701  -0.040421  -0.275985   1.932902  -1.138294   0.000850
    32  H    0.040041  -0.001308   0.015420   0.455697   0.014049  -0.003301
    33  H   -0.171593   0.001936  -0.117583   0.025318   0.656815  -0.052465
    34  C   -0.453408  -0.027591  -0.944266  -0.989483  -0.282891   0.017112
    35  H   -0.209868   0.064449   0.084901   0.016576   0.087460   0.268544
    36  H    0.070876   0.000597   0.009172   0.004014   0.022540   0.000571
    37  C   -0.083188  -0.001688  -0.106056  -0.020388  -0.386078   0.003121
    38  H    0.013570  -0.000047   0.007814  -0.024514   0.018178   0.000404
    39  H   -0.020791  -0.000007  -0.000713  -0.003099  -0.000131   0.000387
    40  H    0.017641  -0.000037   0.013956  -0.020315   0.026675   0.000465
             31         32         33         34         35         36
     1  H    0.000081   0.000107  -0.000002   0.000034   0.000020  -0.000003
     2  H   -0.000001  -0.000003   0.000000  -0.000001   0.000000   0.000000
     3  C    0.006092   0.002336  -0.000049   0.002499   0.000190  -0.000248
     4  C    0.000010   0.000045   0.000000   0.000003   0.000001  -0.000002
     5  C   -0.001546   0.003137   0.000014  -0.000885  -0.000117  -0.000036
     6  C    0.029576   0.006138  -0.000175   0.011407   0.002569  -0.000823
     7  N    0.000015   0.000005   0.000000   0.000001   0.000000  -0.000001
     8  H   -0.000002  -0.000004   0.000000  -0.000001   0.000000   0.000000
     9  H    0.000001   0.000004   0.000000   0.000000   0.000000   0.000000
    10  C   -0.011441   0.001533   0.000034  -0.008197  -0.000113   0.000563
    11  C    0.028121  -0.001835  -0.001059   0.014735  -0.003703  -0.001162
    12  H   -0.000240  -0.000269   0.000022  -0.000399  -0.000110   0.000023
    13  C   -0.000103  -0.000055   0.000000  -0.000009  -0.000002   0.000004
    14  C   -0.048827  -0.005158   0.000849  -0.023227  -0.003114   0.000703
    15  H   -0.000016  -0.000635  -0.000004   0.000138  -0.000007   0.000035
    16  C    0.005522  -0.009965   0.004456  -0.048841  -0.007489   0.001070
    17  H    0.000001   0.000029   0.000000   0.000001   0.000000  -0.000002
    18  H    0.000006   0.000030   0.000000   0.000000   0.000000  -0.000001
    19  H   -0.000005  -0.000010   0.000000  -0.000001   0.000000   0.000001
    20  H    0.002119  -0.000577   0.000046  -0.002022  -0.000071  -0.000241
    21  H   -0.001953   0.003731  -0.000164   0.003801   0.000663  -0.000389
    22  C   -0.722197  -0.021873   0.008606  -0.154369   0.017833   0.008432
    23  C   -0.689401  -0.024985  -0.017746   0.046450   0.041289   0.006778
    24  H   -0.093371  -0.034211  -0.000573   0.002644   0.001414   0.008998
    25  C   -2.372701   0.040041  -0.171593  -0.453408  -0.209868   0.070876
    26  O   -0.040421  -0.001308   0.001936  -0.027591   0.064449   0.000597
    27  C   -0.275985   0.015420  -0.117583  -0.944266   0.084901   0.009172
    28  C    1.932902   0.455697   0.025318  -0.989483   0.016576   0.004014
    29  C   -1.138294   0.014049   0.656815  -0.282891   0.087460   0.022540
    30  O    0.000850  -0.003301  -0.052465   0.017112   0.268544   0.000571
    31  C    9.351753  -0.044049   0.054952   0.825889   0.004530   0.328576
    32  H   -0.044049   0.571063   0.002790  -0.043041  -0.000174  -0.032648
    33  H    0.054952   0.002790   0.508281  -0.062494   0.005231  -0.000939
    34  C    0.825889  -0.043041  -0.062494   8.381266  -0.015824  -0.112291
    35  H    0.004530  -0.000174   0.005231  -0.015824   0.330170   0.000422
    36  H    0.328576  -0.032648  -0.000939  -0.112291   0.000422   0.530776
    37  C   -0.054554  -0.002006  -0.034809  -0.569405  -0.001248   0.007343
    38  H   -0.074568  -0.000538  -0.005239   0.033829  -0.000100  -0.000228
    39  H    0.070648   0.003200   0.002389  -0.032156   0.000127  -0.014189
    40  H   -0.071075  -0.000625  -0.004856   0.045694  -0.000155   0.001256
             37         38         39         40
     1  H    0.000002   0.000000   0.000000   0.000000
     2  H    0.000000   0.000000   0.000000   0.000000
     3  C    0.000033   0.000000   0.000007   0.000000
[...]
     6  C   -0.043299  -1.127570  -0.038213  -0.724718  -0.006764  -0.002268
     7  N    0.297459  -0.035143  -0.035661  -0.003023  -0.052026  -0.057858
     8  H    0.006242  -0.004409  -0.000036  -0.000890  -0.004727   0.001468
     9  H   -0.012381   0.004394   0.002122   0.001972   0.001136  -0.004798
    10  C    0.094204   1.853531   0.349187  -0.261591   0.039546   0.017210
    11  C   -0.030081   0.454347   0.151318   0.363429  -0.006530  -0.010012
    12  H   -0.001132  -0.023930   0.000466   0.045259   0.000054  -0.000143
    13  C    5.238280  -0.014719   0.007687  -0.003705   0.398965   0.436656
    14  C   -0.014719   9.629301   0.092999  -0.375874  -0.004420  -0.018333
    15  H    0.007687   0.092999   0.554603   0.046547  -0.008962  -0.018084
    16  C   -0.003705  -0.375874   0.046547   6.877609  -0.001191  -0.001008
    17  H    0.398965  -0.004420  -0.008962  -0.001191   0.576774  -0.061280
    18  H    0.436656  -0.018333  -0.018084  -0.001008  -0.061280   0.553339
    19  H    0.403204   0.001352   0.006368  -0.000963  -0.027262  -0.019596
    20  H    0.006208   0.410352  -0.049986  -0.094259   0.002457   0.002611
    21  H    0.000701   0.011277   0.000362   0.339863  -0.000005   0.000038
    22  C    0.004047  -1.095706   0.029690   0.523623   0.000417  -0.000265
    23  C   -0.000096  -0.067133  -0.009401  -0.851800   0.000182   0.000143
    24  H   -0.001232  -0.169782   0.016597   0.021748  -0.000400  -0.000414
    25  C    0.000407   0.253172  -0.004858   0.328739  -0.000002   0.000032
    26  O    0.000006   0.009555   0.000076   0.108313  -0.000001  -0.000001
    27  C   -0.000055   0.273620  -0.002136   0.286437   0.000015   0.000019
    28  C   -0.000319  -0.131260   0.000189  -0.682624   0.000086   0.000016
    29  C   -0.000003   0.041037  -0.000175   0.145495   0.000001   0.000001
    30  O    0.000000   0.000253   0.000000   0.030532   0.000000   0.000000
    31  C   -0.000044  -0.001802  -0.000933  -0.165994   0.000035   0.000007
    32  H    0.000045   0.014795  -0.001081  -0.014086   0.000012   0.000039
    33  H    0.000000   0.000321  -0.000001   0.003251   0.000000   0.000000
    34  C   -0.000003   0.006314  -0.000181  -0.073719   0.000005   0.000001
    35  H   -0.000001  -0.002334  -0.000014  -0.006879   0.000000   0.000000
    36  H    0.000001  -0.001430   0.000053   0.001595  -0.000001  -0.000001
    37  C    0.000000   0.000782  -0.000022  -0.003717   0.000000   0.000000
    38  H    0.000000  -0.000010   0.000000  -0.000118   0.000000   0.000000
    39  H    0.000000   0.000011   0.000000   0.000046   0.000000   0.000000
    40  H    0.000000   0.000015   0.000000  -0.000237   0.000000   0.000000
             19         20         21         22         23         24
     1  H    0.001834   0.000776   0.001567  -0.015743  -0.000450  -0.000190
     2  H   -0.004419   0.000106  -0.000036   0.000479   0.000103  -0.000081
     3  C    0.006028  -0.048260   0.028014   0.567767  -0.039925   0.055655
     4  C   -0.014393  -0.000314  -0.001106  -0.004451   0.000678   0.000089
     5  C   -0.013218   0.201142   0.003058  -0.119973   0.104511  -0.064822
     6  C    0.008489   0.030057   0.041382  -0.084812   0.077061   0.050161
     7  N   -0.047803  -0.000333  -0.000505  -0.000977   0.000063  -0.000831
     8  H    0.000815  -0.000238  -0.000155  -0.000147   0.000008   0.000076
     9  H    0.015396  -0.000414  -0.000028   0.000178  -0.000029   0.000046
    10  C    0.015454   0.117581   0.015019  -0.642652   0.112962  -0.165284
    11  C    0.002663  -0.186630  -0.137442  -1.141830   0.018668   0.108869
    12  H   -0.000224  -0.003476  -0.003164   0.019371  -0.001073   0.002556
    13  C    0.403204   0.006208   0.000701   0.004047  -0.000096  -0.001232
    14  C    0.001352   0.410352   0.011277  -1.095706  -0.067133  -0.169782
    15  H    0.006368  -0.049986   0.000362   0.029690  -0.009401   0.016597
    16  C   -0.000963  -0.094259   0.339863   0.523623  -0.851800   0.021748
    17  H   -0.027262   0.002457  -0.000005   0.000417   0.000182  -0.000400
    18  H   -0.019596   0.002611   0.000038  -0.000265   0.000143  -0.000414
    19  H    0.513130  -0.000016   0.000030   0.000010   0.000001  -0.000040
    20  H   -0.000016   0.600519   0.001848  -0.146810   0.013377  -0.070318
    21  H    0.000030   0.001848   0.466040   0.014950   0.003379   0.002766
    22  C    0.000010  -0.146810   0.014950   9.787505   0.086902   0.793676
    23  C    0.000001   0.013377   0.003379   0.086902   8.043629   0.020085
    24  H   -0.000040  -0.070318   0.002766   0.793676   0.020085   0.885992
    25  C    0.000028   0.027432  -0.032543  -0.651601   0.399617  -0.052453
    26  O    0.000000   0.001657   0.004854  -0.304119   0.727056  -0.002498
    27  C   -0.000003   0.024176  -0.005421  -0.099190  -1.734445  -0.052582
    28  C   -0.000020  -0.012985   0.009779  -0.556784   0.190109  -0.027290
    29  C    0.000000   0.002148   0.000886   0.187900  -0.280739   0.006192
    30  O    0.000000   0.000084  -0.001600  -0.039977  -0.112229  -0.000116
    31  C   -0.000002   0.009122   0.001288  -0.950813  -0.647119  -0.126881
    32  H    0.000000   0.001123   0.001947  -0.038705  -0.026152  -0.040368
    33  H    0.000000   0.000001  -0.000161   0.005090  -0.001238   0.000075
    34  C    0.000000   0.002431   0.003321  -0.172587  -0.185347  -0.025087
    35  H    0.000000  -0.000010   0.000487   0.014807   0.054576   0.001014
    36  H    0.000000  -0.000598  -0.000185   0.004328   0.003324   0.007026
    37  C    0.000000   0.000585   0.000255  -0.058282   0.047109  -0.008152
    38  H    0.000000   0.000014  -0.000001   0.000065   0.000620  -0.000096
    39  H    0.000000  -0.000016   0.000000   0.001192   0.000505   0.000075
    40  H    0.000000  -0.000001   0.000016  -0.000623  -0.003579  -0.000017
             25         26         27         28         29         30
     1  H   -0.000285   0.000097  -0.000245  -0.000329  -0.000035   0.000001
     2  H    0.000029  -0.000002   0.000004   0.000023   0.000000   0.000000
     3  C   -0.102627  -0.004392  -0.022708   0.043876  -0.002035  -0.000266
     4  C   -0.000301   0.000003   0.000011   0.000014  -0.000001   0.000000
     5  C    0.038830  -0.001444   0.016151  -0.005805   0.000874  -0.000044
     6  C   -0.133963  -0.025933  -0.052169   0.110728  -0.006788  -0.001228
     7  N   -0.000059   0.000000  -0.000020   0.000020  -0.000001   0.000000
     8  H    0.000037  -0.000001   0.000005  -0.000026   0.000000   0.000000
     9  H   -0.000028   0.000000  -0.000001   0.000009   0.000000   0.000000
    10  C    0.141312   0.000181   0.042595  -0.044994   0.001632   0.000132
    11  C    0.132213   0.067657   0.000495  -0.285628  -0.031110   0.001849
    12  H    0.000060  -0.000120   0.001951  -0.000940   0.000291   0.000033
    13  C    0.000407   0.000006  -0.000055  -0.000319  -0.000003   0.000000
    14  C    0.253172   0.009555   0.273620  -0.131260   0.041037   0.000253
    15  H   -0.004858   0.000076  -0.002136   0.000189  -0.000175   0.000000
    16  C    0.328739   0.108313   0.286437  -0.682624   0.145495   0.030532
    17  H   -0.000002  -0.000001   0.000015   0.000086   0.000001   0.000000
    18  H    0.000032  -0.000001   0.000019   0.000016   0.000001   0.000000
    19  H    0.000028   0.000000  -0.000003  -0.000020   0.000000   0.000000
    20  H    0.027432   0.001657   0.024176  -0.012985   0.002148   0.000084
    21  H   -0.032543   0.004854  -0.005421   0.009779   0.000886  -0.001600
    22  C   -0.651601  -0.304119  -0.099190  -0.556784   0.187900  -0.039977
    23  C    0.399617   0.727056  -1.734445   0.190109  -0.280739  -0.112229
    24  H   -0.052453  -0.002498  -0.052582  -0.027290   0.006192  -0.000116
    25  C   12.056421  -0.070842  -1.277746  -0.122047  -2.948363   0.133657
    26  O   -0.070842   8.092521  -0.174792  -0.120395  -0.011254   0.002301
    27  C   -1.277746  -0.174792   9.831693  -0.933998   1.895453   0.251475
    28  C   -0.122047  -0.120395  -0.933998   8.845325  -0.637424  -0.010803
    29  C   -2.948363  -0.011254   1.895453  -0.637424  11.002222  -0.327832
    30  O    0.133657   0.002301   0.251475  -0.010803  -0.327832   8.091289
    31  C   -2.713557  -0.029695  -0.361377   1.658369  -1.603676  -0.004441
    32  H   -0.075649  -0.001930   0.009230   0.474181  -0.006196  -0.002457
    33  H   -0.104673   0.001120  -0.062932   0.010530   0.630729  -0.039027
    34  C   -0.046636  -0.029672  -1.864730  -0.509741  -1.575556   0.053839
    35  H   -0.175759   0.082333   0.056116   0.005274   0.057165   0.246458
    36  H    0.056022   0.000414   0.020842   0.001177   0.036398   0.000550
    37  C   -0.165411  -0.001543   0.251997  -0.507279   0.296027   0.005386
    38  H   -0.008267  -0.000022  -0.010374  -0.026103  -0.030374  -0.000122
    39  H    0.010500  -0.000002  -0.025597   0.033486  -0.069448  -0.000040
    40  H    0.019961   0.000009   0.019463  -0.006225   0.054939   0.001439
             31         32         33         34         35         36
     1  H   -0.000077  -0.000069  -0.000001  -0.000007   0.000007   0.000002
     2  H    0.000004   0.000006   0.000000   0.000000   0.000001   0.000000
     3  C    0.001669  -0.001075  -0.000020   0.001078  -0.000170  -0.000080
     4  C   -0.000008   0.000006   0.000000   0.000001  -0.000001   0.000000
     5  C   -0.000562   0.003943   0.000005   0.000093  -0.000104  -0.000048
     6  C    0.012557  -0.000327  -0.000045   0.005412   0.002040  -0.000320
     7  N    0.000010   0.000012   0.000000   0.000000   0.000001   0.000000
     8  H   -0.000002  -0.000001   0.000000   0.000000   0.000000   0.000000
     9  H    0.000000   0.000000   0.000000   0.000000   0.000000   0.000000
    10  C    0.001464   0.009360   0.000008  -0.000555   0.000118  -0.000087
    11  C   -0.101406  -0.028699  -0.000598  -0.016493  -0.003663   0.001551
    12  H   -0.000055   0.000065   0.000013  -0.000129  -0.000048  -0.000002
    13  C   -0.000044   0.000045   0.000000  -0.000003  -0.000001   0.000001
    14  C   -0.001802   0.014795   0.000321   0.006314  -0.002334  -0.001430
    15  H   -0.000933  -0.001081  -0.000001  -0.000181  -0.000014   0.000053
    16  C   -0.165994  -0.014086   0.003251  -0.073719  -0.006879   0.001595
    17  H    0.000035   0.000012   0.000000   0.000005   0.000000  -0.000001
    18  H    0.000007   0.000039   0.000000   0.000001   0.000000  -0.000001
    19  H   -0.000002   0.000000   0.000000   0.000000   0.000000   0.000000
    20  H    0.009122   0.001123   0.000001   0.002431  -0.000010  -0.000598
    21  H    0.001288   0.001947  -0.000161   0.003321   0.000487  -0.000185
    22  C   -0.950813  -0.038705   0.005090  -0.172587   0.014807   0.004328
    23  C   -0.647119  -0.026152  -0.001238  -0.185347   0.054576   0.003324
    24  H   -0.126881  -0.040368   0.000075  -0.025087   0.001014   0.007026
    25  C   -2.713557  -0.075649  -0.104673  -0.046636  -0.175759   0.056022
    26  O   -0.029695  -0.001930   0.001120  -0.029672   0.082333   0.000414
    27  C   -0.361377   0.009230  -0.062932  -1.864730   0.056116   0.020842
    28  C    1.658369   0.474181   0.010530  -0.509741   0.005274   0.001177
    29  C   -1.603676  -0.006196   0.630729  -1.575556   0.057165   0.036398
    30  O   -0.004441  -0.002457  -0.039027   0.053839   0.246458   0.000550
    31  C   10.124213   0.014020  -0.006709   1.664460   0.012033   0.306076
    32  H    0.014020   0.587932   0.000962   0.002638   0.000230  -0.026785
    33  H   -0.006709   0.000962   0.494488  -0.109207   0.002440  -0.000030
    34  C    1.664460   0.002638  -0.109207   9.196901  -0.012036  -0.086792
    35  H    0.012033   0.000230   0.002440  -0.012036   0.311358   0.000417
    36  H    0.306076  -0.026785  -0.000030  -0.086792   0.000417   0.497423
    37  C   -0.506137   0.013857  -0.021833  -0.984515  -0.002245  -0.033199
    38  H   -0.016349   0.000467  -0.000182   0.061271   0.000010  -0.001498
    39  H    0.049141   0.000735   0.000669   0.026765  -0.000058  -0.003294
    40  H   -0.010970  -0.000414  -0.003065  -0.086105  -0.000050   0.002926
             37         38         39         40
     1  H    0.000000   0.000000   0.000000   0.000000
     2  H    0.000000   0.000000   0.000000   0.000000
     3  C    0.000020   0.000002   0.000001   0.000000
     4  C    0.000000   0.000000   0.000000   0.000000
     5  C    0.000008  -0.000001   0.000000   0.000001
     6  C    0.000165   0.000011   0.000004  -0.000003
     7  N    0.000000   0.000000   0.000000   0.000000
     8  H    0.000000   0.000000   0.000000   0.000000
     9  H    0.000000   0.000000   0.000000   0.000000
    10  C    0.000158  -0.000007  -0.000005   0.000004
    11  C   -0.002245  -0.000007   0.000004   0.000012
    12  H   -0.000005   0.000000   0.000000   0.000000
    13  C    0.000000   0.000000   0.000000   0.000000
    14  C    0.000782  -0.000010   0.000011   0.000015
    15  H   -0.000022   0.000000   0.000000   0.000000
    16  C   -0.003717  -0.000118   0.000046  -0.000237
    17  H    0.000000   0.000000   0.000000   0.000000
    18  H    0.000000   0.000000   0.000000   0.000000
    19  H    0.000000   0.000000   0.000000   0.000000
    20  H    0.000585   0.000014  -0.000016  -0.000001
    21  H    0.000255  -0.000001   0.000000   0.000016
    22  C   -0.058282   0.000065   0.001192  -0.000623
    23  C    0.047109   0.000620   0.000505  -0.003579
    24  H   -0.008152  -0.000096   0.000075  -0.000017
    25  C   -0.165411  -0.008267   0.010500   0.019961
    26  O   -0.001543  -0.000022  -0.000002   0.000009
    27  C    0.251997  -0.010374  -0.025597   0.019463
    28  C   -0.507279  -0.026103   0.033486  -0.006225
    29  C    0.296027  -0.030374  -0.069448   0.054939
    30  O    0.005386  -0.000122  -0.000040   0.001439
    31  C   -0.506137  -0.016349   0.049141  -0.010970
    32  H    0.013857   0.000467   0.000735  -0.000414
    33  H   -0.021833  -0.000182   0.000669  -0.003065
    34  C   -0.984515   0.061271   0.026765  -0.086105
    35  H   -0.002245   0.000010  -0.000058  -0.000050
    36  H   -0.033199  -0.001498  -0.003294   0.002926
    37  C    7.167151   0.391106   0.332179   0.357953
    38  H    0.391106   0.529127  -0.057330  -0.015493
    39  H    0.332179  -0.057330   0.548730  -0.020268
    40  H    0.357953  -0.015493  -0.020268   0.511571
 Mulliken atomic charges:
              1
     1  H    0.184604
     2  H    0.180002
     3  C   -0.247884
     4  C   -0.390378
     5  C   -0.397083
     6  C   -0.271635
     7  N    0.050582
     8  H    0.167756
     9  H    0.153690
    10  C   -0.417672
    11  C    0.834607
    12  H    0.211123
    13  C   -0.398514
    14  C   -0.500110
    15  H    0.217238
    16  C    0.147628
    17  H    0.165153
    18  H    0.180360
    19  H    0.153159
    20  H    0.158858
    21  H    0.229224
    22  C    0.084050
    23  C    0.056087
    24  H   -0.163761
    25  C    1.089202
    26  O   -0.319496
    27  C   -0.301230
    28  C   -0.760173
    29  C   -0.828382
    30  O   -0.279099
    31  C   -0.605856
    32  H    0.128389
    33  H    0.200019
    34  C    0.754569
    35  H    0.356488
    36  H    0.214225
    37  C   -0.570154
    38  H    0.183660
    39  H    0.172016
    40  H    0.178741
 Sum of Mulliken atomic charges =   0.00000
 Mulliken charges with hydrogens summed into heavy atoms:
              1
     3  C   -0.063281
     4  C    0.111070
     5  C   -0.397083
     6  C   -0.060512
     7  N    0.050582
    10  C   -0.200435
    11  C    0.834607
    13  C    0.100158
    14  C   -0.341252
    16  C    0.376852
    22  C   -0.079711
    23  C    0.056087
    25  C    1.089202
    26  O   -0.319496
    27  C   -0.301230
    28  C   -0.631784
    29  C   -0.628363
    30  O    0.077389
    31  C   -0.391631
    34  C    0.754569
    37  C   -0.035738
 Sum of Mulliken charges with hydrogens summed into heavy atoms =   0.00000
 Electronic spatial extent (au):  <R**2>=          12006.4486
 Charge=              0.0000 electrons
 Dipole moment (field-independent basis, Debye):
    X=              5.9688    Y=              4.2455    Z=              0.2557  Tot=              7.3291
 Quadrupole moment (field-independent basis, Debye-Ang):
   XX=            -85.8011   YY=           -120.6326   ZZ=           -131.4582
   XY=             -9.9232   XZ=              0.3122   YZ=             -0.7990
 Traceless Quadrupole moment (field-independent basis, Debye-Ang):
   XX=             26.8295   YY=             -8.0020   ZZ=            -18.8275
   XY=             -9.9232   XZ=              0.3122   YZ=             -0.7990
 Octapole moment (field-independent basis, Debye-Ang**2):
  XXX=            226.0610  YYY=             15.6357  ZZZ=             -0.3672  XYY=             38.6855
  XXY=             86.8835  XXZ=              6.6055  XZZ=             -2.8157  YZZ=             -4.6150
  YYZ=              1.0732  XYZ=             -3.5401
 Hexadecapole moment (field-independent basis, Debye-Ang**3):
 XXXX=         -12004.2642 YYYY=          -1524.0260 ZZZZ=           -174.2415 XXXY=            -90.5176
 XXXZ=             26.9939 YYYX=            -22.8089 YYYZ=             -4.6911 ZZZX=              2.6097
 ZZZY=              1.2827 XXYY=          -2576.7837 XXZZ=          -2596.2570 YYZZ=           -296.7049
 XXYZ=            -10.9194 YYXZ=             -9.2075 ZZXY=             24.6104
 N-N= 1.473787090260D+03 E-N=-5.048190970194D+03  KE= 8.987811019348D+02
 1\1\GINC-SM3\FOpt\RwB97XD\6-311++G(d,p)\C18H19N1O2\BTX008\29-Oct-2015\
 0\\#wb97xd 6-311++g** opt scf(maxcycle=999,xqc)\\title\\0,1\H,-0.84785
 19648,15.4634450305,5.2074724887\H,-2.1377105045,15.1698218833,7.17689
 79478\C,-1.284407852,16.3069838011,4.6907398233\C,-1.6298488775,16.090
 8232856,7.4920220524\C,-1.976514332,17.3056242562,5.4039558014\C,-1.14
 9046783,16.3860702764,3.3173062962\N,-2.10675062,17.2513990541,6.76993
 57535\H,-0.5521966103,15.9534182396,7.3551814585\H,-1.8110420479,16.23
 16120311,8.556377733\C,-2.5300506324,18.369341397,4.6568094406\C,-1.68
 84144192,17.4416043212,2.5746316741\H,-0.6086739339,15.5991493142,2.80
 02762226\C,-2.9277672649,18.2262995146,7.45671972\C,-2.3832468126,18.4
 281381447,3.2867887785\H,-3.0783389796,19.158948967,5.1523119054\C,-1.
 5067958339,17.4623690363,1.1315159814\H,-2.5531337455,19.2430289603,7.
 2991327151\H,-3.9753103172,18.1895529054,7.1300203351\H,-2.8990856885,
 18.0285602854,8.5270969297\H,-2.8247965992,19.2672413167,2.7604919802\
 H,-0.9334706298,16.6387004184,0.7108101022\C,-1.9617718678,18.37563789
 2,0.2581826704\C,-1.6632897223,18.2391190947,-1.1764063891\H,-2.538165
 8758,19.2260952822,0.5954168854\C,-2.2336128763,19.1952354066,-2.14675
 22412\O,-0.9231275072,17.3288765686,-1.5710063534\C,-1.844068961,19.12
 08061416,-3.5048367747\C,-3.1594122031,20.1919034693,-1.7901868935\C,-
 2.3579551819,20.0351154246,-4.4327917671\O,-0.9886414385,18.2049898982
 ,-3.9583302158\C,-3.6676664621,21.077224129,-2.713108101\H,-3.49778683
 74,20.2668457144,-0.7648022552\H,-2.0247479279,19.948338314,-5.4609374
 698\C,-3.2623570741,21.0094576705,-4.0561969044\H,-0.7526164792,17.635
 0905621,-3.1902743352\H,-4.3842834105,21.8303527086,-2.4036948362\C,-3
 .8217156458,21.9795539204,-5.0608228645\H,-4.898653296,21.829373765,-5
 .181034001\H,-3.6697249449,23.0106253006,-4.7305096227\H,-3.3513978394
 ,21.8603362988,-6.0380936705\\Version=EM64L-G09RevC.01\State=1-A\HF=-9
 02.4872162\RMSD=6.561e-09\RMSF=4.478e-06\Dipole=-0.9390512,0.5171474,2
 .6768065\Quadrupole=-11.0431194,-2.6860983,13.7292177,-5.6636486,4.666
 6663,-12.5204892\PG=C01 [X(C18H19N1O2)]\\@


 LOGIC IS A SYSTEMATIC METHOD OF COMING TO THE
 WRONG CONCLUSION WITH CONFIDENCE.
 Job cpu time:  8 days 16 hours 35 minutes 45.4 seconds.
 File lengths (MBytes):  RWF=    225 Int=      0 D2E=      0 Chk=     24 Scr=      1
 Normal termination of Gaussian 09 at Thu Oct 29 03:19:37 2015.
