 Entering Gaussian System, Link 0=g09
 Input=methylketone_optS1.com
 Output=methylketone_optS1.out
 Initial command:
 /share/apps/gaussian/g09/l1.exe /tmp/3525712.1.chemistry.q/Gau-28759.inp -scrdir=/tmp/3525712.1.chemistry.q/
 Entering Link 1 = /share/apps/gaussian/g09/l1.exe PID=     28760.
  
 Copyright (c) 1988,1990,1992,1993,1995,1998,2003,2009,2011,
            Gaussian, Inc.  All Rights Reserved.
  
 This is part of the Gaussian(R) 09 program.  It is based on
 the Gaussian(R) 03 system (copyright 2003, Gaussian, Inc.),
 the Gaussian(R) 98 system (copyright 1998, Gaussian, Inc.),
 the Gaussian(R) 94 system (copyright 1995, Gaussian, Inc.),
 the Gaussian 92(TM) system (copyright 1992, Gaussian, Inc.),
 the Gaussian 90(TM) system (copyright 1990, Gaussian, Inc.),
 the Gaussian 88(TM) system (copyright 1988, Gaussian, Inc.),
 the Gaussian 86(TM) system (copyright 1986, Carnegie Mellon
 University), and the Gaussian 82(TM) system (copyright 1983,
 Carnegie Mellon University). Gaussian is a federally registered
 trademark of Gaussian, Inc.
  
 This software contains proprietary and confidential information,
 including trade secrets, belonging to Gaussian, Inc.
  
 This software is provided under written license and may be
 used, copied, transmitted, or stored only in accord with that
 written license.
  
 The following legend is applicable only to US Government
 contracts under FAR:
  
                    RESTRICTED RIGHTS LEGEND
  
 Use, reproduction and disclosure by the US Government is
 subject to restrictions as set forth in subparagraphs (a)
 and (c) of the Commercial Computer Software - Restricted
 Rights clause in FAR 52.227-19.
  
 Gaussian, Inc.
 340 Quinnipiac St., Bldg. 40, Wallingford CT 06492
  
  
 ---------------------------------------------------------------
 Warning -- This program may not be used in any manner that
 competes with the business of Gaussian, Inc. or will provide
 assistance to any competitor of Gaussian, Inc.  The licensee
 of this program is prohibited from giving any competitor of
 Gaussian, Inc. access to this program.  By using this program,
 the user acknowledges that Gaussian, Inc. is engaged in the
 business of creating and licensing software in the field of
 computational chemistry and represents and warrants to the
 licensee that it is not a competitor of Gaussian, Inc. and that
 it will not use this program in any manner prohibited above.
 ---------------------------------------------------------------
  

 Cite this work as:
 Gaussian 09, Revision C.01,
 M. J. Frisch, G. W. Trucks, H. B. Schlegel, G. E. Scuseria, 
 M. A. Robb, J. R. Cheeseman, G. Scalmani, V. Barone, B. Mennucci, 
 G. A. Petersson, H. Nakatsuji, M. Caricato, X. Li, H. P. Hratchian, 
 A. F. Izmaylov, J. Bloino, G. Zheng, J. L. Sonnenberg, M. Hada, 
 M. Ehara, K. Toyota, R. Fukuda, J. Hasegawa, M. Ishida, T. Nakajima, 
 Y. Honda, O. Kitao, H. Nakai, T. Vreven, J. A. Montgomery, Jr., 
 J. E. Peralta, F. Ogliaro, M. Bearpark, J. J. Heyd, E. Brothers, 
 K. N. Kudin, V. N. Staroverov, T. Keith, R. Kobayashi, J. Normand, 
 K. Raghavachari, A. Rendell, J. C. Burant, S. S. Iyengar, J. Tomasi, 
 M. Cossi, N. Rega, J. M. Millam, M. Klene, J. E. Knox, J. B. Cross, 
 V. Bakken, C. Adamo, J. Jaramillo, R. Gomperts, R. E. Stratmann, 
 O. Yazyev, A. J. Austin, R. Cammi, C. Pomelli, J. W. Ochterski, 
 R. L. Martin, K. Morokuma, V. G. Zakrzewski, G. A. Voth, 
 P. Salvador, J. J. Dannenberg, S. Dapprich, A. D. Daniels, 
 O. Farkas, J. B. Foresman, J. V. Ortiz, J. Cioslowski, 
 and D. J. Fox, Gaussian, Inc., Wallingford CT, 2010.
 
 ******************************************
 Gaussian 09:  EM64L-G09RevC.01 23-Sep-2011
                 3-Nov-2015 
 ******************************************
 %chk=methylketone_optS1
 %mem=6gb
 %nproc=6
 Will use up to    6 processors via shared memory.
 -----------------------------------------------------------------
 #wb97xd opt 6-311++g** td(nstates=1,root=1) scf(maxcycle=500,xqc)
 -----------------------------------------------------------------
 1/14=-1,18=20,19=15,26=3,38=1/1,3;
 2/9=110,12=2,17=6,18=5,40=1/2;
 3/5=4,6=6,7=1111,11=2,16=1,25=1,30=1,71=1,74=-58/1,2,8,3;
 4//1;
 5/5=2,7=500,8=3,13=1,38=5/2,8;
 8/6=1,10=2,107=1,108=1/1;
 9/8=1,15=2,41=1,42=1/14;
 10/5=4/2;
 6/7=2,8=2,9=2,10=2/1;
 7/12=6,13=5,14=1/1,2,3,16;
 1/14=-1,18=20,19=15/3(2);
 2/9=110/2;
 99//99;
 2/9=110/2;
 3/5=4,6=6,7=1111,11=2,16=1,25=1,30=1,71=1,74=-58/1,2,8,3;
 4/5=5,16=3/1;
 5/5=2,7=500,8=3,13=1,38=5/2,8;
 8/6=1,10=2,107=1,108=1/1;
 9/8=1,15=2,41=1,42=1,49=4/14;
 10/5=4/2;
 7/12=6,13=5,14=1/1,2,3,16;
 1/14=-1,18=20,19=15/3(-8);
 2/9=110/2;
 6/7=2,8=2,9=2,10=2/1;
 99//99;
 -----------------------------------------------
 Methyl ketone substituent geometry optimization
 -----------------------------------------------
 Charge =  0 Multiplicity = 1
 Symbolic Z-Matrix:
 H                    -0.84263   15.64255   5.1619 
 H                    -2.00924   15.34391   7.25345 
 C                    -1.23006   16.34483   4.69216 
 C                    -1.61308   16.17524   7.52246 
 C                    -1.97112   17.31008   5.38315 
 C                    -1.06688   16.41887   3.33471 
 N                    -2.1674    17.2494   6.73305 
 H                    -0.66357   16.1361   7.38633 
 H                    -1.79641   16.33257   8.45048 
 C                    -2.50034   18.36303   4.62118 
 C                    -1.6178    17.44588   2.56604 
 H                    -0.56973   15.75887   2.90829 
 C                    -3.03918   18.18352   7.4034 
 C                    -2.32348   18.41961   3.26384 
 H                    -2.98025   19.03607   5.0463 
 C                    -1.46252   17.44918   1.1268 
 H                    -2.71599   19.07694   7.2675 
 H                    -3.92642   18.10556   7.04602 
 H                    -3.05475   17.98925   8.34352 
 H                    -2.68813   19.13352   2.7927 
 H                    -0.93775   16.76796   0.77353 
 C                    -1.97772   18.30754   0.24254 
 C                    -1.71863   18.19704  -1.18482 
 H                    -2.51888   18.99835   0.54882 
 C                    -2.28009   19.15568  -2.13228 
 O                    -0.97938   17.27785  -1.61037 
 C                    -2.01074   19.03906  -3.50843 
 C                    -3.06664   20.25312  -1.73849 
 C                    -2.51327   19.95589  -4.4143 
 O                    -1.2389    18.04049  -3.99426 
 C                    -3.55463   21.16099  -2.65042 
 H                    -3.26236   20.36896  -0.83619 
 H                    -2.3362    19.84398  -5.32071 
 C                    -3.26897   21.03021  -4.00441 
 H                    -4.08075   21.87003  -2.35732 
 C                    -3.77435   22.04748  -4.99444 
 H                    -4.37552   21.62325  -5.61024 
 H                    -4.23808   22.74709  -4.52665 
 H                    -3.03323   22.42173  -5.47628 
 H                    -0.77625   17.23046  -2.53989 
 

 GradGradGradGradGradGradGradGradGradGradGradGradGradGradGradGradGradGrad
 Berny optimization.
 Initialization pass.
                           ----------------------------
                           !    Initial Parameters    !
                           ! (Angstroms and Degrees)  !
 --------------------------                            --------------------------
 ! Name  Definition              Value          Derivative Info.                !
 --------------------------------------------------------------------------------
 ! R1    R(1,3)                  0.9295         estimate D2E/DX2                !
 ! R2    R(2,4)                  0.9594         estimate D2E/DX2                !
 ! R3    R(3,5)                  1.3994         estimate D2E/DX2                !
 ! R4    R(3,6)                  1.3692         estimate D2E/DX2                !
 ! R5    R(4,7)                  1.4437         estimate D2E/DX2                !
 ! R6    R(4,8)                  0.96           estimate D2E/DX2                !
 ! R7    R(4,9)                  0.9589         estimate D2E/DX2                !
 ! R8    R(5,7)                  1.3654         estimate D2E/DX2                !
 ! R9    R(5,10)                 1.4033         estimate D2E/DX2                !
 ! R10   R(6,11)                 1.3961         estimate D2E/DX2                !
 ! R11   R(6,12)                 0.9298         estimate D2E/DX2                !
 ! R12   R(7,13)                 1.4429         estimate D2E/DX2                !
 ! R13   R(10,14)                1.37           estimate D2E/DX2                !
 ! R14   R(10,15)                0.9295         estimate D2E/DX2                !
 ! R15   R(11,14)                1.3903         estimate D2E/DX2                !
 ! R16   R(11,16)                1.4476         estimate D2E/DX2                !
 ! R17   R(13,17)                0.9597         estimate D2E/DX2                !
 ! R18   R(13,18)                0.9597         estimate D2E/DX2                !
 ! R19   R(13,19)                0.9601         estimate D2E/DX2                !
 ! R20   R(14,20)                0.9298         estimate D2E/DX2                !
 ! R21   R(16,21)                0.9296         estimate D2E/DX2                !
 ! R22   R(16,22)                1.3357         estimate D2E/DX2                !
 ! R23   R(22,23)                1.4549         estimate D2E/DX2                !
 ! R24   R(22,24)                0.9295         estimate D2E/DX2                !
 ! R25   R(23,25)                1.4601         estimate D2E/DX2                !
 ! R26   R(23,26)                1.254          estimate D2E/DX2                !
 ! R27   R(25,27)                1.4071         estimate D2E/DX2                !
 ! R28   R(25,28)                1.4065         estimate D2E/DX2                !
 ! R29   R(26,40)                0.9526         estimate D2E/DX2                !
 ! R30   R(27,29)                1.3834         estimate D2E/DX2                !
 ! R31   R(27,30)                1.3524         estimate D2E/DX2                !
 ! R32   R(28,31)                1.3762         estimate D2E/DX2                !
 ! R33   R(28,32)                0.9305         estimate D2E/DX2                !
 ! R34   R(29,33)                0.9303         estimate D2E/DX2                !
 ! R35   R(29,34)                1.376          estimate D2E/DX2                !
 ! R36   R(31,34)                1.39           estimate D2E/DX2                !
 ! R37   R(31,35)                0.9303         estimate D2E/DX2                !
 ! R38   R(34,36)                1.5068         estimate D2E/DX2                !
 ! R39   R(36,37)                0.9595         estimate D2E/DX2                !
 ! R40   R(36,38)                0.9609         estimate D2E/DX2                !
 ! R41   R(36,39)                0.9599         estimate D2E/DX2                !
 ! A1    A(1,3,5)              119.4942         estimate D2E/DX2                !
 ! A2    A(1,3,6)              119.4858         estimate D2E/DX2                !
 ! A3    A(5,3,6)              121.0201         estimate D2E/DX2                !
 ! A4    A(2,4,7)              109.4421         estimate D2E/DX2                !
 ! A5    A(2,4,8)              109.4706         estimate D2E/DX2                !
 ! A6    A(2,4,9)              109.5469         estimate D2E/DX2                !
 ! A7    A(7,4,8)              109.4239         estimate D2E/DX2                !
 ! A8    A(7,4,9)              109.4927         estimate D2E/DX2                !
 ! A9    A(8,4,9)              109.451          estimate D2E/DX2                !
 ! A10   A(3,5,7)              122.2505         estimate D2E/DX2                !
 ! A11   A(3,5,10)             116.688          estimate D2E/DX2                !
 ! A12   A(7,5,10)             121.059          estimate D2E/DX2                !
 ! A13   A(3,6,11)             122.5881         estimate D2E/DX2                !
 ! A14   A(3,6,12)             118.6848         estimate D2E/DX2                !
 ! A15   A(11,6,12)            118.7271         estimate D2E/DX2                !
 ! A16   A(4,7,5)              121.228          estimate D2E/DX2                !
 ! A17   A(4,7,13)             117.3633         estimate D2E/DX2                !
 ! A18   A(5,7,13)             121.1566         estimate D2E/DX2                !
 ! A19   A(5,10,14)            121.3497         estimate D2E/DX2                !
 ! A20   A(5,10,15)            119.3177         estimate D2E/DX2                !
 ! A21   A(14,10,15)           119.3325         estimate D2E/DX2                !
 ! A22   A(6,11,14)            116.0498         estimate D2E/DX2                !
 ! A23   A(6,11,16)            120.4476         estimate D2E/DX2                !
 ! A24   A(14,11,16)           123.4934         estimate D2E/DX2                !
 ! A25   A(7,13,17)            109.4758         estimate D2E/DX2                !
 ! A26   A(7,13,18)            109.4497         estimate D2E/DX2                !
 ! A27   A(7,13,19)            109.4946         estimate D2E/DX2                !
 ! A28   A(17,13,18)           109.5248         estimate D2E/DX2                !
 ! A29   A(17,13,19)           109.4188         estimate D2E/DX2                !
 ! A30   A(18,13,19)           109.4638         estimate D2E/DX2                !
 ! A31   A(10,14,11)           122.2665         estimate D2E/DX2                !
 ! A32   A(10,14,20)           118.8876         estimate D2E/DX2                !
 ! A33   A(11,14,20)           118.8459         estimate D2E/DX2                !
 ! A34   A(11,16,21)           115.8929         estimate D2E/DX2                !
 ! A35   A(11,16,22)           128.1908         estimate D2E/DX2                !
 ! A36   A(21,16,22)           115.9162         estimate D2E/DX2                !
 ! A37   A(16,22,23)           122.1401         estimate D2E/DX2                !
 ! A38   A(16,22,24)           118.9502         estimate D2E/DX2                !
 ! A39   A(23,22,24)           118.9096         estimate D2E/DX2                !
 ! A40   A(22,23,25)           121.2167         estimate D2E/DX2                !
 ! A41   A(22,23,26)           119.5769         estimate D2E/DX2                !
 ! A42   A(25,23,26)           119.1924         estimate D2E/DX2                !
 ! A43   A(23,25,27)           120.4377         estimate D2E/DX2                !
 ! A44   A(23,25,28)           123.0703         estimate D2E/DX2                !
 ! A45   A(27,25,28)           116.4586         estimate D2E/DX2                !
 ! A46   A(23,26,40)           119.557          estimate D2E/DX2                !
 ! A47   A(25,27,29)           121.0615         estimate D2E/DX2                !
 ! A48   A(25,27,30)           121.4522         estimate D2E/DX2                !
 ! A49   A(29,27,30)           117.4806         estimate D2E/DX2                !
 ! A50   A(25,28,31)           121.8378         estimate D2E/DX2                !
 ! A51   A(25,28,32)           119.0952         estimate D2E/DX2                !
 ! A52   A(31,28,32)           119.067          estimate D2E/DX2                !
 ! A53   A(27,29,33)           119.2844         estimate D2E/DX2                !
 ! A54   A(27,29,34)           121.4601         estimate D2E/DX2                !
 ! A55   A(33,29,34)           119.2555         estimate D2E/DX2                !
 ! A56   A(28,31,34)           120.7            estimate D2E/DX2                !
 ! A57   A(28,31,35)           119.6403         estimate D2E/DX2                !
 ! A58   A(34,31,35)           119.6597         estimate D2E/DX2                !
 ! A59   A(29,34,31)           118.4584         estimate D2E/DX2                !
 ! A60   A(29,34,36)           121.0378         estimate D2E/DX2                !
 ! A61   A(31,34,36)           120.5035         estimate D2E/DX2                !
 ! A62   A(34,36,37)           109.4719         estimate D2E/DX2                !
 ! A63   A(34,36,38)           109.4839         estimate D2E/DX2                !
 ! A64   A(34,36,39)           109.5157         estimate D2E/DX2                !
 ! A65   A(37,36,38)           109.3896         estimate D2E/DX2                !
 ! A66   A(37,36,39)           109.5093         estimate D2E/DX2                !
 ! A67   A(38,36,39)           109.4568         estimate D2E/DX2                !
 ! D1    D(1,3,5,7)             -1.0474         estimate D2E/DX2                !
 ! D2    D(1,3,5,10)           178.3833         estimate D2E/DX2                !
 ! D3    D(6,3,5,7)            178.9504         estimate D2E/DX2                !
 ! D4    D(6,3,5,10)            -1.6188         estimate D2E/DX2                !
 ! D5    D(1,3,6,11)          -179.8826         estimate D2E/DX2                !
 ! D6    D(1,3,6,12)             0.1361         estimate D2E/DX2                !
 ! D7    D(5,3,6,11)             0.1195         estimate D2E/DX2                !
 ! D8    D(5,3,6,12)          -179.8618         estimate D2E/DX2                !
 ! D9    D(2,4,7,5)            -64.1244         estimate D2E/DX2                !
 ! D10   D(2,4,7,13)           110.1706         estimate D2E/DX2                !
 ! D11   D(8,4,7,5)             55.8281         estimate D2E/DX2                !
 ! D12   D(8,4,7,13)          -129.8769         estimate D2E/DX2                !
 ! D13   D(9,4,7,5)            175.7876         estimate D2E/DX2                !
 ! D14   D(9,4,7,13)            -9.9174         estimate D2E/DX2                !
 ! D15   D(3,5,7,4)              0.0493         estimate D2E/DX2                !
 ! D16   D(3,5,7,13)          -174.0292         estimate D2E/DX2                !
 ! D17   D(10,5,7,4)          -179.3569         estimate D2E/DX2                !
 ! D18   D(10,5,7,13)            6.5645         estimate D2E/DX2                !
 ! D19   D(3,5,10,14)            1.5175         estimate D2E/DX2                !
 ! D20   D(3,5,10,15)         -178.4455         estimate D2E/DX2                !
 ! D21   D(7,5,10,14)         -179.0446         estimate D2E/DX2                !
 ! D22   D(7,5,10,15)            0.9925         estimate D2E/DX2                !
 ! D23   D(3,6,11,14)            1.4841         estimate D2E/DX2                !
 ! D24   D(3,6,11,16)         -177.4513         estimate D2E/DX2                !
 ! D25   D(12,6,11,14)        -178.5346         estimate D2E/DX2                !
 ! D26   D(12,6,11,16)           2.53           estimate D2E/DX2                !
 ! D27   D(4,7,13,17)          125.6076         estimate D2E/DX2                !
 ! D28   D(4,7,13,18)         -114.3372         estimate D2E/DX2                !
 ! D29   D(4,7,13,19)            5.6548         estimate D2E/DX2                !
 ! D30   D(5,7,13,17)          -60.0931         estimate D2E/DX2                !
 ! D31   D(5,7,13,18)           59.9621         estimate D2E/DX2                !
 ! D32   D(5,7,13,19)          179.9541         estimate D2E/DX2                !
 ! D33   D(5,10,14,11)           0.1004         estimate D2E/DX2                !
 ! D34   D(5,10,14,20)        -179.9252         estimate D2E/DX2                !
 ! D35   D(15,10,14,11)       -179.9367         estimate D2E/DX2                !
 ! D36   D(15,10,14,20)          0.0378         estimate D2E/DX2                !
 ! D37   D(6,11,14,10)          -1.5881         estimate D2E/DX2                !
 ! D38   D(6,11,14,20)         178.4375         estimate D2E/DX2                !
 ! D39   D(16,11,14,10)        177.3114         estimate D2E/DX2                !
 ! D40   D(16,11,14,20)         -2.6631         estimate D2E/DX2                !
 ! D41   D(6,11,16,21)          -3.7739         estimate D2E/DX2                !
 ! D42   D(6,11,16,22)         176.2449         estimate D2E/DX2                !
 ! D43   D(14,11,16,21)        177.373          estimate D2E/DX2                !
 ! D44   D(14,11,16,22)         -2.6082         estimate D2E/DX2                !
 ! D45   D(11,16,22,23)        179.096          estimate D2E/DX2                !
 ! D46   D(11,16,22,24)         -0.8591         estimate D2E/DX2                !
 ! D47   D(21,16,22,23)         -0.8852         estimate D2E/DX2                !
 ! D48   D(21,16,22,24)        179.1597         estimate D2E/DX2                !
 ! D49   D(16,22,23,25)       -179.3011         estimate D2E/DX2                !
 ! D50   D(16,22,23,26)         -0.6705         estimate D2E/DX2                !
 ! D51   D(24,22,23,25)          0.654          estimate D2E/DX2                !
 ! D52   D(24,22,23,26)        179.2846         estimate D2E/DX2                !
 ! D53   D(22,23,25,27)        179.5256         estimate D2E/DX2                !
 ! D54   D(22,23,25,28)          1.7038         estimate D2E/DX2                !
 ! D55   D(26,23,25,27)          0.8899         estimate D2E/DX2                !
 ! D56   D(26,23,25,28)       -176.9319         estimate D2E/DX2                !
 ! D57   D(22,23,26,40)       -177.0904         estimate D2E/DX2                !
 ! D58   D(25,23,26,40)          1.568          estimate D2E/DX2                !
 ! D59   D(23,25,27,29)       -178.6543         estimate D2E/DX2                !
 ! D60   D(23,25,27,30)          0.4625         estimate D2E/DX2                !
 ! D61   D(28,25,27,29)         -0.6932         estimate D2E/DX2                !
 ! D62   D(28,25,27,30)        178.4237         estimate D2E/DX2                !
 ! D63   D(23,25,28,31)        178.2921         estimate D2E/DX2                !
 ! D64   D(23,25,28,32)         -1.682          estimate D2E/DX2                !
 ! D65   D(27,25,28,31)          0.3898         estimate D2E/DX2                !
 ! D66   D(27,25,28,32)       -179.5842         estimate D2E/DX2                !
 ! D67   D(25,27,29,33)       -178.5897         estimate D2E/DX2                !
 ! D68   D(25,27,29,34)          1.4343         estimate D2E/DX2                !
 ! D69   D(30,27,29,33)          2.2595         estimate D2E/DX2                !
 ! D70   D(30,27,29,34)       -177.7166         estimate D2E/DX2                !
 ! D71   D(25,28,31,34)         -0.7967         estimate D2E/DX2                !
 ! D72   D(25,28,31,35)        179.2474         estimate D2E/DX2                !
 ! D73   D(32,28,31,34)        179.1774         estimate D2E/DX2                !
 ! D74   D(32,28,31,35)         -0.7785         estimate D2E/DX2                !
 ! D75   D(27,29,34,31)         -1.784          estimate D2E/DX2                !
 ! D76   D(27,29,34,36)        178.0117         estimate D2E/DX2                !
 ! D77   D(33,29,34,31)        178.24           estimate D2E/DX2                !
 ! D78   D(33,29,34,36)         -1.9643         estimate D2E/DX2                !
 ! D79   D(28,31,34,29)          1.4623         estimate D2E/DX2                !
 ! D80   D(28,31,34,36)       -178.3345         estimate D2E/DX2                !
 ! D81   D(35,31,34,29)       -178.5818         estimate D2E/DX2                !
 ! D82   D(35,31,34,36)          1.6214         estimate D2E/DX2                !
 ! D83   D(29,34,36,37)         63.2048         estimate D2E/DX2                !
 ! D84   D(29,34,36,38)       -176.8869         estimate D2E/DX2                !
 ! D85   D(29,34,36,39)        -56.8695         estimate D2E/DX2                !
 ! D86   D(31,34,36,37)       -117.0036         estimate D2E/DX2                !
 ! D87   D(31,34,36,38)          2.9046         estimate D2E/DX2                !
 ! D88   D(31,34,36,39)        122.922          estimate D2E/DX2                !
 --------------------------------------------------------------------------------
 Trust Radius=3.00D-01 FncErr=1.00D-07 GrdErr=1.00D-06
 Number of steps in this run=    206 maximum allowed number of steps=    240.
 GradGradGradGradGradGradGradGradGradGradGradGradGradGradGradGradGradGrad

                          Input orientation:                          
 ---------------------------------------------------------------------
 Center     Atomic      Atomic             Coordinates (Angstroms)
 Number     Number       Type             X           Y           Z
 ---------------------------------------------------------------------
      1          1           0       -0.842630   15.642550    5.161900
      2          1           0       -2.009240   15.343910    7.253450
      3          6           0       -1.230060   16.344830    4.692160
      4          6           0       -1.613080   16.175240    7.522460
      5          6           0       -1.971120   17.310080    5.383150
      6          6           0       -1.066880   16.418870    3.334710
      7          7           0       -2.167400   17.249400    6.733050
      8          1           0       -0.663570   16.136100    7.386330
      9          1           0       -1.796410   16.332570    8.450480
     10          6           0       -2.500340   18.363030    4.621180
     11          6           0       -1.617800   17.445880    2.566040
     12          1           0       -0.569730   15.758870    2.908290
     13          6           0       -3.039180   18.183520    7.403400
     14          6           0       -2.323480   18.419610    3.263840
     15          1           0       -2.980250   19.036070    5.046300
     16          6           0       -1.462520   17.449180    1.126800
     17          1           0       -2.715990   19.076940    7.267500
     18          1           0       -3.926420   18.105560    7.046020
     19          1           0       -3.054750   17.989250    8.343520
     20          1           0       -2.688130   19.133520    2.792700
     21          1           0       -0.937750   16.767960    0.773530
     22          6           0       -1.977720   18.307540    0.242540
     23          6           0       -1.718630   18.197040   -1.184820
     24          1           0       -2.518880   18.998350    0.548820
     25          6           0       -2.280090   19.155680   -2.132280
     26          8           0       -0.979380   17.277850   -1.610370
     27          6           0       -2.010740   19.039060   -3.508430
     28          6           0       -3.066640   20.253120   -1.738490
     29          6           0       -2.513270   19.955890   -4.414300
     30          8           0       -1.238900   18.040490   -3.994260
     31          6           0       -3.554630   21.160990   -2.650420
     32          1           0       -3.262360   20.368960   -0.836190
     33          1           0       -2.336200   19.843980   -5.320710
     34          6           0       -3.268970   21.030210   -4.004410
     35          1           0       -4.080750   21.870030   -2.357320
     36          6           0       -3.774350   22.047480   -4.994440
     37          1           0       -4.375520   21.623250   -5.610240
     38          1           0       -4.238080   22.747090   -4.526650
     39          1           0       -3.033230   22.421730   -5.476280
     40          1           0       -0.776250   17.230460   -2.539890
 ---------------------------------------------------------------------
                    Distance matrix (angstroms):
                    1          2          3          4          5
     1  H    0.000000
     2  H    2.413451   0.000000
     3  C    0.929492   2.858176   0.000000
     4  C    2.539605   0.959385   2.861130   0.000000
     5  C    2.025610   2.713909   1.399409   2.448000   0.000000
     6  C    1.997895   4.171343   1.369226   4.230241   2.409982
     7  N    2.608734   1.981596   2.421174   1.443696   1.365444
     8  H    2.285551   1.567179   2.760984   0.960017   2.664704
     9  H    3.492933   1.567044   3.800773   0.958949   3.224060
    10  C    3.231314   4.035481   2.385745   3.740465   1.403345
    11  C    3.254440   5.152021   2.425498   5.116703   2.842426
    12  H    2.273051   4.596172   1.990371   4.748948   3.239611
    13  C    4.038030   3.024342   3.742261   2.465994   2.446438
    14  C    3.675270   5.047342   2.745975   4.865975   2.417993
    15  H    4.012326   4.409809   3.229761   4.023042   2.027524
    16  C    4.464326   6.501300   3.739708   6.523041   4.288885
    17  H    4.442754   3.799369   4.037919   3.114687   2.688383
    18  H    4.373338   3.368281   3.988883   3.050356   2.687215
    19  H    4.530252   3.046173   4.400686   2.458289   3.224797
    20  H    4.604981   5.892396   3.675692   5.681354   3.247994
    21  H    4.531378   6.720519   3.952233   6.808483   4.755034
    22  C    5.708827   7.611633   4.920401   7.594531   5.236491
    23  C    6.897365   8.912306   6.181284   8.939549   6.632396
    24  H    5.945731   7.652890   5.086206   7.577736   5.149859
    25  C    8.222739  10.133848   7.454960  10.126299   7.744894
    26  O    6.968253   9.130610   6.376147   9.220949   7.063562
    27  C    9.384849  11.378585   8.667065  11.403514   9.058208
    28  C    8.591796  10.299195   7.746032  10.222873   7.783277
    29  C   10.634827  12.556305   9.879980  12.553481  10.162887
    30  O    9.473247  11.592064   8.850380  11.672789   9.434271
    31  C    9.941854  11.589361   9.083639  11.494121   9.048495
    32  H    8.010688   9.605400   7.133479   9.496022   7.050123
    33  H   11.391570  13.359155  10.664200  13.376456  11.005751
    34  C   10.905744  12.675186  10.086638  12.616713  10.180868
    35  H   10.286185  11.800352   9.399438  11.667480   9.228139
    36  C   12.359990  14.073531  11.524923  13.993823  11.549414
    37  H   12.817530  14.508753  11.995628  14.483774  12.051523
    38  H   12.484854  14.090619  11.619965  13.973578  11.528414
    39  H   12.803393  14.601031  11.982375  14.491470  12.049243
    40  H    7.864060  10.049321   7.300194  10.152077   8.013028
                    6          7          8          9         10
     6  C    0.000000
     7  N    3.667375   0.000000
     8  H    4.081451   1.981847   0.000000
     9  H    5.168246   1.981862   1.566634   0.000000
    10  C    2.736708   2.410605   3.997374   4.391107   0.000000
    11  C    1.396107   4.207688   5.085398   5.991494   2.417362
    12  H    0.929834   4.404886   4.494880   5.705238   3.666456
    13  C    4.853679   1.442896   3.136199   2.463102   2.839599
    14  C    2.363689   3.664583   4.996463   5.615583   1.369983
    15  H    3.666096   2.588057   4.387775   4.505422   0.929529
    16  C    2.468387   5.653920   6.445480   7.415834   3.758043
    17  H    5.025111   1.981537   3.588187   3.126761   2.749397
    18  H    4.979530   1.981189   3.826326   3.106919   2.824862
    19  H    5.613011   1.982015   3.173030   2.083134   3.781917
    20  H    3.208045   4.398571   5.846777   6.375811   1.993053
    21  H    2.588084   6.104073   6.648575   7.737081   4.448634
    22  C    3.736070   6.578933   7.581285   8.444149   4.410068
    23  C    4.900288   7.986995   8.878358   9.814342   5.860739
    24  H    4.064874   6.436386   7.641086   8.370459   4.121661
    25  C    6.232976   9.068665  10.116073  10.963517   6.803383
    26  O    5.019892   8.427625   9.074356  10.138136   6.505625
    27  C    7.388155  10.397853  11.355080  12.263220   8.172349
    28  C    6.666174   9.033159  10.294996  10.990874   6.658719
    29  C    8.640006  11.476416  12.540616  13.384502   9.174817
    30  O    7.508198  10.796440  11.553161  12.573757   8.713270
    31  C    8.031089  10.260334  11.590690  12.232537   7.862333
    32  H    6.149776   8.259781   9.606282  10.231505   5.864070
    33  H    9.394618  12.330996  13.342224  14.222062  10.052927
    34  C    8.942949  11.436828  12.668440  13.392555   9.061205
    35  H    8.437877  10.375257  11.810749  12.356788   7.968451
    36  C   10.410878  12.772544  14.067865  14.742399  10.375858
    37  H   10.864842  13.280179  14.587605  15.242931  10.900793
    38  H   10.578462  12.700124  14.085503  14.680386  10.291867
    39  H   10.841329  13.287979  14.511071  15.249991  10.895674
    40  H    5.937514   9.376730   9.987000  11.074076   7.452256
                   11         12         13         14         15
    11  C    0.000000
    12  H    2.015338   0.000000
    13  C    5.095536   5.673017   0.000000
    14  C    1.390345   3.206492   4.207603   0.000000
    15  H    3.246023   4.595839   2.507236   1.997131   0.000000
    16  C    1.447596   2.613031   6.513127   2.499985   4.492683
    17  H    5.096087   5.883769   0.959750   4.076204   2.237238
    18  H    5.082826   5.821953   0.959684   4.119822   2.399993
    19  H    5.978240   6.379000   0.960109   5.150060   3.460208
    20  H    2.011246   3.986131   4.720624   0.929844   2.274542
    21  H    2.033503   2.389749   7.097534   3.293909   5.250971
    22  C    2.504127   3.947705   7.240165   3.043085   4.961041
    23  C    3.826664   4.900836   8.689163   4.495104   6.412684
    24  H    2.700238   4.456514   6.922422   2.782886   4.521240
    25  C    5.043437   6.314348   9.615119   5.446264   7.213636
    26  O    4.228264   4.784705   9.290375   5.183449   7.169803
    27  C    6.292202   7.349180  10.993529   6.807728   8.609493
    28  C    5.339355   6.930037   9.373268   5.379345   6.893624
    29  C    7.471758   8.660984  11.961434   7.832625   9.516674
    30  O    6.598080   7.300601  11.539849   7.348473   9.260411
    31  C    6.690651   8.306129  10.498110   6.633956   8.005292
    32  H    4.777462   6.521067   8.527415   4.635915   6.038201
    33  H    8.274528   9.355479  12.851237   8.701925  10.418369
    34  C    7.664502   9.102656  11.759871   7.780530   9.272287
    35  H    7.062485   8.797738  10.485556   6.825748   8.003500
    36  C    9.109681  10.595723  13.006810   9.135954  10.512642
    37  H    9.586814  11.019997  13.526728   9.655230  11.054507
    38  H    9.234443  10.842986  12.829249   9.115071  10.343847
    39  H    9.562502  10.989247  13.559079   9.639004  11.053967
    40  H    5.179299   5.647202  10.241982   6.123012   8.103587
                   16         17         18         19         20
    16  C    0.000000
    17  H    6.475260   0.000000
    18  H    6.445060   1.567729   0.000000
    19  H    7.409988   1.567050   1.567432   0.000000
    20  H    2.667273   4.475244   4.547614   5.679381   0.000000
    21  H    0.929647   7.117947   7.075695   7.954746   3.568859
    22  C    1.335713   7.105426   7.079941   8.178458   2.773128
    23  C    2.443046   8.556323   8.522290   9.623807   4.199713
    24  H    1.962112   6.722030   6.707596   7.877994   2.254310
    25  C    3.768576   9.410211   9.383728  10.568966   4.941904
    26  O    2.784758   9.223292   9.181679  10.192800   5.074482
    27  C    4.930884  10.799050  10.767435  11.944069   6.338140
    28  C    4.318005   9.089236   9.083989  10.333062   4.682783
    29  C    6.171828  11.716574  11.694428  12.919862   7.255875
    30  O    5.159933  11.405405  11.362868  12.470796   7.025511
    31  C    5.694019  10.169155  10.173241  11.453232   5.872735
    32  H    3.951945   8.224210   8.227587   9.485420   3.876196
    33  H    6.933164  12.617275  12.589159  13.808241   8.152057
    34  C    6.512784  11.453253  11.449796  12.718675   7.080644
    35  H    6.207909  10.114400  10.130047  11.428959   5.995881
    36  C    7.997406  12.660940  12.670222  13.960238   8.385141
    37  H    8.443704  13.231550  13.143696  14.479565   8.924990
    38  H    8.230011  12.445430  12.472675  13.772385   8.308617
    39  H    8.413920  13.179233  13.275357  14.513243   8.905473
    40  H    3.736766  10.166463  10.128131  11.145220   5.976072
                   21         22         23         24         25
    21  H    0.000000
    22  C    1.932303   0.000000
    23  C    2.546994   1.454886   0.000000
    24  H    2.743193   0.929451   2.070750   0.000000
    25  C    3.993346   2.539791   1.460106   2.696307   0.000000
    26  O    2.438176   2.343122   1.253991   3.161057   2.343178
    27  C    4.964311   3.821778   2.488672   4.089149   1.407103
    28  C    4.794659   2.982534   2.520148   2.665760   1.406452
    29  C    6.289574   4.968906   3.762253   5.054649   2.429470
    30  O    4.943869   4.309019   2.854400   4.816162   2.407217
    31  C    6.153877   4.358674   3.782047   3.998115   2.431911
    32  H    4.578451   2.657708   2.687356   2.085566   2.028978
    33  H    6.968308   5.782638   4.494373   5.932946   3.262360
    34  C    6.813962   5.207383   4.287248   5.042122   2.827829
    35  H    6.761049   4.886035   4.521639   4.373972   3.265075
    36  C    8.317999   6.681391   5.793538   6.449894   4.334430
    37  H    8.726089   7.141317   6.195347   6.947750   4.751414
    38  H    8.644888   6.896666   6.182104   6.539809   4.739721
    39  H    8.684255   7.123592   6.163831   6.948807   4.734621
    40  H    3.349439   3.216450   1.912739   3.962616   2.476722
                   26         27         28         29         30
    26  O    0.000000
    27  C    2.787148   0.000000
    28  C    3.636661   2.391977   0.000000
    29  C    4.169741   1.383371   2.748549   0.000000
    30  O    2.516327   1.352372   3.650324   2.338634   0.000000
    31  C    4.774138   2.760863   1.376219   2.376546   4.111694
    32  H    3.919989   3.236673   0.930522   3.678945   4.414699
    33  H    4.710903   2.009522   3.678755   0.930299   2.493213
    34  C    5.005383   2.407035   2.403997   1.375956   3.613822
    35  H    5.591471   3.691123   2.006432   3.217467   5.041930
    36  C    6.481756   3.790664   3.784414   2.510306   4.846116
    37  H    6.812872   4.085074   4.310553   2.770981   5.028513
    38  H    7.002600   4.443794   3.919948   3.283046   5.606300
    39  H    6.754485   4.044796   4.321465   2.734690   4.960974
    40  H    0.952636   2.394383   3.876158   3.736124   1.727827
                   31         32         33         34         35
    31  C    0.000000
    32  H    2.001041   0.000000
    33  H    3.217069   4.609153   0.000000
    34  C    1.389962   3.236497   2.002460   0.000000
    35  H    0.930294   2.288408   3.991242   2.019205   0.000000
    36  C    2.515665   4.513381   2.651441   1.506787   2.660784
    37  H    3.106136   5.060032   2.721848   2.038342   3.275558
    38  H    2.550109   4.497447   3.560299   2.039506   2.345204
    39  H    3.137962   5.079055   2.674855   2.039192   3.336103
    40  H    4.814632   4.351266   4.122729   4.774576   5.699005
                   36         37         38         39         40
    36  C    0.000000
    37  H    0.959472   0.000000
    38  H    0.960899   1.567186   0.000000
    39  H    0.959944   1.567564   1.568222   0.000000
    40  H    6.181998   6.455881   6.809162   6.376961   0.000000
 Stoichiometry    C18H19NO2
 Framework group  C1[X(C18H19NO2)]
 Deg. of freedom   114
 Full point group                 C1      NOp   1
 Largest Abelian subgroup         C1      NOp   1
 Largest concise Abelian subgroup C1      NOp   1
                         Standard orientation:                         
 ---------------------------------------------------------------------
 Center     Atomic      Atomic             Coordinates (Angstroms)
 Number     Number       Type             X           Y           Z
 ---------------------------------------------------------------------
      1          1           0        4.992482   -1.770581    0.013720
      2          1           0        7.000647   -0.761453    0.893311
      3          6           0        4.315592   -1.134123   -0.012649
      4          6           0        7.042880   -0.273099    0.068602
      5          6           0        4.648257    0.225015   -0.033209
      6          6           0        3.008326   -1.540949   -0.030734
      7          7           0        5.942299    0.659084    0.005225
      8          1           0        6.985852   -0.885016   -0.668919
      9          1           0        7.871793    0.206812    0.021994
     10          6           0        3.581647    1.133908   -0.108265
     11          6           0        1.941409   -0.641477   -0.072626
     12          1           0        2.824224   -2.452226   -0.014198
     13          6           0        6.255765    2.063511    0.111405
     14          6           0        2.280424    0.705780   -0.127661
     15          1           0        3.761856    2.045016   -0.146102
     16          6           0        0.575973   -1.120734   -0.034797
     17          1           0        5.888587    2.531177   -0.641980
     18          1           0        5.879368    2.414592    0.921381
     19          1           0        7.208811    2.178931    0.125209
     20          1           0        1.600312    1.337775   -0.179047
     21          1           0        0.469665   -2.044279   -0.037281
     22          6           0       -0.550246   -0.403559    0.002875
     23          6           0       -1.864684   -1.027010    0.018902
     24          1           0       -0.492654    0.523971    0.018757
     25          6           0       -3.083268   -0.223093    0.044960
     26          8           0       -1.957275   -2.277096   -0.015812
     27          6           0       -4.346361   -0.843181    0.050145
     28          6           0       -3.075631    1.183137    0.021185
     29          6           0       -5.509305   -0.094006    0.046909
     30          8           0       -4.471450   -2.189722    0.040675
     31          6           0       -4.240828    1.915399    0.011842
     32          1           0       -2.260088    1.631087    0.011131
     33          1           0       -6.331121   -0.529346    0.070446
     34          6           0       -5.477602    1.281067    0.009151
     35          1           0       -4.200119    2.844787    0.006659
     36          6           0       -6.750157    2.086493   -0.038815
     37          1           0       -7.254643    1.935528    0.763239
     38          1           0       -6.535829    3.020488   -0.109825
     39          1           0       -7.270445    1.819057   -0.799913
     40          1           0       -2.818129   -2.683851   -0.047365
 ---------------------------------------------------------------------
 Rotational constants (GHZ):      0.9406206      0.0946073      0.0860971
 Standard basis: 6-311++G(d,p) (5D, 7F)
 There are   595 symmetry adapted basis functions of A   symmetry.
 Integral buffers will be    131072 words long.
 Raffenetti 2 integral format.
 Two-electron integral symmetry is turned on.
   595 basis functions,   927 primitive gaussians,   616 cartesian basis functions
    75 alpha electrons       75 beta electrons
       nuclear repulsion energy      1492.8084334120 Hartrees.
 NAtoms=   40 NActive=   40 NUniq=   40 SFac= 1.00D+00 NAtFMM=   60 NAOKFM=F Big=F
 Nuclear repulsion after empirical dispersion term =     1492.7829620191 Hartrees.
 One-electron integrals computed using PRISM.
 NBasis=   595 RedAO= T  NBF=   595
 NBsUse=   587 1.00D-06 NBFU=   587
 Harris functional with IExCor= 4639 diagonalized for initial guess.
 ExpMin= 3.60D-02 ExpMax= 8.59D+03 ExpMxC= 1.30D+03 IAcc=3 IRadAn=         5 AccDes= 0.00D+00
 HarFok:  IExCor= 4639 AccDes= 0.00D+00 IRadAn=         5 IDoV= 1
 ScaDFX=  1.000000  1.000000  1.000000  1.000000
 FoFCou: FMM=F IPFlag=           0 FMFlag=      100000 FMFlg1=           0
         NFxFlg=           0 DoJE=T BraDBF=F KetDBF=T FulRan=T
         Omega=  0.000000  0.000000  1.000000  0.000000  0.000000 ICntrl=     500 IOpCl=  0
         NMat0=    1 NMatS0=    1 NMatT0=    0 NMatD0=    1 NMtDS0=    0 NMtDT0=    0
         I1Cent=           4 NGrid=           0.
 Petite list used in FoFCou.
 Initial guess orbital symmetries:
       Occupied  (A) (A) (A) (A) (A) (A) (A) (A) (A) (A) (A) (A)
                 (A) (A) (A) (A) (A) (A) (A) (A) (A) (A) (A) (A)
                 (A) (A) (A) (A) (A) (A) (A) (A) (A) (A) (A) (A)
                 (A) (A) (A) (A) (A) (A) (A) (A) (A) (A) (A) (A)
                 (A) (A) (A) (A) (A) (A) (A) (A) (A) (A) (A) (A)
                 (A) (A) (A) (A) (A) (A) (A) (A) (A) (A) (A) (A)
                 (A) (A) (A)
       Virtual   (A) (A) (A) (A) (A) (A) (A) (A) (A) (A) (A) (A)
                 (A) (A) (A) (A) (A) (A) (A) (A) (A) (A) (A) (A)
                 (A) (A) (A) (A) (A) (A) (A) (A) (A) (A) (A) (A)
                 (A) (A) (A) (A) (A) (A) (A) (A) (A) (A) (A) (A)
                 (A) (A) (A) (A) (A) (A) (A) (A) (A) (A) (A) (A)
                 (A) (A) (A) (A) (A) (A) (A) (A) (A) (A) (A) (A)
                 (A) (A) (A) (A) (A) (A) (A) (A) (A) (A) (A) (A)
                 (A) (A) (A) (A) (A) (A) (A) (A) (A) (A) (A) (A)
                 (A) (A) (A) (A) (A) (A) (A) (A) (A) (A) (A) (A)
                 (A) (A) (A) (A) (A) (A) (A) (A) (A) (A) (A) (A)
                 (A) (A) (A) (A) (A) (A) (A) (A) (A) (A) (A) (A)
                 (A) (A) (A) (A) (A) (A) (A) (A) (A) (A) (A) (A)
                 (A) (A) (A) (A) (A) (A) (A) (A) (A) (A) (A) (A)
                 (A) (A) (A) (A) (A) (A) (A) (A) (A) (A) (A) (A)
                 (A) (A) (A) (A) (A) (A) (A) (A) (A) (A) (A) (A)
                 (A) (A) (A) (A) (A) (A) (A) (A) (A) (A) (A) (A)
                 (A) (A) (A) (A) (A) (A) (A) (A) (A) (A) (A) (A)
                 (A) (A) (A) (A) (A) (A) (A) (A) (A) (A) (A) (A)
                 (A) (A) (A) (A) (A) (A) (A) (A) (A) (A) (A) (A)
                 (A) (A) (A) (A) (A) (A) (A) (A) (A) (A) (A) (A)
                 (A) (A) (A) (A) (A) (A) (A) (A) (A) (A) (A) (A)
                 (A) (A) (A) (A) (A) (A) (A) (A) (A) (A) (A) (A)
                 (A) (A) (A) (A) (A) (A) (A) (A) (A) (A) (A) (A)
                 (A) (A) (A) (A) (A) (A) (A) (A) (A) (A) (A) (A)
                 (A) (A) (A) (A) (A) (A) (A) (A) (A) (A) (A) (A)
                 (A) (A) (A) (A) (A) (A) (A) (A) (A) (A) (A) (A)
                 (A) (A) (A) (A) (A) (A) (A) (A) (A) (A) (A) (A)
                 (A) (A) (A) (A) (A) (A) (A) (A) (A) (A) (A) (A)
                 (A) (A) (A) (A) (A) (A) (A) (A) (A) (A) (A) (A)
                 (A) (A) (A) (A) (A) (A) (A) (A) (A) (A) (A) (A)
                 (A) (A) (A) (A) (A) (A) (A) (A) (A) (A) (A) (A)
                 (A) (A) (A) (A) (A) (A) (A) (A) (A) (A) (A) (A)
                 (A) (A) (A) (A) (A) (A) (A) (A) (A) (A) (A) (A)
                 (A) (A) (A) (A) (A) (A) (A) (A) (A) (A) (A) (A)
                 (A) (A) (A) (A) (A) (A) (A) (A) (A) (A) (A) (A)
                 (A) (A) (A) (A) (A) (A) (A) (A) (A) (A) (A) (A)
                 (A) (A) (A) (A) (A) (A) (A) (A) (A) (A) (A) (A)
                 (A) (A) (A) (A) (A) (A) (A) (A) (A) (A) (A) (A)
                 (A) (A) (A) (A) (A) (A) (A) (A) (A) (A) (A) (A)
                 (A) (A) (A) (A) (A) (A) (A) (A) (A) (A) (A) (A)
                 (A) (A) (A) (A) (A) (A) (A) (A) (A) (A) (A) (A)
                 (A) (A) (A) (A) (A) (A) (A) (A) (A) (A) (A) (A)
                 (A) (A) (A) (A) (A) (A) (A) (A)
 The electronic state of the initial guess is 1-A.
 Requested convergence on RMS density matrix=1.00D-08 within 128 cycles.
 Requested convergence on MAX density matrix=1.00D-06.
 Requested convergence on             energy=1.00D-06.
 No special actions if energy rises.
 FoFJK:  IHMeth= 1 ICntrl=     0 DoSepK=T KAlg= 1 I1Cent= 0 FoldK=F
 FoFJK:  IHMeth= 1 ICntrl=     0 DoSepK=T KAlg= 1 I1Cent= 0 FoldK=F
 FoFJK:  IHMeth= 1 ICntrl=     0 DoSepK=T KAlg= 1 I1Cent= 0 FoldK=F
 FoFJK:  IHMeth= 1 ICntrl=     0 DoSepK=T KAlg= 1 I1Cent= 0 FoldK=F
 FoFJK:  IHMeth= 1 ICntrl=     0 DoSepK=T KAlg= 1 I1Cent= 0 FoldK=F
 FoFJK:  IHMeth= 1 ICntrl=     0 DoSepK=T KAlg= 1 I1Cent= 0 FoldK=F
 FoFJK:  IHMeth= 1 ICntrl=     0 DoSepK=T KAlg= 1 I1Cent= 0 FoldK=F
 FoFJK:  IHMeth= 1 ICntrl=     0 DoSepK=T KAlg= 1 I1Cent= 0 FoldK=F
 FoFJK:  IHMeth= 1 ICntrl=     0 DoSepK=T KAlg= 1 I1Cent= 0 FoldK=F
 FoFJK:  IHMeth= 1 ICntrl=     0 DoSepK=T KAlg= 1 I1Cent= 0 FoldK=F
 FoFJK:  IHMeth= 1 ICntrl=     0 DoSepK=T KAlg= 1 I1Cent= 0 FoldK=F
 FoFJK:  IHMeth= 1 ICntrl=     0 DoSepK=T KAlg= 1 I1Cent= 0 FoldK=F
 FoFJK:  IHMeth= 1 ICntrl=     0 DoSepK=T KAlg= 1 I1Cent= 0 FoldK=F
 FoFJK:  IHMeth= 1 ICntrl=     0 DoSepK=T KAlg= 1 I1Cent= 0 FoldK=F
 FoFJK:  IHMeth= 1 ICntrl=     0 DoSepK=T KAlg= 1 I1Cent= 0 FoldK=F
 FoFJK:  IHMeth= 1 ICntrl=     0 DoSepK=T KAlg= 1 I1Cent= 0 FoldK=F
 FoFJK:  IHMeth= 1 ICntrl=     0 DoSepK=T KAlg= 1 I1Cent= 0 FoldK=F
 FoFJK:  IHMeth= 1 ICntrl=     0 DoSepK=T KAlg= 1 I1Cent= 0 FoldK=F
 SCF Done:  E(RwB97XD) =  -902.127423896     A.U. after   18 cycles
             Convg  =    0.3523D-08             -V/T =  1.9986
 QCSCF skips out because SCF is already converged.
 ExpMin= 3.60D-02 ExpMax= 8.59D+03 ExpMxC= 1.30D+03 IAcc=3 IRadAn=         5 AccDes= 0.00D+00
 HarFok:  IExCor=  205 AccDes= 0.00D+00 IRadAn=         5 IDoV=-2
 ScaDFX=  1.000000  1.000000  1.000000  1.000000
 Range of M.O.s used for correlation:    22   587
 NBasis=   595 NAE=    75 NBE=    75 NFC=    21 NFV=     0
 NROrb=    566 NOA=    54 NOB=    54 NVA=   512 NVB=   512

 **** Warning!!: The largest alpha MO coefficient is  0.13466058D+03

 Would need an additional 53568100000 words for in-memory AO integral storage.
 Orbital symmetries:
       Occupied  (A) (A) (A) (A) (A) (A) (A) (A) (A) (A) (A) (A)
                 (A) (A) (A) (A) (A) (A) (A) (A) (A) (A) (A) (A)
                 (A) (A) (A) (A) (A) (A) (A) (A) (A) (A) (A) (A)
                 (A) (A) (A) (A) (A) (A) (A) (A) (A) (A) (A) (A)
                 (A) (A) (A) (A) (A) (A) (A) (A) (A) (A) (A) (A)
                 (A) (A) (A) (A) (A) (A) (A) (A) (A) (A) (A) (A)
                 (A) (A) (A)
       Virtual   (A) (A) (A) (A) (A) (A) (A) (A) (A) (A) (A) (A)
                 (A) (A) (A) (A) (A) (A) (A) (A) (A) (A) (A) (A)
                 (A) (A) (A) (A) (A) (A) (A) (A) (A) (A) (A) (A)
                 (A) (A) (A) (A) (A) (A) (A) (A) (A) (A) (A) (A)
                 (A) (A) (A) (A) (A) (A) (A) (A) (A) (A) (A) (A)
                 (A) (A) (A) (A) (A) (A) (A) (A) (A) (A) (A) (A)
                 (A) (A) (A) (A) (A) (A) (A) (A) (A) (A) (A) (A)
                 (A) (A) (A) (A) (A) (A) (A) (A) (A) (A) (A) (A)
                 (A) (A) (A) (A) (A) (A) (A) (A) (A) (A) (A) (A)
                 (A) (A) (A) (A) (A) (A) (A) (A) (A) (A) (A) (A)
                 (A) (A) (A) (A) (A) (A) (A) (A) (A) (A) (A) (A)
                 (A) (A) (A) (A) (A) (A) (A) (A) (A) (A) (A) (A)
                 (A) (A) (A) (A) (A) (A) (A) (A) (A) (A) (A) (A)
                 (A) (A) (A) (A) (A) (A) (A) (A) (A) (A) (A) (A)
                 (A) (A) (A) (A) (A) (A) (A) (A) (A) (A) (A) (A)
                 (A) (A) (A) (A) (A) (A) (A) (A) (A) (A) (A) (A)
                 (A) (A) (A) (A) (A) (A) (A) (A) (A) (A) (A) (A)
                 (A) (A) (A) (A) (A) (A) (A) (A) (A) (A) (A) (A)
                 (A) (A) (A) (A) (A) (A) (A) (A) (A) (A) (A) (A)
                 (A) (A) (A) (A) (A) (A) (A) (A) (A) (A) (A) (A)
                 (A) (A) (A) (A) (A) (A) (A) (A) (A) (A) (A) (A)
                 (A) (A) (A) (A) (A) (A) (A) (A) (A) (A) (A) (A)
                 (A) (A) (A) (A) (A) (A) (A) (A) (A) (A) (A) (A)
                 (A) (A) (A) (A) (A) (A) (A) (A) (A) (A) (A) (A)
                 (A) (A) (A) (A) (A) (A) (A) (A) (A) (A) (A) (A)
                 (A) (A) (A) (A) (A) (A) (A) (A) (A) (A) (A) (A)
                 (A) (A) (A) (A) (A) (A) (A) (A) (A) (A) (A) (A)
                 (A) (A) (A) (A) (A) (A) (A) (A) (A) (A) (A) (A)
                 (A) (A) (A) (A) (A) (A) (A) (A) (A) (A) (A) (A)
                 (A) (A) (A) (A) (A) (A) (A) (A) (A) (A) (A) (A)
                 (A) (A) (A) (A) (A) (A) (A) (A) (A) (A) (A) (A)
                 (A) (A) (A) (A) (A) (A) (A) (A) (A) (A) (A) (A)
                 (A) (A) (A) (A) (A) (A) (A) (A) (A) (A) (A) (A)
                 (A) (A) (A) (A) (A) (A) (A) (A) (A) (A) (A) (A)
                 (A) (A) (A) (A) (A) (A) (A) (A) (A) (A) (A) (A)
                 (A) (A) (A) (A) (A) (A) (A) (A) (A) (A) (A) (A)
                 (A) (A) (A) (A) (A) (A) (A) (A) (A) (A) (A) (A)
                 (A) (A) (A) (A) (A) (A) (A) (A) (A) (A) (A) (A)
                 (A) (A) (A) (A) (A) (A) (A) (A) (A) (A) (A) (A)
                 (A) (A) (A) (A) (A) (A) (A) (A) (A) (A) (A) (A)
                 (A) (A) (A) (A) (A) (A) (A) (A) (A) (A) (A) (A)
                 (A) (A) (A) (A) (A) (A) (A) (A) (A) (A) (A) (A)
                 (A) (A) (A) (A) (A) (A) (A) (A)
     8 initial guesses have been made.
 Convergence on wavefunction:    0.000001000000000
 Iteration     1 Dimension     8 NMult     8
 CISAX will form     8 AO SS matrices at one time.
 FoFJK:  IHMeth= 1 ICntrl=     0 DoSepK=T KAlg= 1 I1Cent= 0 FoldK=F
 FoFJK:  IHMeth= 1 ICntrl=     0 DoSepK=T KAlg= 1 I1Cent= 0 FoldK=F
 Iteration     2 Dimension    12 NMult    12
 FoFJK:  IHMeth= 1 ICntrl=     0 DoSepK=T KAlg= 1 I1Cent= 0 FoldK=F
 FoFJK:  IHMeth= 1 ICntrl=     0 DoSepK=T KAlg= 1 I1Cent= 0 FoldK=F
 Iteration     3 Dimension    16 NMult    16
 FoFJK:  IHMeth= 1 ICntrl=     0 DoSepK=T KAlg= 1 I1Cent= 0 FoldK=F
 FoFJK:  IHMeth= 1 ICntrl=     0 DoSepK=T KAlg= 1 I1Cent= 0 FoldK=F
 Iteration     4 Dimension    20 NMult    20
 FoFJK:  IHMeth= 1 ICntrl=     0 DoSepK=T KAlg= 1 I1Cent= 0 FoldK=F
 FoFJK:  IHMeth= 1 ICntrl=     0 DoSepK=T KAlg= 1 I1Cent= 0 FoldK=F
 Iteration     5 Dimension    24 NMult    24
 FoFJK:  IHMeth= 1 ICntrl=     0 DoSepK=T KAlg= 1 I1Cent= 0 FoldK=F
 FoFJK:  IHMeth= 1 ICntrl=     0 DoSepK=T KAlg= 1 I1Cent= 0 FoldK=F
 Iteration     6 Dimension    28 NMult    28
 FoFJK:  IHMeth= 1 ICntrl=     0 DoSepK=T KAlg= 1 I1Cent= 0 FoldK=F
 FoFJK:  IHMeth= 1 ICntrl=     0 DoSepK=T KAlg= 1 I1Cent= 0 FoldK=F
 Iteration     7 Dimension    32 NMult    32
 FoFJK:  IHMeth= 1 ICntrl=     0 DoSepK=T KAlg= 1 I1Cent= 0 FoldK=F
 FoFJK:  IHMeth= 1 ICntrl=     0 DoSepK=T KAlg= 1 I1Cent= 0 FoldK=F
 Iteration     8 Dimension    36 NMult    36
 FoFJK:  IHMeth= 1 ICntrl=     0 DoSepK=T KAlg= 1 I1Cent= 0 FoldK=F
 FoFJK:  IHMeth= 1 ICntrl=     0 DoSepK=T KAlg= 1 I1Cent= 0 FoldK=F
 Iteration     9 Dimension    40 NMult    40
 FoFJK:  IHMeth= 1 ICntrl=     0 DoSepK=T KAlg= 1 I1Cent= 0 FoldK=F
 FoFJK:  IHMeth= 1 ICntrl=     0 DoSepK=T KAlg= 1 I1Cent= 0 FoldK=F
 Iteration    10 Dimension    44 NMult    44
 FoFJK:  IHMeth= 1 ICntrl=     0 DoSepK=T KAlg= 1 I1Cent= 0 FoldK=F
 FoFJK:  IHMeth= 1 ICntrl=     0 DoSepK=T KAlg= 1 I1Cent= 0 FoldK=F
 Iteration    11 Dimension    48 NMult    48
 FoFJK:  IHMeth= 1 ICntrl=     0 DoSepK=T KAlg= 1 I1Cent= 0 FoldK=F
 FoFJK:  IHMeth= 1 ICntrl=     0 DoSepK=T KAlg= 1 I1Cent= 0 FoldK=F
 Iteration    12 Dimension    52 NMult    52
 FoFJK:  IHMeth= 1 ICntrl=     0 DoSepK=T KAlg= 1 I1Cent= 0 FoldK=F
 FoFJK:  IHMeth= 1 ICntrl=     0 DoSepK=T KAlg= 1 I1Cent= 0 FoldK=F
 Iteration    13 Dimension    56 NMult    56
 FoFJK:  IHMeth= 1 ICntrl=     0 DoSepK=T KAlg= 1 I1Cent= 0 FoldK=F
 FoFJK:  IHMeth= 1 ICntrl=     0 DoSepK=T KAlg= 1 I1Cent= 0 FoldK=F
 ***********************************************************************
 Excited states from <AA,BB:AA,BB> singles matrix:
 ***********************************************************************
 
 Ground to excited state transition densities written to RWF  633
 Ground to excited state transition electric dipole moments (Au):
       state          X           Y           Z        Dip. S.      Osc.
         1        -3.0736     -0.1390      0.0194      9.4665      0.6550
 Ground to excited state transition velocity dipole moments (Au):
       state          X           Y           Z        Dip. S.      Osc.
         1         0.3178      0.0179     -0.0020      0.1013      0.6508
 Ground to excited state transition magnetic dipole moments (Au):
       state          X           Y           Z
         1         0.0171     -0.0225     -0.2046
 Ground to excited state transition velocity quadrupole moments (Au):
       state          XX          YY          ZZ          XY          XZ          YZ
         1        -0.7785     -0.1451      0.0000     -0.1446      0.0189      0.0072
 <0|del|b> * <b|rxdel|0> + <0|del|b> * <b|delr+rdel|0>
 Rotatory Strengths (R) in cgs (10**-40 erg-esu-cm/Gauss)
       state          XX          YY          ZZ    R(velocity)
         1        -0.1271     26.7385     10.4729     12.3614
 1/2[<0|r|b>*<b|rxdel|0> + (<0|rxdel|b>*<b|r|0>)*]
 Rotatory Strengths (R) in cgs (10**-40 erg-esu-cm/Gauss)
       state          XX          YY          ZZ     R(length)
         1        37.1612     -2.2149      2.8025     12.5829
  1/2[<0|del|b>*<b|r|0> + (<0|r|b>*<b|del|0>)*] (Au)
       state          X           Y           Z        Dip. S.   Osc.(frdel)
         1        -0.9768     -0.0025      0.0000      0.9793      0.6529

 Excitation energies and oscillator strengths:
 
 Excited State   1:      Singlet-A      2.8242 eV  439.01 nm  f=0.6550  <S**2>=0.000
      75 -> 76         0.68065
      75 -> 78         0.10014
 This state for optimization and/or second-order correction.
 Total Energy, E(TD-HF/TD-KS) =  -902.023638266    
 Copying the excited state density for this state as the 1-particle RhoCI density.
 SavETr:  write IOETrn=   770 NScale= 10 NData=  16 NLR=1 LETran=      28.
 FoFJK:  IHMeth= 1 ICntrl=     0 DoSepK=T KAlg= 1 I1Cent= 0 FoldK=F
 FoFJK:  IHMeth= 1 ICntrl=     0 DoSepK=T KAlg= 1 I1Cent= 0 FoldK=F
          IDoAtm=1111111111111111111111111111111111111111
          Differentiating once with respect to electric field.
                with respect to dipole field.
          Differentiating once with respect to nuclear coordinates.
          There are     1 degrees of freedom in the 1st order CPHF.  IDoFFX=0.
 FoFJK:  IHMeth= 1 ICntrl=     0 DoSepK=T KAlg= 1 I1Cent= 0 FoldK=F
 LinEq1:  Iter=  0 NonCon=     1 RMS=5.68D-03 Max=7.04D-01
 AX will form     1 AO Fock derivatives at one time.
 FoFJK:  IHMeth= 1 ICntrl=     0 DoSepK=T KAlg= 1 I1Cent= 0 FoldK=F
 LinEq1:  Iter=  1 NonCon=     1 RMS=2.70D-03 Max=2.71D-01
 FoFJK:  IHMeth= 1 ICntrl=     0 DoSepK=T KAlg= 1 I1Cent= 0 FoldK=F
 LinEq1:  Iter=  2 NonCon=     1 RMS=1.83D-03 Max=1.19D-01
 FoFJK:  IHMeth= 1 ICntrl=     0 DoSepK=T KAlg= 1 I1Cent= 0 FoldK=F
 LinEq1:  Iter=  3 NonCon=     1 RMS=7.77D-04 Max=4.17D-02
 FoFJK:  IHMeth= 1 ICntrl=     0 DoSepK=T KAlg= 1 I1Cent= 0 FoldK=F
 LinEq1:  Iter=  4 NonCon=     1 RMS=4.05D-04 Max=2.04D-02
 FoFJK:  IHMeth= 1 ICntrl=     0 DoSepK=T KAlg= 1 I1Cent= 0 FoldK=F
 LinEq1:  Iter=  5 NonCon=     1 RMS=1.83D-04 Max=1.03D-02
 FoFJK:  IHMeth= 1 ICntrl=     0 DoSepK=T KAlg= 1 I1Cent= 0 FoldK=F
 LinEq1:  Iter=  6 NonCon=     1 RMS=8.82D-05 Max=3.39D-03
 FoFJK:  IHMeth= 1 ICntrl=     0 DoSepK=T KAlg= 1 I1Cent= 0 FoldK=F
 LinEq1:  Iter=  7 NonCon=     1 RMS=4.35D-05 Max=1.89D-03
 FoFJK:  IHMeth= 1 ICntrl=     0 DoSepK=T KAlg= 1 I1Cent= 0 FoldK=F
 LinEq1:  Iter=  8 NonCon=     1 RMS=2.30D-05 Max=9.31D-04
 FoFJK:  IHMeth= 1 ICntrl=     0 DoSepK=T KAlg= 1 I1Cent= 0 FoldK=F
 LinEq1:  Iter=  9 NonCon=     1 RMS=1.02D-05 Max=3.34D-04
 FoFJK:  IHMeth= 1 ICntrl=     0 DoSepK=T KAlg= 1 I1Cent= 0 FoldK=F
 LinEq1:  Iter= 10 NonCon=     1 RMS=4.16D-06 Max=1.65D-04
 FoFJK:  IHMeth= 1 ICntrl=     0 DoSepK=T KAlg= 1 I1Cent= 0 FoldK=F
 LinEq1:  Iter= 11 NonCon=     1 RMS=2.10D-06 Max=9.26D-05
 FoFJK:  IHMeth= 1 ICntrl=     0 DoSepK=T KAlg= 1 I1Cent= 0 FoldK=F
 LinEq1:  Iter= 12 NonCon=     1 RMS=9.70D-07 Max=5.86D-05
 FoFJK:  IHMeth= 1 ICntrl=     0 DoSepK=T KAlg= 1 I1Cent= 0 FoldK=F
 LinEq1:  Iter= 13 NonCon=     1 RMS=4.46D-07 Max=2.60D-05
 FoFJK:  IHMeth= 1 ICntrl=     0 DoSepK=T KAlg= 1 I1Cent= 0 FoldK=F
 LinEq1:  Iter= 14 NonCon=     1 RMS=1.69D-07 Max=5.89D-06
 FoFJK:  IHMeth= 1 ICntrl=     0 DoSepK=T KAlg= 1 I1Cent= 0 FoldK=F
 LinEq1:  Iter= 15 NonCon=     1 RMS=8.50D-08 Max=3.44D-06
 FoFJK:  IHMeth= 1 ICntrl=     0 DoSepK=T KAlg= 1 I1Cent= 0 FoldK=F
 LinEq1:  Iter= 16 NonCon=     1 RMS=3.99D-08 Max=1.81D-06
 FoFJK:  IHMeth= 1 ICntrl=     0 DoSepK=T KAlg= 1 I1Cent= 0 FoldK=F
 LinEq1:  Iter= 17 NonCon=     1 RMS=1.95D-08 Max=6.92D-07
 FoFJK:  IHMeth= 1 ICntrl=     0 DoSepK=T KAlg= 1 I1Cent= 0 FoldK=F
 LinEq1:  Iter= 18 NonCon=     1 RMS=9.00D-09 Max=3.67D-07
 FoFJK:  IHMeth= 1 ICntrl=     0 DoSepK=T KAlg= 1 I1Cent= 0 FoldK=F
 LinEq1:  Iter= 19 NonCon=     1 RMS=4.54D-09 Max=2.99D-07
 FoFJK:  IHMeth= 1 ICntrl=     0 DoSepK=T KAlg= 1 I1Cent= 0 FoldK=F
 LinEq1:  Iter= 20 NonCon=     1 RMS=2.05D-09 Max=1.65D-07
 FoFJK:  IHMeth= 1 ICntrl=     0 DoSepK=T KAlg= 1 I1Cent= 0 FoldK=F
 LinEq1:  Iter= 21 NonCon=     1 RMS=9.67D-10 Max=6.55D-08
 FoFJK:  IHMeth= 1 ICntrl=     0 DoSepK=T KAlg= 1 I1Cent= 0 FoldK=F
 LinEq1:  Iter= 22 NonCon=     1 RMS=4.55D-10 Max=2.60D-08
 FoFJK:  IHMeth= 1 ICntrl=     0 DoSepK=T KAlg= 1 I1Cent= 0 FoldK=F
 LinEq1:  Iter= 23 NonCon=     1 RMS=1.86D-10 Max=7.43D-09
 FoFJK:  IHMeth= 1 ICntrl=     0 DoSepK=T KAlg= 1 I1Cent= 0 FoldK=F
 LinEq1:  Iter= 24 NonCon=     1 RMS=1.03D-10 Max=4.49D-09
 FoFJK:  IHMeth= 1 ICntrl=     0 DoSepK=T KAlg= 1 I1Cent= 0 FoldK=F
 LinEq1:  Iter= 25 NonCon=     1 RMS=4.11D-11 Max=1.41D-09
 FoFJK:  IHMeth= 1 ICntrl=     0 DoSepK=T KAlg= 1 I1Cent= 0 FoldK=F
 LinEq1:  Iter= 26 NonCon=     0 RMS=2.21D-11 Max=4.95D-10
 Linear equations converged to 1.000D-10 1.000D-09 after    26 iterations.
 FoFJK:  IHMeth= 1 ICntrl=     0 DoSepK=T KAlg= 1 I1Cent= 0 FoldK=F
 End of Minotr Frequency-dependent properties file   721 does not exist.
 End of Minotr Frequency-dependent properties file   722 does not exist.

 **********************************************************************

            Population analysis using the SCF density.

 **********************************************************************

 Orbital symmetries:
       Occupied  (A) (A) (A) (A) (A) (A) (A) (A) (A) (A) (A) (A)
                 (A) (A) (A) (A) (A) (A) (A) (A) (A) (A) (A) (A)
                 (A) (A) (A) (A) (A) (A) (A) (A) (A) (A) (A) (A)
                 (A) (A) (A) (A) (A) (A) (A) (A) (A) (A) (A) (A)
                 (A) (A) (A) (A) (A) (A) (A) (A) (A) (A) (A) (A)
                 (A) (A) (A) (A) (A) (A) (A) (A) (A) (A) (A) (A)
                 (A) (A) (A)
       Virtual   (A) (A) (A) (A) (A) (A) (A) (A) (A) (A) (A) (A)
                 (A) (A) (A) (A) (A) (A) (A) (A) (A) (A) (A) (A)
                 (A) (A) (A) (A) (A) (A) (A) (A) (A) (A) (A) (A)
                 (A) (A) (A) (A) (A) (A) (A) (A) (A) (A) (A) (A)
                 (A) (A) (A) (A) (A) (A) (A) (A) (A) (A) (A) (A)
                 (A) (A) (A) (A) (A) (A) (A) (A) (A) (A) (A) (A)
                 (A) (A) (A) (A) (A) (A) (A) (A) (A) (A) (A) (A)
                 (A) (A) (A) (A) (A) (A) (A) (A) (A) (A) (A) (A)
                 (A) (A) (A) (A) (A) (A) (A) (A) (A) (A) (A) (A)
                 (A) (A) (A) (A) (A) (A) (A) (A) (A) (A) (A) (A)
                 (A) (A) (A) (A) (A) (A) (A) (A) (A) (A) (A) (A)
                 (A) (A) (A) (A) (A) (A) (A) (A) (A) (A) (A) (A)
                 (A) (A) (A) (A) (A) (A) (A) (A) (A) (A) (A) (A)
                 (A) (A) (A) (A) (A) (A) (A) (A) (A) (A) (A) (A)
                 (A) (A) (A) (A) (A) (A) (A) (A) (A) (A) (A) (A)
                 (A) (A) (A) (A) (A) (A) (A) (A) (A) (A) (A) (A)
                 (A) (A) (A) (A) (A) (A) (A) (A) (A) (A) (A) (A)
                 (A) (A) (A) (A) (A) (A) (A) (A) (A) (A) (A) (A)
                 (A) (A) (A) (A) (A) (A) (A) (A) (A) (A) (A) (A)
                 (A) (A) (A) (A) (A) (A) (A) (A) (A) (A) (A) (A)
                 (A) (A) (A) (A) (A) (A) (A) (A) (A) (A) (A) (A)
                 (A) (A) (A) (A) (A) (A) (A) (A) (A) (A) (A) (A)
                 (A) (A) (A) (A) (A) (A) (A) (A) (A) (A) (A) (A)
                 (A) (A) (A) (A) (A) (A) (A) (A) (A) (A) (A) (A)
                 (A) (A) (A) (A) (A) (A) (A) (A) (A) (A) (A) (A)
                 (A) (A) (A) (A) (A) (A) (A) (A) (A) (A) (A) (A)
                 (A) (A) (A) (A) (A) (A) (A) (A) (A) (A) (A) (A)
                 (A) (A) (A) (A) (A) (A) (A) (A) (A) (A) (A) (A)
                 (A) (A) (A) (A) (A) (A) (A) (A) (A) (A) (A) (A)
                 (A) (A) (A) (A) (A) (A) (A) (A) (A) (A) (A) (A)
                 (A) (A) (A) (A) (A) (A) (A) (A) (A) (A) (A) (A)
                 (A) (A) (A) (A) (A) (A) (A) (A) (A) (A) (A) (A)
                 (A) (A) (A) (A) (A) (A) (A) (A) (A) (A) (A) (A)
                 (A) (A) (A) (A) (A) (A) (A) (A) (A) (A) (A) (A)
                 (A) (A) (A) (A) (A) (A) (A) (A) (A) (A) (A) (A)
                 (A) (A) (A) (A) (A) (A) (A) (A) (A) (A) (A) (A)
                 (A) (A) (A) (A) (A) (A) (A) (A) (A) (A) (A) (A)
                 (A) (A) (A) (A) (A) (A) (A) (A) (A) (A) (A) (A)
                 (A) (A) (A) (A) (A) (A) (A) (A) (A) (A) (A) (A)
                 (A) (A) (A) (A) (A) (A) (A) (A) (A) (A) (A) (A)
                 (A) (A) (A) (A) (A) (A) (A) (A) (A) (A) (A) (A)
                 (A) (A) (A) (A) (A) (A) (A) (A) (A) (A) (A) (A)
                 (A) (A) (A) (A) (A) (A) (A) (A)
 The electronic state is 1-A.
 Alpha  occ. eigenvalues --  -19.29708 -19.16934 -14.46764 -10.40183 -10.34620
 Alpha  occ. eigenvalues --  -10.32341 -10.30224 -10.29584 -10.28922 -10.28886
 Alpha  occ. eigenvalues --  -10.28830 -10.28601 -10.28567 -10.28324 -10.28208
 Alpha  occ. eigenvalues --  -10.27702 -10.27544 -10.27353 -10.25029 -10.23585
 Alpha  occ. eigenvalues --  -10.22938  -1.22601  -1.08363  -1.04013  -0.98426
 Alpha  occ. eigenvalues --   -0.95555  -0.93483  -0.89677  -0.89399  -0.87486
 Alpha  occ. eigenvalues --   -0.87225  -0.83444  -0.82718  -0.80486  -0.76829
 Alpha  occ. eigenvalues --   -0.75375  -0.73209  -0.71697  -0.70712  -0.67808
 Alpha  occ. eigenvalues --   -0.66044  -0.63824  -0.62450  -0.60314  -0.60193
 Alpha  occ. eigenvalues --   -0.59490  -0.58343  -0.56284  -0.55032  -0.54930
 Alpha  occ. eigenvalues --   -0.54661  -0.54468  -0.54406  -0.53366  -0.53041
 Alpha  occ. eigenvalues --   -0.52482  -0.51239  -0.50079  -0.49338  -0.48913
 Alpha  occ. eigenvalues --   -0.48197  -0.47288  -0.45714  -0.45508  -0.44284
 Alpha  occ. eigenvalues --   -0.43021  -0.42584  -0.41523  -0.38039  -0.36696
 Alpha  occ. eigenvalues --   -0.35079  -0.32627  -0.30006  -0.28050  -0.25599
 Alpha virt. eigenvalues --   -0.03430   0.02602   0.03631   0.03874   0.04271
 Alpha virt. eigenvalues --    0.04576   0.04978   0.05640   0.05905   0.06245
 Alpha virt. eigenvalues --    0.07008   0.07771   0.07993   0.08258   0.08343
 Alpha virt. eigenvalues --    0.08653   0.08777   0.09456   0.10030   0.10513
 Alpha virt. eigenvalues --    0.10591   0.11179   0.11635   0.11905   0.12386
 Alpha virt. eigenvalues --    0.12974   0.13356   0.13665   0.14193   0.14589
 Alpha virt. eigenvalues --    0.14704   0.15042   0.15329   0.15605   0.15839
 Alpha virt. eigenvalues --    0.16125   0.16305   0.16720   0.17103   0.17309
 Alpha virt. eigenvalues --    0.17805   0.17899   0.17938   0.18527   0.18975
 Alpha virt. eigenvalues --    0.19255   0.19652   0.19941   0.20095   0.20217
 Alpha virt. eigenvalues --    0.20406   0.20590   0.20861   0.21243   0.21366
 Alpha virt. eigenvalues --    0.21629   0.21950   0.22291   0.22770   0.23069
 Alpha virt. eigenvalues --    0.23244   0.23516   0.23785   0.23949   0.24292
 Alpha virt. eigenvalues --    0.24582   0.25169   0.25458   0.25714   0.25777
 Alpha virt. eigenvalues --    0.25988   0.26862   0.27003   0.27133   0.27755
 Alpha virt. eigenvalues --    0.27852   0.28034   0.28393   0.28826   0.29059
 Alpha virt. eigenvalues --    0.29280   0.29573   0.30140   0.30521   0.30796
 Alpha virt. eigenvalues --    0.31378   0.31533   0.31900   0.32461   0.32730
 Alpha virt. eigenvalues --    0.32958   0.33379   0.33649   0.33814   0.34444
 Alpha virt. eigenvalues --    0.34795   0.35031   0.35160   0.35584   0.36286
 Alpha virt. eigenvalues --    0.36684   0.36926   0.36985   0.37287   0.37919
 Alpha virt. eigenvalues --    0.38484   0.38954   0.39249   0.39772   0.39847
 Alpha virt. eigenvalues --    0.40478   0.41128   0.41460   0.41576   0.41999
 Alpha virt. eigenvalues --    0.42561   0.42667   0.42942   0.43564   0.43843
 Alpha virt. eigenvalues --    0.44220   0.45267   0.45901   0.46016   0.46292
 Alpha virt. eigenvalues --    0.46547   0.47181   0.47655   0.48427   0.48781
 Alpha virt. eigenvalues --    0.49668   0.50783   0.51344   0.52400   0.52866
 Alpha virt. eigenvalues --    0.53916   0.54306   0.55006   0.55632   0.56234
 Alpha virt. eigenvalues --    0.57334   0.57618   0.58566   0.60303   0.60743
 Alpha virt. eigenvalues --    0.61281   0.62724   0.63452   0.63863   0.64241
 Alpha virt. eigenvalues --    0.64419   0.64717   0.65186   0.65693   0.66041
 Alpha virt. eigenvalues --    0.66716   0.67213   0.67768   0.68337   0.68611
 Alpha virt. eigenvalues --    0.68814   0.69131   0.69765   0.71643   0.72155
 Alpha virt. eigenvalues --    0.72809   0.72944   0.73287   0.73898   0.74431
 Alpha virt. eigenvalues --    0.74778   0.75532   0.75732   0.76285   0.76812
 Alpha virt. eigenvalues --    0.77588   0.78063   0.78573   0.79106   0.79177
 Alpha virt. eigenvalues --    0.80138   0.80193   0.80620   0.81395   0.82420
 Alpha virt. eigenvalues --    0.82863   0.83004   0.84039   0.84422   0.84669
 Alpha virt. eigenvalues --    0.85793   0.86158   0.86466   0.88233   0.88655
 Alpha virt. eigenvalues --    0.88996   0.90422   0.90827   0.92062   0.92767
 Alpha virt. eigenvalues --    0.94498   0.94724   0.95537   0.96526   0.96727
 Alpha virt. eigenvalues --    0.97145   0.98040   0.98469   0.99413   1.00038
 Alpha virt. eigenvalues --    1.00398   1.00551   1.02050   1.02259   1.02980
 Alpha virt. eigenvalues --    1.03237   1.03714   1.04552   1.05353   1.06045
 Alpha virt. eigenvalues --    1.06265   1.06980   1.07503   1.07888   1.09123
 Alpha virt. eigenvalues --    1.09259   1.09682   1.09909   1.10992   1.11764
 Alpha virt. eigenvalues --    1.12468   1.13749   1.14364   1.14477   1.16060
 Alpha virt. eigenvalues --    1.17458   1.17592   1.18375   1.18805   1.19888
 Alpha virt. eigenvalues --    1.20111   1.21831   1.22443   1.22682   1.23191
 Alpha virt. eigenvalues --    1.24637   1.24824   1.24996   1.27890   1.29992
 Alpha virt. eigenvalues --    1.30472   1.34095   1.37266   1.37912   1.38642
 Alpha virt. eigenvalues --    1.40319   1.44227   1.45638   1.46669   1.48699
 Alpha virt. eigenvalues --    1.49600   1.49983   1.50851   1.51780   1.53387
 Alpha virt. eigenvalues --    1.54435   1.56446   1.57461   1.59023   1.60168
 Alpha virt. eigenvalues --    1.61139   1.61810   1.61969   1.62864   1.63649
 Alpha virt. eigenvalues --    1.64589   1.65278   1.65423   1.65608   1.66051
 Alpha virt. eigenvalues --    1.66393   1.67345   1.67515   1.67900   1.69053
 Alpha virt. eigenvalues --    1.69450   1.69552   1.69697   1.72432   1.72736
 Alpha virt. eigenvalues --    1.73441   1.74559   1.75703   1.76447   1.76889
 Alpha virt. eigenvalues --    1.78007   1.79556   1.80251   1.81043   1.82599
 Alpha virt. eigenvalues --    1.82914   1.83568   1.84877   1.85605   1.86036
 Alpha virt. eigenvalues --    1.86871   1.87666   1.89058   1.90754   1.91484
 Alpha virt. eigenvalues --    1.92419   1.92917   1.93884   1.94238   1.96086
 Alpha virt. eigenvalues --    1.96501   1.97770   1.98747   1.98992   2.00077
 Alpha virt. eigenvalues --    2.00594   2.01738   2.02569   2.03367   2.03739
 Alpha virt. eigenvalues --    2.04204   2.06184   2.06875   2.08539   2.09395
 Alpha virt. eigenvalues --    2.10041   2.11015   2.11973   2.12680   2.13618
 Alpha virt. eigenvalues --    2.14847   2.16650   2.17599   2.19403   2.19970
 Alpha virt. eigenvalues --    2.21350   2.21732   2.23753   2.24941   2.26112
 Alpha virt. eigenvalues --    2.26711   2.27931   2.28766   2.28853   2.31384
 Alpha virt. eigenvalues --    2.32597   2.34915   2.36324   2.37601   2.37955
 Alpha virt. eigenvalues --    2.40449   2.41110   2.43824   2.45012   2.45681
 Alpha virt. eigenvalues --    2.46334   2.47580   2.47971   2.50921   2.52027
 Alpha virt. eigenvalues --    2.52409   2.52686   2.55719   2.56890   2.59035
 Alpha virt. eigenvalues --    2.60497   2.62449   2.64304   2.64976   2.66030
 Alpha virt. eigenvalues --    2.66660   2.67665   2.68608   2.69605   2.71844
 Alpha virt. eigenvalues --    2.74312   2.76091   2.76218   2.78369   2.78894
 Alpha virt. eigenvalues --    2.78987   2.81097   2.81538   2.83217   2.87207
 Alpha virt. eigenvalues --    2.87757   2.88533   2.88659   2.89210   2.90558
 Alpha virt. eigenvalues --    2.90830   2.90927   2.92303   2.93221   2.94410
 Alpha virt. eigenvalues --    2.94799   2.95299   2.97368   2.97544   2.98390
 Alpha virt. eigenvalues --    3.01461   3.01983   3.02430   3.02805   3.04099
 Alpha virt. eigenvalues --    3.04954   3.05542   3.05763   3.06147   3.06842
 Alpha virt. eigenvalues --    3.08443   3.08781   3.09110   3.09636   3.10972
 Alpha virt. eigenvalues --    3.11334   3.12031   3.15528   3.16843   3.18709
 Alpha virt. eigenvalues --    3.19245   3.19859   3.20296   3.22707   3.23321
 Alpha virt. eigenvalues --    3.26719   3.27629   3.29048   3.30377   3.33746
 Alpha virt. eigenvalues --    3.36011   3.37061   3.37549   3.37849   3.38280
 Alpha virt. eigenvalues --    3.40094   3.44163   3.45192   3.51364   3.52739
 Alpha virt. eigenvalues --    3.54413   3.58523   3.60310   3.66542   3.69016
 Alpha virt. eigenvalues --    3.73195   3.75542   3.79288   3.81903   3.84079
 Alpha virt. eigenvalues --    3.84553   3.86400   3.90473   3.93452   3.94349
 Alpha virt. eigenvalues --    4.00195   4.02556   4.12751   4.14522   4.23349
 Alpha virt. eigenvalues --    4.24213   4.25390   4.25985   4.27432   4.28148
 Alpha virt. eigenvalues --    4.29500   4.38275   4.42722   4.45826   4.47332
 Alpha virt. eigenvalues --    4.52726   4.56914   4.60623   4.62161   4.70644
 Alpha virt. eigenvalues --    4.81671   4.96812   4.98566   5.11093   5.12865
 Alpha virt. eigenvalues --    5.23591   5.25965   5.44599   5.56567   5.89367
 Alpha virt. eigenvalues --    6.04025  23.82831  23.94589  24.01231  24.12625
 Alpha virt. eigenvalues --   24.13719  24.15989  24.17772  24.25369  24.26897
 Alpha virt. eigenvalues --   24.27275  24.38783  24.40686  24.41422  24.46341
 Alpha virt. eigenvalues --   24.46793  24.48719  24.49187  24.50317  35.75959
 Alpha virt. eigenvalues --   50.14351  50.20076
          Condensed to atoms (all electrons):
              1          2          3          4          5          6
     1  H    0.547793  -0.015355   0.555139   0.019516  -0.051513  -0.071140
     2  H   -0.015355   0.541560  -0.005406   0.448453  -0.005908   0.004943
     3  C    0.555139  -0.005406   9.776713   0.179509   0.211354   0.872184
     4  C    0.019516   0.448453   0.179509   4.984172  -0.032743  -0.084392
     5  C   -0.051513  -0.005908   0.211354  -0.032743  11.323859  -1.332081
     6  C   -0.071140   0.004943   0.872184  -0.084392  -1.332081  10.324112
     7  N   -0.034250  -0.062813  -0.223511   0.328228   0.298733   0.040918
     8  H   -0.015324  -0.059118   0.030755   0.429758  -0.007036   0.008193
     9  H    0.009248  -0.019371   0.017576   0.420081  -0.008989  -0.022591
    10  C    0.011125   0.003019  -1.721528  -0.141438   0.443599  -1.600297
    11  C   -0.093321   0.009914  -2.285038  -0.138784  -1.514406  -0.049963
    12  H   -0.028159   0.001284  -0.115118   0.004234   0.009149   0.398315
    13  C   -0.005255  -0.001129  -0.165987  -0.088660  -0.025673  -0.044726
    14  C   -0.009249  -0.002538  -1.824064  -0.064452  -1.848226  -1.127182
    15  H   -0.002719   0.000514  -0.019993  -0.007352  -0.353653  -0.074819
    16  C   -0.001108  -0.001658   0.267691   0.012206  -0.446847  -1.117593
    17  H    0.000468   0.001883  -0.008081   0.010353   0.034080  -0.002726
    18  H    0.000406  -0.000409   0.001073  -0.005704   0.014514   0.000972
    19  H    0.001243  -0.003225   0.003583  -0.016219  -0.015221   0.010523
    20  H    0.003668  -0.000212  -0.017148   0.001496   0.214255   0.081032
    21  H    0.004877  -0.000194   0.074912  -0.000823  -0.001714   0.011155
    22  C   -0.005071  -0.000082   0.503794  -0.003974  -0.400006  -0.272220
    23  C    0.001394  -0.000113   0.110580   0.001056   0.003195   0.157898
    24  H   -0.001029   0.000013   0.019194  -0.000275  -0.058773  -0.004770
    25  C   -0.000900   0.000062  -0.102417  -0.000324   0.058344  -0.101231
    26  O    0.000058  -0.000002  -0.002311   0.000003  -0.000639  -0.019797
    27  C   -0.000328   0.000013  -0.047881  -0.000012   0.017779  -0.105602
    28  C    0.001024  -0.000034   0.110551   0.000157  -0.045776   0.245120
    29  C   -0.000057   0.000001  -0.005618  -0.000003   0.001507  -0.020493
    30  O    0.000000   0.000000  -0.000071   0.000000  -0.000035  -0.000636
    31  C    0.000034  -0.000001   0.010535   0.000006  -0.008744   0.039143
    32  H    0.000054  -0.000002   0.003422   0.000026  -0.000265   0.007541
    33  H   -0.000002   0.000000  -0.000118   0.000000   0.000023  -0.000378
    34  C    0.000037  -0.000001   0.003550   0.000003  -0.001612   0.015155
    35  H   -0.000002   0.000000  -0.000317  -0.000001   0.000215  -0.001083
    36  C    0.000002   0.000000   0.000072   0.000000  -0.000033   0.000339
    37  H    0.000000   0.000000   0.000001   0.000000  -0.000001  -0.000001
    38  H    0.000000   0.000000   0.000012   0.000000  -0.000011   0.000078
    39  H    0.000000   0.000000   0.000001   0.000000   0.000000   0.000003
    40  H    0.000040   0.000000   0.000972  -0.000002  -0.000322   0.003632
              7          8          9         10         11         12
     1  H   -0.034250  -0.015324   0.009248   0.011125  -0.093321  -0.028159
     2  H   -0.062813  -0.059118  -0.019371   0.003019   0.009914   0.001284
     3  C   -0.223511   0.030755   0.017576  -1.721528  -2.285038  -0.115118
     4  C    0.328228   0.429758   0.420081  -0.141438  -0.138784   0.004234
     5  C    0.298733  -0.007036  -0.008989   0.443599  -1.514406   0.009149
     6  C    0.040918   0.008193  -0.022591  -1.600297  -0.049963   0.398315
     7  N    7.099151  -0.052069  -0.032403  -0.305148  -0.023795  -0.001358
     8  H   -0.052069   0.566861  -0.025419  -0.025571   0.007265   0.001818
     9  H   -0.032403  -0.025419   0.516842   0.020956  -0.006357  -0.000377
    10  C   -0.305148  -0.025571   0.020956   8.911104  -0.709547  -0.020283
    11  C   -0.023795   0.007265  -0.006357  -0.709547   9.745237   0.062901
    12  H   -0.001358   0.001818  -0.000377  -0.020283   0.062901   0.525937
    13  C    0.307134   0.005236  -0.013929   0.078314  -0.046851  -0.000517
    14  C   -0.026569  -0.007589   0.005710   1.800637   1.229115  -0.018131
    15  H   -0.035305   0.000035   0.002688   0.396377   0.134641   0.001202
    16  C   -0.002559  -0.001162   0.002605  -0.154245  -0.015510   0.022372
    17  H   -0.053110  -0.007215   0.003378   0.020381  -0.008321  -0.000152
    18  H   -0.058736   0.002694  -0.004693   0.002790  -0.007032  -0.000421
    19  H   -0.036238   0.002045   0.007124   0.016255   0.000833  -0.000085
    20  H   -0.002332  -0.000389  -0.000538   0.071973  -0.100796  -0.005362
    21  H   -0.000572  -0.000266   0.000060   0.003501  -0.186577  -0.022947
    22  C    0.002817  -0.000119   0.000322  -0.659054  -0.746335  -0.003514
    23  C    0.000108  -0.000004   0.000039  -0.027621   0.126655   0.001671
    24  H   -0.000439   0.000097  -0.000001  -0.138115   0.044790   0.001074
    25  C   -0.000157   0.000057  -0.000049   0.204538   0.034826   0.006959
    26  O   -0.000001  -0.000001   0.000001   0.000067   0.049321   0.002183
    27  C   -0.000037   0.000007  -0.000004   0.049435   0.109819   0.002620
    28  C    0.000162  -0.000058   0.000036  -0.161464  -0.224149  -0.007235
    29  C   -0.000001   0.000001   0.000000   0.005196  -0.021079   0.000364
    30  O    0.000000   0.000000   0.000000   0.000033  -0.000091   0.000036
    31  C    0.000032  -0.000004   0.000003  -0.036556  -0.018823  -0.000367
    32  H    0.000026  -0.000007   0.000005  -0.003810  -0.016392  -0.000179
    33  H    0.000000   0.000000   0.000000   0.000121  -0.000850   0.000021
    34  C    0.000003  -0.000001   0.000001  -0.010933   0.004126  -0.000483
    35  H   -0.000001   0.000000   0.000000   0.001289   0.000377   0.000022
[...]
     5  C    0.016610  -1.372831  -0.442311  -1.439360   0.006373  -0.009175
     6  C    0.009266  -0.852856  -0.069056  -1.674327  -0.005398  -0.003219
     7  N    0.280417  -0.037307  -0.033267  -0.005829  -0.034982  -0.053659
     8  H    0.014125  -0.009419  -0.001474  -0.007442  -0.005061   0.000030
     9  H   -0.014723   0.008128   0.001721   0.005359   0.004327  -0.005372
    10  C   -0.019812   1.928476   0.312650  -0.588037   0.052483   0.015671
    11  C   -0.058340   0.485322   0.232038   0.115050  -0.016169  -0.008891
    12  H   -0.000152  -0.017059  -0.000770   0.003613   0.000132  -0.000281
    13  C    5.335443  -0.084410  -0.005643  -0.025034   0.378885   0.438983
    14  C   -0.084410  11.381717   0.089081  -0.142497  -0.004600  -0.005370
    15  H   -0.005643   0.089081   0.546838   0.075949  -0.006895  -0.017273
    16  C   -0.025034  -0.142497   0.075949  10.115061  -0.001992  -0.000041
    17  H    0.378885  -0.004600  -0.006895  -0.001992   0.552606  -0.046180
    18  H    0.438983  -0.005370  -0.017273  -0.000041  -0.046180   0.520753
    19  H    0.412952  -0.010496   0.002637  -0.002932  -0.028229  -0.021233
    20  H    0.010006   0.505020  -0.063051  -0.116789   0.003962   0.002486
    21  H    0.000384   0.084721  -0.000157   0.443669   0.000000   0.000071
    22  C    0.000451  -1.277044   0.077185   2.454022  -0.001923  -0.000983
    23  C    0.001803  -1.619785   0.019125  -2.927145  -0.000468  -0.000362
    24  H   -0.000851  -0.188008   0.017160  -0.142399  -0.000678  -0.000318
    25  C    0.000877  -0.103099   0.001317  -0.888437  -0.000159  -0.000086
    26  O   -0.000008  -0.018126   0.000212   0.001112   0.000000   0.000000
    27  C   -0.000065   0.070116  -0.000266   0.458677   0.000042  -0.000014
    28  C   -0.000121  -0.180937   0.001343  -0.602743  -0.000028   0.000038
    29  C   -0.000029  -0.014300   0.000298  -0.192931  -0.000007   0.000006
    30  O    0.000000  -0.000623  -0.000039  -0.033309   0.000000   0.000000
    31  C   -0.000003  -0.015838  -0.000129   0.090125   0.000004  -0.000001
    32  H   -0.000003  -0.005210   0.000082  -0.022035  -0.000002   0.000000
    33  H   -0.000001  -0.000206  -0.000005  -0.002647   0.000000   0.000000
    34  C    0.000017   0.014868  -0.000043   0.055666   0.000000  -0.000002
    35  H    0.000000  -0.000322  -0.000014  -0.000722   0.000000   0.000000
    36  C    0.000001   0.002212  -0.000020   0.001511   0.000000   0.000000
    37  H    0.000000   0.000006   0.000000   0.000485   0.000000   0.000000
    38  H    0.000000   0.000026   0.000000   0.000108   0.000000   0.000000
    39  H    0.000000   0.000033  -0.000001  -0.000194   0.000000   0.000000
    40  H    0.000005  -0.009177   0.000026  -0.064720  -0.000001  -0.000001
             19         20         21         22         23         24
     1  H    0.000287  -0.002104   0.001790  -0.007767   0.001978   0.000899
     2  H   -0.005165   0.000082  -0.000013  -0.000553  -0.000165  -0.000029
     3  C    0.011016  -0.043991   0.000729   0.333456   0.009264   0.024127
     4  C   -0.016039   0.000935  -0.000885  -0.008380   0.000253  -0.000229
     5  C    0.017428   0.322710   0.016808  -1.039129  -0.303876  -0.073368
     6  C    0.009471   0.088532   0.016227  -1.281785  -0.470630  -0.007141
     7  N   -0.048703   0.001943  -0.000739   0.001413   0.001275  -0.000748
     8  H    0.004739   0.000401  -0.000164  -0.000535  -0.000034  -0.000045
     9  H    0.011459  -0.000326  -0.000030   0.000333   0.000042  -0.000002
    10  C   -0.010558   0.240369   0.011474  -0.968126  -0.137819  -0.108867
    11  C   -0.001569  -0.275957  -0.093360  -1.697066  -0.699340  -0.003715
    12  H    0.000011   0.000473  -0.006606   0.008194   0.024556  -0.000929
    13  C    0.412952   0.010006   0.000384   0.000451   0.001803  -0.000851
    14  C   -0.010496   0.505020   0.084721  -1.277044  -1.619785  -0.188008
    15  H    0.002637  -0.063051  -0.000157   0.077185   0.019125   0.017160
    16  C   -0.002932  -0.116789   0.443669   2.454022  -2.927145  -0.142399
    17  H   -0.028229   0.003962   0.000000  -0.001923  -0.000468  -0.000678
    18  H   -0.021233   0.002486   0.000071  -0.000983  -0.000362  -0.000318
    19  H    0.511947   0.000194   0.000000   0.000064   0.000131   0.000025
    20  H    0.000194   0.587369   0.004039  -0.194516  -0.101660  -0.063699
    21  H    0.000000   0.004039   0.460848   0.058170  -0.155006   0.000396
    22  C    0.000064  -0.194516   0.058170  12.934100  -0.160621   0.457340
    23  C    0.000131  -0.101660  -0.155006  -0.160621  11.209115   0.194108
    24  H    0.000025  -0.063699   0.000396   0.457340   0.194108   0.609835
    25  C    0.000063  -0.020660  -0.076256  -4.497008   0.381754   0.107568
    26  O   -0.000001  -0.002371  -0.011638  -0.399486   0.562914   0.011622
    27  C    0.000000   0.005881  -0.019986  -1.098953  -0.129467   0.004082
    28  C   -0.000014  -0.014347   0.011447   2.275933   0.434610  -0.036163
    29  C   -0.000002  -0.010016   0.008010   0.488780  -0.293679   0.032614
    30  O    0.000000   0.000760   0.003528   0.080657   0.061969   0.000637
    31  C    0.000000   0.005241  -0.005469   0.336223  -0.211439  -0.029481
    32  H    0.000000  -0.001079  -0.000577  -0.031987   0.024414   0.003145
    33  H    0.000000   0.000063   0.000230   0.005751  -0.011003  -0.000783
    34  C    0.000001   0.000456  -0.005785  -0.324960   0.254915   0.009638
    35  H    0.000000   0.000212   0.000013   0.006276  -0.006784  -0.001211
    36  C    0.000000   0.000429  -0.000296  -0.079739   0.010794   0.000741
    37  H    0.000000   0.000007  -0.000027  -0.000060  -0.000032  -0.000013
    38  H    0.000000  -0.000010  -0.000005  -0.001943  -0.000128   0.000332
    39  H    0.000000   0.000029   0.000012   0.001961   0.000764  -0.000568
    40  H    0.000000  -0.000521   0.000055   0.031841   0.125362   0.004170
             25         26         27         28         29         30
     1  H   -0.000699   0.000056  -0.000173   0.000299   0.000028   0.000012
     2  H    0.000047  -0.000002   0.000004  -0.000022  -0.000001   0.000000
     3  C   -0.098687   0.003833  -0.018729   0.040182   0.001750   0.000242
     4  C   -0.000543   0.000010  -0.000103   0.000216   0.000007   0.000001
     5  C    0.014347  -0.002654   0.005309  -0.021926  -0.000863   0.000169
     6  C   -0.094833  -0.010534   0.020891  -0.027889  -0.002296  -0.000627
     7  N    0.000054   0.000001   0.000022  -0.000025  -0.000002   0.000000
     8  H    0.000062  -0.000003   0.000006  -0.000015   0.000000   0.000000
     9  H   -0.000043   0.000001  -0.000006   0.000018   0.000001   0.000000
    10  C    0.170588  -0.005926   0.055986  -0.126411  -0.014667  -0.000208
    11  C    0.288688   0.005196   0.198832  -0.333322  -0.044633   0.001323
    12  H    0.009855   0.001070   0.003312  -0.004455  -0.000729  -0.000223
    13  C    0.000877  -0.000008  -0.000065  -0.000121  -0.000029   0.000000
    14  C   -0.103099  -0.018126   0.070116  -0.180937  -0.014300  -0.000623
    15  H    0.001317   0.000212  -0.000266   0.001343   0.000298  -0.000039
    16  C   -0.888437   0.001112   0.458677  -0.602743  -0.192931  -0.033309
    17  H   -0.000159   0.000000   0.000042  -0.000028  -0.000007   0.000000
    18  H   -0.000086   0.000000  -0.000014   0.000038   0.000006   0.000000
    19  H    0.000063  -0.000001   0.000000  -0.000014  -0.000002   0.000000
    20  H   -0.020660  -0.002371   0.005881  -0.014347  -0.010016   0.000760
    21  H   -0.076256  -0.011638  -0.019986   0.011447   0.008010   0.003528
    22  C   -4.497008  -0.399486  -1.098953   2.275933   0.488780   0.080657
    23  C    0.381754   0.562914  -0.129467   0.434610  -0.293679   0.061969
    24  H    0.107568   0.011622   0.004082  -0.036163   0.032614   0.000637
    25  C   19.396627   0.235861  -0.326768  -4.846172  -2.473529   0.013822
    26  O    0.235861   7.750847   0.120685  -0.304348  -0.019620  -0.001784
    27  C   -0.326768   0.120685  21.615875 -11.518536  -8.453289   0.054999
    28  C   -4.846172  -0.304348 -11.518536  18.752066   7.056682   0.178904
    29  C   -2.473529  -0.019620  -8.453289   7.056682  22.644479  -0.134573
    30  O    0.013822  -0.001784   0.054999   0.178904  -0.134573   8.323666
    31  C   -1.552202  -0.042496   1.964838  -0.827660  -5.663428  -0.083074
    32  H    0.136452   0.000597   0.118236   0.217054  -0.056438  -0.001208
    33  H   -0.012421  -0.000470  -0.141771   0.101801   0.614334  -0.018426
    34  C   -1.021037   0.006220   3.463344  -3.794581  -7.221529   0.010238
    35  H   -0.031584  -0.000518  -0.079009   0.060229   0.133309   0.000018
    36  C    0.226075  -0.001160   0.148677  -0.200338   0.418744   0.009225
    37  H    0.014543   0.000091   0.039038  -0.035161   0.049938   0.000675
    38  H    0.005928  -0.000033   0.012472  -0.011542  -0.137550   0.000179
    39  H    0.007191   0.000045  -0.014781   0.011443  -0.059583   0.000215
    40  H   -0.019087   0.250281  -0.089060   0.057517  -0.022396  -0.008328
             31         32         33         34         35         36
     1  H    0.000007  -0.000004   0.000001  -0.000025   0.000001  -0.000001
     2  H   -0.000001   0.000000   0.000000   0.000000   0.000000   0.000000
     3  C    0.002751  -0.000089   0.000031  -0.001770   0.000033  -0.000100
     4  C    0.000010  -0.000001   0.000000  -0.000005   0.000000   0.000000
     5  C   -0.000513  -0.000573  -0.000007   0.000732   0.000025   0.000079
     6  C    0.006909  -0.001136  -0.000044  -0.002496   0.000106  -0.000405
     7  N   -0.000001   0.000002   0.000000  -0.000001   0.000000   0.000000
     8  H   -0.000001   0.000000   0.000000   0.000001   0.000000   0.000000
     9  H    0.000001   0.000000   0.000000   0.000000   0.000000   0.000000
    10  C   -0.006550  -0.001484  -0.000261   0.009597  -0.000082   0.001105
    11  C    0.018186  -0.004693  -0.000087   0.001264   0.000743  -0.000902
    12  H    0.000147   0.000008  -0.000018   0.000423  -0.000006   0.000018
    13  C   -0.000003  -0.000003  -0.000001   0.000017   0.000000   0.000001
    14  C   -0.015838  -0.005210  -0.000206   0.014868  -0.000322   0.002212
    15  H   -0.000129   0.000082  -0.000005  -0.000043  -0.000014  -0.000020
    16  C    0.090125  -0.022035  -0.002647   0.055666  -0.000722   0.001511
    17  H    0.000004  -0.000002   0.000000   0.000000   0.000000   0.000000
    18  H   -0.000001   0.000000   0.000000  -0.000002   0.000000   0.000000
    19  H    0.000000   0.000000   0.000000   0.000001   0.000000   0.000000
    20  H    0.005241  -0.001079   0.000063   0.000456   0.000212   0.000429
    21  H   -0.005469  -0.000577   0.000230  -0.005785   0.000013  -0.000296
    22  C    0.336223  -0.031987   0.005751  -0.324960   0.006276  -0.079739
    23  C   -0.211439   0.024414  -0.011003   0.254915  -0.006784   0.010794
    24  H   -0.029481   0.003145  -0.000783   0.009638  -0.001211   0.000741
    25  C   -1.552202   0.136452  -0.012421  -1.021037  -0.031584   0.226075
    26  O   -0.042496   0.000597  -0.000470   0.006220  -0.000518  -0.001160
    27  C    1.964838   0.118236  -0.141771   3.463344  -0.079009   0.148677
    28  C   -0.827660   0.217054   0.101801  -3.794581   0.060229  -0.200338
    29  C   -5.663428  -0.056438   0.614334  -7.221529   0.133309   0.418744
    30  O   -0.083074  -0.001208  -0.018426   0.010238   0.000018   0.009225
    31  C   10.030654  -0.079660  -0.020280   2.474662   0.276906  -0.545741
    32  H   -0.079660   0.544574   0.000916  -0.004590  -0.017935   0.003305
    33  H   -0.020280   0.000916   0.516373  -0.214041  -0.000442   0.001693
    34  C    2.474662  -0.004590  -0.214041  12.991040  -0.042549  -1.330957
    35  H    0.276906  -0.017935  -0.000442  -0.042549   0.520364   0.003919
    36  C   -0.545741   0.003305   0.001693  -1.330957   0.003919   6.913619
    37  H   -0.024844  -0.000005  -0.004585  -0.070607   0.001708   0.374591
    38  H    0.092036  -0.000153  -0.000504  -0.004354  -0.001991   0.402387
    39  H    0.020218   0.000824   0.001256   0.056850  -0.001757   0.330246
    40  H    0.011255   0.001585  -0.000719   0.008922  -0.000323   0.001428
             37         38         39         40
     1  H    0.000000   0.000000   0.000000  -0.000001
     2  H    0.000000   0.000000   0.000000   0.000000
     3  C    0.000000  -0.000001   0.000001  -0.000338
     4  C    0.000000   0.000000   0.000000  -0.000001
     5  C    0.000002   0.000001  -0.000003  -0.000494
     6  C    0.000012   0.000000  -0.000010  -0.002592
     7  N    0.000000   0.000000   0.000000   0.000001
     8  H    0.000000   0.000000   0.000000   0.000000
     9  H    0.000000   0.000000   0.000000   0.000000
    10  C    0.000014   0.000014  -0.000026  -0.000162
    11  C    0.000055  -0.000009  -0.000036  -0.015245
    12  H    0.000001   0.000000   0.000000   0.000010
    13  C    0.000000   0.000000   0.000000   0.000005
    14  C    0.000006   0.000026   0.000033  -0.009177
    15  H    0.000000   0.000000  -0.000001   0.000026
    16  C    0.000485   0.000108  -0.000194  -0.064720
    17  H    0.000000   0.000000   0.000000  -0.000001
    18  H    0.000000   0.000000   0.000000  -0.000001
    19  H    0.000000   0.000000   0.000000   0.000000
    20  H    0.000007  -0.000010   0.000029  -0.000521
    21  H   -0.000027  -0.000005   0.000012   0.000055
    22  C   -0.000060  -0.001943   0.001961   0.031841
    23  C   -0.000032  -0.000128   0.000764   0.125362
    24  H   -0.000013   0.000332  -0.000568   0.004170
    25  C    0.014543   0.005928   0.007191  -0.019087
    26  O    0.000091  -0.000033   0.000045   0.250281
    27  C    0.039038   0.012472  -0.014781  -0.089060
    28  C   -0.035161  -0.011542   0.011443   0.057517
    29  C    0.049938  -0.137550  -0.059583  -0.022396
    30  O    0.000675   0.000179   0.000215  -0.008328
    31  C   -0.024844   0.092036   0.020218   0.011255
    32  H   -0.000005  -0.000153   0.000824   0.001585
    33  H   -0.004585  -0.000504   0.001256  -0.000719
    34  C   -0.070607  -0.004354   0.056850   0.008922
    35  H    0.001708  -0.001991  -0.001757  -0.000323
    36  C    0.374591   0.402387   0.330246   0.001428
    37  H    0.527143  -0.020436  -0.019959   0.000045
    38  H   -0.020436   0.569955  -0.062790   0.000020
    39  H   -0.019959  -0.062790   0.563872  -0.000006
    40  H    0.000045   0.000020  -0.000006   0.384767
 Mulliken atomic charges:
              1
     1  H    0.199693
     2  H    0.196838
     3  C   -0.157759
     4  C   -0.430981
     5  C   -0.718131
     6  C   -0.297534
     7  N    0.092434
     8  H    0.169120
     9  H    0.159947
    10  C   -0.412097
    11  C    1.149925
    12  H    0.218908
    13  C   -0.431574
    14  C   -0.923410
    15  H    0.252018
    16  C    0.204287
    17  H    0.167999
    18  H    0.196061
    19  H    0.162516
    20  H    0.129500
    21  H    0.254380
    22  C   -0.479586
    23  C   -0.089704
    24  H    0.180808
    25  C    1.051596
    26  O   -0.129476
    27  C   -0.470347
    28  C   -0.313028
    29  C   -0.632891
    30  O   -0.458817
    31  C   -0.221358
    32  H    0.177667
    33  H    0.186272
    34  C    0.680478
    35  H    0.181389
    36  C   -0.691142
    37  H    0.167373
    38  H    0.157991
    39  H    0.164755
    40  H    0.355881
 Sum of Mulliken atomic charges =   0.00000
 Mulliken charges with hydrogens summed into heavy atoms:
              1
     3  C    0.041934
     4  C    0.094924
     5  C   -0.718131
     6  C   -0.078625
     7  N    0.092434
    10  C   -0.160079
    11  C    1.149925
    13  C    0.095001
    14  C   -0.793909
    16  C    0.458667
    22  C   -0.298778
    23  C   -0.089704
    25  C    1.051596
    26  O    0.226405
    27  C   -0.470347
    28  C   -0.135361
    29  C   -0.446619
    30  O   -0.458817
    31  C   -0.039970
    34  C    0.680478
    36  C   -0.201024
 Sum of Mulliken charges with hydrogens summed into heavy atoms =   0.00000
 Electronic spatial extent (au):  <R**2>=          11635.0440
 Charge=              0.0000 electrons
 Dipole moment (field-independent basis, Debye):
    X=             15.2437    Y=              0.2714    Z=              4.3009  Tot=             15.8411
 Quadrupole moment (field-independent basis, Debye-Ang):
   XX=           -100.9107   YY=           -111.6499   ZZ=           -140.6311
   XY=              5.2901   XZ=            -11.2391   YZ=             -5.4778
 Traceless Quadrupole moment (field-independent basis, Debye-Ang):
   XX=             16.8198   YY=              6.0807   ZZ=            -22.9005
   XY=              5.2901   XZ=            -11.2391   YZ=             -5.4778
 Octapole moment (field-independent basis, Debye-Ang**2):
  XXX=            474.3674  YYY=            -26.9008  ZZZ=             24.8842  XYY=             40.1752
  XXY=             45.0301  XXZ=             37.0257  XZZ=             34.2121  YZZ=             11.5144
  YYZ=             -0.3022  XYZ=             11.6948
 Hexadecapole moment (field-independent basis, Debye-Ang**3):
 XXXX=         -12051.5635 YYYY=          -1213.8305 ZZZZ=           -645.0135 XXXY=            240.3166
 XXXZ=            -22.2068 YYYX=            166.8824 YYYZ=            -12.2720 ZZZX=            -68.7483
 ZZZY=            -26.1946 XXYY=          -2334.0280 XXZZ=          -2634.9461 YYZZ=           -341.6744
 XXYZ=            -69.0085 YYXZ=            -15.2195 ZZXY=            -30.5181
 N-N= 1.472474107563D+03 E-N=-5.045014207955D+03  KE= 8.985728555254D+02
 1\1\GINC-NXN32\FOpt\RwB97XD TD-FC\6-311++G(d,p)\C18H19N1O2\ROOT\06-Nov
 -2015\0\\#wb97xd opt 6-311++g** td(nstates=1,root=1) scf(maxcycle=500,
 xqc)\\Methyl ketone substituent geometry optimization\\0,1\H,-1.225373
 4981,15.2874065023,5.2303669547\H,-2.4767754856,15.5820693094,7.344111
 884\C,-1.4825975397,16.1822984773,4.6800078332\C,-1.6162246977,16.2475
 670381,7.5087485393\C,-1.7666167996,17.3824162437,5.3563274168\C,-1.52
 15121194,16.1157051274,3.2997423025\N,-1.6997320494,17.4703543997,6.73
 87965091\H,-0.7047541478,15.6944994843,7.2657060156\H,-1.5707850246,16
 .4944757654,8.569073666\C,-2.1121624426,18.4939008768,4.5640887844\C,-
 1.8510066091,17.2215087058,2.501105554\H,-1.2928229732,15.1707618774,2
 .8167681014\C,-2.2634181014,18.6324392532,7.3917348281\C,-2.147652226,
 18.4108148414,3.184987271\H,-2.3554070237,19.4405257959,5.0273406837\C
 ,-1.871823819,17.0840983354,1.0628909535\H,-1.7496163058,19.5452323761
 ,7.0778094197\H,-3.3380638072,18.7552132746,7.1902036622\H,-2.12416934
 42,18.5379956724,8.468303747\H,-2.4186843119,19.3026688697,2.631584434
 \H,-1.6230152027,16.1042682615,0.6685910278\C,-2.1727868618,18.0756795
 354,0.1536807521\C,-2.1830224952,17.9159910536,-1.2160706086\H,-2.4206
 019282,19.0727756592,0.500571174\C,-2.5354926067,19.0072716173,-2.1521
 51149\O,-1.9499277241,16.6897000495,-1.7527065123\C,-1.4655884835,19.7
 917973428,-2.7418294505\C,-3.8479625796,19.2802511587,-2.4968576862\C,
 -1.8367688195,20.8758675495,-3.6272009696\O,-0.2738332721,19.518713327
 1,-2.5056410682\C,-4.1528276602,20.3232773099,-3.3603069733\H,-4.64607
 3693,18.6834431933,-2.0708144063\H,-1.0251358871,21.4657346647,-4.0389
 86083\C,-3.1413135892,21.1407080072,-3.9331441659\H,-5.1901930909,20.5
 300044913,-3.601506402\C,-3.536633375,22.2665920898,-4.8498498337\H,-2
 .6607205879,22.7710171328,-5.2592955674\H,-4.1395646601,21.8968162139,
 -5.6836896269\H,-4.1368687117,23.0079633214,-4.3148055175\H,-1.6537904
 457,16.7823157948,-2.6590154936\\Version=EM64L-G09RevC.01\State=1-A\HF
 =-902.3964255\RMSD=9.945e-09\RMSF=1.310e-05\Dipole=-1.5545961,0.794986
 3,-0.105171\PG=C01 [X(C18H19N1O2)]\\@


 FROM THE ASHES OF OUR DESPAIR GROW THE FLOWERS OF TOMORROW.
 Job cpu time: 18 days 11 hours 35 minutes 45.4 seconds.
 File lengths (MBytes):  RWF=    329 Int=      0 D2E=      0 Chk=     50 Scr=      1
 Normal termination of Gaussian 09 at Fri Nov  6 13:12:29 2015.
