 Entering Gaussian System, Link 0=g09
 Input=mMeO_opt.com
 Output=mMeO_opt.out
 Initial command:
 /share/apps/gaussian/g09/l1.exe /tmp/3548258.1.chemistry.q/Gau-26792.inp -scrdir=/tmp/3548258.1.chemistry.q/
 Entering Link 1 = /share/apps/gaussian/g09/l1.exe PID=     26793.
  
 Copyright (c) 1988,1990,1992,1993,1995,1998,2003,2009,2011,
            Gaussian, Inc.  All Rights Reserved.
  
 This is part of the Gaussian(R) 09 program.  It is based on
 the Gaussian(R) 03 system (copyright 2003, Gaussian, Inc.),
 the Gaussian(R) 98 system (copyright 1998, Gaussian, Inc.),
 the Gaussian(R) 94 system (copyright 1995, Gaussian, Inc.),
 the Gaussian 92(TM) system (copyright 1992, Gaussian, Inc.),
 the Gaussian 90(TM) system (copyright 1990, Gaussian, Inc.),
 the Gaussian 88(TM) system (copyright 1988, Gaussian, Inc.),
 the Gaussian 86(TM) system (copyright 1986, Carnegie Mellon
 University), and the Gaussian 82(TM) system (copyright 1983,
 Carnegie Mellon University). Gaussian is a federally registered
 trademark of Gaussian, Inc.
  
 This software contains proprietary and confidential information,
 including trade secrets, belonging to Gaussian, Inc.
  
 This software is provided under written license and may be
 used, copied, transmitted, or stored only in accord with that
 written license.
  
 The following legend is applicable only to US Government
 contracts under FAR:
  
                    RESTRICTED RIGHTS LEGEND
  
 Use, reproduction and disclosure by the US Government is
 subject to restrictions as set forth in subparagraphs (a)
 and (c) of the Commercial Computer Software - Restricted
 Rights clause in FAR 52.227-19.
  
 Gaussian, Inc.
 340 Quinnipiac St., Bldg. 40, Wallingford CT 06492
  
  
 ---------------------------------------------------------------
 Warning -- This program may not be used in any manner that
 competes with the business of Gaussian, Inc. or will provide
 assistance to any competitor of Gaussian, Inc.  The licensee
 of this program is prohibited from giving any competitor of
 Gaussian, Inc. access to this program.  By using this program,
 the user acknowledges that Gaussian, Inc. is engaged in the
 business of creating and licensing software in the field of
 computational chemistry and represents and warrants to the
 licensee that it is not a competitor of Gaussian, Inc. and that
 it will not use this program in any manner prohibited above.
 ---------------------------------------------------------------
  

 Cite this work as:
 Gaussian 09, Revision C.01,
 M. J. Frisch, G. W. Trucks, H. B. Schlegel, G. E. Scuseria, 
 M. A. Robb, J. R. Cheeseman, G. Scalmani, V. Barone, B. Mennucci, 
 G. A. Petersson, H. Nakatsuji, M. Caricato, X. Li, H. P. Hratchian, 
 A. F. Izmaylov, J. Bloino, G. Zheng, J. L. Sonnenberg, M. Hada, 
 M. Ehara, K. Toyota, R. Fukuda, J. Hasegawa, M. Ishida, T. Nakajima, 
 Y. Honda, O. Kitao, H. Nakai, T. Vreven, J. A. Montgomery, Jr., 
 J. E. Peralta, F. Ogliaro, M. Bearpark, J. J. Heyd, E. Brothers, 
 K. N. Kudin, V. N. Staroverov, T. Keith, R. Kobayashi, J. Normand, 
 K. Raghavachari, A. Rendell, J. C. Burant, S. S. Iyengar, J. Tomasi, 
 M. Cossi, N. Rega, J. M. Millam, M. Klene, J. E. Knox, J. B. Cross, 
 V. Bakken, C. Adamo, J. Jaramillo, R. Gomperts, R. E. Stratmann, 
 O. Yazyev, A. J. Austin, R. Cammi, C. Pomelli, J. W. Ochterski, 
 R. L. Martin, K. Morokuma, V. G. Zakrzewski, G. A. Voth, 
 P. Salvador, J. J. Dannenberg, S. Dapprich, A. D. Daniels, 
 O. Farkas, J. B. Foresman, J. V. Ortiz, J. Cioslowski, 
 and D. J. Fox, Gaussian, Inc., Wallingford CT, 2010.
 
 ******************************************
 Gaussian 09:  EM64L-G09RevC.01 23-Sep-2011
                21-Nov-2015 
 ******************************************
 %chk=mMeO_opt
 %mem=2GB
 %nproc=4
 Will use up to    4 processors via shared memory.
 ----------------------
 #wb97xd 6-311++g** opt
 ----------------------
 1/14=-1,18=20,19=15,26=3,38=1/1,3;
 2/9=110,12=2,17=6,18=5,40=1/2;
 3/5=4,6=6,7=1111,11=2,16=1,25=1,30=1,71=1,74=-58/1,2,3;
 4//1;
 5/5=2,38=5/2;
 6/7=2,8=2,9=2,10=2,28=1/1;
 7//1,2,3,16;
 1/14=-1,18=20,19=15/3(2);
 2/9=110/2;
 99//99;
 2/9=110/2;
 3/5=4,6=6,7=1111,11=2,16=1,25=1,30=1,71=1,74=-58/1,2,3;
 4/5=5,16=3/1;
 5/5=2,38=5/2;
 7//1,2,3,16;
 1/14=-1,18=20,19=15/3(-5);
 2/9=110/2;
 6/7=2,8=2,9=2,10=2,19=2,28=1/1;
 99/9=1/99;
 -----
 title
 -----
 Charge =  0 Multiplicity = 1
 Symbolic Z-Matrix:
 H                    -0.64615   0.9027    1.56928 
 C                    -1.38393   1.38115   3.39822 
 C                    -2.37392   2.0453    5.49812 
 C                    -1.5239    1.21173   6.23308 
 C                    -0.57967   0.48659   5.49586 
 C                    -0.52709   0.58418   4.13996 
 H                     0.11945   0.09217   3.68724 
 C                    -2.57276   1.91247   8.33862 
 H                    -2.53962   2.83143   8.06541 
 H                    -2.37388   1.85012   9.27568 
 H                    -3.45149   1.56142   8.17492 
 C                    -0.74238   0.25075   8.3375 
 H                    -0.93189   0.3375    9.27455 
 H                     0.17656   0.47439   8.17492 
 N                    -1.59926   1.14802   7.5856 
 C                    -1.31079   1.42046   1.96216 
 C                    -2.29599   2.11307   4.13431 
 H                    -3.00439   2.56171   5.94519 
 H                     0.01891  -0.07048   5.93955 
 H                    -0.90577  -0.65466   8.05977 
 C                    -2.08309   2.11036   1.13462 
 H                    -2.88191   2.67556   3.68159 
 C                    -1.9103    2.07376  -0.30708 
 H                    -2.76236   2.63761   1.49138 
 C                    -2.78015   2.86396  -1.17414 
 O                    -1.00673   1.36502  -0.81738 
 C                    -2.65167   2.76637  -2.56165 
 C                    -3.7628    3.72193  -0.70561 
 C                    -3.44676   3.49287  -3.42532 
 O                    -1.70751   1.97617  -3.12275 
 C                    -4.55237   4.443    -1.54557 
 H                    -3.88669   3.80732   0.21225 
 H                    -3.3375    3.41832  -4.34656 
 C                    -4.39616   4.32237  -2.90486 
 H                    -1.28501   1.59531  -2.5323 
 H                    -5.1969    5.01769  -1.20123 
 O                    -5.22474   5.09359  -3.6624 
 C                    -5.03992   5.10308  -5.06685 
 H                    -5.11891   4.20852  -5.40554 
 H                    -5.70802   5.6588   -5.47328 
 H                    -4.16791   5.44735  -5.27232 
 

 GradGradGradGradGradGradGradGradGradGradGradGradGradGradGradGradGradGrad
 Berny optimization.
 Initialization pass.
                           ----------------------------
                           !    Initial Parameters    !
                           ! (Angstroms and Degrees)  !
 --------------------------                            --------------------------
 ! Name  Definition              Value          Derivative Info.                !
 --------------------------------------------------------------------------------
 ! R1    R(1,16)                 0.9296         estimate D2E/DX2                !
 ! R2    R(2,6)                  1.3855         estimate D2E/DX2                !
 ! R3    R(2,16)                 1.4385         estimate D2E/DX2                !
 ! R4    R(2,17)                 1.3818         estimate D2E/DX2                !
 ! R5    R(3,4)                  1.3991         estimate D2E/DX2                !
 ! R6    R(3,17)                 1.3677         estimate D2E/DX2                !
 ! R7    R(3,18)                 0.9295         estimate D2E/DX2                !
 ! R8    R(4,5)                  1.4003         estimate D2E/DX2                !
 ! R9    R(4,15)                 1.3561         estimate D2E/DX2                !
 ! R10   R(5,6)                  1.3604         estimate D2E/DX2                !
 ! R11   R(5,19)                 0.9303         estimate D2E/DX2                !
 ! R12   R(6,7)                  0.9301         estimate D2E/DX2                !
 ! R13   R(8,9)                  0.9593         estimate D2E/DX2                !
 ! R14   R(8,10)                 0.96           estimate D2E/DX2                !
 ! R15   R(8,11)                 0.9603         estimate D2E/DX2                !
 ! R16   R(8,15)                 1.4488         estimate D2E/DX2                !
 ! R17   R(12,13)                0.96           estimate D2E/DX2                !
 ! R18   R(12,14)                0.9596         estimate D2E/DX2                !
 ! R19   R(12,15)                1.4508         estimate D2E/DX2                !
 ! R20   R(12,20)                0.961          estimate D2E/DX2                !
 ! R21   R(16,21)                1.3256         estimate D2E/DX2                !
 ! R22   R(17,22)                0.9299         estimate D2E/DX2                !
 ! R23   R(21,23)                1.4525         estimate D2E/DX2                !
 ! R24   R(21,24)                0.9309         estimate D2E/DX2                !
 ! R25   R(23,25)                1.4604         estimate D2E/DX2                !
 ! R26   R(23,26)                1.2566         estimate D2E/DX2                !
 ! R27   R(25,27)                1.3969         estimate D2E/DX2                !
 ! R28   R(25,28)                1.3861         estimate D2E/DX2                !
 ! R29   R(27,29)                1.3805         estimate D2E/DX2                !
 ! R30   R(27,30)                1.353          estimate D2E/DX2                !
 ! R31   R(28,31)                1.3597         estimate D2E/DX2                !
 ! R32   R(28,32)                0.9301         estimate D2E/DX2                !
 ! R33   R(29,33)                0.9307         estimate D2E/DX2                !
 ! R34   R(29,34)                1.3639         estimate D2E/DX2                !
 ! R35   R(30,35)                0.8199         estimate D2E/DX2                !
 ! R36   R(31,34)                1.3735         estimate D2E/DX2                !
 ! R37   R(31,36)                0.9297         estimate D2E/DX2                !
 ! R38   R(34,37)                1.3621         estimate D2E/DX2                !
 ! R39   R(37,38)                1.4166         estimate D2E/DX2                !
 ! R40   R(38,39)                0.9598         estimate D2E/DX2                !
 ! R41   R(38,40)                0.9594         estimate D2E/DX2                !
 ! R42   R(38,41)                0.9598         estimate D2E/DX2                !
 ! A1    A(6,2,16)             121.2482         estimate D2E/DX2                !
 ! A2    A(6,2,17)             115.3221         estimate D2E/DX2                !
 ! A3    A(16,2,17)            123.4292         estimate D2E/DX2                !
 ! A4    A(4,3,17)             121.2456         estimate D2E/DX2                !
 ! A5    A(4,3,18)             119.3671         estimate D2E/DX2                !
 ! A6    A(17,3,18)            119.3872         estimate D2E/DX2                !
 ! A7    A(3,4,5)              116.2075         estimate D2E/DX2                !
 ! A8    A(3,4,15)             121.2072         estimate D2E/DX2                !
 ! A9    A(5,4,15)             122.5625         estimate D2E/DX2                !
 ! A10   A(4,5,6)              120.9062         estimate D2E/DX2                !
 ! A11   A(4,5,19)             119.5279         estimate D2E/DX2                !
 ! A12   A(6,5,19)             119.5658         estimate D2E/DX2                !
 ! A13   A(2,6,5)              123.4321         estimate D2E/DX2                !
 ! A14   A(2,6,7)              118.2694         estimate D2E/DX2                !
 ! A15   A(5,6,7)              118.2982         estimate D2E/DX2                !
 ! A16   A(9,8,10)             109.4555         estimate D2E/DX2                !
 ! A17   A(9,8,11)             109.4663         estimate D2E/DX2                !
 ! A18   A(9,8,15)             109.5242         estimate D2E/DX2                !
 ! A19   A(10,8,11)            109.4045         estimate D2E/DX2                !
 ! A20   A(10,8,15)            109.5039         estimate D2E/DX2                !
 ! A21   A(11,8,15)            109.4729         estimate D2E/DX2                !
 ! A22   A(13,12,14)           109.4727         estimate D2E/DX2                !
 ! A23   A(13,12,15)           109.4767         estimate D2E/DX2                !
 ! A24   A(13,12,20)           109.4913         estimate D2E/DX2                !
 ! A25   A(14,12,15)           109.4908         estimate D2E/DX2                !
 ! A26   A(14,12,20)           109.4759         estimate D2E/DX2                !
 ! A27   A(15,12,20)           109.4199         estimate D2E/DX2                !
 ! A28   A(4,15,8)             122.0677         estimate D2E/DX2                !
 ! A29   A(4,15,12)            120.873          estimate D2E/DX2                !
 ! A30   A(8,15,12)            116.9891         estimate D2E/DX2                !
 ! A31   A(1,16,2)             116.2996         estimate D2E/DX2                !
 ! A32   A(1,16,21)            116.268          estimate D2E/DX2                !
 ! A33   A(2,16,21)            127.4324         estimate D2E/DX2                !
 ! A34   A(2,17,3)             122.857          estimate D2E/DX2                !
 ! A35   A(2,17,22)            118.4872         estimate D2E/DX2                !
 ! A36   A(3,17,22)            118.6558         estimate D2E/DX2                !
 ! A37   A(16,21,23)           122.4942         estimate D2E/DX2                !
 ! A38   A(16,21,24)           118.7257         estimate D2E/DX2                !
 ! A39   A(23,21,24)           118.7801         estimate D2E/DX2                !
 ! A40   A(21,23,25)           120.3182         estimate D2E/DX2                !
 ! A41   A(21,23,26)           120.1868         estimate D2E/DX2                !
 ! A42   A(25,23,26)           119.4945         estimate D2E/DX2                !
 ! A43   A(23,25,27)           119.8112         estimate D2E/DX2                !
 ! A44   A(23,25,28)           123.8135         estimate D2E/DX2                !
 ! A45   A(27,25,28)           116.3727         estimate D2E/DX2                !
 ! A46   A(25,27,29)           122.1191         estimate D2E/DX2                !
 ! A47   A(25,27,30)           121.1251         estimate D2E/DX2                !
 ! A48   A(29,27,30)           116.7299         estimate D2E/DX2                !
 ! A49   A(25,28,31)           122.0803         estimate D2E/DX2                !
 ! A50   A(25,28,32)           119.0009         estimate D2E/DX2                !
 ! A51   A(31,28,32)           118.9189         estimate D2E/DX2                !
 ! A52   A(27,29,33)           120.6299         estimate D2E/DX2                !
 ! A53   A(27,29,34)           118.8298         estimate D2E/DX2                !
 ! A54   A(33,29,34)           120.5403         estimate D2E/DX2                !
 ! A55   A(27,30,35)           109.4051         estimate D2E/DX2                !
 ! A56   A(28,31,34)           119.9148         estimate D2E/DX2                !
 ! A57   A(28,31,36)           120.1058         estimate D2E/DX2                !
 ! A58   A(34,31,36)           119.9793         estimate D2E/DX2                !
 ! A59   A(29,34,31)           120.6773         estimate D2E/DX2                !
 ! A60   A(29,34,37)           123.7501         estimate D2E/DX2                !
 ! A61   A(31,34,37)           115.5622         estimate D2E/DX2                !
 ! A62   A(34,37,38)           118.4135         estimate D2E/DX2                !
 ! A63   A(37,38,39)           109.4435         estimate D2E/DX2                !
 ! A64   A(37,38,40)           109.4532         estimate D2E/DX2                !
 ! A65   A(37,38,41)           109.4631         estimate D2E/DX2                !
 ! A66   A(39,38,40)           109.4554         estimate D2E/DX2                !
 ! A67   A(39,38,41)           109.485          estimate D2E/DX2                !
 ! A68   A(40,38,41)           109.527          estimate D2E/DX2                !
 ! D1    D(16,2,6,5)          -178.2429         estimate D2E/DX2                !
 ! D2    D(16,2,6,7)             1.9451         estimate D2E/DX2                !
 ! D3    D(17,2,6,5)             1.5082         estimate D2E/DX2                !
 ! D4    D(17,2,6,7)          -178.3039         estimate D2E/DX2                !
 ! D5    D(6,2,16,1)            -1.6134         estimate D2E/DX2                !
 ! D6    D(6,2,16,21)          178.3651         estimate D2E/DX2                !
 ! D7    D(17,2,16,1)          178.6563         estimate D2E/DX2                !
 ! D8    D(17,2,16,21)          -1.3653         estimate D2E/DX2                !
 ! D9    D(6,2,17,3)            -1.1693         estimate D2E/DX2                !
 ! D10   D(6,2,17,22)          178.8526         estimate D2E/DX2                !
 ! D11   D(16,2,17,3)          178.5757         estimate D2E/DX2                !
 ! D12   D(16,2,17,22)          -1.4025         estimate D2E/DX2                !
 ! D13   D(17,3,4,5)             1.5019         estimate D2E/DX2                !
 ! D14   D(17,3,4,15)          179.8082         estimate D2E/DX2                !
 ! D15   D(18,3,4,5)          -178.5978         estimate D2E/DX2                !
 ! D16   D(18,3,4,15)           -0.2915         estimate D2E/DX2                !
 ! D17   D(4,3,17,2)            -0.3259         estimate D2E/DX2                !
 ! D18   D(4,3,17,22)          179.6522         estimate D2E/DX2                !
 ! D19   D(18,3,17,2)          179.7738         estimate D2E/DX2                !
 ! D20   D(18,3,17,22)          -0.2481         estimate D2E/DX2                !
 ! D21   D(3,4,5,6)             -1.1793         estimate D2E/DX2                !
 ! D22   D(3,4,5,19)           178.9166         estimate D2E/DX2                !
 ! D23   D(15,4,5,6)          -179.4605         estimate D2E/DX2                !
 ! D24   D(15,4,5,19)            0.6354         estimate D2E/DX2                !
 ! D25   D(3,4,15,8)             1.2276         estimate D2E/DX2                !
 ! D26   D(3,4,15,12)          178.0892         estimate D2E/DX2                !
 ! D27   D(5,4,15,8)           179.4246         estimate D2E/DX2                !
 ! D28   D(5,4,15,12)           -3.7138         estimate D2E/DX2                !
 ! D29   D(4,5,6,2)             -0.3421         estimate D2E/DX2                !
 ! D30   D(4,5,6,7)            179.4699         estimate D2E/DX2                !
 ! D31   D(19,5,6,2)           179.562          estimate D2E/DX2                !
 ! D32   D(19,5,6,7)            -0.6259         estimate D2E/DX2                !
 ! D33   D(9,8,15,4)           -50.465          estimate D2E/DX2                !
 ! D34   D(9,8,15,12)          132.5578         estimate D2E/DX2                !
 ! D35   D(10,8,15,4)         -170.4982         estimate D2E/DX2                !
 ! D36   D(10,8,15,12)          12.5246         estimate D2E/DX2                !
 ! D37   D(11,8,15,4)           69.5625         estimate D2E/DX2                !
 ! D38   D(11,8,15,12)        -107.4147         estimate D2E/DX2                !
 ! D39   D(13,12,15,4)        -179.9645         estimate D2E/DX2                !
 ! D40   D(13,12,15,8)          -2.9489         estimate D2E/DX2                !
 ! D41   D(14,12,15,4)          60.0184         estimate D2E/DX2                !
 ! D42   D(14,12,15,8)        -122.9661         estimate D2E/DX2                !
 ! D43   D(20,12,15,4)         -59.968          estimate D2E/DX2                !
 ! D44   D(20,12,15,8)         117.0476         estimate D2E/DX2                !
 ! D45   D(1,16,21,23)          -0.2148         estimate D2E/DX2                !
 ! D46   D(1,16,21,24)         179.7299         estimate D2E/DX2                !
 ! D47   D(2,16,21,23)         179.8068         estimate D2E/DX2                !
 ! D48   D(2,16,21,24)          -0.2486         estimate D2E/DX2                !
 ! D49   D(16,21,23,25)       -179.3717         estimate D2E/DX2                !
 ! D50   D(16,21,23,26)          0.3516         estimate D2E/DX2                !
 ! D51   D(24,21,23,25)          0.6836         estimate D2E/DX2                !
 ! D52   D(24,21,23,26)       -179.593          estimate D2E/DX2                !
 ! D53   D(21,23,25,27)       -176.594          estimate D2E/DX2                !
 ! D54   D(21,23,25,28)          2.7972         estimate D2E/DX2                !
 ! D55   D(26,23,25,27)          3.6807         estimate D2E/DX2                !
 ! D56   D(26,23,25,28)       -176.928          estimate D2E/DX2                !
 ! D57   D(23,25,27,29)       -179.8788         estimate D2E/DX2                !
 ! D58   D(23,25,27,30)         -1.7889         estimate D2E/DX2                !
 ! D59   D(28,25,27,29)          0.6858         estimate D2E/DX2                !
 ! D60   D(28,25,27,30)        178.7756         estimate D2E/DX2                !
 ! D61   D(23,25,28,31)        179.9053         estimate D2E/DX2                !
 ! D62   D(23,25,28,32)         -0.1158         estimate D2E/DX2                !
 ! D63   D(27,25,28,31)         -0.6842         estimate D2E/DX2                !
 ! D64   D(27,25,28,32)        179.2946         estimate D2E/DX2                !
 ! D65   D(25,27,29,33)        179.3723         estimate D2E/DX2                !
 ! D66   D(25,27,29,34)         -0.6369         estimate D2E/DX2                !
 ! D67   D(30,27,29,33)          1.2031         estimate D2E/DX2                !
 ! D68   D(30,27,29,34)       -178.8061         estimate D2E/DX2                !
 ! D69   D(25,27,30,35)          1.1838         estimate D2E/DX2                !
 ! D70   D(29,27,30,35)        179.3725         estimate D2E/DX2                !
 ! D71   D(25,28,31,34)          0.638          estimate D2E/DX2                !
 ! D72   D(25,28,31,36)       -179.3119         estimate D2E/DX2                !
 ! D73   D(32,28,31,34)       -179.3409         estimate D2E/DX2                !
 ! D74   D(32,28,31,36)          0.7092         estimate D2E/DX2                !
 ! D75   D(27,29,34,31)          0.556          estimate D2E/DX2                !
 ! D76   D(27,29,34,37)        179.3337         estimate D2E/DX2                !
 ! D77   D(33,29,34,31)       -179.4532         estimate D2E/DX2                !
 ! D78   D(33,29,34,37)         -0.6755         estimate D2E/DX2                !
 ! D79   D(28,31,34,29)         -0.5608         estimate D2E/DX2                !
 ! D80   D(28,31,34,37)       -179.4343         estimate D2E/DX2                !
 ! D81   D(36,31,34,29)        179.3891         estimate D2E/DX2                !
 ! D82   D(36,31,34,37)          0.5157         estimate D2E/DX2                !
 ! D83   D(29,34,37,38)         -4.1181         estimate D2E/DX2                !
 ! D84   D(31,34,37,38)        174.7166         estimate D2E/DX2                !
 ! D85   D(34,37,38,39)         57.976          estimate D2E/DX2                !
 ! D86   D(34,37,38,40)        177.9286         estimate D2E/DX2                !
 ! D87   D(34,37,38,41)        -62.019          estimate D2E/DX2                !
 --------------------------------------------------------------------------------
 Trust Radius=3.00D-01 FncErr=1.00D-07 GrdErr=1.00D-06
 Number of steps in this run=    207 maximum allowed number of steps=    246.
 GradGradGradGradGradGradGradGradGradGradGradGradGradGradGradGradGradGrad

                          Input orientation:                          
 ---------------------------------------------------------------------
 Center     Atomic      Atomic             Coordinates (Angstroms)
 Number     Number       Type             X           Y           Z
 ---------------------------------------------------------------------
      1          1           0       -0.646150    0.902696    1.569278
      2          6           0       -1.383932    1.381153    3.398221
      3          6           0       -2.373920    2.045299    5.498118
      4          6           0       -1.523896    1.211728    6.233082
      5          6           0       -0.579671    0.486589    5.495860
      6          6           0       -0.527088    0.584177    4.139959
      7          1           0        0.119446    0.092167    3.687239
      8          6           0       -2.572763    1.912469    8.338624
      9          1           0       -2.539622    2.831431    8.065412
     10          1           0       -2.373883    1.850121    9.275676
     11          1           0       -3.451490    1.561421    8.174923
     12          6           0       -0.742377    0.250749    8.337495
     13          1           0       -0.931889    0.337495    9.274547
     14          1           0        0.176555    0.474390    8.174923
     15          7           0       -1.599257    1.148024    7.585596
     16          6           0       -1.310786    1.420459    1.962162
     17          6           0       -2.295992    2.113069    4.134314
     18          1           0       -3.004388    2.561706    5.945193
     19          1           0        0.018905   -0.070481    5.939548
     20          1           0       -0.905771   -0.654658    8.059767
     21          6           0       -2.083094    2.110358    1.134622
     22          1           0       -2.881914    2.675560    3.681594
     23          6           0       -1.910295    2.073762   -0.307081
     24          1           0       -2.762355    2.637608    1.491379
     25          6           0       -2.780149    2.863960   -1.174136
     26          8           0       -1.006734    1.365023   -0.817379
     27          6           0       -2.651673    2.766371   -2.561648
     28          6           0       -3.762801    3.721928   -0.705610
     29          6           0       -3.446759    3.492866   -3.425317
     30          8           0       -1.707514    1.976173   -3.122750
     31          6           0       -4.552368    4.443001   -1.545569
     32          1           0       -3.886685    3.807319    0.212248
     33          1           0       -3.337499    3.418319   -4.346561
     34          6           0       -4.396157    4.322371   -2.904858
     35          1           0       -1.285009    1.595306   -2.532296
     36          1           0       -5.196900    5.017691   -1.201232
     37          8           0       -5.224741    5.093593   -3.662402
     38          6           0       -5.039918    5.103081   -5.066848
     39          1           0       -5.118914    4.208517   -5.405542
     40          1           0       -5.708024    5.658795   -5.473280
     41          1           0       -4.167915    5.447352   -5.272323
 ---------------------------------------------------------------------
                    Distance matrix (angstroms):
                    1          2          3          4          5
     1  H    0.000000
     2  C    2.029354   0.000000
     3  C    4.441454   2.414691   0.000000
     4  C    4.755734   2.843366   1.399126   0.000000
     5  C    3.949128   2.418092   2.376744   1.400316   0.000000
     6  C    2.593074   1.385470   2.718504   2.401793   1.360425
     7  H    2.393502   2.001290   3.648408   3.230372   1.978748
     8  C    7.110241   5.109129   2.850554   2.454479   3.753246
     9  H    7.035980   5.022111   2.690067   2.648126   3.992780
    10  H    7.954322   5.978663   3.782597   3.222949   4.400616
    11  H    7.206830   5.208087   2.925847   2.758378   4.071853
    12  C    6.800225   5.107429   3.734221   2.441886   2.856043
    13  H    7.731253   5.985380   4.388333   3.219513   3.797994
    14  H    6.670445   5.106292   4.017208   2.684390   2.783775
    15  N    6.096284   4.199384   2.400577   1.356109   2.417447
    16  C    0.929611   1.438458   3.744818   4.281325   3.727421
    17  C    3.281218   1.381806   1.367709   2.411094   2.728553
    18  H    5.240442   3.241396   0.929539   2.024149   3.222928
    19  H    4.526437   3.245541   3.224437   2.027426   0.930311
    20  H    6.679761   5.109127   4.000909   2.683701   2.825315
    21  C    1.926702   2.478800   4.373661   5.207162   4.890532
    22  H    3.550150   1.999935   1.988730   3.239924   3.658344
    23  C    2.547583   3.806052   5.823753   6.608036   6.161477
    24  H    2.737574   2.667354   4.068866   5.103985   5.042505
    25  C    3.990843   5.005456   6.734553   7.692524   7.415042
    26  O    2.457621   4.232472   6.497498   7.071065   6.388350
    27  C    4.955800   6.248683   8.096723   9.002004   8.626357
    28  C    4.778776   5.289582   6.574672   7.710982   7.684918
    29  C    6.284773   7.434733   9.103523  10.108692   9.841001
    30  O    4.928892   6.556052   8.646863   9.388806   8.818805
    31  C    6.123281   6.622308   7.752944   8.950988   9.000958
    32  H    4.558446   4.722338   5.773525   6.969240   7.062588
    33  H    6.969137   8.243065   9.986560  10.958424  10.633622
    34  C    6.765695   7.579780   8.937813  10.071143   9.992540
    35  H    4.208415   5.935207   8.116389   8.777018   8.134989
    36  H    6.731882   6.994148   7.854019   9.123888   9.311323
    37  O    8.117733   8.853611  10.066499  11.255476  11.254996
    38  C    8.999256   9.943660  11.317070  12.457667  12.360283
    39  H    8.920885   9.972478  11.450079  12.544420  12.381359
    40  H    9.891444  10.756371  12.022694  13.203115  13.167147
    41  H    8.936679   9.973107  11.436555  12.542157  12.387027
                    6          7          8          9         10
     6  C    0.000000
     7  H    0.930073   0.000000
     8  C    4.855711   5.674229   0.000000
     9  H    4.950720   5.808839   0.959288   0.000000
    10  H    5.602576   6.366924   0.959952   1.566901   0.000000
    11  H    5.078195   5.920270   0.960309   1.567297   1.567240
    12  C    4.216258   4.732100   2.472171   3.156587   2.469815
    13  H    5.156424   5.690650   2.459464   3.204143   2.089829
    14  H    4.097329   4.504294   3.107027   3.597951   3.099843
    15  N    3.652381   4.389301   1.448841   1.987050   1.987299
    16  C    2.460965   2.604959   6.518737   6.383615   7.402856
    17  C    2.338068   3.180922   4.218183   4.003615   5.148671
    18  H    3.647808   4.577698   2.517205   2.187256   3.463525
    19  H    1.991283   2.260411   4.050234   4.414346   4.532538
    20  H    4.128318   4.552781   3.073559   3.849976   3.147651
    21  C    3.712470   3.929393   7.223336   6.983138   8.150401
    22  H    3.182638   3.960065   4.729251   4.399923   5.677429
    23  C    4.889610   4.899098   8.672548   8.430229   9.596570
    24  H    4.028396   4.427849   6.888145   6.580660   7.833666
    25  C    6.205908   6.302655   9.562476   9.242735  10.506736
    26  O    5.041327   4.814564   9.305081   9.132583  10.196773
    27  C    7.361207   7.340235  10.933952  10.627850  11.875981
    28  C    6.617768   6.895225   9.299919   8.900561  10.249821
    29  C    8.615007   8.652804  11.901757  11.545443  12.851650
    30  O    7.488525   7.298165  11.494164  11.251615  12.416960
    31  C    7.963582   8.254567  10.393253   9.950842  11.338790
    32  H    6.091178   6.475106   8.447179   8.027398   9.394941
    33  H    9.378262   9.357120  12.797122  12.451430  13.746023
    34  C    8.864155   9.041075  11.642520  11.225705  12.592340
    35  H    6.790862   6.550919  10.951521  10.743066  11.860809
    36  H    8.366093   8.741937  10.370022   9.884915  11.303474
    37  O   10.162658  10.372648  12.695557  12.242094  13.639698
    38  C   11.204973  11.329710  13.999055  13.559798  14.946487
    39  H   11.195414  11.272241  14.165339  13.784619  15.120694
    40  H   12.041935  12.200896  14.650376  14.189043  15.593402
    41  H   11.202551  11.284202  14.152660  13.689030  15.093141
                   11         12         13         14         15
    11  H    0.000000
    12  C    3.013898   0.000000
    13  H    3.009245   0.959951   0.000000
    14  H    3.787393   0.959625   1.567342   0.000000
    15  N    1.987202   1.450758   1.988691   1.988617   0.000000
    16  C    6.572738   6.506626   7.401848   6.457990   5.637415
    17  C    4.238633   4.852699   5.606731   5.012512   3.650767
    18  H    2.484384   4.022477   4.508544   4.409873   2.581436
    19  H    4.438879   2.536314   3.491801   2.306218   2.610110
    20  H    3.377122   0.961037   1.568675   1.568260   1.988825
    21  C    7.193030   7.558905   8.409916   7.572862   6.540279
    22  H    4.664304   5.668751   6.367909   5.864247   4.384040
    23  C    8.636097   8.911571   9.786700   8.880165   7.952867
    24  H    6.804619   7.526401   8.319785   7.614884   6.380528
    25  C    9.463203  10.072364  10.907523  10.092425   9.003991
    26  O    9.320778   9.226224  10.144377   9.113446   8.426634
    27  C   10.833539  11.347470  12.204614  11.336931  10.329239
    28  C    9.144866  10.146418  10.912011  10.243481   8.947067
    29  C   11.759935  12.497550  13.325445  12.522187  11.408407
    30  O   11.439007  11.629522  12.529159  11.551731  10.740867
    31  C   10.198206  11.391486  12.125921  11.515231  10.146719
    32  H    8.284784   9.410393  10.143755   9.540573   8.165197
    33  H   12.658935  13.328670  14.170851  13.334274  12.269967
    34  C   11.457608  12.502748  13.274724  12.588812  11.311443
    35  H   10.924254  10.966068  11.878902  10.864491  10.132648
    36  H   10.144188  11.556549  12.240772  11.722964  10.253083
    37  O   12.479700  13.694607  14.436540  13.807002  12.459097
    38  C   13.798948  14.889271  15.660853  14.965990  13.695436
    39  H   13.936156  14.956238  15.748683  15.047084  13.803053
    40  H   14.427538  15.641040  16.389817  15.741022  14.413995
    41  H   14.015782  14.965498  15.754172  14.981095  13.798852
                   16         17         18         19         20
    16  C    0.000000
    17  C    2.483663   0.000000
    18  H    4.476077   1.995591   0.000000
    19  H    4.450908   3.658621   4.008583   0.000000
    20  H    6.453754   5.000221   4.384132   2.385711   0.000000
    21  C    1.325610   3.007239   4.918749   5.679945   7.549108
    22  H    2.645783   0.929869   2.269767   4.588447   5.844989
    23  C    2.436325   4.458284   6.366008   6.880404   8.857623
    24  H    1.951958   2.734546   4.461031   5.903843   7.578235
    25  C    3.752211   5.383111   7.129270   8.188415  10.057780
    26  O    2.796671   5.171172   7.152276   6.983457   9.104561
    27  C    4.906558   6.737152   8.516610   9.351473  11.294515
    28  C    4.292569   5.307054   6.793709   8.534740  10.205340
    29  C    6.154850   7.770208   9.427047  10.602309  12.472599
    30  O    5.130550   7.282172   9.178906   9.449580  11.515761
    31  C    5.652238   6.540710   7.876994   9.863824  11.469363
    32  H    3.923590   4.558880   5.932677   7.943106   9.506768
    33  H    6.920910   8.643706  10.332713  11.368430  13.282297
    34  C    6.452015   7.670831   9.130190  10.817275  12.537010
    35  H    4.497932   6.762681   8.703908   8.731963  10.835034
    36  H    6.168389   6.732024   7.868314  10.202199  11.677133
    37  O    7.774746   8.845896  10.180683  12.097972  13.751550
    38  C    8.767845  10.056375  11.483336  13.171871  14.918135
    39  H    8.749752  10.167037  11.662864  13.168830  14.923659
    40  H    9.622110  10.794443  12.136026  13.995534  15.686449
    41  H    8.758814  10.154130  11.641023  13.178846  15.020677
                   21         22         23         24         25
    21  C    0.000000
    22  H    2.728485   0.000000
    23  C    1.452483   4.149185   0.000000
    24  H    0.930948   2.193804   2.068426   0.000000
    25  C    2.526691   4.860449   1.460426   2.675168   0.000000
    26  O    2.350401   5.047233   1.256637   3.167340   2.349274
    27  C    3.796847   6.248146   2.472331   4.056582   1.396860
    28  C    2.967327   4.595477   2.511385   2.646394   1.386085
    29  C    4.956204   7.176017   3.754727   5.037239   2.430578
    30  O    4.276012   6.940278   2.824648   4.779160   2.394955
    31  C    4.326888   5.765197   3.758683   3.960637   2.402518
    32  H    2.642611   3.785077   2.679746   2.066039   2.009082
    33  H    5.773011   8.075303   4.490228   5.917926   3.268369
    34  C    5.153704   6.956024   4.240778   4.983436   2.780979
    35  H    3.787942   6.506111   2.360399   4.411225   2.385273
    36  H    4.858455   5.889544   4.501999   4.340732   3.237279
    37  O    6.463828   8.078985   5.600278   6.217448   4.139899
    38  C    7.493826   9.331939   6.451875   7.367238   5.027268
    39  H    7.509475   9.483152   6.391144   7.455779   5.018212
    40  H    8.330420  10.034855   7.346075   8.143157   5.904760
    41  H    7.518707   9.460933   6.413391   7.457743   5.039340
                   26         27         28         29         30
    26  O    0.000000
    27  C    2.777062   0.000000
    28  C    3.628140   2.364862   0.000000
    29  C    4.157256   1.380536   2.747573   0.000000
    30  O    2.485826   1.353028   3.621385   2.327419   0.000000
    31  C    4.751392   2.730594   1.359740   2.378777   4.082393
    32  H    3.913957   3.209879   0.930109   3.677539   4.384529
    33  H    4.701448   2.020225   3.678258   0.930691   2.496868
    34  C    4.958998   2.362658   2.366086   1.363933   3.575042
    35  H    1.752543   1.800007   3.741491   3.011874   0.819882
    36  H    5.571967   3.660240   1.995315   3.214753   5.011874
    37  O    6.307771   3.639821   3.572304   2.404112   4.730795
    38  C    6.949650   4.176117   4.749632   2.797422   4.966084
    39  H    6.785774   4.031724   4.915808   2.688782   4.672489
    40  H    7.887713   5.117128   5.501456   3.741486   5.923747
    41  H    6.819458   4.102975   4.898579   2.784154   4.766898
                   31         32         33         34         35
    31  C    0.000000
    32  H    1.984224   0.000000
    33  H    3.220471   4.608217   0.000000
    34  C    1.373543   3.200186   2.004139   0.000000
    35  H    4.445068   4.381123   3.290539   4.153905   0.000000
    36  H    0.929655   2.275871   3.988541   2.006739   5.365384
    37  O    2.314376   4.296255   2.614632   1.362060   5.388566
    38  C    3.615635   5.556780   2.501093   2.387077   5.729553
    39  H    3.908369   5.765320   2.217948   2.605525   5.457402
    40  H    4.270903   6.250637   3.450886   3.178650   6.687630
    41  H    3.878817   5.731432   2.379832   2.631077   5.536890
                   36         37         38         39         40
    36  H    0.000000
    37  O    2.462498   0.000000
    38  C    3.869744   1.416587   0.000000
    39  H    4.282180   1.957829   0.959791   0.000000
    40  H    4.350018   1.957625   0.959359   1.566827   0.000000
    41  H    4.221043   1.958028   0.959756   1.567437   1.567491
                   41
    41  H    0.000000
 Stoichiometry    C18H19NO3
 Framework group  C1[X(C18H19NO3)]
 Deg. of freedom   117
 Full point group                 C1      NOp   1
 Largest Abelian subgroup         C1      NOp   1
 Largest concise Abelian subgroup C1      NOp   1
                         Standard orientation:                         
 ---------------------------------------------------------------------
 Center     Atomic      Atomic             Coordinates (Angstroms)
 Number     Number       Type             X           Y           Z
 ---------------------------------------------------------------------
      1          1           0       -0.913916    2.132797   -0.067347
      2          6           0       -2.335763    0.684875   -0.055142
      3          6           0       -3.905644   -1.149739   -0.035289
      4          6           0       -5.007013   -0.287685    0.002170
      5          6           0       -4.720615    1.082857   -0.019613
      6          6           0       -3.435351    1.527734   -0.050240
      7          1           0       -3.286882    2.445632   -0.071551
      8          6           0       -6.559221   -2.188793    0.032222
      9          1           0       -6.067657   -2.619097   -0.670229
     10          1           0       -7.499221   -2.328559   -0.103317
     11          1           0       -6.300093   -2.561091    0.878651
     12          6           0       -7.410634    0.131076    0.102429
     13          1           0       -8.223533   -0.379499    0.106257
     14          1           0       -7.406586    0.720407   -0.654904
     15          7           0       -6.275002   -0.768139    0.022108
     16          6           0       -0.995386    1.206918   -0.050373
     17          6           0       -2.626574   -0.665976   -0.059332
     18          1           0       -4.046000   -2.068592   -0.042587
     19          1           0       -5.419019    1.697389   -0.011691
     20          1           0       -7.352621    0.647664    0.910738
     21          6           0        0.137265    0.518692   -0.024142
     22          1           0       -1.921126   -1.271459   -0.079069
     23          6           0        1.440373    1.160264   -0.026273
     24          1           0        0.095478   -0.411072   -0.002790
     25          6           0        2.658609    0.354973   -0.010420
     26          8           0        1.527514    2.413704   -0.047036
     27          6           0        3.904793    0.982168    0.059381
     28          6           0        2.667933   -1.030543   -0.048987
     29          6           0        5.086136    0.267973    0.074741
     30          8           0        4.008874    2.331073    0.076885
     31          6           0        3.824365   -1.745628   -0.034459
     32          1           0        1.857854   -1.486096   -0.085679
     33          1           0        5.905557    0.707606    0.112910
     34          6           0        5.031734   -1.094240    0.033171
     35          1           0        3.259182    2.662408    0.057273
     36          1           0        3.798920   -2.674219   -0.070921
     37          8           0        6.132955   -1.895809    0.030330
     38          6           0        7.410593   -1.285768   -0.016674
     39          1           0        7.509578   -0.693487    0.732060
     40          1           0        8.089406   -1.962730    0.019482
     41          1           0        7.497346   -0.787727   -0.832493
 ---------------------------------------------------------------------
 Rotational constants (GHZ):      0.8808357      0.0825450      0.0755725
 Standard basis: 6-311++G(d,p) (5D, 7F)
 There are   617 symmetry adapted basis functions of A   symmetry.
 Integral buffers will be    131072 words long.
 Raffenetti 2 integral format.
 Two-electron integral symmetry is turned on.
   617 basis functions,   963 primitive gaussians,   639 cartesian basis functions
    79 alpha electrons       79 beta electrons
       nuclear repulsion energy      1622.6391720672 Hartrees.
 NAtoms=   41 NActive=   41 NUniq=   41 SFac= 1.00D+00 NAtFMM=   60 NAOKFM=F Big=F
 Nuclear repulsion after empirical dispersion term =     1622.6132276334 Hartrees.
 One-electron integrals computed using PRISM.
 NBasis=   617 RedAO= T  NBF=   617
 NBsUse=   609 1.00D-06 NBFU=   609
 Harris functional with IExCor= 4639 diagonalized for initial guess.
 ExpMin= 3.60D-02 ExpMax= 8.59D+03 ExpMxC= 1.30D+03 IAcc=3 IRadAn=         5 AccDes= 0.00D+00
 HarFok:  IExCor= 4639 AccDes= 0.00D+00 IRadAn=         5 IDoV= 1
 ScaDFX=  1.000000  1.000000  1.000000  1.000000
 FoFCou: FMM=F IPFlag=           0 FMFlag=      100000 FMFlg1=           0
         NFxFlg=           0 DoJE=T BraDBF=F KetDBF=T FulRan=T
         Omega=  0.000000  0.000000  1.000000  0.000000  0.000000 ICntrl=     500 IOpCl=  0
         NMat0=    1 NMatS0=    1 NMatT0=    0 NMatD0=    1 NMtDS0=    0 NMtDT0=    0
         I1Cent=           4 NGrid=           0.
 Petite list used in FoFCou.
 Initial guess orbital symmetries:
       Occupied  (A) (A) (A) (A) (A) (A) (A) (A) (A) (A) (A) (A)
                 (A) (A) (A) (A) (A) (A) (A) (A) (A) (A) (A) (A)
                 (A) (A) (A) (A) (A) (A) (A) (A) (A) (A) (A) (A)
                 (A) (A) (A) (A) (A) (A) (A) (A) (A) (A) (A) (A)
                 (A) (A) (A) (A) (A) (A) (A) (A) (A) (A) (A) (A)
                 (A) (A) (A) (A) (A) (A) (A) (A) (A) (A) (A) (A)
                 (A) (A) (A) (A) (A) (A) (A)
       Virtual   (A) (A) (A) (A) (A) (A) (A) (A) (A) (A) (A) (A)
                 (A) (A) (A) (A) (A) (A) (A) (A) (A) (A) (A) (A)
                 (A) (A) (A) (A) (A) (A) (A) (A) (A) (A) (A) (A)
                 (A) (A) (A) (A) (A) (A) (A) (A) (A) (A) (A) (A)
                 (A) (A) (A) (A) (A) (A) (A) (A) (A) (A) (A) (A)
                 (A) (A) (A) (A) (A) (A) (A) (A) (A) (A) (A) (A)
                 (A) (A) (A) (A) (A) (A) (A) (A) (A) (A) (A) (A)
                 (A) (A) (A) (A) (A) (A) (A) (A) (A) (A) (A) (A)
                 (A) (A) (A) (A) (A) (A) (A) (A) (A) (A) (A) (A)
                 (A) (A) (A) (A) (A) (A) (A) (A) (A) (A) (A) (A)
                 (A) (A) (A) (A) (A) (A) (A) (A) (A) (A) (A) (A)
                 (A) (A) (A) (A) (A) (A) (A) (A) (A) (A) (A) (A)
                 (A) (A) (A) (A) (A) (A) (A) (A) (A) (A) (A) (A)
                 (A) (A) (A) (A) (A) (A) (A) (A) (A) (A) (A) (A)
                 (A) (A) (A) (A) (A) (A) (A) (A) (A) (A) (A) (A)
                 (A) (A) (A) (A) (A) (A) (A) (A) (A) (A) (A) (A)
                 (A) (A) (A) (A) (A) (A) (A) (A) (A) (A) (A) (A)
                 (A) (A) (A) (A) (A) (A) (A) (A) (A) (A) (A) (A)
                 (A) (A) (A) (A) (A) (A) (A) (A) (A) (A) (A) (A)
                 (A) (A) (A) (A) (A) (A) (A) (A) (A) (A) (A) (A)
                 (A) (A) (A) (A) (A) (A) (A) (A) (A) (A) (A) (A)
                 (A) (A) (A) (A) (A) (A) (A) (A) (A) (A) (A) (A)
                 (A) (A) (A) (A) (A) (A) (A) (A) (A) (A) (A) (A)
                 (A) (A) (A) (A) (A) (A) (A) (A) (A) (A) (A) (A)
                 (A) (A) (A) (A) (A) (A) (A) (A) (A) (A) (A) (A)
                 (A) (A) (A) (A) (A) (A) (A) (A) (A) (A) (A) (A)
                 (A) (A) (A) (A) (A) (A) (A) (A) (A) (A) (A) (A)
                 (A) (A) (A) (A) (A) (A) (A) (A) (A) (A) (A) (A)
                 (A) (A) (A) (A) (A) (A) (A) (A) (A) (A) (A) (A)
                 (A) (A) (A) (A) (A) (A) (A) (A) (A) (A) (A) (A)
                 (A) (A) (A) (A) (A) (A) (A) (A) (A) (A) (A) (A)
                 (A) (A) (A) (A) (A) (A) (A) (A) (A) (A) (A) (A)
                 (A) (A) (A) (A) (A) (A) (A) (A) (A) (A) (A) (A)
                 (A) (A) (A) (A) (A) (A) (A) (A) (A) (A) (A) (A)
                 (A) (A) (A) (A) (A) (A) (A) (A) (A) (A) (A) (A)
                 (A) (A) (A) (A) (A) (A) (A) (A) (A) (A) (A) (A)
                 (A) (A) (A) (A) (A) (A) (A) (A) (A) (A) (A) (A)
                 (A) (A) (A) (A) (A) (A) (A) (A) (A) (A) (A) (A)
                 (A) (A) (A) (A) (A) (A) (A) (A) (A) (A) (A) (A)
                 (A) (A) (A) (A) (A) (A) (A) (A) (A) (A) (A) (A)
                 (A) (A) (A) (A) (A) (A) (A) (A) (A) (A) (A) (A)
                 (A) (A) (A) (A) (A) (A) (A) (A) (A) (A) (A) (A)
                 (A) (A) (A) (A) (A) (A) (A) (A) (A) (A) (A) (A)
                 (A) (A) (A) (A) (A) (A) (A) (A) (A) (A) (A) (A)
                 (A) (A)
 The electronic state of the initial guess is 1-A.
 Requested convergence on RMS density matrix=1.00D-08 within 128 cycles.
 Requested convergence on MAX density matrix=1.00D-06.
 Requested convergence on             energy=1.00D-06.
 No special actions if energy rises.
 FoFJK:  IHMeth= 1 ICntrl=     0 DoSepK=T KAlg= 1 I1Cent= 0 FoldK=F
 FoFJK:  IHMeth= 1 ICntrl=     0 DoSepK=T KAlg= 1 I1Cent= 0 FoldK=F
 FoFJK:  IHMeth= 1 ICntrl=     0 DoSepK=T KAlg= 1 I1Cent= 0 FoldK=F
 FoFJK:  IHMeth= 1 ICntrl=     0 DoSepK=T KAlg= 1 I1Cent= 0 FoldK=F
 FoFJK:  IHMeth= 1 ICntrl=     0 DoSepK=T KAlg= 1 I1Cent= 0 FoldK=F
 FoFJK:  IHMeth= 1 ICntrl=     0 DoSepK=T KAlg= 1 I1Cent= 0 FoldK=F
 FoFJK:  IHMeth= 1 ICntrl=     0 DoSepK=T KAlg= 1 I1Cent= 0 FoldK=F
 FoFJK:  IHMeth= 1 ICntrl=     0 DoSepK=T KAlg= 1 I1Cent= 0 FoldK=F
 FoFJK:  IHMeth= 1 ICntrl=     0 DoSepK=T KAlg= 1 I1Cent= 0 FoldK=F
 FoFJK:  IHMeth= 1 ICntrl=     0 DoSepK=T KAlg= 1 I1Cent= 0 FoldK=F
 FoFJK:  IHMeth= 1 ICntrl=     0 DoSepK=T KAlg= 1 I1Cent= 0 FoldK=F
 FoFJK:  IHMeth= 1 ICntrl=     0 DoSepK=T KAlg= 1 I1Cent= 0 FoldK=F
 FoFJK:  IHMeth= 1 ICntrl=     0 DoSepK=T KAlg= 1 I1Cent= 0 FoldK=F
 FoFJK:  IHMeth= 1 ICntrl=     0 DoSepK=T KAlg= 1 I1Cent= 0 FoldK=F
 FoFJK:  IHMeth= 1 ICntrl=     0 DoSepK=T KAlg= 1 I1Cent= 0 FoldK=F
 FoFJK:  IHMeth= 1 ICntrl=     0 DoSepK=T KAlg= 1 I1Cent= 0 FoldK=F
 SCF Done:  E(RwB97XD) =  -977.339502167     A.U. after   16 cycles
             Convg  =    0.7741D-08             -V/T =  1.9982

 **********************************************************************

            Population analysis using the SCF density.

 **********************************************************************

 Orbital symmetries:
       Occupied  (A) (A) (A) (A) (A) (A) (A) (A) (A) (A) (A) (A)
                 (A) (A) (A) (A) (A) (A) (A) (A) (A) (A) (A) (A)
                 (A) (A) (A) (A) (A) (A) (A) (A) (A) (A) (A) (A)
                 (A) (A) (A) (A) (A) (A) (A) (A) (A) (A) (A) (A)
                 (A) (A) (A) (A) (A) (A) (A) (A) (A) (A) (A) (A)
                 (A) (A) (A) (A) (A) (A) (A) (A) (A) (A) (A) (A)
                 (A) (A) (A) (A) (A) (A) (A)
       Virtual   (A) (A) (A) (A) (A) (A) (A) (A) (A) (A) (A) (A)
                 (A) (A) (A) (A) (A) (A) (A) (A) (A) (A) (A) (A)
                 (A) (A) (A) (A) (A) (A) (A) (A) (A) (A) (A) (A)
                 (A) (A) (A) (A) (A) (A) (A) (A) (A) (A) (A) (A)
                 (A) (A) (A) (A) (A) (A) (A) (A) (A) (A) (A) (A)
                 (A) (A) (A) (A) (A) (A) (A) (A) (A) (A) (A) (A)
                 (A) (A) (A) (A) (A) (A) (A) (A) (A) (A) (A) (A)
                 (A) (A) (A) (A) (A) (A) (A) (A) (A) (A) (A) (A)
                 (A) (A) (A) (A) (A) (A) (A) (A) (A) (A) (A) (A)
                 (A) (A) (A) (A) (A) (A) (A) (A) (A) (A) (A) (A)
                 (A) (A) (A) (A) (A) (A) (A) (A) (A) (A) (A) (A)
                 (A) (A) (A) (A) (A) (A) (A) (A) (A) (A) (A) (A)
                 (A) (A) (A) (A) (A) (A) (A) (A) (A) (A) (A) (A)
                 (A) (A) (A) (A) (A) (A) (A) (A) (A) (A) (A) (A)
                 (A) (A) (A) (A) (A) (A) (A) (A) (A) (A) (A) (A)
                 (A) (A) (A) (A) (A) (A) (A) (A) (A) (A) (A) (A)
                 (A) (A) (A) (A) (A) (A) (A) (A) (A) (A) (A) (A)
                 (A) (A) (A) (A) (A) (A) (A) (A) (A) (A) (A) (A)
                 (A) (A) (A) (A) (A) (A) (A) (A) (A) (A) (A) (A)
                 (A) (A) (A) (A) (A) (A) (A) (A) (A) (A) (A) (A)
                 (A) (A) (A) (A) (A) (A) (A) (A) (A) (A) (A) (A)
                 (A) (A) (A) (A) (A) (A) (A) (A) (A) (A) (A) (A)
                 (A) (A) (A) (A) (A) (A) (A) (A) (A) (A) (A) (A)
                 (A) (A) (A) (A) (A) (A) (A) (A) (A) (A) (A) (A)
                 (A) (A) (A) (A) (A) (A) (A) (A) (A) (A) (A) (A)
                 (A) (A) (A) (A) (A) (A) (A) (A) (A) (A) (A) (A)
                 (A) (A) (A) (A) (A) (A) (A) (A) (A) (A) (A) (A)
                 (A) (A) (A) (A) (A) (A) (A) (A) (A) (A) (A) (A)
                 (A) (A) (A) (A) (A) (A) (A) (A) (A) (A) (A) (A)
                 (A) (A) (A) (A) (A) (A) (A) (A) (A) (A) (A) (A)
                 (A) (A) (A) (A) (A) (A) (A) (A) (A) (A) (A) (A)
                 (A) (A) (A) (A) (A) (A) (A) (A) (A) (A) (A) (A)
                 (A) (A) (A) (A) (A) (A) (A) (A) (A) (A) (A) (A)
                 (A) (A) (A) (A) (A) (A) (A) (A) (A) (A) (A) (A)
                 (A) (A) (A) (A) (A) (A) (A) (A) (A) (A) (A) (A)
                 (A) (A) (A) (A) (A) (A) (A) (A) (A) (A) (A) (A)
                 (A) (A) (A) (A) (A) (A) (A) (A) (A) (A) (A) (A)
                 (A) (A) (A) (A) (A) (A) (A) (A) (A) (A) (A) (A)
                 (A) (A) (A) (A) (A) (A) (A) (A) (A) (A) (A) (A)
                 (A) (A) (A) (A) (A) (A) (A) (A) (A) (A) (A) (A)
                 (A) (A) (A) (A) (A) (A) (A) (A) (A) (A) (A) (A)
                 (A) (A) (A) (A) (A) (A) (A) (A) (A) (A) (A) (A)
                 (A) (A) (A) (A) (A) (A) (A) (A) (A) (A) (A) (A)
                 (A) (A) (A) (A) (A) (A) (A) (A) (A) (A) (A) (A)
                 (A) (A)
 The electronic state is 1-A.
 Alpha  occ. eigenvalues --  -19.28036 -19.24600 -19.21421 -14.45886 -10.36603
 Alpha  occ. eigenvalues --  -10.35624 -10.35190 -10.33394 -10.29690 -10.28329
 Alpha  occ. eigenvalues --  -10.28294 -10.28243 -10.28039 -10.27914 -10.27877
 Alpha  occ. eigenvalues --  -10.27134 -10.27061 -10.26450 -10.26300 -10.26235
 Alpha  occ. eigenvalues --  -10.25794 -10.25711  -1.18967  -1.17757  -1.11521
 Alpha  occ. eigenvalues --   -1.07482  -0.97566  -0.97374  -0.91621  -0.88737
 Alpha  occ. eigenvalues --   -0.88476  -0.87452  -0.86435  -0.86082  -0.83288
 Alpha  occ. eigenvalues --   -0.80030  -0.75447  -0.74000  -0.73646  -0.72821
 Alpha  occ. eigenvalues --   -0.69765  -0.67135  -0.65232  -0.64264  -0.62956
 Alpha  occ. eigenvalues --   -0.60418  -0.59538  -0.59470  -0.59147  -0.58647
 Alpha  occ. eigenvalues --   -0.57928  -0.56606  -0.55904  -0.54443  -0.54271
 Alpha  occ. eigenvalues --   -0.53462  -0.53057  -0.52199  -0.52015  -0.51045
 Alpha  occ. eigenvalues --   -0.50454  -0.49787  -0.48940  -0.48267  -0.47493
 Alpha  occ. eigenvalues --   -0.47024  -0.45764  -0.45674  -0.43973  -0.42911
 Alpha  occ. eigenvalues --   -0.42749  -0.41050  -0.39819  -0.34568  -0.33975
 Alpha  occ. eigenvalues --   -0.33349  -0.32237  -0.29792  -0.26196
 Alpha virt. eigenvalues --   -0.01036   0.03045   0.04199   0.04471   0.04720
 Alpha virt. eigenvalues --    0.04875   0.05702   0.05746   0.06219   0.06561
 Alpha virt. eigenvalues --    0.06767   0.06984   0.07657   0.07958   0.08246
 Alpha virt. eigenvalues --    0.08500   0.09221   0.09520   0.10253   0.10349
 Alpha virt. eigenvalues --    0.10718   0.11502   0.11651   0.11881   0.12138
 Alpha virt. eigenvalues --    0.12882   0.13672   0.14185   0.14337   0.14770
 Alpha virt. eigenvalues --    0.14849   0.15135   0.15181   0.15554   0.16244
 Alpha virt. eigenvalues --    0.16361   0.16613   0.16887   0.17047   0.17399
 Alpha virt. eigenvalues --    0.17578   0.17830   0.17983   0.18294   0.18809
 Alpha virt. eigenvalues --    0.19063   0.19264   0.19644   0.19899   0.20429
 Alpha virt. eigenvalues --    0.20548   0.20890   0.21124   0.21239   0.21603
 Alpha virt. eigenvalues --    0.21945   0.22221   0.22468   0.22518   0.22664
 Alpha virt. eigenvalues --    0.23001   0.23239   0.23599   0.23796   0.24338
 Alpha virt. eigenvalues --    0.24590   0.24757   0.25374   0.25870   0.25957
 Alpha virt. eigenvalues --    0.26074   0.26664   0.26716   0.26948   0.27191
 Alpha virt. eigenvalues --    0.27927   0.28211   0.28322   0.28519   0.29247
 Alpha virt. eigenvalues --    0.29258   0.29512   0.29673   0.30245   0.30483
 Alpha virt. eigenvalues --    0.30648   0.31600   0.32227   0.32573   0.32699
 Alpha virt. eigenvalues --    0.32952   0.33116   0.33767   0.33916   0.34231
 Alpha virt. eigenvalues --    0.34744   0.35130   0.35346   0.35996   0.36257
 Alpha virt. eigenvalues --    0.36499   0.36907   0.37420   0.37762   0.37987
 Alpha virt. eigenvalues --    0.38101   0.38375   0.39010   0.39432   0.39634
 Alpha virt. eigenvalues --    0.40122   0.40393   0.40684   0.41058   0.41528
 Alpha virt. eigenvalues --    0.41956   0.42284   0.42458   0.42818   0.43032
 Alpha virt. eigenvalues --    0.43151   0.43779   0.43921   0.44352   0.44712
 Alpha virt. eigenvalues --    0.44978   0.46087   0.46695   0.47168   0.47602
 Alpha virt. eigenvalues --    0.48040   0.48341   0.49028   0.49513   0.49908
 Alpha virt. eigenvalues --    0.50850   0.51416   0.51988   0.52490   0.53103
 Alpha virt. eigenvalues --    0.54796   0.55178   0.55300   0.56549   0.57918
 Alpha virt. eigenvalues --    0.58117   0.58807   0.60722   0.61682   0.62097
 Alpha virt. eigenvalues --    0.62526   0.63225   0.64315   0.64633   0.65152
 Alpha virt. eigenvalues --    0.65510   0.65817   0.66067   0.66507   0.67268
 Alpha virt. eigenvalues --    0.67527   0.68081   0.68816   0.68927   0.69233
 Alpha virt. eigenvalues --    0.69777   0.70915   0.71893   0.72148   0.72752
 Alpha virt. eigenvalues --    0.73062   0.73620   0.74145   0.74744   0.75487
 Alpha virt. eigenvalues --    0.76020   0.76107   0.76644   0.77492   0.77813
 Alpha virt. eigenvalues --    0.78120   0.78333   0.78965   0.79229   0.80009
 Alpha virt. eigenvalues --    0.80426   0.81220   0.81904   0.82304   0.82533
 Alpha virt. eigenvalues --    0.83118   0.83896   0.84981   0.85693   0.86311
 Alpha virt. eigenvalues --    0.86658   0.86757   0.87808   0.89441   0.90059
 Alpha virt. eigenvalues --    0.90758   0.91253   0.92839   0.93575   0.94028
 Alpha virt. eigenvalues --    0.94657   0.95665   0.96207   0.97612   0.97686
 Alpha virt. eigenvalues --    0.97964   0.98043   0.98501   1.00084   1.00640
 Alpha virt. eigenvalues --    1.01031   1.01594   1.02027   1.02969   1.03692
 Alpha virt. eigenvalues --    1.04003   1.05058   1.05873   1.06217   1.06614
 Alpha virt. eigenvalues --    1.07092   1.07554   1.08355   1.08453   1.09072
 Alpha virt. eigenvalues --    1.09451   1.10295   1.10410   1.10887   1.11441
 Alpha virt. eigenvalues --    1.12552   1.13699   1.14294   1.14757   1.16001
 Alpha virt. eigenvalues --    1.17317   1.17370   1.18272   1.18654   1.18980
 Alpha virt. eigenvalues --    1.19323   1.20217   1.20840   1.21986   1.22919
 Alpha virt. eigenvalues --    1.23640   1.24636   1.25943   1.26875   1.28232
 Alpha virt. eigenvalues --    1.29322   1.32258   1.33262   1.34928   1.35192
 Alpha virt. eigenvalues --    1.36678   1.38051   1.39587   1.40293   1.40796
 Alpha virt. eigenvalues --    1.41284   1.43106   1.47022   1.48798   1.50869
 Alpha virt. eigenvalues --    1.51176   1.52404   1.54104   1.55311   1.57282
 Alpha virt. eigenvalues --    1.58562   1.60185   1.60762   1.61641   1.61976
 Alpha virt. eigenvalues --    1.62984   1.63451   1.63651   1.64628   1.64873
 Alpha virt. eigenvalues --    1.65416   1.65879   1.66918   1.66990   1.67599
 Alpha virt. eigenvalues --    1.68349   1.68709   1.69755   1.70510   1.70948
 Alpha virt. eigenvalues --    1.71581   1.73528   1.73977   1.74245   1.74740
 Alpha virt. eigenvalues --    1.75694   1.76861   1.77950   1.78646   1.80158
 Alpha virt. eigenvalues --    1.80885   1.81686   1.82293   1.83523   1.84263
 Alpha virt. eigenvalues --    1.84614   1.85023   1.86392   1.87079   1.87264
 Alpha virt. eigenvalues --    1.87923   1.90204   1.90643   1.91076   1.91757
 Alpha virt. eigenvalues --    1.93667   1.93778   1.94285   1.95217   1.95728
 Alpha virt. eigenvalues --    1.96991   1.97714   2.00217   2.01304   2.02324
 Alpha virt. eigenvalues --    2.02638   2.03298   2.04128   2.04883   2.05418
 Alpha virt. eigenvalues --    2.06098   2.08247   2.09636   2.10286   2.10454
 Alpha virt. eigenvalues --    2.10777   2.10923   2.13432   2.14530   2.15795
 Alpha virt. eigenvalues --    2.16618   2.17930   2.18785   2.20748   2.21152
 Alpha virt. eigenvalues --    2.22174   2.23961   2.25433   2.25845   2.26427
 Alpha virt. eigenvalues --    2.27065   2.27892   2.28525   2.30035   2.30385
 Alpha virt. eigenvalues --    2.33115   2.34045   2.37670   2.38966   2.40003
 Alpha virt. eigenvalues --    2.40973   2.42224   2.43703   2.45013   2.46169
 Alpha virt. eigenvalues --    2.48238   2.48912   2.49845   2.51563   2.52373
 Alpha virt. eigenvalues --    2.54008   2.54848   2.55848   2.56866   2.60653
 Alpha virt. eigenvalues --    2.60945   2.63308   2.64826   2.66720   2.67735
 Alpha virt. eigenvalues --    2.68180   2.68700   2.70082   2.70651   2.72187
 Alpha virt. eigenvalues --    2.74914   2.75941   2.77116   2.78836   2.79467
 Alpha virt. eigenvalues --    2.79869   2.80642   2.82326   2.83770   2.84234
 Alpha virt. eigenvalues --    2.87282   2.88108   2.89528   2.90289   2.90777
 Alpha virt. eigenvalues --    2.91137   2.91324   2.92940   2.93180   2.94444
 Alpha virt. eigenvalues --    2.95023   2.96529   2.97198   2.98428   2.98760
 Alpha virt. eigenvalues --    2.99630   3.00002   3.01151   3.03048   3.04132
 Alpha virt. eigenvalues --    3.05094   3.05713   3.05892   3.06449   3.06691
 Alpha virt. eigenvalues --    3.08792   3.08945   3.10015   3.11413   3.12155
 Alpha virt. eigenvalues --    3.12391   3.13601   3.15934   3.16592   3.17612
 Alpha virt. eigenvalues --    3.18768   3.20181   3.21263   3.21661   3.22266
 Alpha virt. eigenvalues --    3.22685   3.26437   3.28255   3.29370   3.30702
 Alpha virt. eigenvalues --    3.34882   3.36043   3.36260   3.37619   3.39561
 Alpha virt. eigenvalues --    3.40406   3.41904   3.44392   3.45121   3.48507
 Alpha virt. eigenvalues --    3.52807   3.53827   3.55170   3.56703   3.60961
 Alpha virt. eigenvalues --    3.68612   3.70028   3.75608   3.76020   3.77751
 Alpha virt. eigenvalues --    3.80116   3.82554   3.85370   3.86161   3.91213
 Alpha virt. eigenvalues --    3.92719   3.94142   3.97443   4.01061   4.03450
 Alpha virt. eigenvalues --    4.16268   4.21321   4.22105   4.23696   4.24501
 Alpha virt. eigenvalues --    4.25399   4.26546   4.27336   4.29162   4.31050
 Alpha virt. eigenvalues --    4.34151   4.37662   4.44560   4.46214   4.47210
 Alpha virt. eigenvalues --    4.54955   4.59711   4.62955   4.72168   4.83710
 Alpha virt. eigenvalues --    4.98787   4.99928   5.12065   5.14442   5.16081
 Alpha virt. eigenvalues --    5.20728   5.27406   5.46713   5.54322   5.71426
 Alpha virt. eigenvalues --    5.92286   5.95117   6.27202  23.82368  23.95857
 Alpha virt. eigenvalues --   24.03582  24.12923  24.15880  24.17929  24.20521
 Alpha virt. eigenvalues --   24.27290  24.30260  24.30688  24.39318  24.41588
 Alpha virt. eigenvalues --   24.42164  24.44339  24.46754  24.51590  24.52378
 Alpha virt. eigenvalues --   24.54186  35.77195  50.11653  50.19667  50.23784
          Condensed to atoms (all electrons):
              1          2          3          4          5          6
     1  H    0.515967  -0.184037   0.005643  -0.004398   0.068178   0.038395
     2  C   -0.184037  10.649044  -0.838118  -1.660799  -2.476386  -0.269304
     3  C    0.005643  -0.838118   8.758830   0.736747  -1.769637  -1.465720
     4  C   -0.004398  -1.660799   0.736747  11.375034  -0.069904  -1.676448
     5  C    0.068178  -2.476386  -1.769637  -0.069904  10.222009   0.963721
     6  C    0.038395  -0.269304  -1.465720  -1.676448   0.963721  10.109931
     7  H   -0.018242   0.060423  -0.012151   0.027397  -0.123943   0.376081
     8  C    0.000453  -0.013225   0.074936  -0.069611  -0.172428  -0.042178
     9  H    0.000021  -0.013866   0.023870   0.058958  -0.017897  -0.002850
    10  H   -0.000012   0.005678   0.018463  -0.029832   0.005563   0.010335
    11  H    0.000047  -0.006067   0.012117  -0.002086  -0.002094  -0.001589
    12  C   -0.000935  -0.138930  -0.154245  -0.058142   0.208222  -0.065404
    13  H    0.000031  -0.006992   0.017321  -0.008505   0.023229  -0.018013
    14  H   -0.000184   0.010303  -0.007811   0.011563   0.004649  -0.002549
    15  N   -0.000488  -0.025822  -0.332971   0.296648  -0.214574   0.058789
    16  C    0.371888  -0.061782  -0.272524  -0.519960   0.314705  -0.959516
    17  C   -0.021587   0.691187   1.800408  -1.324904  -1.947797  -1.077029
    18  H    0.002270   0.147311   0.391888  -0.336437  -0.026695  -0.076581
    19  H    0.004192  -0.081018   0.001962  -0.091845   0.567384  -0.045416
    20  H   -0.000183   0.007880  -0.008357  -0.025884   0.020922   0.007548
    21  C    0.068025  -1.323466  -0.777294  -0.287022   0.710821   0.096376
    22  H   -0.005301  -0.105987   0.075319   0.237956  -0.026585   0.083326
    23  C    0.009413   0.821945   0.050715  -0.050527  -0.010745   0.098496
    24  H    0.009881   0.000132  -0.159279  -0.068496   0.048231   0.022607
    25  C   -0.072322   0.142952   0.255584   0.078110  -0.129904  -0.151150
    26  O   -0.002426   0.068247   0.002290  -0.000683  -0.005755  -0.029629
    27  C   -0.014142   0.017436   0.049684   0.022889  -0.027838  -0.057733
    28  C    0.015943  -0.100167  -0.139930  -0.039797   0.089848   0.205114
    29  C    0.004672  -0.063637  -0.001571   0.001281  -0.001579  -0.001979
    30  O   -0.002325  -0.000247   0.000156  -0.000050  -0.000208  -0.000906
    31  C   -0.005254   0.002533  -0.018154  -0.003899   0.008041   0.031464
    32  H    0.004509  -0.017769  -0.000387  -0.000721   0.001979   0.006084
    33  H   -0.000134  -0.001401   0.000078   0.000037  -0.000045  -0.000001
    34  C    0.002015   0.000573  -0.009699  -0.001520   0.002437   0.010983
    35  H    0.000299  -0.001934   0.000153  -0.000047  -0.000124   0.001727
    36  H   -0.000453   0.000301   0.001643   0.000445  -0.000238  -0.000911
    37  O    0.000014   0.000004   0.000007   0.000000  -0.000001  -0.000007
    38  C    0.000045  -0.000446  -0.000021   0.000000   0.000003   0.000052
    39  H    0.000004   0.000029  -0.000005  -0.000001   0.000002   0.000008
    40  H    0.000003  -0.000038  -0.000002   0.000000   0.000000   0.000002
    41  H    0.000007   0.000070   0.000001   0.000000   0.000000  -0.000003
              7          8          9         10         11         12
     1  H   -0.018242   0.000453   0.000021  -0.000012   0.000047  -0.000935
     2  C    0.060423  -0.013225  -0.013866   0.005678  -0.006067  -0.138930
     3  C   -0.012151   0.074936   0.023870   0.018463   0.012117  -0.154245
     4  C    0.027397  -0.069611   0.058958  -0.029832  -0.002086  -0.058142
     5  C   -0.123943  -0.172428  -0.017897   0.005563  -0.002094   0.208222
     6  C    0.376081  -0.042178  -0.002850   0.010335  -0.001589  -0.065404
     7  H    0.527406  -0.000293  -0.000190  -0.000138  -0.000307   0.003844
     8  C   -0.000293   4.957244   0.413588   0.425482   0.453768  -0.091988
     9  H   -0.000190   0.413588   0.586312  -0.034511  -0.052021   0.006900
    10  H   -0.000138   0.425482  -0.034511   0.528103  -0.020564  -0.017290
    11  H   -0.000307   0.453768  -0.052021  -0.020564   0.526823  -0.001633
    12  C    0.003844  -0.091988   0.006900  -0.017290  -0.001633   4.987615
    13  H   -0.000312  -0.012492   0.002619   0.006491  -0.004826   0.418353
    14  H    0.001579   0.007285  -0.006904   0.001634   0.002264   0.422713
    15  N   -0.001780   0.315292  -0.053342  -0.036672  -0.060966   0.330782
    16  C    0.017916  -0.002615  -0.001831  -0.000889  -0.000664   0.011973
    17  C   -0.002043  -0.003034  -0.026806   0.003947  -0.003609  -0.069274
    18  H    0.001243   0.019300  -0.020035   0.008656  -0.018029  -0.008526
    19  H   -0.030048  -0.004570  -0.000132   0.001641   0.000451   0.019501
    20  H    0.001498  -0.004845   0.001869  -0.001990  -0.000334   0.455457
    21  C   -0.012131   0.005526  -0.000771   0.000325  -0.001027  -0.003550
    22  H   -0.004565   0.002329   0.003476  -0.000027   0.002752   0.002189
    23  C    0.001583  -0.000326  -0.000167   0.000068  -0.000181   0.001399
    24  H   -0.000997  -0.000299  -0.000429   0.000005  -0.000359  -0.000268
    25  C    0.006996   0.000262   0.000130   0.000031   0.000071  -0.000300
    26  O    0.001229   0.000009  -0.000001   0.000000  -0.000001  -0.000001
    27  C    0.003420  -0.000120   0.000036  -0.000010   0.000036   0.000024
    28  C   -0.004055  -0.000450  -0.000063  -0.000031  -0.000025   0.000160
    29  C    0.000254  -0.000007   0.000004  -0.000001   0.000004  -0.000001
    30  O    0.000047   0.000000   0.000000   0.000000   0.000000   0.000000
    31  C    0.000016  -0.000080  -0.000015  -0.000003  -0.000003   0.000013
    32  H    0.000086   0.000018   0.000035  -0.000006   0.000018   0.000014
    33  H    0.000032   0.000000   0.000000   0.000000   0.000000   0.000000
    34  C   -0.000285  -0.000004  -0.000003   0.000000  -0.000001   0.000002
    35  H   -0.000027  -0.000001   0.000000   0.000000   0.000000   0.000000
    36  H    0.000008   0.000001  -0.000001   0.000000  -0.000001   0.000000
    37  O    0.000000   0.000000   0.000000   0.000000   0.000000   0.000000
    38  C   -0.000001   0.000000   0.000000   0.000000   0.000000   0.000000
    39  H    0.000000   0.000000   0.000000   0.000000   0.000000   0.000000
    40  H    0.000000   0.000000   0.000000   0.000000   0.000000   0.000000
    41  H    0.000000   0.000000   0.000000   0.000000   0.000000   0.000000
             13         14         15         16         17         18
     1  H    0.000031  -0.000184  -0.000488   0.371888  -0.021587   0.002270
     2  C   -0.006992   0.010303  -0.025822  -0.061782   0.691187   0.147311
     3  C    0.017321  -0.007811  -0.332971  -0.272524   1.800408   0.391888
     4  C   -0.008505   0.011563   0.296648  -0.519960  -1.324904  -0.336437
     5  C    0.023229   0.004649  -0.214574   0.314705  -1.947797  -0.026695
     6  C   -0.018013  -0.002549   0.058789  -0.959516  -1.077029  -0.076581
     7  H   -0.000312   0.001579  -0.001780   0.017916  -0.002043   0.001243
     8  C   -0.012492   0.007285   0.315292  -0.002615  -0.003034   0.019300
     9  H    0.002619  -0.006904  -0.053342  -0.001831  -0.026806  -0.020035
    10  H    0.006491   0.001634  -0.036672  -0.000889   0.003947   0.008656
    11  H   -0.004826   0.002264  -0.060966  -0.000664  -0.003609  -0.018029
    12  C    0.418353   0.422713   0.330782   0.011973  -0.069274  -0.008526
    13  H    0.519491  -0.026265  -0.034902   0.002401   0.004715   0.003037
    14  H   -0.026265   0.567888  -0.058584  -0.002495  -0.001552  -0.000045
    15  N   -0.034902  -0.058584   7.119523  -0.002436  -0.040018  -0.035297
    16  C    0.002401  -0.002495  -0.002436   6.970985  -0.014502   0.055214
    17  C    0.004715  -0.001552  -0.040018  -0.014502   9.901371   0.092764
    18  H    0.003037  -0.000045  -0.035297   0.055214   0.092764   0.608042
    19  H    0.009621  -0.015343  -0.034325   0.000608  -0.021288  -0.003825
    20  H   -0.018395  -0.059434  -0.053533  -0.000689  -0.006698   0.000698
    21  C    0.000218   0.000339   0.000974   1.216621  -1.186844   0.052099
    22  H   -0.000654  -0.000036  -0.003298  -0.110956   0.394332  -0.073087
    23  C   -0.000017  -0.000085   0.000528  -1.218920  -0.839233   0.001938
    24  H    0.000044   0.000011  -0.000330   0.041434  -0.136918   0.016905
    25  C   -0.000052   0.000075  -0.000177  -0.032751   0.446088  -0.013020
    26  O    0.000000  -0.000001   0.000000   0.091215   0.022246  -0.000017
    27  C    0.000000   0.000003  -0.000044   0.386349   0.390911  -0.004153
    28  C    0.000024  -0.000018   0.000112  -0.615251  -0.460673   0.006510
    29  C    0.000000   0.000000  -0.000002   0.237979   0.059125  -0.000347
    30  O    0.000000   0.000000   0.000000   0.023712  -0.000550   0.000001
    31  C    0.000001   0.000001   0.000024  -0.120518  -0.071714   0.000817
    32  H    0.000003  -0.000003   0.000023  -0.001272   0.002283  -0.000386
    33  H    0.000000   0.000000   0.000000   0.007109   0.001628  -0.000011
    34  C    0.000000   0.000000   0.000002  -0.014991  -0.024699   0.000442
    35  H    0.000000   0.000000   0.000000  -0.005054  -0.001990  -0.000023
    36  H    0.000000   0.000000  -0.000001  -0.001386   0.000551  -0.000059
    37  O    0.000000   0.000000   0.000000   0.000065  -0.000005   0.000000
    38  C    0.000000   0.000000   0.000000   0.002179   0.000056   0.000000
    39  H    0.000000   0.000000   0.000000  -0.000224  -0.000049   0.000000
    40  H    0.000000   0.000000   0.000000   0.000152   0.000008   0.000000
    41  H    0.000000   0.000000   0.000000  -0.000319  -0.000023   0.000000
             19         20         21         22         23         24
     1  H    0.004192  -0.000183   0.068025  -0.005301   0.009413   0.009881
     2  C   -0.081018   0.007880  -1.323466  -0.105987   0.821945   0.000132
     3  C    0.001962  -0.008357  -0.777294   0.075319   0.050715  -0.159279
     4  C   -0.091845  -0.025884  -0.287022   0.237956  -0.050527  -0.068496
     5  C    0.567384   0.020922   0.710821  -0.026585  -0.010745   0.048231
     6  C   -0.045416   0.007548   0.096376   0.083326   0.098496   0.022607
     7  H   -0.030048   0.001498  -0.012131  -0.004565   0.001583  -0.000997
     8  C   -0.004570  -0.004845   0.005526   0.002329  -0.000326  -0.000299
     9  H   -0.000132   0.001869  -0.000771   0.003476  -0.000167  -0.000429
    10  H    0.001641  -0.001990   0.000325  -0.000027   0.000068   0.000005
    11  H    0.000451  -0.000334  -0.001027   0.002752  -0.000181  -0.000359
    12  C    0.019501   0.455457  -0.003550   0.002189   0.001399  -0.000268
    13  H    0.009621  -0.018395   0.000218  -0.000654  -0.000017   0.000044
    14  H   -0.015343  -0.059434   0.000339  -0.000036  -0.000085   0.000011
    15  N   -0.034325  -0.053533   0.000974  -0.003298   0.000528  -0.000330
    16  C    0.000608  -0.000689   1.216621  -0.110956  -1.218920   0.041434
    17  C   -0.021288  -0.006698  -1.186844   0.394332  -0.839233  -0.136918
    18  H   -0.003825   0.000698   0.052099  -0.073087   0.001938   0.016905
    19  H    0.558922  -0.016240  -0.005002   0.004061   0.006012  -0.000900
    20  H   -0.016240   0.541968  -0.000340  -0.000453  -0.000075   0.000038
    21  C   -0.005002  -0.000340  10.367528  -0.202064  -0.612826   0.800830
    22  H    0.004061  -0.000453  -0.202064   0.645757  -0.027219  -0.064719
    23  C    0.006012  -0.000075  -0.612826  -0.027219  10.732853   0.094225
    24  H   -0.000900   0.000038   0.800830  -0.064719   0.094225   0.788470
    25  C   -0.000747   0.000064  -2.047576   0.075141   0.202690  -0.239175
    26  O    0.000051  -0.000001  -0.367404   0.003333   0.808321  -0.016340
    27  C   -0.000387   0.000010   0.165988   0.044461  -3.564374  -0.114234
    28  C    0.000840  -0.000039  -0.352319  -0.053414   0.729352   0.163510
    29  C   -0.000082   0.000001   0.473889   0.003744  -0.122631  -0.029722
    30  O    0.000000   0.000000  -0.070734   0.000054  -0.072129   0.001098
    31  C    0.000035  -0.000002  -0.927716  -0.006688  -1.224178  -0.005494
    32  H    0.000021  -0.000004   0.026674   0.001149   0.030362  -0.054777
    33  H   -0.000002   0.000000   0.009164   0.000173  -0.022313  -0.003038
    34  C    0.000016  -0.000001  -0.018594  -0.007518   0.271533   0.041967
    35  H    0.000008   0.000000   0.021436   0.000160   0.007904   0.000243
    36  H    0.000001   0.000000  -0.011436   0.000476  -0.038744   0.007670
    37  O    0.000000   0.000000  -0.003274   0.000004   0.002760  -0.000068
    38  C    0.000000   0.000000  -0.004828  -0.000032   0.039921   0.000891
    39  H    0.000000   0.000000  -0.000568  -0.000006   0.002849   0.000134
    40  H    0.000000   0.000000  -0.000409  -0.000001   0.002263   0.000040
    41  H    0.000000   0.000000   0.000539  -0.000002  -0.001150  -0.000016
             25         26         27         28         29         30
     1  H   -0.072322  -0.002426  -0.014142   0.015943   0.004672  -0.002325
     2  C    0.142952   0.068247   0.017436  -0.100167  -0.063637  -0.000247
     3  C    0.255584   0.002290   0.049684  -0.139930  -0.001571   0.000156
     4  C    0.078110  -0.000683   0.022889  -0.039797   0.001281  -0.000050
     5  C   -0.129904  -0.005755  -0.027838   0.089848  -0.001579  -0.000208
     6  C   -0.151150  -0.029629  -0.057733   0.205114  -0.001979  -0.000906
     7  H    0.006996   0.001229   0.003420  -0.004055   0.000254   0.000047
     8  C    0.000262   0.000009  -0.000120  -0.000450  -0.000007   0.000000
     9  H    0.000130  -0.000001   0.000036  -0.000063   0.000004   0.000000
    10  H    0.000031   0.000000  -0.000010  -0.000031  -0.000001   0.000000
    11  H    0.000071  -0.000001   0.000036  -0.000025   0.000004   0.000000
    12  C   -0.000300  -0.000001   0.000024   0.000160  -0.000001   0.000000
    13  H   -0.000052   0.000000   0.000000   0.000024   0.000000   0.000000
    14  H    0.000075  -0.000001   0.000003  -0.000018   0.000000   0.000000
    15  N   -0.000177   0.000000  -0.000044   0.000112  -0.000002   0.000000
    16  C   -0.032751   0.091215   0.386349  -0.615251   0.237979   0.023712
    17  C    0.446088   0.022246   0.390911  -0.460673   0.059125  -0.000550
    18  H   -0.013020  -0.000017  -0.004153   0.006510  -0.000347   0.000001
    19  H   -0.000747   0.000051  -0.000387   0.000840  -0.000082   0.000000
    20  H    0.000064  -0.000001   0.000010  -0.000039   0.000001   0.000000
    21  C   -2.047576  -0.367404   0.165988  -0.352319   0.473889  -0.070734
    22  H    0.075141   0.003333   0.044461  -0.053414   0.003744   0.000054
    23  C    0.202690   0.808321  -3.564374   0.729352  -0.122631  -0.072129
    24  H   -0.239175  -0.016340  -0.114234   0.163510  -0.029722   0.001098
    25  C   15.619019  -0.159594  -1.306569   0.233317  -4.189663   0.240178
    26  O   -0.159594   8.094863  -0.174103  -0.095966   0.066521   0.010963
    27  C   -1.306569  -0.174103  11.301417  -0.972716   2.030787   0.174079
    28  C    0.233317  -0.095966  -0.972716   8.198737  -0.981996  -0.014401
    29  C   -4.189663   0.066521   2.030787  -0.981996  12.987834  -0.355369
    30  O    0.240178   0.010963   0.174079  -0.014401  -0.355369   8.050378
    31  C   -2.919529  -0.032542   0.146273   1.688255  -3.042088   0.008828
    32  H    0.031945   0.003857   0.028232   0.406617   0.166110  -0.004315
    33  H   -0.257344   0.001072   0.091628   0.028714   0.954513  -0.060770
    34  C   -0.765488  -0.000994  -2.490918  -1.286223  -1.870809   0.064466
    35  H   -0.225828   0.056169   0.083429   0.016903   0.083448   0.269821
    36  H   -0.017888  -0.000286  -0.007967   0.046432  -0.198379   0.001170
    37  O    0.052386  -0.000030   0.065668  -0.151730   0.273829  -0.001105
    38  C   -0.153539   0.000378  -0.196831  -0.021498  -0.368711   0.006049
    39  H    0.012303  -0.000087   0.008889  -0.023339  -0.001979   0.001000
    40  H   -0.014388   0.000030  -0.021666   0.002432  -0.062637   0.000494
    41  H    0.027249  -0.000053   0.004118   0.000066  -0.003080  -0.000023
             31         32         33         34         35         36
     1  H   -0.005254   0.004509  -0.000134   0.002015   0.000299  -0.000453
     2  C    0.002533  -0.017769  -0.001401   0.000573  -0.001934   0.000301
     3  C   -0.018154  -0.000387   0.000078  -0.009699   0.000153   0.001643
     4  C   -0.003899  -0.000721   0.000037  -0.001520  -0.000047   0.000445
     5  C    0.008041   0.001979  -0.000045   0.002437  -0.000124  -0.000238
     6  C    0.031464   0.006084  -0.000001   0.010983   0.001727  -0.000911
     7  H    0.000016   0.000086   0.000032  -0.000285  -0.000027   0.000008
     8  C   -0.000080   0.000018   0.000000  -0.000004  -0.000001   0.000001
     9  H   -0.000015   0.000035   0.000000  -0.000003   0.000000  -0.000001
    10  H   -0.000003  -0.000006   0.000000   0.000000   0.000000   0.000000
    11  H   -0.000003   0.000018   0.000000  -0.000001   0.000000  -0.000001
    12  C    0.000013   0.000014   0.000000   0.000002   0.000000   0.000000
    13  H    0.000001   0.000003   0.000000   0.000000   0.000000   0.000000
    14  H    0.000001  -0.000003   0.000000   0.000000   0.000000   0.000000
    15  N    0.000024   0.000023   0.000000   0.000002   0.000000  -0.000001
    16  C   -0.120518  -0.001272   0.007109  -0.014991  -0.005054  -0.001386
    17  C   -0.071714   0.002283   0.001628  -0.024699  -0.001990   0.000551
    18  H    0.000817  -0.000386  -0.000011   0.000442  -0.000023  -0.000059
    19  H    0.000035   0.000021  -0.000002   0.000016   0.000008   0.000001
    20  H   -0.000002  -0.000004   0.000000  -0.000001   0.000000   0.000000
    21  C   -0.927716   0.026674   0.009164  -0.018594   0.021436  -0.011436
    22  H   -0.006688   0.001149   0.000173  -0.007518   0.000160   0.000476
[...]
    19  H    0.004664  -0.004924  -0.032742   0.003872  -0.018578   0.002057
    20  H   -0.019766  -0.061694  -0.058273  -0.001267  -0.005568  -0.000904
    21  C    0.000098  -0.000014  -0.001287   0.711271  -0.866185   0.024062
    22  H   -0.000374  -0.000144  -0.000578  -0.084616   0.399154  -0.048391
    23  C   -0.000020  -0.000018   0.000434  -1.065056  -0.488195  -0.002870
    24  H    0.000038   0.000049  -0.000854   0.003726  -0.111405   0.013389
    25  C   -0.000039   0.000054  -0.000141   0.149014   0.477203  -0.010554
    26  O    0.000000  -0.000001   0.000000   0.107030   0.021726   0.000022
    27  C   -0.000001   0.000007  -0.000026   0.389701   0.368161  -0.003016
    28  C    0.000014  -0.000027   0.000074  -0.697151  -0.359190   0.003851
    29  C    0.000000   0.000000  -0.000001   0.187574   0.043758  -0.000196
    30  O    0.000000   0.000000   0.000000   0.032939  -0.000348   0.000002
    31  C    0.000001  -0.000002   0.000015  -0.152399  -0.031581  -0.000076
    32  H    0.000000   0.000001   0.000029  -0.014279  -0.001639  -0.000239
    33  H    0.000000   0.000000   0.000000   0.002778   0.000773  -0.000004
    34  C    0.000000   0.000000   0.000001  -0.011381  -0.010432   0.000160
    35  H    0.000000   0.000000   0.000001  -0.005227  -0.002142  -0.000017
    36  H    0.000000   0.000000  -0.000001   0.000864   0.000764  -0.000061
    37  O    0.000000   0.000000   0.000000   0.000117  -0.000011   0.000000
    38  C    0.000000   0.000000   0.000000   0.001130  -0.000013   0.000000
    39  H    0.000000   0.000000   0.000000  -0.000084  -0.000011   0.000000
    40  H    0.000000   0.000000   0.000000   0.000048  -0.000002   0.000000
    41  H    0.000000   0.000000   0.000000  -0.000103  -0.000010   0.000000
             19         20         21         22         23         24
     1  H    0.001852  -0.000055   0.009369  -0.000028   0.037015   0.004194
     2  C   -0.006869   0.002086  -1.301892  -0.173952   0.474948   0.051620
     3  C   -0.025255  -0.001390  -0.587816   0.100981   0.052738  -0.129102
     4  C   -0.153013  -0.005144  -0.034965   0.200966   0.023826  -0.047593
     5  C    0.491415   0.010185   0.546365  -0.045390  -0.003980   0.046676
     6  C    0.067038  -0.009025  -0.036694   0.031089   0.129312   0.039350
     7  H   -0.015320   0.000662   0.015849  -0.001989  -0.003390   0.001103
     8  C   -0.002891  -0.005742   0.003934   0.005826   0.000101  -0.001216
     9  H   -0.001024   0.001480   0.000546   0.002538   0.000006  -0.000361
    10  H    0.001963  -0.004486   0.000044   0.000017   0.000028  -0.000051
    11  H   -0.000644   0.002425  -0.000181   0.002246   0.000012  -0.000293
    12  C    0.010288   0.436067  -0.005080  -0.000020   0.000960   0.000027
    13  H    0.004664  -0.019766   0.000098  -0.000374  -0.000020   0.000038
    14  H   -0.004924  -0.061694  -0.000014  -0.000144  -0.000018   0.000049
    15  N   -0.032742  -0.058273  -0.001287  -0.000578   0.000434  -0.000854
    16  C    0.003872  -0.001267   0.711271  -0.084616  -1.065056   0.003726
    17  C   -0.018578  -0.005568  -0.866185   0.399154  -0.488195  -0.111405
    18  H    0.002057  -0.000904   0.024062  -0.048391  -0.002870   0.013389
    19  H    0.520676  -0.012759  -0.016618   0.000295   0.002361  -0.000121
    20  H   -0.012759   0.552169   0.000540   0.000048   0.000009  -0.000053
    21  C   -0.016618   0.000540  10.117847  -0.136502  -0.033541   0.712069
    22  H    0.000295   0.000048  -0.136502   0.596235  -0.013071  -0.055327
    23  C    0.002361   0.000009  -0.033541  -0.013071   9.763979   0.056986
    24  H   -0.000121  -0.000053   0.712069  -0.055327   0.056986   0.851245
    25  C   -0.000810   0.000053  -1.535992   0.067383   0.116039  -0.181174
    26  O    0.000094  -0.000001  -0.363749   0.002408   0.685468  -0.009509
    27  C   -0.000407   0.000007  -0.386288   0.036227  -3.581883  -0.101042
    28  C   -0.000155   0.000007  -0.122235  -0.042462   0.892649   0.101293
    29  C   -0.000061   0.000000   0.234456   0.001852  -0.190226  -0.013814
    30  O    0.000001   0.000000  -0.032772   0.000004  -0.048233   0.001395
    31  C   -0.000070   0.000003  -0.986352   0.001642  -1.062024  -0.047618
    32  H   -0.000049   0.000002   0.013013  -0.003122  -0.000736  -0.035103
    33  H   -0.000001   0.000000  -0.002338   0.000068  -0.030757  -0.001518
    34  C   -0.000005   0.000000   0.001451  -0.003672   0.293699   0.026956
    35  H    0.000001   0.000001   0.010254   0.000070   0.024174   0.000671
    36  H    0.000001   0.000000  -0.010444   0.000567  -0.021207   0.003544
    37  O    0.000000   0.000000  -0.002521   0.000008   0.005911  -0.000128
    38  C    0.000000   0.000000  -0.003690  -0.000015   0.036752   0.000647
    39  H    0.000000   0.000000   0.000478  -0.000003   0.001006   0.000055
    40  H    0.000000   0.000000  -0.000084  -0.000002   0.001631   0.000037
    41  H    0.000000   0.000000  -0.000507   0.000001   0.001551  -0.000036
             25         26         27         28         29         30
     1  H   -0.038329   0.006674  -0.015870   0.009307  -0.000536  -0.001953
     2  C    0.003629   0.069284  -0.056853  -0.145614  -0.060620  -0.000158
     3  C    0.244885   0.002106   0.055344  -0.116590   0.000068   0.000063
     4  C    0.079151  -0.000898   0.021518  -0.030441   0.001042  -0.000053
     5  C   -0.136542  -0.006456  -0.030244   0.067222  -0.001539  -0.000214
     6  C   -0.168095  -0.032608  -0.065486   0.161774  -0.003737  -0.000971
     7  H    0.002127  -0.000237   0.003255  -0.000740   0.000434   0.000036
     8  C    0.000529   0.000006  -0.000059  -0.000373  -0.000004   0.000000
     9  H    0.000073   0.000000   0.000024   0.000045   0.000002   0.000000
    10  H    0.000035   0.000000  -0.000003  -0.000024   0.000000   0.000000
    11  H    0.000073  -0.000001   0.000023  -0.000019   0.000002   0.000000
    12  C   -0.000376   0.000000   0.000009   0.000050  -0.000001   0.000000
    13  H   -0.000039   0.000000  -0.000001   0.000014   0.000000   0.000000
    14  H    0.000054  -0.000001   0.000007  -0.000027   0.000000   0.000000
    15  N   -0.000141   0.000000  -0.000026   0.000074  -0.000001   0.000000
    16  C    0.149014   0.107030   0.389701  -0.697151   0.187574   0.032939
    17  C    0.477203   0.021726   0.368161  -0.359190   0.043758  -0.000348
    18  H   -0.010554   0.000022  -0.003016   0.003851  -0.000196   0.000002
    19  H   -0.000810   0.000094  -0.000407  -0.000155  -0.000061   0.000001
    20  H    0.000053  -0.000001   0.000007   0.000007   0.000000   0.000000
    21  C   -1.535992  -0.363749  -0.386288  -0.122235   0.234456  -0.032772
    22  H    0.067383   0.002408   0.036227  -0.042462   0.001852   0.000004
    23  C    0.116039   0.685468  -3.581883   0.892649  -0.190226  -0.048233
    24  H   -0.181174  -0.009509  -0.101042   0.101293  -0.013814   0.001395
    25  C   14.310241  -0.123413  -1.301817   0.158150  -3.872036   0.070127
    26  O   -0.123413   8.110040  -0.162299  -0.101440   0.060632   0.012414
    27  C   -1.301817  -0.162299  11.632782  -1.156826   2.149168   0.252601
    28  C    0.158150  -0.101440  -1.156826   8.568322  -0.963325  -0.041416
    29  C   -3.872036   0.060632   2.149168  -0.963325  12.722516  -0.286502
    30  O    0.070127   0.012414   0.252601  -0.041416  -0.286502   8.085602
    31  C   -2.606347  -0.028306   0.370949   1.416406  -2.732459  -0.008634
    32  H   -0.046119   0.001490   0.036090   0.443296   0.098476  -0.003475
    33  H   -0.138412   0.000421   0.062659   0.023004   0.735804  -0.038253
    34  C   -0.586840   0.001576  -2.413874  -1.376651  -1.814869   0.050164
    35  H   -0.179814   0.078044   0.035710   0.019977   0.063300   0.245540
    36  H    0.002921   0.000001  -0.000261   0.013313  -0.121665   0.000538
    37  O    0.030957  -0.000046   0.059171  -0.131646   0.263624  -0.000764
    38  C   -0.085783   0.000266  -0.179194  -0.017047  -0.399899   0.006340
    39  H    0.010652  -0.000023   0.000634  -0.006669  -0.000109   0.000267
    40  H   -0.002399   0.000017  -0.014215   0.003877  -0.029223   0.000386
    41  H    0.004663  -0.000052   0.011352  -0.013261   0.019336   0.000183
             31         32         33         34         35         36
     1  H   -0.002812   0.002005  -0.000169   0.001366   0.000263  -0.000193
     2  C   -0.059266  -0.010086  -0.000949  -0.011758  -0.002913  -0.000757
     3  C   -0.011956  -0.001088   0.000062  -0.007023   0.000154   0.001402
     4  C   -0.003170  -0.000229   0.000019  -0.000948  -0.000066   0.000283
     5  C    0.004276   0.000395  -0.000033   0.001631  -0.000196  -0.000173
     6  C    0.022892   0.002110  -0.000060   0.007970   0.001945  -0.000535
     7  H    0.000203   0.000164   0.000019  -0.000099   0.000037   0.000003
     8  C   -0.000062   0.000063   0.000000  -0.000007  -0.000001   0.000002
     9  H    0.000026   0.000003   0.000000   0.000003   0.000000   0.000000
    10  H   -0.000003   0.000002   0.000000   0.000000   0.000000   0.000000
    11  H    0.000000   0.000017   0.000000  -0.000001   0.000000   0.000000
    12  C   -0.000002   0.000007   0.000000   0.000001  -0.000001   0.000000
    13  H    0.000001   0.000000   0.000000   0.000000   0.000000   0.000000
    14  H   -0.000002   0.000001   0.000000   0.000000   0.000000   0.000000
    15  N    0.000015   0.000029   0.000000   0.000001   0.000001  -0.000001
    16  C   -0.152399  -0.014279   0.002778  -0.011381  -0.005227   0.000864
    17  C   -0.031581  -0.001639   0.000773  -0.010432  -0.002142   0.000764
    18  H   -0.000076  -0.000239  -0.000004   0.000160  -0.000017  -0.000061
    19  H   -0.000070  -0.000049  -0.000001  -0.000005   0.000001   0.000001
    20  H    0.000003   0.000002   0.000000   0.000000   0.000001   0.000000
    21  C   -0.986352   0.013013  -0.002338   0.001451   0.010254  -0.010444
    22  H    0.001642  -0.003122   0.000068  -0.003672   0.000070   0.000567
    23  C   -1.062024  -0.000736  -0.030757   0.293699   0.024174  -0.021207
    24  H   -0.047618  -0.035103  -0.001518   0.026956   0.000671   0.003544
    25  C   -2.606347  -0.046119  -0.138412  -0.586840  -0.179814   0.002921
    26  O   -0.028306   0.001490   0.000421   0.001576   0.078044   0.000001
    27  C    0.370949   0.036090   0.062659  -2.413874   0.035710  -0.000261
    28  C    1.416406   0.443296   0.023004  -1.376651   0.019977   0.013313
    29  C   -2.732459   0.098476   0.735804  -1.814869   0.063300  -0.121665
    30  O   -0.008634  -0.003475  -0.038253   0.050164   0.245540   0.000538
    31  C   11.590970  -0.152756  -0.034609   1.225707   0.025218   0.540809
    32  H   -0.152756   0.597958   0.005016  -0.051113   0.000609  -0.030686
    33  H   -0.034609   0.005016   0.507425  -0.271275   0.002284  -0.002050
    34  C    1.225707  -0.051113  -0.271275  10.973530   0.002073  -0.077081
    35  H    0.025218   0.000609   0.002284   0.002073   0.299657   0.000724
    36  H    0.540809  -0.030686  -0.002050  -0.077081   0.000724   0.485956
    37  O   -0.557998  -0.000460  -0.015296   0.256086  -0.000440  -0.023354
    38  C    0.134563  -0.003891  -0.023853   0.235172   0.000501   0.005163
    39  H   -0.007116  -0.000133  -0.008765  -0.018461  -0.000078  -0.000577
    40  H    0.018101  -0.000295  -0.001745   0.060359   0.000099   0.001147
    41  H   -0.016690   0.000008  -0.007577  -0.031969  -0.000065  -0.000652
             37         38         39         40         41
     1  H    0.000013   0.000011   0.000004   0.000000   0.000005
     2  C    0.000014  -0.000307   0.000036  -0.000014   0.000002
     3  C    0.000004  -0.000013  -0.000001  -0.000001  -0.000001
     4  C    0.000000   0.000000   0.000000   0.000000   0.000000
     5  C    0.000000   0.000003   0.000000   0.000000   0.000001
     6  C   -0.000006   0.000032  -0.000001   0.000001   0.000006
     7  H    0.000000   0.000000   0.000000   0.000000   0.000000
     8  C    0.000000   0.000000   0.000000   0.000000   0.000000
     9  H    0.000000   0.000000   0.000000   0.000000   0.000000
    10  H    0.000000   0.000000   0.000000   0.000000   0.000000
    11  H    0.000000   0.000000   0.000000   0.000000   0.000000
    12  C    0.000000   0.000000   0.000000   0.000000   0.000000
    13  H    0.000000   0.000000   0.000000   0.000000   0.000000
    14  H    0.000000   0.000000   0.000000   0.000000   0.000000
    15  N    0.000000   0.000000   0.000000   0.000000   0.000000
    16  C    0.000117   0.001130  -0.000084   0.000048  -0.000103
    17  C   -0.000011  -0.000013  -0.000011  -0.000002  -0.000010
    18  H    0.000000   0.000000   0.000000   0.000000   0.000000
    19  H    0.000000   0.000000   0.000000   0.000000   0.000000
    20  H    0.000000   0.000000   0.000000   0.000000   0.000000
    21  C   -0.002521  -0.003690   0.000478  -0.000084  -0.000507
    22  H    0.000008  -0.000015  -0.000003  -0.000002   0.000001
    23  C    0.005911   0.036752   0.001006   0.001631   0.001551
    24  H   -0.000128   0.000647   0.000055   0.000037  -0.000036
    25  C    0.030957  -0.085783   0.010652  -0.002399   0.004663
    26  O   -0.000046   0.000266  -0.000023   0.000017  -0.000052
    27  C    0.059171  -0.179194   0.000634  -0.014215   0.011352
    28  C   -0.131646  -0.017047  -0.006669   0.003877  -0.013261
    29  C    0.263624  -0.399899  -0.000109  -0.029223   0.019336
    30  O   -0.000764   0.006340   0.000267   0.000386   0.000183
    31  C   -0.557998   0.134563  -0.007116   0.018101  -0.016690
    32  H   -0.000460  -0.003891  -0.000133  -0.000295   0.000008
    33  H   -0.015296  -0.023853  -0.008765  -0.001745  -0.007577
    34  C    0.256086   0.235172  -0.018461   0.060359  -0.031969
    35  H   -0.000440   0.000501  -0.000078   0.000099  -0.000065
    36  H   -0.023354   0.005163  -0.000577   0.001147  -0.000652
    37  O    8.181537   0.198839  -0.033221  -0.068604  -0.034396
    38  C    0.198839   5.261828   0.406010   0.393878   0.413523
    39  H   -0.033221   0.406010   0.568853  -0.019187  -0.062130
    40  H   -0.068604   0.393878  -0.019187   0.454795  -0.018712
    41  H   -0.034396   0.413523  -0.062130  -0.018712   0.565820
 Mulliken atomic charges:
              1
     1  H    0.229935
     2  C    0.832782
     3  C   -0.430831
     4  C   -0.407152
     5  C   -0.263765
     6  C   -0.268271
     7  H    0.209976
     8  C   -0.396168
     9  H    0.164459
    10  H    0.152421
    11  H    0.180448
    12  C   -0.391649
    13  H    0.153276
    14  H    0.166936
    15  N    0.052320
    16  C    0.172263
    17  C   -0.479869
    18  H    0.216943
    19  H    0.185739
    20  H    0.180384
    21  C    0.066104
    22  H    0.160035
    23  C   -0.056386
    24  H   -0.178750
    25  C    1.287075
    26  O   -0.330681
    27  C   -0.015727
    28  C   -0.559329
    29  C   -0.091222
    30  O   -0.294856
    31  C   -0.849470
    32  H    0.154742
    33  H    0.237333
    34  C   -0.450445
    35  H    0.379655
    36  H    0.231696
    37  O   -0.127390
    38  C   -0.380951
    39  H    0.168573
    40  H    0.220107
    41  H    0.169711
 Sum of Mulliken atomic charges =   0.00000
 Mulliken charges with hydrogens summed into heavy atoms:
              1
     2  C    0.832782
     3  C   -0.213888
     4  C   -0.407152
     5  C   -0.078025
     6  C   -0.058295
     8  C    0.101160
    12  C    0.108946
    15  N    0.052320
    16  C    0.402198
    17  C   -0.319834
    21  C   -0.112646
    23  C   -0.056386
    25  C    1.287075
    26  O   -0.330681
    27  C   -0.015727
    28  C   -0.404586
    29  C    0.146111
    30  O    0.084798
    31  C   -0.617774
    34  C   -0.450445
    37  O   -0.127390
    38  C    0.177441
 Sum of Mulliken charges with hydrogens summed into heavy atoms =   0.00000
 Electronic spatial extent (au):  <R**2>=          13723.2127
 Charge=              0.0000 electrons
 Dipole moment (field-independent basis, Debye):
    X=             -4.6962    Y=             -3.3960    Z=              0.1550  Tot=              5.7976
 Quadrupole moment (field-independent basis, Debye-Ang):
   XX=            -72.0074   YY=           -130.6380   ZZ=           -136.6804
   XY=             -1.8386   XZ=             -1.3396   YZ=              0.9975
 Traceless Quadrupole moment (field-independent basis, Debye-Ang):
   XX=             41.1012   YY=            -17.5294   ZZ=            -23.5718
   XY=             -1.8386   XZ=             -1.3396   YZ=              0.9975
 Octapole moment (field-independent basis, Debye-Ang**2):
  XXX=            -79.4013  YYY=            -17.0509  ZZZ=             -0.5196  XYY=            -56.9796
  XXY=            -56.0081  XXZ=              3.2577  XZZ=             15.6722  YZZ=              3.1119
  YYZ=              0.7633  XYZ=             -1.7105
 Hexadecapole moment (field-independent basis, Debye-Ang**3):
 XXXX=         -12084.0347 YYYY=          -1555.3437 ZZZZ=           -177.0416 XXXY=             62.5193
 XXXZ=            -69.8151 YYYX=             -7.5207 YYYZ=              4.0048 ZZZX=             -5.4813
 ZZZY=             -0.6925 XXYY=          -3006.6970 XXZZ=          -2929.2747 YYZZ=           -301.6584
 XXYZ=             22.6039 YYXZ=              6.9306 ZZXY=             14.2864
 N-N= 1.596600013384D+03 E-N=-5.471746291209D+03  KE= 9.738087441227D+02
 1\1\GINC-NXN32\FOpt\RwB97XD\6-311++G(d,p)\C18H19N1O3\ROOT\22-Nov-2015\
 0\\#wb97xd 6-311++g** opt\\title\\0,1\H,-0.7009794719,0.7838788145,1.5
 210362819\C,-1.4731682547,1.3996378529,3.4476833254\C,-2.3342559565,2.
 1199654401,5.6027042045\C,-1.474319368,1.2346728582,6.290115762\C,-0.6
 226790695,0.4268223827,5.511375974\C,-0.629358813,0.5188171876,4.13211
 66188\H,0.0409641928,-0.1182920522,3.5635107716\C,-2.4456422109,1.9154
 231958,8.4255506011\H,-2.3523100814,2.9913536713,8.2453090747\H,-2.276
 4900402,1.7452402095,9.4876911998\H,-3.4748058085,1.6137202764,8.19009
 20772\C,-0.6658024771,0.16462088,8.328499862\H,-0.7795962978,0.2716097
 885,9.4060930636\H,0.396736123,0.2872868046,8.0945956898\N,-1.46826424
 23,1.1684425513,7.6622382485\C,-1.4252617605,1.44389194,1.9941918791\C
 ,-2.324891773,2.194898942,4.2253938458\H,-3.0147108794,2.7573614448,6.
 1508110344\H,0.0502580833,-0.277187054,5.9811740571\H,-0.964138338,-0.
 8552906374,8.051822598\C,-2.1655328961,2.199212277,1.1670111691\H,-3.0
 023358071,2.8932711143,3.7463013619\C,-1.9614461932,2.1145239402,-0.28
 88720145\H,-2.908944406,2.8821782572,1.554919122\C,-2.8236107374,2.878
 0322913,-1.2037532256\O,-1.0534106417,1.4029903973,-0.7434064279\C,-2.
 5570515698,2.8485146043,-2.5938721618\C,-3.9224565964,3.6486734035,-0.
 7744245996\C,-3.3484197597,3.5756841539,-3.4905061625\O,-1.555953542,2
 .1419871432,-3.1131641218\C,-4.709237042,4.3565530729,-1.6465868772\H,
 -4.1719719635,3.6851647539,0.278019664\H,-3.0909600991,3.5174223962,-4
 .5388614544\C,-4.4152674541,4.3226397773,-3.020987658\H,-1.120327098,1
 .6790112434,-2.3569709386\H,-5.554197216,4.9410780144,-1.3065385596\O,
 -5.2340743834,5.0486829282,-3.8082067819\C,-4.990295729,5.0660443373,-
 5.2006865941\H,-5.0646465229,4.0614564994,-5.6298494112\H,-5.761662442
 3,5.7012501883,-5.6318817532\H,-4.0048684565,5.4877127096,-5.424740744
 3\\Version=EM64L-G09RevC.01\State=1-A\HF=-977.6944838\RMSD=5.457e-09\R
 MSF=4.247e-06\Dipole=-0.6004144,0.2511969,2.1861082\Quadrupole=-13.178
 7407,-11.1371861,24.3159268,-5.3928965,9.4304825,-12.0945904\PG=C01 [X
 (C18H19N1O3)]\\@


 MAN IS A SINGULAR CREATURE.  HE HAS A SET OF GIFTS
 WHICH MAKE HIM UNIQUE AMONG THE ANIMALS: SO THAT, 
 UNLIKE THEM, HE IS NOT A FIGURE IN THE LANDSCAPE --
 HE IS A SHAPER OF THE LANDSCAPE.

                       -- JACOB BRONOWSKI
 Job cpu time:  2 days  0 hours 46 minutes 43.3 seconds.
 File lengths (MBytes):  RWF=    231 Int=      0 D2E=      0 Chk=     26 Scr=      1
 Normal termination of Gaussian 09 at Sun Nov 22 03:41:19 2015.
