 Entering Gaussian System, Link 0=g09
 Input=mMeO_optS1.com
 Output=mMeO_optS1.out
 Initial command:
 /share/apps/gaussian/g09/l1.exe /tmp/3548259.1.chemistry.q/Gau-15235.inp -scrdir=/tmp/3548259.1.chemistry.q/
 Entering Link 1 = /share/apps/gaussian/g09/l1.exe PID=     15236.
  
 Copyright (c) 1988,1990,1992,1993,1995,1998,2003,2009,2011,
            Gaussian, Inc.  All Rights Reserved.
  
 This is part of the Gaussian(R) 09 program.  It is based on
 the Gaussian(R) 03 system (copyright 2003, Gaussian, Inc.),
 the Gaussian(R) 98 system (copyright 1998, Gaussian, Inc.),
 the Gaussian(R) 94 system (copyright 1995, Gaussian, Inc.),
 the Gaussian 92(TM) system (copyright 1992, Gaussian, Inc.),
 the Gaussian 90(TM) system (copyright 1990, Gaussian, Inc.),
 the Gaussian 88(TM) system (copyright 1988, Gaussian, Inc.),
 the Gaussian 86(TM) system (copyright 1986, Carnegie Mellon
 University), and the Gaussian 82(TM) system (copyright 1983,
 Carnegie Mellon University). Gaussian is a federally registered
 trademark of Gaussian, Inc.
  
 This software contains proprietary and confidential information,
 including trade secrets, belonging to Gaussian, Inc.
  
 This software is provided under written license and may be
 used, copied, transmitted, or stored only in accord with that
 written license.
  
 The following legend is applicable only to US Government
 contracts under FAR:
  
                    RESTRICTED RIGHTS LEGEND
  
 Use, reproduction and disclosure by the US Government is
 subject to restrictions as set forth in subparagraphs (a)
 and (c) of the Commercial Computer Software - Restricted
 Rights clause in FAR 52.227-19.
  
 Gaussian, Inc.
 340 Quinnipiac St., Bldg. 40, Wallingford CT 06492
  
  
 ---------------------------------------------------------------
 Warning -- This program may not be used in any manner that
 competes with the business of Gaussian, Inc. or will provide
 assistance to any competitor of Gaussian, Inc.  The licensee
 of this program is prohibited from giving any competitor of
 Gaussian, Inc. access to this program.  By using this program,
 the user acknowledges that Gaussian, Inc. is engaged in the
 business of creating and licensing software in the field of
 computational chemistry and represents and warrants to the
 licensee that it is not a competitor of Gaussian, Inc. and that
 it will not use this program in any manner prohibited above.
 ---------------------------------------------------------------
  

 Cite this work as:
 Gaussian 09, Revision C.01,
 M. J. Frisch, G. W. Trucks, H. B. Schlegel, G. E. Scuseria, 
 M. A. Robb, J. R. Cheeseman, G. Scalmani, V. Barone, B. Mennucci, 
 G. A. Petersson, H. Nakatsuji, M. Caricato, X. Li, H. P. Hratchian, 
 A. F. Izmaylov, J. Bloino, G. Zheng, J. L. Sonnenberg, M. Hada, 
 M. Ehara, K. Toyota, R. Fukuda, J. Hasegawa, M. Ishida, T. Nakajima, 
 Y. Honda, O. Kitao, H. Nakai, T. Vreven, J. A. Montgomery, Jr., 
 J. E. Peralta, F. Ogliaro, M. Bearpark, J. J. Heyd, E. Brothers, 
 K. N. Kudin, V. N. Staroverov, T. Keith, R. Kobayashi, J. Normand, 
 K. Raghavachari, A. Rendell, J. C. Burant, S. S. Iyengar, J. Tomasi, 
 M. Cossi, N. Rega, J. M. Millam, M. Klene, J. E. Knox, J. B. Cross, 
 V. Bakken, C. Adamo, J. Jaramillo, R. Gomperts, R. E. Stratmann, 
 O. Yazyev, A. J. Austin, R. Cammi, C. Pomelli, J. W. Ochterski, 
 R. L. Martin, K. Morokuma, V. G. Zakrzewski, G. A. Voth, 
 P. Salvador, J. J. Dannenberg, S. Dapprich, A. D. Daniels, 
 O. Farkas, J. B. Foresman, J. V. Ortiz, J. Cioslowski, 
 and D. J. Fox, Gaussian, Inc., Wallingford CT, 2010.
 
 ******************************************
 Gaussian 09:  EM64L-G09RevC.01 23-Sep-2011
                21-Nov-2015 
 ******************************************
 %chk=mMeO_optS1
 %mem=2GB
 %nproc=4
 Will use up to    4 processors via shared memory.
 -----------------------------------------------------------------
 #wb97xd 6-311++g** td(nstates=1,root=1) opt scf(maxcycle=500,xqc)
 -----------------------------------------------------------------
 1/14=-1,18=20,19=15,26=3,38=1/1,3;
 2/9=110,12=2,17=6,18=5,40=1/2;
 3/5=4,6=6,7=1111,11=2,16=1,25=1,30=1,71=1,74=-58/1,2,8,3;
 4//1;
 5/5=2,7=500,8=3,13=1,38=5/2,8;
 8/6=1,10=2,107=1,108=1/1;
 9/8=1,15=2,41=1,42=1/14;
 10/5=4/2;
 6/7=2,8=2,9=2,10=2/1;
 7/12=6,13=5,14=1/1,2,3,16;
 1/14=-1,18=20,19=15/3(2);
 2/9=110/2;
 99//99;
 2/9=110/2;
 3/5=4,6=6,7=1111,11=2,16=1,25=1,30=1,71=1,74=-58/1,2,8,3;
 4/5=5,16=3/1;
 5/5=2,7=500,8=3,13=1,38=5/2,8;
 8/6=1,10=2,107=1,108=1/1;
 9/8=1,15=2,41=1,42=1,49=4/14;
 10/5=4/2;
 7/12=6,13=5,14=1/1,2,3,16;
 1/14=-1,18=20,19=15/3(-8);
 2/9=110/2;
 6/7=2,8=2,9=2,10=2/1;
 99//99;
 -----
 title
 -----
 Charge =  0 Multiplicity = 1
 Symbolic Z-Matrix:
 H                    -0.64615   0.9027    1.56928 
 C                    -1.38393   1.38115   3.39822 
 C                    -2.37392   2.0453    5.49812 
 C                    -1.5239    1.21173   6.23308 
 C                    -0.57967   0.48659   5.49586 
 C                    -0.52709   0.58418   4.13996 
 H                     0.11945   0.09217   3.68724 
 C                    -2.57276   1.91247   8.33862 
 H                    -2.53962   2.83143   8.06541 
 H                    -2.37388   1.85012   9.27568 
 H                    -3.45149   1.56142   8.17492 
 C                    -0.74238   0.25075   8.3375 
 H                    -0.93189   0.3375    9.27455 
 H                     0.17656   0.47439   8.17492 
 N                    -1.59926   1.14802   7.5856 
 C                    -1.31079   1.42046   1.96216 
 C                    -2.29599   2.11307   4.13431 
 H                    -3.00439   2.56171   5.94519 
 H                     0.01891  -0.07048   5.93955 
 H                    -0.90577  -0.65466   8.05977 
 C                    -2.08309   2.11036   1.13462 
 H                    -2.88191   2.67556   3.68159 
 C                    -1.9103    2.07376  -0.30708 
 H                    -2.76236   2.63761   1.49138 
 C                    -2.78015   2.86396  -1.17414 
 O                    -1.00673   1.36502  -0.81738 
 C                    -2.65167   2.76637  -2.56165 
 C                    -3.7628    3.72193  -0.70561 
 C                    -3.44676   3.49287  -3.42532 
 O                    -1.70751   1.97617  -3.12275 
 C                    -4.55237   4.443    -1.54557 
 H                    -3.88669   3.80732   0.21225 
 H                    -3.3375    3.41832  -4.34656 
 C                    -4.39616   4.32237  -2.90486 
 H                    -1.28501   1.59531  -2.5323 
 H                    -5.1969    5.01769  -1.20123 
 O                    -5.22474   5.09359  -3.6624 
 C                    -5.03992   5.10308  -5.06685 
 H                    -5.11891   4.20852  -5.40554 
 H                    -5.70802   5.6588   -5.47328 
 H                    -4.16791   5.44735  -5.27232 
 

 GradGradGradGradGradGradGradGradGradGradGradGradGradGradGradGradGradGrad
 Berny optimization.
 Initialization pass.
                           ----------------------------
                           !    Initial Parameters    !
                           ! (Angstroms and Degrees)  !
 --------------------------                            --------------------------
 ! Name  Definition              Value          Derivative Info.                !
 --------------------------------------------------------------------------------
 ! R1    R(1,16)                 0.9296         estimate D2E/DX2                !
 ! R2    R(2,6)                  1.3855         estimate D2E/DX2                !
 ! R3    R(2,16)                 1.4385         estimate D2E/DX2                !
 ! R4    R(2,17)                 1.3818         estimate D2E/DX2                !
 ! R5    R(3,4)                  1.3991         estimate D2E/DX2                !
 ! R6    R(3,17)                 1.3677         estimate D2E/DX2                !
 ! R7    R(3,18)                 0.9295         estimate D2E/DX2                !
 ! R8    R(4,5)                  1.4003         estimate D2E/DX2                !
 ! R9    R(4,15)                 1.3561         estimate D2E/DX2                !
 ! R10   R(5,6)                  1.3604         estimate D2E/DX2                !
 ! R11   R(5,19)                 0.9303         estimate D2E/DX2                !
 ! R12   R(6,7)                  0.9301         estimate D2E/DX2                !
 ! R13   R(8,9)                  0.9593         estimate D2E/DX2                !
 ! R14   R(8,10)                 0.96           estimate D2E/DX2                !
 ! R15   R(8,11)                 0.9603         estimate D2E/DX2                !
 ! R16   R(8,15)                 1.4488         estimate D2E/DX2                !
 ! R17   R(12,13)                0.96           estimate D2E/DX2                !
 ! R18   R(12,14)                0.9596         estimate D2E/DX2                !
 ! R19   R(12,15)                1.4508         estimate D2E/DX2                !
 ! R20   R(12,20)                0.961          estimate D2E/DX2                !
 ! R21   R(16,21)                1.3256         estimate D2E/DX2                !
 ! R22   R(17,22)                0.9299         estimate D2E/DX2                !
 ! R23   R(21,23)                1.4525         estimate D2E/DX2                !
 ! R24   R(21,24)                0.9309         estimate D2E/DX2                !
 ! R25   R(23,25)                1.4604         estimate D2E/DX2                !
 ! R26   R(23,26)                1.2566         estimate D2E/DX2                !
 ! R27   R(25,27)                1.3969         estimate D2E/DX2                !
 ! R28   R(25,28)                1.3861         estimate D2E/DX2                !
 ! R29   R(27,29)                1.3805         estimate D2E/DX2                !
 ! R30   R(27,30)                1.353          estimate D2E/DX2                !
 ! R31   R(28,31)                1.3597         estimate D2E/DX2                !
 ! R32   R(28,32)                0.9301         estimate D2E/DX2                !
 ! R33   R(29,33)                0.9307         estimate D2E/DX2                !
 ! R34   R(29,34)                1.3639         estimate D2E/DX2                !
 ! R35   R(30,35)                0.8199         estimate D2E/DX2                !
 ! R36   R(31,34)                1.3735         estimate D2E/DX2                !
 ! R37   R(31,36)                0.9297         estimate D2E/DX2                !
 ! R38   R(34,37)                1.3621         estimate D2E/DX2                !
 ! R39   R(37,38)                1.4166         estimate D2E/DX2                !
 ! R40   R(38,39)                0.9598         estimate D2E/DX2                !
 ! R41   R(38,40)                0.9594         estimate D2E/DX2                !
 ! R42   R(38,41)                0.9598         estimate D2E/DX2                !
 ! A1    A(6,2,16)             121.2482         estimate D2E/DX2                !
 ! A2    A(6,2,17)             115.3221         estimate D2E/DX2                !
 ! A3    A(16,2,17)            123.4292         estimate D2E/DX2                !
 ! A4    A(4,3,17)             121.2456         estimate D2E/DX2                !
 ! A5    A(4,3,18)             119.3671         estimate D2E/DX2                !
 ! A6    A(17,3,18)            119.3872         estimate D2E/DX2                !
 ! A7    A(3,4,5)              116.2075         estimate D2E/DX2                !
 ! A8    A(3,4,15)             121.2072         estimate D2E/DX2                !
 ! A9    A(5,4,15)             122.5625         estimate D2E/DX2                !
 ! A10   A(4,5,6)              120.9062         estimate D2E/DX2                !
 ! A11   A(4,5,19)             119.5279         estimate D2E/DX2                !
 ! A12   A(6,5,19)             119.5658         estimate D2E/DX2                !
 ! A13   A(2,6,5)              123.4321         estimate D2E/DX2                !
 ! A14   A(2,6,7)              118.2694         estimate D2E/DX2                !
 ! A15   A(5,6,7)              118.2982         estimate D2E/DX2                !
 ! A16   A(9,8,10)             109.4555         estimate D2E/DX2                !
 ! A17   A(9,8,11)             109.4663         estimate D2E/DX2                !
 ! A18   A(9,8,15)             109.5242         estimate D2E/DX2                !
 ! A19   A(10,8,11)            109.4045         estimate D2E/DX2                !
 ! A20   A(10,8,15)            109.5039         estimate D2E/DX2                !
 ! A21   A(11,8,15)            109.4729         estimate D2E/DX2                !
 ! A22   A(13,12,14)           109.4727         estimate D2E/DX2                !
 ! A23   A(13,12,15)           109.4767         estimate D2E/DX2                !
 ! A24   A(13,12,20)           109.4913         estimate D2E/DX2                !
 ! A25   A(14,12,15)           109.4908         estimate D2E/DX2                !
 ! A26   A(14,12,20)           109.4759         estimate D2E/DX2                !
 ! A27   A(15,12,20)           109.4199         estimate D2E/DX2                !
 ! A28   A(4,15,8)             122.0677         estimate D2E/DX2                !
 ! A29   A(4,15,12)            120.873          estimate D2E/DX2                !
 ! A30   A(8,15,12)            116.9891         estimate D2E/DX2                !
 ! A31   A(1,16,2)             116.2996         estimate D2E/DX2                !
 ! A32   A(1,16,21)            116.268          estimate D2E/DX2                !
 ! A33   A(2,16,21)            127.4324         estimate D2E/DX2                !
 ! A34   A(2,17,3)             122.857          estimate D2E/DX2                !
 ! A35   A(2,17,22)            118.4872         estimate D2E/DX2                !
 ! A36   A(3,17,22)            118.6558         estimate D2E/DX2                !
 ! A37   A(16,21,23)           122.4942         estimate D2E/DX2                !
 ! A38   A(16,21,24)           118.7257         estimate D2E/DX2                !
 ! A39   A(23,21,24)           118.7801         estimate D2E/DX2                !
 ! A40   A(21,23,25)           120.3182         estimate D2E/DX2                !
 ! A41   A(21,23,26)           120.1868         estimate D2E/DX2                !
 ! A42   A(25,23,26)           119.4945         estimate D2E/DX2                !
 ! A43   A(23,25,27)           119.8112         estimate D2E/DX2                !
 ! A44   A(23,25,28)           123.8135         estimate D2E/DX2                !
 ! A45   A(27,25,28)           116.3727         estimate D2E/DX2                !
 ! A46   A(25,27,29)           122.1191         estimate D2E/DX2                !
 ! A47   A(25,27,30)           121.1251         estimate D2E/DX2                !
 ! A48   A(29,27,30)           116.7299         estimate D2E/DX2                !
 ! A49   A(25,28,31)           122.0803         estimate D2E/DX2                !
 ! A50   A(25,28,32)           119.0009         estimate D2E/DX2                !
 ! A51   A(31,28,32)           118.9189         estimate D2E/DX2                !
 ! A52   A(27,29,33)           120.6299         estimate D2E/DX2                !
 ! A53   A(27,29,34)           118.8298         estimate D2E/DX2                !
 ! A54   A(33,29,34)           120.5403         estimate D2E/DX2                !
 ! A55   A(27,30,35)           109.4051         estimate D2E/DX2                !
 ! A56   A(28,31,34)           119.9148         estimate D2E/DX2                !
 ! A57   A(28,31,36)           120.1058         estimate D2E/DX2                !
 ! A58   A(34,31,36)           119.9793         estimate D2E/DX2                !
 ! A59   A(29,34,31)           120.6773         estimate D2E/DX2                !
 ! A60   A(29,34,37)           123.7501         estimate D2E/DX2                !
 ! A61   A(31,34,37)           115.5622         estimate D2E/DX2                !
 ! A62   A(34,37,38)           118.4135         estimate D2E/DX2                !
 ! A63   A(37,38,39)           109.4435         estimate D2E/DX2                !
 ! A64   A(37,38,40)           109.4532         estimate D2E/DX2                !
 ! A65   A(37,38,41)           109.4631         estimate D2E/DX2                !
 ! A66   A(39,38,40)           109.4554         estimate D2E/DX2                !
 ! A67   A(39,38,41)           109.485          estimate D2E/DX2                !
 ! A68   A(40,38,41)           109.527          estimate D2E/DX2                !
 ! D1    D(16,2,6,5)          -178.2429         estimate D2E/DX2                !
 ! D2    D(16,2,6,7)             1.9451         estimate D2E/DX2                !
 ! D3    D(17,2,6,5)             1.5082         estimate D2E/DX2                !
 ! D4    D(17,2,6,7)          -178.3039         estimate D2E/DX2                !
 ! D5    D(6,2,16,1)            -1.6134         estimate D2E/DX2                !
 ! D6    D(6,2,16,21)          178.3651         estimate D2E/DX2                !
 ! D7    D(17,2,16,1)          178.6563         estimate D2E/DX2                !
 ! D8    D(17,2,16,21)          -1.3653         estimate D2E/DX2                !
 ! D9    D(6,2,17,3)            -1.1693         estimate D2E/DX2                !
 ! D10   D(6,2,17,22)          178.8526         estimate D2E/DX2                !
 ! D11   D(16,2,17,3)          178.5757         estimate D2E/DX2                !
 ! D12   D(16,2,17,22)          -1.4025         estimate D2E/DX2                !
 ! D13   D(17,3,4,5)             1.5019         estimate D2E/DX2                !
 ! D14   D(17,3,4,15)          179.8082         estimate D2E/DX2                !
 ! D15   D(18,3,4,5)          -178.5978         estimate D2E/DX2                !
 ! D16   D(18,3,4,15)           -0.2915         estimate D2E/DX2                !
 ! D17   D(4,3,17,2)            -0.3259         estimate D2E/DX2                !
 ! D18   D(4,3,17,22)          179.6522         estimate D2E/DX2                !
 ! D19   D(18,3,17,2)          179.7738         estimate D2E/DX2                !
 ! D20   D(18,3,17,22)          -0.2481         estimate D2E/DX2                !
 ! D21   D(3,4,5,6)             -1.1793         estimate D2E/DX2                !
 ! D22   D(3,4,5,19)           178.9166         estimate D2E/DX2                !
 ! D23   D(15,4,5,6)          -179.4605         estimate D2E/DX2                !
 ! D24   D(15,4,5,19)            0.6354         estimate D2E/DX2                !
 ! D25   D(3,4,15,8)             1.2276         estimate D2E/DX2                !
 ! D26   D(3,4,15,12)          178.0892         estimate D2E/DX2                !
 ! D27   D(5,4,15,8)           179.4246         estimate D2E/DX2                !
 ! D28   D(5,4,15,12)           -3.7138         estimate D2E/DX2                !
 ! D29   D(4,5,6,2)             -0.3421         estimate D2E/DX2                !
 ! D30   D(4,5,6,7)            179.4699         estimate D2E/DX2                !
 ! D31   D(19,5,6,2)           179.562          estimate D2E/DX2                !
 ! D32   D(19,5,6,7)            -0.6259         estimate D2E/DX2                !
 ! D33   D(9,8,15,4)           -50.465          estimate D2E/DX2                !
 ! D34   D(9,8,15,12)          132.5578         estimate D2E/DX2                !
 ! D35   D(10,8,15,4)         -170.4982         estimate D2E/DX2                !
 ! D36   D(10,8,15,12)          12.5246         estimate D2E/DX2                !
 ! D37   D(11,8,15,4)           69.5625         estimate D2E/DX2                !
 ! D38   D(11,8,15,12)        -107.4147         estimate D2E/DX2                !
 ! D39   D(13,12,15,4)        -179.9645         estimate D2E/DX2                !
 ! D40   D(13,12,15,8)          -2.9489         estimate D2E/DX2                !
 ! D41   D(14,12,15,4)          60.0184         estimate D2E/DX2                !
 ! D42   D(14,12,15,8)        -122.9661         estimate D2E/DX2                !
 ! D43   D(20,12,15,4)         -59.968          estimate D2E/DX2                !
 ! D44   D(20,12,15,8)         117.0476         estimate D2E/DX2                !
 ! D45   D(1,16,21,23)          -0.2148         estimate D2E/DX2                !
 ! D46   D(1,16,21,24)         179.7299         estimate D2E/DX2                !
 ! D47   D(2,16,21,23)         179.8068         estimate D2E/DX2                !
 ! D48   D(2,16,21,24)          -0.2486         estimate D2E/DX2                !
 ! D49   D(16,21,23,25)       -179.3717         estimate D2E/DX2                !
 ! D50   D(16,21,23,26)          0.3516         estimate D2E/DX2                !
 ! D51   D(24,21,23,25)          0.6836         estimate D2E/DX2                !
 ! D52   D(24,21,23,26)       -179.593          estimate D2E/DX2                !
 ! D53   D(21,23,25,27)       -176.594          estimate D2E/DX2                !
 ! D54   D(21,23,25,28)          2.7972         estimate D2E/DX2                !
 ! D55   D(26,23,25,27)          3.6807         estimate D2E/DX2                !
 ! D56   D(26,23,25,28)       -176.928          estimate D2E/DX2                !
 ! D57   D(23,25,27,29)       -179.8788         estimate D2E/DX2                !
 ! D58   D(23,25,27,30)         -1.7889         estimate D2E/DX2                !
 ! D59   D(28,25,27,29)          0.6858         estimate D2E/DX2                !
 ! D60   D(28,25,27,30)        178.7756         estimate D2E/DX2                !
 ! D61   D(23,25,28,31)        179.9053         estimate D2E/DX2                !
 ! D62   D(23,25,28,32)         -0.1158         estimate D2E/DX2                !
 ! D63   D(27,25,28,31)         -0.6842         estimate D2E/DX2                !
 ! D64   D(27,25,28,32)        179.2946         estimate D2E/DX2                !
 ! D65   D(25,27,29,33)        179.3723         estimate D2E/DX2                !
 ! D66   D(25,27,29,34)         -0.6369         estimate D2E/DX2                !
 ! D67   D(30,27,29,33)          1.2031         estimate D2E/DX2                !
 ! D68   D(30,27,29,34)       -178.8061         estimate D2E/DX2                !
 ! D69   D(25,27,30,35)          1.1838         estimate D2E/DX2                !
 ! D70   D(29,27,30,35)        179.3725         estimate D2E/DX2                !
 ! D71   D(25,28,31,34)          0.638          estimate D2E/DX2                !
 ! D72   D(25,28,31,36)       -179.3119         estimate D2E/DX2                !
 ! D73   D(32,28,31,34)       -179.3409         estimate D2E/DX2                !
 ! D74   D(32,28,31,36)          0.7092         estimate D2E/DX2                !
 ! D75   D(27,29,34,31)          0.556          estimate D2E/DX2                !
 ! D76   D(27,29,34,37)        179.3337         estimate D2E/DX2                !
 ! D77   D(33,29,34,31)       -179.4532         estimate D2E/DX2                !
 ! D78   D(33,29,34,37)         -0.6755         estimate D2E/DX2                !
 ! D79   D(28,31,34,29)         -0.5608         estimate D2E/DX2                !
 ! D80   D(28,31,34,37)       -179.4343         estimate D2E/DX2                !
 ! D81   D(36,31,34,29)        179.3891         estimate D2E/DX2                !
 ! D82   D(36,31,34,37)          0.5157         estimate D2E/DX2                !
 ! D83   D(29,34,37,38)         -4.1181         estimate D2E/DX2                !
 ! D84   D(31,34,37,38)        174.7166         estimate D2E/DX2                !
 ! D85   D(34,37,38,39)         57.976          estimate D2E/DX2                !
 ! D86   D(34,37,38,40)        177.9286         estimate D2E/DX2                !
 ! D87   D(34,37,38,41)        -62.019          estimate D2E/DX2                !
 --------------------------------------------------------------------------------
 Trust Radius=3.00D-01 FncErr=1.00D-07 GrdErr=1.00D-06
 Number of steps in this run=    207 maximum allowed number of steps=    246.
 GradGradGradGradGradGradGradGradGradGradGradGradGradGradGradGradGradGrad

                          Input orientation:                          
 ---------------------------------------------------------------------
 Center     Atomic      Atomic             Coordinates (Angstroms)
 Number     Number       Type             X           Y           Z
 ---------------------------------------------------------------------
      1          1           0       -0.646150    0.902696    1.569278
      2          6           0       -1.383932    1.381153    3.398221
      3          6           0       -2.373920    2.045299    5.498118
      4          6           0       -1.523896    1.211728    6.233082
      5          6           0       -0.579671    0.486589    5.495860
      6          6           0       -0.527088    0.584177    4.139959
      7          1           0        0.119446    0.092167    3.687239
      8          6           0       -2.572763    1.912469    8.338624
      9          1           0       -2.539622    2.831431    8.065412
     10          1           0       -2.373883    1.850121    9.275676
     11          1           0       -3.451490    1.561421    8.174923
     12          6           0       -0.742377    0.250749    8.337495
     13          1           0       -0.931889    0.337495    9.274547
     14          1           0        0.176555    0.474390    8.174923
     15          7           0       -1.599257    1.148024    7.585596
     16          6           0       -1.310786    1.420459    1.962162
     17          6           0       -2.295992    2.113069    4.134314
     18          1           0       -3.004388    2.561706    5.945193
     19          1           0        0.018905   -0.070481    5.939548
     20          1           0       -0.905771   -0.654658    8.059767
     21          6           0       -2.083094    2.110358    1.134622
     22          1           0       -2.881914    2.675560    3.681594
     23          6           0       -1.910295    2.073762   -0.307081
     24          1           0       -2.762355    2.637608    1.491379
     25          6           0       -2.780149    2.863960   -1.174136
     26          8           0       -1.006734    1.365023   -0.817379
     27          6           0       -2.651673    2.766371   -2.561648
     28          6           0       -3.762801    3.721928   -0.705610
     29          6           0       -3.446759    3.492866   -3.425317
     30          8           0       -1.707514    1.976173   -3.122750
     31          6           0       -4.552368    4.443001   -1.545569
     32          1           0       -3.886685    3.807319    0.212248
     33          1           0       -3.337499    3.418319   -4.346561
     34          6           0       -4.396157    4.322371   -2.904858
     35          1           0       -1.285009    1.595306   -2.532296
     36          1           0       -5.196900    5.017691   -1.201232
     37          8           0       -5.224741    5.093593   -3.662402
     38          6           0       -5.039918    5.103081   -5.066848
     39          1           0       -5.118914    4.208517   -5.405542
     40          1           0       -5.708024    5.658795   -5.473280
     41          1           0       -4.167915    5.447352   -5.272323
 ---------------------------------------------------------------------
                    Distance matrix (angstroms):
                    1          2          3          4          5
     1  H    0.000000
     2  C    2.029354   0.000000
     3  C    4.441454   2.414691   0.000000
     4  C    4.755734   2.843366   1.399126   0.000000
     5  C    3.949128   2.418092   2.376744   1.400316   0.000000
     6  C    2.593074   1.385470   2.718504   2.401793   1.360425
     7  H    2.393502   2.001290   3.648408   3.230372   1.978748
     8  C    7.110241   5.109129   2.850554   2.454479   3.753246
     9  H    7.035980   5.022111   2.690067   2.648126   3.992780
    10  H    7.954322   5.978663   3.782597   3.222949   4.400616
    11  H    7.206830   5.208087   2.925847   2.758378   4.071853
    12  C    6.800225   5.107429   3.734221   2.441886   2.856043
    13  H    7.731253   5.985380   4.388333   3.219513   3.797994
    14  H    6.670445   5.106292   4.017208   2.684390   2.783775
    15  N    6.096284   4.199384   2.400577   1.356109   2.417447
    16  C    0.929611   1.438458   3.744818   4.281325   3.727421
    17  C    3.281218   1.381806   1.367709   2.411094   2.728553
    18  H    5.240442   3.241396   0.929539   2.024149   3.222928
    19  H    4.526437   3.245541   3.224437   2.027426   0.930311
    20  H    6.679761   5.109127   4.000909   2.683701   2.825315
    21  C    1.926702   2.478800   4.373661   5.207162   4.890532
    22  H    3.550150   1.999935   1.988730   3.239924   3.658344
    23  C    2.547583   3.806052   5.823753   6.608036   6.161477
    24  H    2.737574   2.667354   4.068866   5.103985   5.042505
    25  C    3.990843   5.005456   6.734553   7.692524   7.415042
    26  O    2.457621   4.232472   6.497498   7.071065   6.388350
    27  C    4.955800   6.248683   8.096723   9.002004   8.626357
    28  C    4.778776   5.289582   6.574672   7.710982   7.684918
    29  C    6.284773   7.434733   9.103523  10.108692   9.841001
    30  O    4.928892   6.556052   8.646863   9.388806   8.818805
    31  C    6.123281   6.622308   7.752944   8.950988   9.000958
    32  H    4.558446   4.722338   5.773525   6.969240   7.062588
    33  H    6.969137   8.243065   9.986560  10.958424  10.633622
    34  C    6.765695   7.579780   8.937813  10.071143   9.992540
    35  H    4.208415   5.935207   8.116389   8.777018   8.134989
    36  H    6.731882   6.994148   7.854019   9.123888   9.311323
    37  O    8.117733   8.853611  10.066499  11.255476  11.254996
    38  C    8.999256   9.943660  11.317070  12.457667  12.360283
    39  H    8.920885   9.972478  11.450079  12.544420  12.381359
    40  H    9.891444  10.756371  12.022694  13.203115  13.167147
    41  H    8.936679   9.973107  11.436555  12.542157  12.387027
                    6          7          8          9         10
     6  C    0.000000
     7  H    0.930073   0.000000
     8  C    4.855711   5.674229   0.000000
     9  H    4.950720   5.808839   0.959288   0.000000
    10  H    5.602576   6.366924   0.959952   1.566901   0.000000
    11  H    5.078195   5.920270   0.960309   1.567297   1.567240
    12  C    4.216258   4.732100   2.472171   3.156587   2.469815
    13  H    5.156424   5.690650   2.459464   3.204143   2.089829
    14  H    4.097329   4.504294   3.107027   3.597951   3.099843
    15  N    3.652381   4.389301   1.448841   1.987050   1.987299
    16  C    2.460965   2.604959   6.518737   6.383615   7.402856
    17  C    2.338068   3.180922   4.218183   4.003615   5.148671
    18  H    3.647808   4.577698   2.517205   2.187256   3.463525
    19  H    1.991283   2.260411   4.050234   4.414346   4.532538
    20  H    4.128318   4.552781   3.073559   3.849976   3.147651
    21  C    3.712470   3.929393   7.223336   6.983138   8.150401
    22  H    3.182638   3.960065   4.729251   4.399923   5.677429
    23  C    4.889610   4.899098   8.672548   8.430229   9.596570
    24  H    4.028396   4.427849   6.888145   6.580660   7.833666
    25  C    6.205908   6.302655   9.562476   9.242735  10.506736
    26  O    5.041327   4.814564   9.305081   9.132583  10.196773
    27  C    7.361207   7.340235  10.933952  10.627850  11.875981
    28  C    6.617768   6.895225   9.299919   8.900561  10.249821
    29  C    8.615007   8.652804  11.901757  11.545443  12.851650
    30  O    7.488525   7.298165  11.494164  11.251615  12.416960
    31  C    7.963582   8.254567  10.393253   9.950842  11.338790
    32  H    6.091178   6.475106   8.447179   8.027398   9.394941
    33  H    9.378262   9.357120  12.797122  12.451430  13.746023
    34  C    8.864155   9.041075  11.642520  11.225705  12.592340
    35  H    6.790862   6.550919  10.951521  10.743066  11.860809
    36  H    8.366093   8.741937  10.370022   9.884915  11.303474
    37  O   10.162658  10.372648  12.695557  12.242094  13.639698
    38  C   11.204973  11.329710  13.999055  13.559798  14.946487
    39  H   11.195414  11.272241  14.165339  13.784619  15.120694
    40  H   12.041935  12.200896  14.650376  14.189043  15.593402
    41  H   11.202551  11.284202  14.152660  13.689030  15.093141
                   11         12         13         14         15
    11  H    0.000000
    12  C    3.013898   0.000000
    13  H    3.009245   0.959951   0.000000
    14  H    3.787393   0.959625   1.567342   0.000000
    15  N    1.987202   1.450758   1.988691   1.988617   0.000000
    16  C    6.572738   6.506626   7.401848   6.457990   5.637415
    17  C    4.238633   4.852699   5.606731   5.012512   3.650767
    18  H    2.484384   4.022477   4.508544   4.409873   2.581436
    19  H    4.438879   2.536314   3.491801   2.306218   2.610110
    20  H    3.377122   0.961037   1.568675   1.568260   1.988825
    21  C    7.193030   7.558905   8.409916   7.572862   6.540279
    22  H    4.664304   5.668751   6.367909   5.864247   4.384040
    23  C    8.636097   8.911571   9.786700   8.880165   7.952867
    24  H    6.804619   7.526401   8.319785   7.614884   6.380528
    25  C    9.463203  10.072364  10.907523  10.092425   9.003991
    26  O    9.320778   9.226224  10.144377   9.113446   8.426634
    27  C   10.833539  11.347470  12.204614  11.336931  10.329239
    28  C    9.144866  10.146418  10.912011  10.243481   8.947067
    29  C   11.759935  12.497550  13.325445  12.522187  11.408407
    30  O   11.439007  11.629522  12.529159  11.551731  10.740867
    31  C   10.198206  11.391486  12.125921  11.515231  10.146719
    32  H    8.284784   9.410393  10.143755   9.540573   8.165197
    33  H   12.658935  13.328670  14.170851  13.334274  12.269967
    34  C   11.457608  12.502748  13.274724  12.588812  11.311443
    35  H   10.924254  10.966068  11.878902  10.864491  10.132648
    36  H   10.144188  11.556549  12.240772  11.722964  10.253083
    37  O   12.479700  13.694607  14.436540  13.807002  12.459097
    38  C   13.798948  14.889271  15.660853  14.965990  13.695436
    39  H   13.936156  14.956238  15.748683  15.047084  13.803053
    40  H   14.427538  15.641040  16.389817  15.741022  14.413995
    41  H   14.015782  14.965498  15.754172  14.981095  13.798852
                   16         17         18         19         20
    16  C    0.000000
    17  C    2.483663   0.000000
    18  H    4.476077   1.995591   0.000000
    19  H    4.450908   3.658621   4.008583   0.000000
    20  H    6.453754   5.000221   4.384132   2.385711   0.000000
    21  C    1.325610   3.007239   4.918749   5.679945   7.549108
    22  H    2.645783   0.929869   2.269767   4.588447   5.844989
    23  C    2.436325   4.458284   6.366008   6.880404   8.857623
    24  H    1.951958   2.734546   4.461031   5.903843   7.578235
    25  C    3.752211   5.383111   7.129270   8.188415  10.057780
    26  O    2.796671   5.171172   7.152276   6.983457   9.104561
    27  C    4.906558   6.737152   8.516610   9.351473  11.294515
    28  C    4.292569   5.307054   6.793709   8.534740  10.205340
    29  C    6.154850   7.770208   9.427047  10.602309  12.472599
    30  O    5.130550   7.282172   9.178906   9.449580  11.515761
    31  C    5.652238   6.540710   7.876994   9.863824  11.469363
    32  H    3.923590   4.558880   5.932677   7.943106   9.506768
    33  H    6.920910   8.643706  10.332713  11.368430  13.282297
    34  C    6.452015   7.670831   9.130190  10.817275  12.537010
    35  H    4.497932   6.762681   8.703908   8.731963  10.835034
    36  H    6.168389   6.732024   7.868314  10.202199  11.677133
    37  O    7.774746   8.845896  10.180683  12.097972  13.751550
    38  C    8.767845  10.056375  11.483336  13.171871  14.918135
    39  H    8.749752  10.167037  11.662864  13.168830  14.923659
    40  H    9.622110  10.794443  12.136026  13.995534  15.686449
    41  H    8.758814  10.154130  11.641023  13.178846  15.020677
                   21         22         23         24         25
    21  C    0.000000
    22  H    2.728485   0.000000
    23  C    1.452483   4.149185   0.000000
    24  H    0.930948   2.193804   2.068426   0.000000
    25  C    2.526691   4.860449   1.460426   2.675168   0.000000
    26  O    2.350401   5.047233   1.256637   3.167340   2.349274
    27  C    3.796847   6.248146   2.472331   4.056582   1.396860
    28  C    2.967327   4.595477   2.511385   2.646394   1.386085
    29  C    4.956204   7.176017   3.754727   5.037239   2.430578
    30  O    4.276012   6.940278   2.824648   4.779160   2.394955
    31  C    4.326888   5.765197   3.758683   3.960637   2.402518
    32  H    2.642611   3.785077   2.679746   2.066039   2.009082
    33  H    5.773011   8.075303   4.490228   5.917926   3.268369
    34  C    5.153704   6.956024   4.240778   4.983436   2.780979
    35  H    3.787942   6.506111   2.360399   4.411225   2.385273
    36  H    4.858455   5.889544   4.501999   4.340732   3.237279
    37  O    6.463828   8.078985   5.600278   6.217448   4.139899
    38  C    7.493826   9.331939   6.451875   7.367238   5.027268
    39  H    7.509475   9.483152   6.391144   7.455779   5.018212
    40  H    8.330420  10.034855   7.346075   8.143157   5.904760
    41  H    7.518707   9.460933   6.413391   7.457743   5.039340
                   26         27         28         29         30
    26  O    0.000000
    27  C    2.777062   0.000000
    28  C    3.628140   2.364862   0.000000
    29  C    4.157256   1.380536   2.747573   0.000000
    30  O    2.485826   1.353028   3.621385   2.327419   0.000000
    31  C    4.751392   2.730594   1.359740   2.378777   4.082393
    32  H    3.913957   3.209879   0.930109   3.677539   4.384529
    33  H    4.701448   2.020225   3.678258   0.930691   2.496868
    34  C    4.958998   2.362658   2.366086   1.363933   3.575042
    35  H    1.752543   1.800007   3.741491   3.011874   0.819882
    36  H    5.571967   3.660240   1.995315   3.214753   5.011874
    37  O    6.307771   3.639821   3.572304   2.404112   4.730795
    38  C    6.949650   4.176117   4.749632   2.797422   4.966084
    39  H    6.785774   4.031724   4.915808   2.688782   4.672489
    40  H    7.887713   5.117128   5.501456   3.741486   5.923747
    41  H    6.819458   4.102975   4.898579   2.784154   4.766898
                   31         32         33         34         35
    31  C    0.000000
    32  H    1.984224   0.000000
    33  H    3.220471   4.608217   0.000000
    34  C    1.373543   3.200186   2.004139   0.000000
    35  H    4.445068   4.381123   3.290539   4.153905   0.000000
    36  H    0.929655   2.275871   3.988541   2.006739   5.365384
    37  O    2.314376   4.296255   2.614632   1.362060   5.388566
    38  C    3.615635   5.556780   2.501093   2.387077   5.729553
    39  H    3.908369   5.765320   2.217948   2.605525   5.457402
    40  H    4.270903   6.250637   3.450886   3.178650   6.687630
    41  H    3.878817   5.731432   2.379832   2.631077   5.536890
                   36         37         38         39         40
    36  H    0.000000
    37  O    2.462498   0.000000
    38  C    3.869744   1.416587   0.000000
    39  H    4.282180   1.957829   0.959791   0.000000
    40  H    4.350018   1.957625   0.959359   1.566827   0.000000
    41  H    4.221043   1.958028   0.959756   1.567437   1.567491
                   41
    41  H    0.000000
 Stoichiometry    C18H19NO3
 Framework group  C1[X(C18H19NO3)]
 Deg. of freedom   117
 Full point group                 C1      NOp   1
 Largest Abelian subgroup         C1      NOp   1
 Largest concise Abelian subgroup C1      NOp   1
                         Standard orientation:                         
 ---------------------------------------------------------------------
 Center     Atomic      Atomic             Coordinates (Angstroms)
 Number     Number       Type             X           Y           Z
 ---------------------------------------------------------------------
      1          1           0       -0.913916    2.132797   -0.067347
      2          6           0       -2.335763    0.684875   -0.055142
      3          6           0       -3.905644   -1.149739   -0.035289
      4          6           0       -5.007013   -0.287685    0.002170
      5          6           0       -4.720615    1.082857   -0.019613
      6          6           0       -3.435351    1.527734   -0.050240
      7          1           0       -3.286882    2.445632   -0.071551
      8          6           0       -6.559221   -2.188793    0.032222
      9          1           0       -6.067657   -2.619097   -0.670229
     10          1           0       -7.499221   -2.328559   -0.103317
     11          1           0       -6.300093   -2.561091    0.878651
     12          6           0       -7.410634    0.131076    0.102429
     13          1           0       -8.223533   -0.379499    0.106257
     14          1           0       -7.406586    0.720407   -0.654904
     15          7           0       -6.275002   -0.768139    0.022108
     16          6           0       -0.995386    1.206918   -0.050373
     17          6           0       -2.626574   -0.665976   -0.059332
     18          1           0       -4.046000   -2.068592   -0.042587
     19          1           0       -5.419019    1.697389   -0.011691
     20          1           0       -7.352621    0.647664    0.910738
     21          6           0        0.137265    0.518692   -0.024142
     22          1           0       -1.921126   -1.271459   -0.079069
     23          6           0        1.440373    1.160264   -0.026273
     24          1           0        0.095478   -0.411072   -0.002790
     25          6           0        2.658609    0.354973   -0.010420
     26          8           0        1.527514    2.413704   -0.047036
     27          6           0        3.904793    0.982168    0.059381
     28          6           0        2.667933   -1.030543   -0.048987
     29          6           0        5.086136    0.267973    0.074741
     30          8           0        4.008874    2.331073    0.076885
     31          6           0        3.824365   -1.745628   -0.034459
     32          1           0        1.857854   -1.486096   -0.085679
     33          1           0        5.905557    0.707606    0.112910
     34          6           0        5.031734   -1.094240    0.033171
     35          1           0        3.259182    2.662408    0.057273
     36          1           0        3.798920   -2.674219   -0.070921
     37          8           0        6.132955   -1.895809    0.030330
     38          6           0        7.410593   -1.285768   -0.016674
     39          1           0        7.509578   -0.693487    0.732060
     40          1           0        8.089406   -1.962730    0.019482
     41          1           0        7.497346   -0.787727   -0.832493
 ---------------------------------------------------------------------
 Rotational constants (GHZ):      0.8808357      0.0825450      0.0755725
 Standard basis: 6-311++G(d,p) (5D, 7F)
 There are   617 symmetry adapted basis functions of A   symmetry.
 Integral buffers will be    131072 words long.
 Raffenetti 2 integral format.
 Two-electron integral symmetry is turned on.
   617 basis functions,   963 primitive gaussians,   639 cartesian basis functions
    79 alpha electrons       79 beta electrons
       nuclear repulsion energy      1622.6391720672 Hartrees.
 NAtoms=   41 NActive=   41 NUniq=   41 SFac= 1.00D+00 NAtFMM=   60 NAOKFM=F Big=F
 Nuclear repulsion after empirical dispersion term =     1622.6132276334 Hartrees.
 One-electron integrals computed using PRISM.
 NBasis=   617 RedAO= T  NBF=   617
 NBsUse=   609 1.00D-06 NBFU=   609
 Harris functional with IExCor= 4639 diagonalized for initial guess.
 ExpMin= 3.60D-02 ExpMax= 8.59D+03 ExpMxC= 1.30D+03 IAcc=3 IRadAn=         5 AccDes= 0.00D+00
 HarFok:  IExCor= 4639 AccDes= 0.00D+00 IRadAn=         5 IDoV= 1
 ScaDFX=  1.000000  1.000000  1.000000  1.000000
 FoFCou: FMM=F IPFlag=           0 FMFlag=      100000 FMFlg1=           0
         NFxFlg=           0 DoJE=T BraDBF=F KetDBF=T FulRan=T
         Omega=  0.000000  0.000000  1.000000  0.000000  0.000000 ICntrl=     500 IOpCl=  0
         NMat0=    1 NMatS0=    1 NMatT0=    0 NMatD0=    1 NMtDS0=    0 NMtDT0=    0
         I1Cent=           4 NGrid=           0.
 Petite list used in FoFCou.
 Initial guess orbital symmetries:
       Occupied  (A) (A) (A) (A) (A) (A) (A) (A) (A) (A) (A) (A)
                 (A) (A) (A) (A) (A) (A) (A) (A) (A) (A) (A) (A)
                 (A) (A) (A) (A) (A) (A) (A) (A) (A) (A) (A) (A)
                 (A) (A) (A) (A) (A) (A) (A) (A) (A) (A) (A) (A)
                 (A) (A) (A) (A) (A) (A) (A) (A) (A) (A) (A) (A)
                 (A) (A) (A) (A) (A) (A) (A) (A) (A) (A) (A) (A)
                 (A) (A) (A) (A) (A) (A) (A)
       Virtual   (A) (A) (A) (A) (A) (A) (A) (A) (A) (A) (A) (A)
                 (A) (A) (A) (A) (A) (A) (A) (A) (A) (A) (A) (A)
                 (A) (A) (A) (A) (A) (A) (A) (A) (A) (A) (A) (A)
                 (A) (A) (A) (A) (A) (A) (A) (A) (A) (A) (A) (A)
                 (A) (A) (A) (A) (A) (A) (A) (A) (A) (A) (A) (A)
                 (A) (A) (A) (A) (A) (A) (A) (A) (A) (A) (A) (A)
                 (A) (A) (A) (A) (A) (A) (A) (A) (A) (A) (A) (A)
                 (A) (A) (A) (A) (A) (A) (A) (A) (A) (A) (A) (A)
                 (A) (A) (A) (A) (A) (A) (A) (A) (A) (A) (A) (A)
                 (A) (A) (A) (A) (A) (A) (A) (A) (A) (A) (A) (A)
                 (A) (A) (A) (A) (A) (A) (A) (A) (A) (A) (A) (A)
                 (A) (A) (A) (A) (A) (A) (A) (A) (A) (A) (A) (A)
                 (A) (A) (A) (A) (A) (A) (A) (A) (A) (A) (A) (A)
                 (A) (A) (A) (A) (A) (A) (A) (A) (A) (A) (A) (A)
                 (A) (A) (A) (A) (A) (A) (A) (A) (A) (A) (A) (A)
                 (A) (A) (A) (A) (A) (A) (A) (A) (A) (A) (A) (A)
                 (A) (A) (A) (A) (A) (A) (A) (A) (A) (A) (A) (A)
                 (A) (A) (A) (A) (A) (A) (A) (A) (A) (A) (A) (A)
                 (A) (A) (A) (A) (A) (A) (A) (A) (A) (A) (A) (A)
                 (A) (A) (A) (A) (A) (A) (A) (A) (A) (A) (A) (A)
                 (A) (A) (A) (A) (A) (A) (A) (A) (A) (A) (A) (A)
                 (A) (A) (A) (A) (A) (A) (A) (A) (A) (A) (A) (A)
                 (A) (A) (A) (A) (A) (A) (A) (A) (A) (A) (A) (A)
                 (A) (A) (A) (A) (A) (A) (A) (A) (A) (A) (A) (A)
                 (A) (A) (A) (A) (A) (A) (A) (A) (A) (A) (A) (A)
                 (A) (A) (A) (A) (A) (A) (A) (A) (A) (A) (A) (A)
                 (A) (A) (A) (A) (A) (A) (A) (A) (A) (A) (A) (A)
                 (A) (A) (A) (A) (A) (A) (A) (A) (A) (A) (A) (A)
                 (A) (A) (A) (A) (A) (A) (A) (A) (A) (A) (A) (A)
                 (A) (A) (A) (A) (A) (A) (A) (A) (A) (A) (A) (A)
                 (A) (A) (A) (A) (A) (A) (A) (A) (A) (A) (A) (A)
                 (A) (A) (A) (A) (A) (A) (A) (A) (A) (A) (A) (A)
                 (A) (A) (A) (A) (A) (A) (A) (A) (A) (A) (A) (A)
                 (A) (A) (A) (A) (A) (A) (A) (A) (A) (A) (A) (A)
                 (A) (A) (A) (A) (A) (A) (A) (A) (A) (A) (A) (A)
                 (A) (A) (A) (A) (A) (A) (A) (A) (A) (A) (A) (A)
                 (A) (A) (A) (A) (A) (A) (A) (A) (A) (A) (A) (A)
                 (A) (A) (A) (A) (A) (A) (A) (A) (A) (A) (A) (A)
                 (A) (A) (A) (A) (A) (A) (A) (A) (A) (A) (A) (A)
                 (A) (A) (A) (A) (A) (A) (A) (A) (A) (A) (A) (A)
                 (A) (A) (A) (A) (A) (A) (A) (A) (A) (A) (A) (A)
                 (A) (A) (A) (A) (A) (A) (A) (A) (A) (A) (A) (A)
                 (A) (A) (A) (A) (A) (A) (A) (A) (A) (A) (A) (A)
                 (A) (A) (A) (A) (A) (A) (A) (A) (A) (A) (A) (A)
                 (A) (A)
 The electronic state of the initial guess is 1-A.
 Requested convergence on RMS density matrix=1.00D-08 within 128 cycles.
 Requested convergence on MAX density matrix=1.00D-06.
 Requested convergence on             energy=1.00D-06.
 No special actions if energy rises.
 FoFJK:  IHMeth= 1 ICntrl=     0 DoSepK=T KAlg= 1 I1Cent= 0 FoldK=F
 FoFJK:  IHMeth= 1 ICntrl=     0 DoSepK=T KAlg= 1 I1Cent= 0 FoldK=F
 FoFJK:  IHMeth= 1 ICntrl=     0 DoSepK=T KAlg= 1 I1Cent= 0 FoldK=F
 FoFJK:  IHMeth= 1 ICntrl=     0 DoSepK=T KAlg= 1 I1Cent= 0 FoldK=F
 FoFJK:  IHMeth= 1 ICntrl=     0 DoSepK=T KAlg= 1 I1Cent= 0 FoldK=F
 FoFJK:  IHMeth= 1 ICntrl=     0 DoSepK=T KAlg= 1 I1Cent= 0 FoldK=F
 FoFJK:  IHMeth= 1 ICntrl=     0 DoSepK=T KAlg= 1 I1Cent= 0 FoldK=F
 FoFJK:  IHMeth= 1 ICntrl=     0 DoSepK=T KAlg= 1 I1Cent= 0 FoldK=F
 FoFJK:  IHMeth= 1 ICntrl=     0 DoSepK=T KAlg= 1 I1Cent= 0 FoldK=F
 FoFJK:  IHMeth= 1 ICntrl=     0 DoSepK=T KAlg= 1 I1Cent= 0 FoldK=F
 FoFJK:  IHMeth= 1 ICntrl=     0 DoSepK=T KAlg= 1 I1Cent= 0 FoldK=F
 FoFJK:  IHMeth= 1 ICntrl=     0 DoSepK=T KAlg= 1 I1Cent= 0 FoldK=F
 FoFJK:  IHMeth= 1 ICntrl=     0 DoSepK=T KAlg= 1 I1Cent= 0 FoldK=F
 FoFJK:  IHMeth= 1 ICntrl=     0 DoSepK=T KAlg= 1 I1Cent= 0 FoldK=F
 FoFJK:  IHMeth= 1 ICntrl=     0 DoSepK=T KAlg= 1 I1Cent= 0 FoldK=F
 FoFJK:  IHMeth= 1 ICntrl=     0 DoSepK=T KAlg= 1 I1Cent= 0 FoldK=F
 SCF Done:  E(RwB97XD) =  -977.339502167     A.U. after   16 cycles
             Convg  =    0.7767D-08             -V/T =  1.9982
 QCSCF skips out because SCF is already converged.
 ExpMin= 3.60D-02 ExpMax= 8.59D+03 ExpMxC= 1.30D+03 IAcc=3 IRadAn=         5 AccDes= 0.00D+00
 HarFok:  IExCor=  205 AccDes= 0.00D+00 IRadAn=         5 IDoV=-2
 ScaDFX=  1.000000  1.000000  1.000000  1.000000
 Range of M.O.s used for correlation:    23   609
 NBasis=   617 NAE=    79 NBE=    79 NFC=    22 NFV=     0
 NROrb=    587 NOA=    57 NOB=    57 NVA=   530 NVB=   530

 **** Warning!!: The largest alpha MO coefficient is  0.12104282D+03

 Would need an additional 62646500000 words for in-memory AO integral storage.
 Orbital symmetries:
       Occupied  (A) (A) (A) (A) (A) (A) (A) (A) (A) (A) (A) (A)
                 (A) (A) (A) (A) (A) (A) (A) (A) (A) (A) (A) (A)
                 (A) (A) (A) (A) (A) (A) (A) (A) (A) (A) (A) (A)
                 (A) (A) (A) (A) (A) (A) (A) (A) (A) (A) (A) (A)
                 (A) (A) (A) (A) (A) (A) (A) (A) (A) (A) (A) (A)
                 (A) (A) (A) (A) (A) (A) (A) (A) (A) (A) (A) (A)
                 (A) (A) (A) (A) (A) (A) (A)
       Virtual   (A) (A) (A) (A) (A) (A) (A) (A) (A) (A) (A) (A)
                 (A) (A) (A) (A) (A) (A) (A) (A) (A) (A) (A) (A)
                 (A) (A) (A) (A) (A) (A) (A) (A) (A) (A) (A) (A)
                 (A) (A) (A) (A) (A) (A) (A) (A) (A) (A) (A) (A)
                 (A) (A) (A) (A) (A) (A) (A) (A) (A) (A) (A) (A)
                 (A) (A) (A) (A) (A) (A) (A) (A) (A) (A) (A) (A)
                 (A) (A) (A) (A) (A) (A) (A) (A) (A) (A) (A) (A)
                 (A) (A) (A) (A) (A) (A) (A) (A) (A) (A) (A) (A)
                 (A) (A) (A) (A) (A) (A) (A) (A) (A) (A) (A) (A)
                 (A) (A) (A) (A) (A) (A) (A) (A) (A) (A) (A) (A)
                 (A) (A) (A) (A) (A) (A) (A) (A) (A) (A) (A) (A)
                 (A) (A) (A) (A) (A) (A) (A) (A) (A) (A) (A) (A)
                 (A) (A) (A) (A) (A) (A) (A) (A) (A) (A) (A) (A)
                 (A) (A) (A) (A) (A) (A) (A) (A) (A) (A) (A) (A)
                 (A) (A) (A) (A) (A) (A) (A) (A) (A) (A) (A) (A)
                 (A) (A) (A) (A) (A) (A) (A) (A) (A) (A) (A) (A)
                 (A) (A) (A) (A) (A) (A) (A) (A) (A) (A) (A) (A)
                 (A) (A) (A) (A) (A) (A) (A) (A) (A) (A) (A) (A)
                 (A) (A) (A) (A) (A) (A) (A) (A) (A) (A) (A) (A)
                 (A) (A) (A) (A) (A) (A) (A) (A) (A) (A) (A) (A)
                 (A) (A) (A) (A) (A) (A) (A) (A) (A) (A) (A) (A)
                 (A) (A) (A) (A) (A) (A) (A) (A) (A) (A) (A) (A)
                 (A) (A) (A) (A) (A) (A) (A) (A) (A) (A) (A) (A)
                 (A) (A) (A) (A) (A) (A) (A) (A) (A) (A) (A) (A)
                 (A) (A) (A) (A) (A) (A) (A) (A) (A) (A) (A) (A)
                 (A) (A) (A) (A) (A) (A) (A) (A) (A) (A) (A) (A)
                 (A) (A) (A) (A) (A) (A) (A) (A) (A) (A) (A) (A)
                 (A) (A) (A) (A) (A) (A) (A) (A) (A) (A) (A) (A)
                 (A) (A) (A) (A) (A) (A) (A) (A) (A) (A) (A) (A)
                 (A) (A) (A) (A) (A) (A) (A) (A) (A) (A) (A) (A)
                 (A) (A) (A) (A) (A) (A) (A) (A) (A) (A) (A) (A)
                 (A) (A) (A) (A) (A) (A) (A) (A) (A) (A) (A) (A)
                 (A) (A) (A) (A) (A) (A) (A) (A) (A) (A) (A) (A)
                 (A) (A) (A) (A) (A) (A) (A) (A) (A) (A) (A) (A)
                 (A) (A) (A) (A) (A) (A) (A) (A) (A) (A) (A) (A)
                 (A) (A) (A) (A) (A) (A) (A) (A) (A) (A) (A) (A)
                 (A) (A) (A) (A) (A) (A) (A) (A) (A) (A) (A) (A)
                 (A) (A) (A) (A) (A) (A) (A) (A) (A) (A) (A) (A)
                 (A) (A) (A) (A) (A) (A) (A) (A) (A) (A) (A) (A)
                 (A) (A) (A) (A) (A) (A) (A) (A) (A) (A) (A) (A)
                 (A) (A) (A) (A) (A) (A) (A) (A) (A) (A) (A) (A)
                 (A) (A) (A) (A) (A) (A) (A) (A) (A) (A) (A) (A)
                 (A) (A) (A) (A) (A) (A) (A) (A) (A) (A) (A) (A)
                 (A) (A) (A) (A) (A) (A) (A) (A) (A) (A) (A) (A)
                 (A) (A)
     8 initial guesses have been made.
 Convergence on wavefunction:    0.000001000000000
 Iteration     1 Dimension     8 NMult     8
 CISAX will form     8 AO SS matrices at one time.
 FoFJK:  IHMeth= 1 ICntrl=     0 DoSepK=T KAlg= 1 I1Cent= 0 FoldK=F
 FoFJK:  IHMeth= 1 ICntrl=     0 DoSepK=T KAlg= 1 I1Cent= 0 FoldK=F
 Iteration     2 Dimension    12 NMult    12
 FoFJK:  IHMeth= 1 ICntrl=     0 DoSepK=T KAlg= 1 I1Cent= 0 FoldK=F
 FoFJK:  IHMeth= 1 ICntrl=     0 DoSepK=T KAlg= 1 I1Cent= 0 FoldK=F
 Iteration     3 Dimension    16 NMult    16
 FoFJK:  IHMeth= 1 ICntrl=     0 DoSepK=T KAlg= 1 I1Cent= 0 FoldK=F
 FoFJK:  IHMeth= 1 ICntrl=     0 DoSepK=T KAlg= 1 I1Cent= 0 FoldK=F
 Iteration     4 Dimension    20 NMult    20
 FoFJK:  IHMeth= 1 ICntrl=     0 DoSepK=T KAlg= 1 I1Cent= 0 FoldK=F
 FoFJK:  IHMeth= 1 ICntrl=     0 DoSepK=T KAlg= 1 I1Cent= 0 FoldK=F
 Iteration     5 Dimension    24 NMult    24
 FoFJK:  IHMeth= 1 ICntrl=     0 DoSepK=T KAlg= 1 I1Cent= 0 FoldK=F
 FoFJK:  IHMeth= 1 ICntrl=     0 DoSepK=T KAlg= 1 I1Cent= 0 FoldK=F
 Iteration     6 Dimension    28 NMult    28
 FoFJK:  IHMeth= 1 ICntrl=     0 DoSepK=T KAlg= 1 I1Cent= 0 FoldK=F
 FoFJK:  IHMeth= 1 ICntrl=     0 DoSepK=T KAlg= 1 I1Cent= 0 FoldK=F
 Iteration     7 Dimension    32 NMult    32
 FoFJK:  IHMeth= 1 ICntrl=     0 DoSepK=T KAlg= 1 I1Cent= 0 FoldK=F
 FoFJK:  IHMeth= 1 ICntrl=     0 DoSepK=T KAlg= 1 I1Cent= 0 FoldK=F
 Iteration     8 Dimension    36 NMult    36
 FoFJK:  IHMeth= 1 ICntrl=     0 DoSepK=T KAlg= 1 I1Cent= 0 FoldK=F
 FoFJK:  IHMeth= 1 ICntrl=     0 DoSepK=T KAlg= 1 I1Cent= 0 FoldK=F
 Iteration     9 Dimension    40 NMult    40
 FoFJK:  IHMeth= 1 ICntrl=     0 DoSepK=T KAlg= 1 I1Cent= 0 FoldK=F
 FoFJK:  IHMeth= 1 ICntrl=     0 DoSepK=T KAlg= 1 I1Cent= 0 FoldK=F
 Iteration    10 Dimension    44 NMult    44
 FoFJK:  IHMeth= 1 ICntrl=     0 DoSepK=T KAlg= 1 I1Cent= 0 FoldK=F
 FoFJK:  IHMeth= 1 ICntrl=     0 DoSepK=T KAlg= 1 I1Cent= 0 FoldK=F
 Iteration    11 Dimension    48 NMult    48
 FoFJK:  IHMeth= 1 ICntrl=     0 DoSepK=T KAlg= 1 I1Cent= 0 FoldK=F
 FoFJK:  IHMeth= 1 ICntrl=     0 DoSepK=T KAlg= 1 I1Cent= 0 FoldK=F
 Iteration    12 Dimension    52 NMult    52
 FoFJK:  IHMeth= 1 ICntrl=     0 DoSepK=T KAlg= 1 I1Cent= 0 FoldK=F
 FoFJK:  IHMeth= 1 ICntrl=     0 DoSepK=T KAlg= 1 I1Cent= 0 FoldK=F
 Iteration    13 Dimension    56 NMult    56
 FoFJK:  IHMeth= 1 ICntrl=     0 DoSepK=T KAlg= 1 I1Cent= 0 FoldK=F
 FoFJK:  IHMeth= 1 ICntrl=     0 DoSepK=T KAlg= 1 I1Cent= 0 FoldK=F
 Iteration    14 Dimension    60 NMult    60
 FoFJK:  IHMeth= 1 ICntrl=     0 DoSepK=T KAlg= 1 I1Cent= 0 FoldK=F
 FoFJK:  IHMeth= 1 ICntrl=     0 DoSepK=T KAlg= 1 I1Cent= 0 FoldK=F
 Iteration    15 Dimension    64 NMult    64
 FoFJK:  IHMeth= 1 ICntrl=     0 DoSepK=T KAlg= 1 I1Cent= 0 FoldK=F
 FoFJK:  IHMeth= 1 ICntrl=     0 DoSepK=T KAlg= 1 I1Cent= 0 FoldK=F
 ***********************************************************************
 Excited states from <AA,BB:AA,BB> singles matrix:
 ***********************************************************************
 
 Ground to excited state transition densities written to RWF  633
 Ground to excited state transition electric dipole moments (Au):
       state          X           Y           Z        Dip. S.      Osc.
         1         3.6972      0.3722     -0.0114     13.8080      1.2471
 Ground to excited state transition velocity dipole moments (Au):
       state          X           Y           Z        Dip. S.      Osc.
         1        -0.4933     -0.0526      0.0015      0.2461      1.2110
 Ground to excited state transition magnetic dipole moments (Au):
       state          X           Y           Z
         1        -0.0142      0.0933      1.1857
 Ground to excited state transition velocity quadrupole moments (Au):
       state          XX          YY          ZZ          XY          XZ          YZ
         1         1.7200     -0.0804      0.0034      0.4640     -0.0370     -0.0051
 <0|del|b> * <b|rxdel|0> + <0|del|b> * <b|delr+rdel|0>
 Rotatory Strengths (R) in cgs (10**-40 erg-esu-cm/Gauss)
       state          XX          YY          ZZ    R(velocity)
         1       -11.3888     27.6418      4.0532      6.7687
 1/2[<0|r|b>*<b|rxdel|0> + (<0|rxdel|b>*<b|r|0>)*]
 Rotatory Strengths (R) in cgs (10**-40 erg-esu-cm/Gauss)
       state          XX          YY          ZZ     R(length)
         1        37.1418    -24.5634      9.5913      7.3899
  1/2[<0|del|b>*<b|r|0> + (<0|r|b>*<b|del|0>)*] (Au)
       state          X           Y           Z        Dip. S.   Osc.(frdel)
         1        -1.8237     -0.0196      0.0000      1.8433      1.2289

 Excitation energies and oscillator strengths:
 
 Excited State   1:      Singlet-A      3.6865 eV  336.31 nm  f=1.2471  <S**2>=0.000
      74 -> 80        -0.12880
      78 -> 80         0.12092
      79 -> 80         0.66003
      79 -> 84        -0.10402
 This state for optimization and/or second-order correction.
 Total Energy, E(TD-HF/TD-KS) =  -977.204023948    
 Copying the excited state density for this state as the 1-particle RhoCI density.
 SavETr:  write IOETrn=   770 NScale= 10 NData=  16 NLR=1 LETran=      28.
 FoFJK:  IHMeth= 1 ICntrl=     0 DoSepK=T KAlg= 1 I1Cent= 0 FoldK=F
 FoFJK:  IHMeth= 1 ICntrl=     0 DoSepK=T KAlg= 1 I1Cent= 0 FoldK=F
          IDoAtm=11111111111111111111111111111111111111111
          Differentiating once with respect to electric field.
                with respect to dipole field.
          Differentiating once with respect to nuclear coordinates.
          There are     1 degrees of freedom in the 1st order CPHF.  IDoFFX=0.
 FoFJK:  IHMeth= 1 ICntrl=     0 DoSepK=T KAlg= 1 I1Cent= 0 FoldK=F
 LinEq1:  Iter=  0 NonCon=     1 RMS=2.83D-03 Max=3.38D-01
 AX will form     1 AO Fock derivatives at one time.
 FoFJK:  IHMeth= 1 ICntrl=     0 DoSepK=T KAlg= 1 I1Cent= 0 FoldK=F
 LinEq1:  Iter=  1 NonCon=     1 RMS=1.18D-03 Max=9.51D-02
 FoFJK:  IHMeth= 1 ICntrl=     0 DoSepK=T KAlg= 1 I1Cent= 0 FoldK=F
 LinEq1:  Iter=  2 NonCon=     1 RMS=6.45D-04 Max=4.29D-02
 FoFJK:  IHMeth= 1 ICntrl=     0 DoSepK=T KAlg= 1 I1Cent= 0 FoldK=F
 LinEq1:  Iter=  3 NonCon=     1 RMS=2.63D-04 Max=1.20D-02
 FoFJK:  IHMeth= 1 ICntrl=     0 DoSepK=T KAlg= 1 I1Cent= 0 FoldK=F
 LinEq1:  Iter=  4 NonCon=     1 RMS=1.83D-04 Max=1.19D-02
 FoFJK:  IHMeth= 1 ICntrl=     0 DoSepK=T KAlg= 1 I1Cent= 0 FoldK=F
 LinEq1:  Iter=  5 NonCon=     1 RMS=8.99D-05 Max=6.14D-03
 FoFJK:  IHMeth= 1 ICntrl=     0 DoSepK=T KAlg= 1 I1Cent= 0 FoldK=F
 LinEq1:  Iter=  6 NonCon=     1 RMS=4.30D-05 Max=3.73D-03
 FoFJK:  IHMeth= 1 ICntrl=     0 DoSepK=T KAlg= 1 I1Cent= 0 FoldK=F
 LinEq1:  Iter=  7 NonCon=     1 RMS=1.82D-05 Max=9.16D-04
 FoFJK:  IHMeth= 1 ICntrl=     0 DoSepK=T KAlg= 1 I1Cent= 0 FoldK=F
 LinEq1:  Iter=  8 NonCon=     1 RMS=1.13D-05 Max=7.48D-04
 FoFJK:  IHMeth= 1 ICntrl=     0 DoSepK=T KAlg= 1 I1Cent= 0 FoldK=F
 LinEq1:  Iter=  9 NonCon=     1 RMS=4.55D-06 Max=1.69D-04
 FoFJK:  IHMeth= 1 ICntrl=     0 DoSepK=T KAlg= 1 I1Cent= 0 FoldK=F
 LinEq1:  Iter= 10 NonCon=     1 RMS=1.93D-06 Max=7.86D-05
 FoFJK:  IHMeth= 1 ICntrl=     0 DoSepK=T KAlg= 1 I1Cent= 0 FoldK=F
 LinEq1:  Iter= 11 NonCon=     1 RMS=8.02D-07 Max=2.57D-05
 FoFJK:  IHMeth= 1 ICntrl=     0 DoSepK=T KAlg= 1 I1Cent= 0 FoldK=F
 LinEq1:  Iter= 12 NonCon=     1 RMS=3.81D-07 Max=2.58D-05
 FoFJK:  IHMeth= 1 ICntrl=     0 DoSepK=T KAlg= 1 I1Cent= 0 FoldK=F
 LinEq1:  Iter= 13 NonCon=     1 RMS=1.98D-07 Max=9.71D-06
 FoFJK:  IHMeth= 1 ICntrl=     0 DoSepK=T KAlg= 1 I1Cent= 0 FoldK=F
 LinEq1:  Iter= 14 NonCon=     1 RMS=9.39D-08 Max=5.03D-06
 FoFJK:  IHMeth= 1 ICntrl=     0 DoSepK=T KAlg= 1 I1Cent= 0 FoldK=F
 LinEq1:  Iter= 15 NonCon=     1 RMS=4.68D-08 Max=1.93D-06
 FoFJK:  IHMeth= 1 ICntrl=     0 DoSepK=T KAlg= 1 I1Cent= 0 FoldK=F
 LinEq1:  Iter= 16 NonCon=     1 RMS=2.04D-08 Max=1.06D-06
 FoFJK:  IHMeth= 1 ICntrl=     0 DoSepK=T KAlg= 1 I1Cent= 0 FoldK=F
 LinEq1:  Iter= 17 NonCon=     1 RMS=9.38D-09 Max=4.96D-07
 FoFJK:  IHMeth= 1 ICntrl=     0 DoSepK=T KAlg= 1 I1Cent= 0 FoldK=F
 LinEq1:  Iter= 18 NonCon=     1 RMS=3.81D-09 Max=1.96D-07
 FoFJK:  IHMeth= 1 ICntrl=     0 DoSepK=T KAlg= 1 I1Cent= 0 FoldK=F
 LinEq1:  Iter= 19 NonCon=     1 RMS=1.84D-09 Max=8.55D-08
 FoFJK:  IHMeth= 1 ICntrl=     0 DoSepK=T KAlg= 1 I1Cent= 0 FoldK=F
 LinEq1:  Iter= 20 NonCon=     1 RMS=7.36D-10 Max=5.05D-08
 FoFJK:  IHMeth= 1 ICntrl=     0 DoSepK=T KAlg= 1 I1Cent= 0 FoldK=F
 LinEq1:  Iter= 21 NonCon=     1 RMS=3.27D-10 Max=2.23D-08
 FoFJK:  IHMeth= 1 ICntrl=     0 DoSepK=T KAlg= 1 I1Cent= 0 FoldK=F
 LinEq1:  Iter= 22 NonCon=     1 RMS=1.56D-10 Max=1.18D-08
 FoFJK:  IHMeth= 1 ICntrl=     0 DoSepK=T KAlg= 1 I1Cent= 0 FoldK=F
 LinEq1:  Iter= 23 NonCon=     1 RMS=7.58D-11 Max=4.56D-09
 FoFJK:  IHMeth= 1 ICntrl=     0 DoSepK=T KAlg= 1 I1Cent= 0 FoldK=F
 LinEq1:  Iter= 24 NonCon=     1 RMS=3.81D-11 Max=1.71D-09
 FoFJK:  IHMeth= 1 ICntrl=     0 DoSepK=T KAlg= 1 I1Cent= 0 FoldK=F
 LinEq1:  Iter= 25 NonCon=     0 RMS=1.78D-11 Max=5.09D-10
 Linear equations converged to 1.000D-10 1.000D-09 after    25 iterations.
 FoFJK:  IHMeth= 1 ICntrl=     0 DoSepK=T KAlg= 1 I1Cent= 0 FoldK=F
 End of Minotr Frequency-dependent properties file   721 does not exist.
 End of Minotr Frequency-dependent properties file   722 does not exist.

 **********************************************************************

            Population analysis using the SCF density.

 **********************************************************************

 Orbital symmetries:
       Occupied  (A) (A) (A) (A) (A) (A) (A) (A) (A) (A) (A) (A)
                 (A) (A) (A) (A) (A) (A) (A) (A) (A) (A) (A) (A)
                 (A) (A) (A) (A) (A) (A) (A) (A) (A) (A) (A) (A)
                 (A) (A) (A) (A) (A) (A) (A) (A) (A) (A) (A) (A)
                 (A) (A) (A) (A) (A) (A) (A) (A) (A) (A) (A) (A)
                 (A) (A) (A) (A) (A) (A) (A) (A) (A) (A) (A) (A)
                 (A) (A) (A) (A) (A) (A) (A)
       Virtual   (A) (A) (A) (A) (A) (A) (A) (A) (A) (A) (A) (A)
                 (A) (A) (A) (A) (A) (A) (A) (A) (A) (A) (A) (A)
                 (A) (A) (A) (A) (A) (A) (A) (A) (A) (A) (A) (A)
                 (A) (A) (A) (A) (A) (A) (A) (A) (A) (A) (A) (A)
                 (A) (A) (A) (A) (A) (A) (A) (A) (A) (A) (A) (A)
                 (A) (A) (A) (A) (A) (A) (A) (A) (A) (A) (A) (A)
                 (A) (A) (A) (A) (A) (A) (A) (A) (A) (A) (A) (A)
                 (A) (A) (A) (A) (A) (A) (A) (A) (A) (A) (A) (A)
                 (A) (A) (A) (A) (A) (A) (A) (A) (A) (A) (A) (A)
                 (A) (A) (A) (A) (A) (A) (A) (A) (A) (A) (A) (A)
                 (A) (A) (A) (A) (A) (A) (A) (A) (A) (A) (A) (A)
                 (A) (A) (A) (A) (A) (A) (A) (A) (A) (A) (A) (A)
                 (A) (A) (A) (A) (A) (A) (A) (A) (A) (A) (A) (A)
                 (A) (A) (A) (A) (A) (A) (A) (A) (A) (A) (A) (A)
                 (A) (A) (A) (A) (A) (A) (A) (A) (A) (A) (A) (A)
                 (A) (A) (A) (A) (A) (A) (A) (A) (A) (A) (A) (A)
                 (A) (A) (A) (A) (A) (A) (A) (A) (A) (A) (A) (A)
                 (A) (A) (A) (A) (A) (A) (A) (A) (A) (A) (A) (A)
                 (A) (A) (A) (A) (A) (A) (A) (A) (A) (A) (A) (A)
                 (A) (A) (A) (A) (A) (A) (A) (A) (A) (A) (A) (A)
                 (A) (A) (A) (A) (A) (A) (A) (A) (A) (A) (A) (A)
                 (A) (A) (A) (A) (A) (A) (A) (A) (A) (A) (A) (A)
                 (A) (A) (A) (A) (A) (A) (A) (A) (A) (A) (A) (A)
                 (A) (A) (A) (A) (A) (A) (A) (A) (A) (A) (A) (A)
                 (A) (A) (A) (A) (A) (A) (A) (A) (A) (A) (A) (A)
                 (A) (A) (A) (A) (A) (A) (A) (A) (A) (A) (A) (A)
                 (A) (A) (A) (A) (A) (A) (A) (A) (A) (A) (A) (A)
                 (A) (A) (A) (A) (A) (A) (A) (A) (A) (A) (A) (A)
                 (A) (A) (A) (A) (A) (A) (A) (A) (A) (A) (A) (A)
                 (A) (A) (A) (A) (A) (A) (A) (A) (A) (A) (A) (A)
                 (A) (A) (A) (A) (A) (A) (A) (A) (A) (A) (A) (A)
                 (A) (A) (A) (A) (A) (A) (A) (A) (A) (A) (A) (A)
                 (A) (A) (A) (A) (A) (A) (A) (A) (A) (A) (A) (A)
                 (A) (A) (A) (A) (A) (A) (A) (A) (A) (A) (A) (A)
                 (A) (A) (A) (A) (A) (A) (A) (A) (A) (A) (A) (A)
                 (A) (A) (A) (A) (A) (A) (A) (A) (A) (A) (A) (A)
                 (A) (A) (A) (A) (A) (A) (A) (A) (A) (A) (A) (A)
                 (A) (A) (A) (A) (A) (A) (A) (A) (A) (A) (A) (A)
                 (A) (A) (A) (A) (A) (A) (A) (A) (A) (A) (A) (A)
                 (A) (A) (A) (A) (A) (A) (A) (A) (A) (A) (A) (A)
                 (A) (A) (A) (A) (A) (A) (A) (A) (A) (A) (A) (A)
                 (A) (A) (A) (A) (A) (A) (A) (A) (A) (A) (A) (A)
                 (A) (A) (A) (A) (A) (A) (A) (A) (A) (A) (A) (A)
                 (A) (A) (A) (A) (A) (A) (A) (A) (A) (A) (A) (A)
                 (A) (A)
 The electronic state is 1-A.
 Alpha  occ. eigenvalues --  -19.28036 -19.24600 -19.21421 -14.45886 -10.36603
 Alpha  occ. eigenvalues --  -10.35624 -10.35190 -10.33394 -10.29690 -10.28329
 Alpha  occ. eigenvalues --  -10.28294 -10.28243 -10.28039 -10.27914 -10.27877
 Alpha  occ. eigenvalues --  -10.27134 -10.27061 -10.26450 -10.26300 -10.26235
 Alpha  occ. eigenvalues --  -10.25794 -10.25711  -1.18967  -1.17757  -1.11521
 Alpha  occ. eigenvalues --   -1.07482  -0.97566  -0.97374  -0.91621  -0.88737
 Alpha  occ. eigenvalues --   -0.88476  -0.87452  -0.86435  -0.86082  -0.83288
 Alpha  occ. eigenvalues --   -0.80030  -0.75447  -0.74000  -0.73646  -0.72821
 Alpha  occ. eigenvalues --   -0.69765  -0.67135  -0.65232  -0.64264  -0.62956
 Alpha  occ. eigenvalues --   -0.60418  -0.59538  -0.59470  -0.59147  -0.58647
 Alpha  occ. eigenvalues --   -0.57928  -0.56606  -0.55904  -0.54443  -0.54271
 Alpha  occ. eigenvalues --   -0.53462  -0.53057  -0.52199  -0.52015  -0.51045
 Alpha  occ. eigenvalues --   -0.50454  -0.49787  -0.48940  -0.48267  -0.47493
 Alpha  occ. eigenvalues --   -0.47024  -0.45764  -0.45674  -0.43973  -0.42911
 Alpha  occ. eigenvalues --   -0.42749  -0.41050  -0.39819  -0.34568  -0.33975
 Alpha  occ. eigenvalues --   -0.33349  -0.32237  -0.29792  -0.26196
 Alpha virt. eigenvalues --   -0.01036   0.03045   0.04199   0.04471   0.04720
 Alpha virt. eigenvalues --    0.04875   0.05702   0.05746   0.06219   0.06561
 Alpha virt. eigenvalues --    0.06767   0.06984   0.07657   0.07958   0.08246
 Alpha virt. eigenvalues --    0.08500   0.09221   0.09520   0.10253   0.10349
 Alpha virt. eigenvalues --    0.10718   0.11502   0.11651   0.11881   0.12138
 Alpha virt. eigenvalues --    0.12882   0.13672   0.14185   0.14337   0.14770
 Alpha virt. eigenvalues --    0.14849   0.15135   0.15181   0.15554   0.16244
 Alpha virt. eigenvalues --    0.16361   0.16613   0.16887   0.17047   0.17399
 Alpha virt. eigenvalues --    0.17578   0.17830   0.17983   0.18294   0.18809
 Alpha virt. eigenvalues --    0.19063   0.19264   0.19644   0.19899   0.20429
 Alpha virt. eigenvalues --    0.20548   0.20890   0.21124   0.21239   0.21603
 Alpha virt. eigenvalues --    0.21945   0.22221   0.22468   0.22518   0.22664
 Alpha virt. eigenvalues --    0.23001   0.23239   0.23599   0.23796   0.24338
 Alpha virt. eigenvalues --    0.24590   0.24757   0.25374   0.25870   0.25957
 Alpha virt. eigenvalues --    0.26074   0.26664   0.26716   0.26948   0.27191
 Alpha virt. eigenvalues --    0.27927   0.28211   0.28322   0.28519   0.29247
 Alpha virt. eigenvalues --    0.29258   0.29512   0.29673   0.30245   0.30483
 Alpha virt. eigenvalues --    0.30648   0.31600   0.32227   0.32573   0.32699
 Alpha virt. eigenvalues --    0.32952   0.33116   0.33767   0.33916   0.34231
 Alpha virt. eigenvalues --    0.34744   0.35130   0.35346   0.35996   0.36257
 Alpha virt. eigenvalues --    0.36499   0.36907   0.37420   0.37762   0.37987
 Alpha virt. eigenvalues --    0.38101   0.38375   0.39010   0.39432   0.39634
 Alpha virt. eigenvalues --    0.40122   0.40393   0.40684   0.41058   0.41528
 Alpha virt. eigenvalues --    0.41956   0.42284   0.42458   0.42818   0.43032
 Alpha virt. eigenvalues --    0.43151   0.43779   0.43921   0.44352   0.44712
 Alpha virt. eigenvalues --    0.44978   0.46087   0.46695   0.47168   0.47602
 Alpha virt. eigenvalues --    0.48040   0.48341   0.49028   0.49513   0.49908
 Alpha virt. eigenvalues --    0.50850   0.51416   0.51988   0.52490   0.53103
 Alpha virt. eigenvalues --    0.54796   0.55178   0.55300   0.56549   0.57918
 Alpha virt. eigenvalues --    0.58117   0.58807   0.60722   0.61682   0.62097
 Alpha virt. eigenvalues --    0.62526   0.63225   0.64315   0.64633   0.65152
 Alpha virt. eigenvalues --    0.65510   0.65817   0.66067   0.66507   0.67268
 Alpha virt. eigenvalues --    0.67527   0.68081   0.68816   0.68927   0.69233
 Alpha virt. eigenvalues --    0.69777   0.70915   0.71893   0.72148   0.72752
 Alpha virt. eigenvalues --    0.73062   0.73620   0.74145   0.74744   0.75487
 Alpha virt. eigenvalues --    0.76020   0.76107   0.76644   0.77492   0.77813
 Alpha virt. eigenvalues --    0.78120   0.78333   0.78965   0.79229   0.80009
 Alpha virt. eigenvalues --    0.80426   0.81220   0.81904   0.82304   0.82533
 Alpha virt. eigenvalues --    0.83118   0.83896   0.84981   0.85693   0.86311
 Alpha virt. eigenvalues --    0.86658   0.86757   0.87808   0.89441   0.90059
 Alpha virt. eigenvalues --    0.90758   0.91253   0.92839   0.93575   0.94028
 Alpha virt. eigenvalues --    0.94657   0.95665   0.96207   0.97612   0.97686
 Alpha virt. eigenvalues --    0.97964   0.98043   0.98501   1.00084   1.00640
 Alpha virt. eigenvalues --    1.01031   1.01594   1.02027   1.02969   1.03692
 Alpha virt. eigenvalues --    1.04003   1.05058   1.05873   1.06217   1.06614
 Alpha virt. eigenvalues --    1.07092   1.07554   1.08355   1.08453   1.09072
 Alpha virt. eigenvalues --    1.09451   1.10295   1.10410   1.10887   1.11441
 Alpha virt. eigenvalues --    1.12552   1.13699   1.14294   1.14757   1.16001
 Alpha virt. eigenvalues --    1.17317   1.17370   1.18272   1.18654   1.18980
 Alpha virt. eigenvalues --    1.19323   1.20217   1.20840   1.21986   1.22919
 Alpha virt. eigenvalues --    1.23640   1.24636   1.25943   1.26875   1.28232
 Alpha virt. eigenvalues --    1.29322   1.32258   1.33262   1.34928   1.35192
 Alpha virt. eigenvalues --    1.36678   1.38051   1.39587   1.40293   1.40796
 Alpha virt. eigenvalues --    1.41284   1.43106   1.47022   1.48798   1.50869
 Alpha virt. eigenvalues --    1.51176   1.52404   1.54104   1.55311   1.57282
 Alpha virt. eigenvalues --    1.58562   1.60185   1.60762   1.61641   1.61976
 Alpha virt. eigenvalues --    1.62984   1.63451   1.63651   1.64628   1.64873
 Alpha virt. eigenvalues --    1.65416   1.65879   1.66918   1.66990   1.67599
 Alpha virt. eigenvalues --    1.68349   1.68709   1.69755   1.70510   1.70948
 Alpha virt. eigenvalues --    1.71581   1.73528   1.73977   1.74245   1.74740
 Alpha virt. eigenvalues --    1.75694   1.76861   1.77950   1.78646   1.80158
 Alpha virt. eigenvalues --    1.80885   1.81686   1.82293   1.83523   1.84263
 Alpha virt. eigenvalues --    1.84614   1.85023   1.86392   1.87079   1.87264
 Alpha virt. eigenvalues --    1.87923   1.90204   1.90643   1.91076   1.91757
 Alpha virt. eigenvalues --    1.93667   1.93778   1.94285   1.95217   1.95728
 Alpha virt. eigenvalues --    1.96991   1.97714   2.00217   2.01304   2.02324
 Alpha virt. eigenvalues --    2.02638   2.03298   2.04128   2.04883   2.05418
 Alpha virt. eigenvalues --    2.06098   2.08247   2.09636   2.10286   2.10454
 Alpha virt. eigenvalues --    2.10777   2.10923   2.13432   2.14530   2.15795
 Alpha virt. eigenvalues --    2.16618   2.17930   2.18785   2.20748   2.21152
 Alpha virt. eigenvalues --    2.22174   2.23961   2.25433   2.25845   2.26427
 Alpha virt. eigenvalues --    2.27065   2.27892   2.28525   2.30035   2.30385
 Alpha virt. eigenvalues --    2.33115   2.34045   2.37670   2.38966   2.40003
 Alpha virt. eigenvalues --    2.40973   2.42224   2.43703   2.45013   2.46169
 Alpha virt. eigenvalues --    2.48238   2.48912   2.49845   2.51563   2.52373
 Alpha virt. eigenvalues --    2.54008   2.54848   2.55848   2.56866   2.60653
 Alpha virt. eigenvalues --    2.60945   2.63308   2.64826   2.66720   2.67735
 Alpha virt. eigenvalues --    2.68180   2.68700   2.70082   2.70651   2.72187
 Alpha virt. eigenvalues --    2.74914   2.75941   2.77116   2.78836   2.79467
 Alpha virt. eigenvalues --    2.79869   2.80642   2.82326   2.83770   2.84234
 Alpha virt. eigenvalues --    2.87282   2.88108   2.89528   2.90289   2.90777
 Alpha virt. eigenvalues --    2.91137   2.91324   2.92940   2.93180   2.94444
 Alpha virt. eigenvalues --    2.95023   2.96529   2.97198   2.98428   2.98760
 Alpha virt. eigenvalues --    2.99630   3.00002   3.01151   3.03048   3.04132
 Alpha virt. eigenvalues --    3.05094   3.05713   3.05892   3.06449   3.06691
 Alpha virt. eigenvalues --    3.08792   3.08945   3.10015   3.11413   3.12155
 Alpha virt. eigenvalues --    3.12391   3.13601   3.15934   3.16592   3.17612
 Alpha virt. eigenvalues --    3.18768   3.20181   3.21263   3.21661   3.22266
 Alpha virt. eigenvalues --    3.22685   3.26437   3.28255   3.29370   3.30702
 Alpha virt. eigenvalues --    3.34882   3.36043   3.36260   3.37619   3.39561
 Alpha virt. eigenvalues --    3.40406   3.41904   3.44392   3.45121   3.48507
 Alpha virt. eigenvalues --    3.52807   3.53827   3.55170   3.56703   3.60961
 Alpha virt. eigenvalues --    3.68612   3.70028   3.75608   3.76020   3.77751
 Alpha virt. eigenvalues --    3.80116   3.82554   3.85370   3.86161   3.91213
 Alpha virt. eigenvalues --    3.92719   3.94142   3.97443   4.01061   4.03450
 Alpha virt. eigenvalues --    4.16268   4.21321   4.22105   4.23696   4.24501
 Alpha virt. eigenvalues --    4.25399   4.26546   4.27336   4.29162   4.31050
 Alpha virt. eigenvalues --    4.34151   4.37662   4.44560   4.46214   4.47210
 Alpha virt. eigenvalues --    4.54955   4.59711   4.62955   4.72168   4.83710
 Alpha virt. eigenvalues --    4.98787   4.99928   5.12065   5.14442   5.16081
 Alpha virt. eigenvalues --    5.20728   5.27406   5.46713   5.54322   5.71426
 Alpha virt. eigenvalues --    5.92286   5.95117   6.27202  23.82368  23.95857
 Alpha virt. eigenvalues --   24.03582  24.12923  24.15880  24.17929  24.20521
 Alpha virt. eigenvalues --   24.27290  24.30260  24.30688  24.39318  24.41588
 Alpha virt. eigenvalues --   24.42164  24.44339  24.46754  24.51590  24.52378
 Alpha virt. eigenvalues --   24.54186  35.77195  50.11653  50.19667  50.23784
          Condensed to atoms (all electrons):
              1          2          3          4          5          6
     1  H    0.515967  -0.184037   0.005643  -0.004398   0.068178   0.038395
     2  C   -0.184037  10.649044  -0.838118  -1.660800  -2.476386  -0.269304
     3  C    0.005643  -0.838118   8.758830   0.736747  -1.769636  -1.465720
     4  C   -0.004398  -1.660800   0.736747  11.375034  -0.069904  -1.676448
     5  C    0.068178  -2.476386  -1.769636  -0.069904  10.222009   0.963721
     6  C    0.038395  -0.269304  -1.465720  -1.676448   0.963721  10.109931
     7  H   -0.018242   0.060423  -0.012151   0.027397  -0.123943   0.376081
     8  C    0.000453  -0.013225   0.074936  -0.069611  -0.172428  -0.042178
     9  H    0.000021  -0.013866   0.023870   0.058958  -0.017897  -0.002850
    10  H   -0.000012   0.005678   0.018463  -0.029832   0.005563   0.010335
    11  H    0.000047  -0.006067   0.012117  -0.002086  -0.002094  -0.001589
    12  C   -0.000935  -0.138930  -0.154245  -0.058142   0.208222  -0.065404
    13  H    0.000031  -0.006992   0.017321  -0.008505   0.023229  -0.018013
    14  H   -0.000184   0.010303  -0.007811   0.011563   0.004649  -0.002549
    15  N   -0.000488  -0.025822  -0.332971   0.296648  -0.214574   0.058789
    16  C    0.371888  -0.061782  -0.272524  -0.519960   0.314705  -0.959516
    17  C   -0.021587   0.691187   1.800408  -1.324904  -1.947797  -1.077028
    18  H    0.002270   0.147311   0.391888  -0.336437  -0.026695  -0.076581
    19  H    0.004192  -0.081018   0.001962  -0.091845   0.567384  -0.045416
    20  H   -0.000183   0.007880  -0.008357  -0.025884   0.020922   0.007548
    21  C    0.068025  -1.323466  -0.777294  -0.287022   0.710821   0.096376
    22  H   -0.005301  -0.105987   0.075319   0.237956  -0.026585   0.083326
    23  C    0.009413   0.821945   0.050715  -0.050527  -0.010745   0.098496
    24  H    0.009881   0.000132  -0.159279  -0.068496   0.048231   0.022607
    25  C   -0.072322   0.142952   0.255584   0.078110  -0.129904  -0.151150
    26  O   -0.002426   0.068247   0.002290  -0.000683  -0.005755  -0.029629
    27  C   -0.014142   0.017436   0.049684   0.022889  -0.027838  -0.057733
    28  C    0.015943  -0.100167  -0.139930  -0.039797   0.089848   0.205114
    29  C    0.004672  -0.063637  -0.001571   0.001281  -0.001579  -0.001979
    30  O   -0.002325  -0.000247   0.000156  -0.000050  -0.000208  -0.000906
    31  C   -0.005254   0.002533  -0.018154  -0.003899   0.008041   0.031464
    32  H    0.004509  -0.017769  -0.000387  -0.000721   0.001979   0.006084
    33  H   -0.000134  -0.001401   0.000078   0.000037  -0.000045  -0.000001
    34  C    0.002015   0.000573  -0.009699  -0.001520   0.002437   0.010983
    35  H    0.000299  -0.001934   0.000153  -0.000047  -0.000124   0.001727
    36  H   -0.000453   0.000301   0.001643   0.000445  -0.000238  -0.000911
    37  O    0.000014   0.000004   0.000007   0.000000  -0.000001  -0.000007
    38  C    0.000045  -0.000446  -0.000021   0.000000   0.000003   0.000052
    39  H    0.000004   0.000029  -0.000005  -0.000001   0.000002   0.000008
    40  H    0.000003  -0.000038  -0.000002   0.000000   0.000000   0.000002
    41  H    0.000007   0.000070   0.000001   0.000000   0.000000  -0.000003
              7          8          9         10         11         12
     1  H   -0.018242   0.000453   0.000021  -0.000012   0.000047  -0.000935
     2  C    0.060423  -0.013225  -0.013866   0.005678  -0.006067  -0.138930
     3  C   -0.012151   0.074936   0.023870   0.018463   0.012117  -0.154245
     4  C    0.027397  -0.069611   0.058958  -0.029832  -0.002086  -0.058142
     5  C   -0.123943  -0.172428  -0.017897   0.005563  -0.002094   0.208222
     6  C    0.376081  -0.042178  -0.002850   0.010335  -0.001589  -0.065404
     7  H    0.527406  -0.000293  -0.000190  -0.000138  -0.000307   0.003844
     8  C   -0.000293   4.957244   0.413588   0.425482   0.453768  -0.091988
     9  H   -0.000190   0.413588   0.586312  -0.034511  -0.052021   0.006900
    10  H   -0.000138   0.425482  -0.034511   0.528103  -0.020564  -0.017290
    11  H   -0.000307   0.453768  -0.052021  -0.020564   0.526823  -0.001633
    12  C    0.003844  -0.091988   0.006900  -0.017290  -0.001633   4.987615
    13  H   -0.000312  -0.012492   0.002619   0.006491  -0.004826   0.418353
    14  H    0.001579   0.007285  -0.006904   0.001634   0.002264   0.422713
[...]
    17  C    0.003665  -0.003527  -0.029772  -0.156624   9.300413   0.068804
    18  H    0.002465  -0.000985  -0.035930   0.044062   0.068804   0.543383
    19  H    0.006006  -0.011441  -0.034980   0.004705  -0.016727   0.001492
    20  H   -0.022594  -0.063364  -0.054877  -0.001197  -0.004508  -0.000159
    21  C    0.000060   0.000491  -0.000671   0.683138  -0.915949   0.033590
    22  H   -0.000508   0.000210  -0.000979  -0.092982   0.376976  -0.045934
    23  C    0.000030  -0.000044   0.000258  -1.130830  -0.541635  -0.001929
    24  H    0.000057  -0.000085  -0.000957   0.010119  -0.113506   0.016326
    25  C   -0.000044   0.000067  -0.000166   0.361752   0.444724  -0.010712
    26  O    0.000000  -0.000001   0.000001   0.132829   0.022057   0.000009
    27  C    0.000001   0.000005  -0.000029   0.275438   0.302786  -0.002630
    28  C    0.000014   0.000007   0.000076  -0.550709  -0.295979   0.003150
    29  C    0.000000   0.000000  -0.000001   0.131363   0.035358  -0.000136
    30  O    0.000000   0.000000   0.000000   0.047649   0.000781  -0.000002
    31  C    0.000001   0.000003   0.000016  -0.091356  -0.029717  -0.000507
    32  H    0.000001   0.000002   0.000044  -0.008830   0.005330  -0.000469
    33  H    0.000000   0.000000   0.000000   0.003305   0.000795  -0.000005
    34  C    0.000000   0.000000   0.000001  -0.015744  -0.005098   0.000083
    35  H    0.000000   0.000001   0.000000  -0.019552  -0.003024  -0.000025
    36  H    0.000000   0.000000  -0.000001   0.000950   0.000053  -0.000056
    37  O    0.000000   0.000000   0.000000   0.000218  -0.000016   0.000000
    38  C    0.000000   0.000000   0.000000   0.001150   0.000021   0.000000
    39  H    0.000000   0.000000   0.000000  -0.000139  -0.000009   0.000000
    40  H    0.000000   0.000000   0.000000   0.000035  -0.000002   0.000000
    41  H    0.000000   0.000000   0.000000  -0.000058  -0.000012   0.000000
             19         20         21         22         23         24
     1  H    0.001793  -0.000144   0.039105  -0.000216   0.022628   0.003870
     2  C   -0.036459   0.008126  -1.649174  -0.123567   0.649027   0.063943
     3  C   -0.015225  -0.013090  -0.707118   0.073173   0.054622  -0.149722
     4  C   -0.085383  -0.032349  -0.248280   0.199198   0.046051  -0.070049
     5  C    0.485242   0.028306   0.537498  -0.028775   0.036625   0.037848
     6  C    0.016699   0.010086  -0.189244   0.058701   0.136905  -0.001064
     7  H   -0.012999   0.000550   0.001166  -0.001826   0.000946   0.000315
     8  C   -0.002736   0.000351   0.003423   0.005415  -0.000169  -0.001083
     9  H   -0.000770   0.002084  -0.000195   0.001929  -0.000028  -0.000379
    10  H    0.001932  -0.001212   0.000033   0.000015   0.000006  -0.000038
    11  H   -0.000507  -0.003127  -0.000208   0.002520  -0.000003  -0.000403
    12  C    0.014735   0.417885  -0.007107   0.000140   0.002063   0.000001
    13  H    0.006006  -0.022594   0.000060  -0.000508   0.000030   0.000057
    14  H   -0.011441  -0.063364   0.000491   0.000210  -0.000044  -0.000085
    15  N   -0.034980  -0.054877  -0.000671  -0.000979   0.000258  -0.000957
    16  C    0.004705  -0.001197   0.683138  -0.092982  -1.130830   0.010119
    17  C   -0.016727  -0.004508  -0.915949   0.376976  -0.541635  -0.113506
    18  H    0.001492  -0.000159   0.033590  -0.045934  -0.001929   0.016326
    19  H    0.511442  -0.006803  -0.012612   0.000513   0.003252   0.000034
    20  H   -0.006803   0.561144   0.000023  -0.000214  -0.000064   0.000053
    21  C   -0.012612   0.000023  10.940845  -0.172455   0.000915   0.797825
    22  H    0.000513  -0.000214  -0.172455   0.597174  -0.022829  -0.070401
    23  C    0.003252  -0.000064   0.000915  -0.022829   9.544472   0.092432
    24  H    0.000034   0.000053   0.797825  -0.070401   0.092432   0.905607
    25  C   -0.001038   0.000055  -1.925077   0.069730  -0.179954  -0.210770
    26  O    0.000049  -0.000001  -0.422272   0.002777   0.679195  -0.007810
    27  C   -0.000276   0.000001  -0.081720   0.031787  -3.217003  -0.091561
    28  C   -0.000046  -0.000022  -0.197368  -0.034579   0.610986   0.094730
    29  C   -0.000051   0.000000   0.297585   0.000794  -0.022713  -0.011010
    30  O   -0.000002   0.000000  -0.054426   0.000150  -0.071794   0.000871
    31  C   -0.000065  -0.000001  -0.934115   0.007574  -1.002095  -0.064144
    32  H   -0.000045   0.000000   0.006977  -0.003451  -0.018555  -0.037436
    33  H   -0.000001   0.000000  -0.004623   0.000091  -0.033240  -0.001859
    34  C   -0.000002   0.000000   0.071851  -0.002291   0.334258   0.021270
    35  H   -0.000006   0.000000   0.010937   0.000078   0.031000   0.001089
    36  H    0.000000   0.000000  -0.011880   0.000488  -0.018750   0.003935
    37  O    0.000000   0.000000  -0.002353   0.000007   0.006071  -0.000105
    38  C    0.000000   0.000000  -0.004248  -0.000001   0.037158   0.000407
    39  H    0.000000   0.000000  -0.000283   0.000004   0.001457  -0.000050
    40  H    0.000000   0.000000  -0.000131  -0.000002   0.001646   0.000030
    41  H    0.000000   0.000000   0.000542  -0.000005   0.001385   0.000089
             25         26         27         28         29         30
     1  H   -0.042768   0.001632  -0.005502   0.006818   0.001979  -0.002197
     2  C    0.127281   0.067403  -0.067133  -0.137288  -0.081521  -0.000484
     3  C    0.236214   0.002391   0.033301  -0.094132  -0.004949   0.000219
     4  C    0.085880  -0.000908   0.018192  -0.027760   0.000185  -0.000029
     5  C   -0.117534  -0.005728  -0.015165   0.053900  -0.000275  -0.000268
     6  C   -0.078483  -0.023375  -0.028222   0.123763   0.000926  -0.000773
     7  H    0.004336   0.000572   0.002156  -0.001100   0.000217   0.000086
     8  C    0.000343   0.000007  -0.000115  -0.000334  -0.000009   0.000000
     9  H    0.000094  -0.000001   0.000028  -0.000021   0.000002   0.000000
    10  H    0.000031   0.000000  -0.000007  -0.000024  -0.000001   0.000000
    11  H    0.000070   0.000000   0.000026   0.000027   0.000003   0.000000
    12  C   -0.000399   0.000002   0.000028   0.000046  -0.000001   0.000000
    13  H   -0.000044   0.000000   0.000001   0.000014   0.000000   0.000000
    14  H    0.000067  -0.000001   0.000005   0.000007   0.000000   0.000000
    15  N   -0.000166   0.000001  -0.000029   0.000076  -0.000001   0.000000
    16  C    0.361752   0.132829   0.275438  -0.550709   0.131363   0.047649
    17  C    0.444724   0.022057   0.302786  -0.295979   0.035358   0.000781
    18  H   -0.010712   0.000009  -0.002630   0.003150  -0.000136  -0.000002
    19  H   -0.001038   0.000049  -0.000276  -0.000046  -0.000051  -0.000002
    20  H    0.000055  -0.000001   0.000001  -0.000022   0.000000   0.000000
    21  C   -1.925077  -0.422272  -0.081720  -0.197368   0.297585  -0.054426
    22  H    0.069730   0.002777   0.031787  -0.034579   0.000794   0.000150
    23  C   -0.179954   0.679195  -3.217003   0.610986  -0.022713  -0.071794
    24  H   -0.210770  -0.007810  -0.091561   0.094730  -0.011010   0.000871
    25  C   14.824597  -0.099960  -1.426176   0.214462  -4.108714   0.083689
    26  O   -0.099960   8.147470  -0.203915  -0.080184   0.061102   0.022555
    27  C   -1.426176  -0.203915  11.372895  -0.758883   1.954238   0.265510
    28  C    0.214462  -0.080184  -0.758883   8.065697  -0.784755  -0.047674
    29  C   -4.108714   0.061102   1.954238  -0.784755  12.641360  -0.293544
    30  O    0.083689   0.022555   0.265510  -0.047674  -0.293544   8.147809
    31  C   -2.470394  -0.022780   0.286941   1.338251  -2.666378  -0.007558
    32  H   -0.052868   0.000025   0.057610   0.422409   0.102624  -0.003537
    33  H   -0.148490  -0.000150   0.067537   0.024890   0.735377  -0.034965
    34  C   -0.674359   0.007469  -2.561679  -1.369324  -1.626950   0.040023
    35  H   -0.139846   0.090019   0.024159   0.023665   0.037433   0.220016
    36  H    0.005447   0.000121  -0.003349   0.010893  -0.120144   0.000633
    37  O    0.034657  -0.000050   0.061434  -0.119065   0.259606  -0.000622
    38  C   -0.096007   0.000379  -0.188394  -0.020918  -0.394082   0.006151
    39  H    0.004654  -0.000046   0.009977  -0.013284   0.018451   0.000186
    40  H   -0.003670   0.000021  -0.015029   0.002323  -0.027469   0.000356
    41  H    0.012220  -0.000026  -0.000474  -0.004498  -0.000920   0.000239
             31         32         33         34         35         36
     1  H   -0.002303   0.001868  -0.000117   0.001843   0.000040  -0.000213
     2  C   -0.044419  -0.015357  -0.001072  -0.015484  -0.000653  -0.000177
     3  C   -0.008933  -0.000791   0.000041  -0.006984   0.000350   0.001468
     4  C   -0.002540   0.000122   0.000017  -0.001019   0.000032   0.000351
     5  C    0.003740   0.000223  -0.000030   0.001418  -0.000254  -0.000126
     6  C    0.023034   0.002907   0.000011   0.006418   0.002169  -0.000296
     7  H    0.000163   0.000135   0.000015  -0.000129   0.000044   0.000007
     8  C   -0.000065   0.000022   0.000000  -0.000006   0.000000   0.000002
     9  H    0.000004   0.000033   0.000000   0.000000   0.000000   0.000000
    10  H   -0.000004  -0.000002   0.000000  -0.000001   0.000000   0.000000
    11  H    0.000021   0.000010   0.000000   0.000003   0.000000   0.000000
    12  C   -0.000003   0.000007   0.000000   0.000001  -0.000003   0.000000
    13  H    0.000001   0.000001   0.000000   0.000000   0.000000   0.000000
    14  H    0.000003   0.000002   0.000000   0.000000   0.000001   0.000000
    15  N    0.000016   0.000044   0.000000   0.000001   0.000000  -0.000001
    16  C   -0.091356  -0.008830   0.003305  -0.015744  -0.019552   0.000950
    17  C   -0.029717   0.005330   0.000795  -0.005098  -0.003024   0.000053
    18  H   -0.000507  -0.000469  -0.000005   0.000083  -0.000025  -0.000056
    19  H   -0.000065  -0.000045  -0.000001  -0.000002  -0.000006   0.000000
    20  H   -0.000001   0.000000   0.000000   0.000000   0.000000   0.000000
    21  C   -0.934115   0.006977  -0.004623   0.071851   0.010937  -0.011880
    22  H    0.007574  -0.003451   0.000091  -0.002291   0.000078   0.000488
    23  C   -1.002095  -0.018555  -0.033240   0.334258   0.031000  -0.018750
    24  H   -0.064144  -0.037436  -0.001859   0.021270   0.001089   0.003935
    25  C   -2.470394  -0.052868  -0.148490  -0.674359  -0.139846   0.005447
    26  O   -0.022780   0.000025  -0.000150   0.007469   0.090019   0.000121
    27  C    0.286941   0.057610   0.067537  -2.561679   0.024159  -0.003349
    28  C    1.338251   0.422409   0.024890  -1.369324   0.023665   0.010893
    29  C   -2.666378   0.102624   0.735377  -1.626950   0.037433  -0.120144
    30  O   -0.007558  -0.003537  -0.034965   0.040023   0.220016   0.000633
    31  C   11.417723  -0.144068  -0.034114   1.105848   0.029194   0.535609
    32  H   -0.144068   0.597875   0.005280  -0.045526   0.000285  -0.030571
    33  H   -0.034114   0.005280   0.509807  -0.267042   0.000754  -0.002231
    34  C    1.105848  -0.045526  -0.267042  10.998400   0.002033  -0.071503
    35  H    0.029194   0.000285   0.000754   0.002033   0.278131   0.000860
    36  H    0.535609  -0.030571  -0.002231  -0.071503   0.000860   0.487768
    37  O   -0.547736  -0.000534  -0.014704   0.234689  -0.000446  -0.022707
    38  C    0.131088  -0.003754  -0.022826   0.252007   0.000454   0.005117
    39  H   -0.015398  -0.000047  -0.007405  -0.030809  -0.000051  -0.000463
    40  H    0.016752  -0.000268  -0.001711   0.063087   0.000106   0.000983
    41  H   -0.006554  -0.000140  -0.008900  -0.020349  -0.000075  -0.000628
             37         38         39         40         41
     1  H    0.000009   0.000012   0.000006  -0.000001   0.000003
     2  C    0.000021  -0.000403   0.000012  -0.000019   0.000034
     3  C    0.000006  -0.000022  -0.000001  -0.000002   0.000000
     4  C    0.000000  -0.000001   0.000000   0.000000   0.000000
     5  C    0.000000   0.000002   0.000001   0.000000   0.000000
     6  C   -0.000004   0.000033   0.000005   0.000001  -0.000002
     7  H    0.000000   0.000000   0.000000   0.000000   0.000000
     8  C    0.000000   0.000000   0.000000   0.000000   0.000000
     9  H    0.000000   0.000000   0.000000   0.000000   0.000000
    10  H    0.000000   0.000000   0.000000   0.000000   0.000000
    11  H    0.000000   0.000000   0.000000   0.000000   0.000000
    12  C    0.000000   0.000000   0.000000   0.000000   0.000000
    13  H    0.000000   0.000000   0.000000   0.000000   0.000000
    14  H    0.000000   0.000000   0.000000   0.000000   0.000000
    15  N    0.000000   0.000000   0.000000   0.000000   0.000000
    16  C    0.000218   0.001150  -0.000139   0.000035  -0.000058
    17  C   -0.000016   0.000021  -0.000009  -0.000002  -0.000012
    18  H    0.000000   0.000000   0.000000   0.000000   0.000000
    19  H    0.000000   0.000000   0.000000   0.000000   0.000000
    20  H    0.000000   0.000000   0.000000   0.000000   0.000000
    21  C   -0.002353  -0.004248  -0.000283  -0.000131   0.000542
    22  H    0.000007  -0.000001   0.000004  -0.000002  -0.000005
    23  C    0.006071   0.037158   0.001457   0.001646   0.001385
    24  H   -0.000105   0.000407  -0.000050   0.000030   0.000089
    25  C    0.034657  -0.096007   0.004654  -0.003670   0.012220
    26  O   -0.000050   0.000379  -0.000046   0.000021  -0.000026
    27  C    0.061434  -0.188394   0.009977  -0.015029  -0.000474
    28  C   -0.119065  -0.020918  -0.013284   0.002323  -0.004498
    29  C    0.259606  -0.394082   0.018451  -0.027469  -0.000920
    30  O   -0.000622   0.006151   0.000186   0.000356   0.000239
    31  C   -0.547736   0.131088  -0.015398   0.016752  -0.006554
    32  H   -0.000534  -0.003754  -0.000047  -0.000268  -0.000140
    33  H   -0.014704  -0.022826  -0.007405  -0.001711  -0.008900
    34  C    0.234689   0.252007  -0.030809   0.063087  -0.020349
    35  H   -0.000446   0.000454  -0.000051   0.000106  -0.000075
    36  H   -0.022707   0.005117  -0.000463   0.000983  -0.000628
    37  O    8.181233   0.196088  -0.034939  -0.068783  -0.033689
    38  C    0.196088   5.267468   0.412576   0.394799   0.406317
    39  H   -0.034939   0.412576   0.567642  -0.019042  -0.062671
    40  H   -0.068783   0.394799  -0.019042   0.456725  -0.018876
    41  H   -0.033689   0.406317  -0.062671  -0.018876   0.568640
 Mulliken atomic charges:
              1
     1  H    0.246683
     2  C    0.670905
     3  C   -0.367626
     4  C   -0.417556
     5  C   -0.230365
     6  C   -0.260667
     7  H    0.212534
     8  C   -0.384251
     9  H    0.177029
    10  H    0.154872
    11  H    0.173366
    12  C   -0.379306
    13  H    0.154193
    14  H    0.178647
    15  N    0.051490
    16  C    0.107693
    17  C   -0.464813
    18  H    0.219887
    19  H    0.190284
    20  H    0.175062
    21  C    0.115507
    22  H    0.171573
    23  C   -0.031753
    24  H   -0.218423
    25  C    1.277126
    26  O   -0.370875
    27  C   -0.096788
    28  C   -0.458160
    29  C   -0.134982
    30  O   -0.319046
    31  C   -0.800716
    32  H    0.162462
    33  H    0.235564
    34  C   -0.426404
    35  H    0.411087
    36  H    0.228412
    37  O   -0.128284
    38  C   -0.380572
    39  H    0.169665
    40  H    0.218139
    41  H    0.168409
 Sum of Mulliken atomic charges =   0.00000
 Mulliken charges with hydrogens summed into heavy atoms:
              1
     2  C    0.670905
     3  C   -0.147739
     4  C   -0.417556
     5  C   -0.040081
     6  C   -0.048133
     8  C    0.121015
    12  C    0.128596
    15  N    0.051490
    16  C    0.354376
    17  C   -0.293239
    21  C   -0.102916
    23  C   -0.031753
    25  C    1.277126
    26  O   -0.370875
    27  C   -0.096788
    28  C   -0.295699
    29  C    0.100582
    30  O    0.092041
    31  C   -0.572304
    34  C   -0.426404
    37  O   -0.128284
    38  C    0.175642
 Sum of Mulliken charges with hydrogens summed into heavy atoms =   0.00000
 Electronic spatial extent (au):  <R**2>=          13541.4997
 Charge=              0.0000 electrons
 Dipole moment (field-independent basis, Debye):
    X=             -6.4653    Y=             -3.8956    Z=              0.0315  Tot=              7.5483
 Quadrupole moment (field-independent basis, Debye-Ang):
   XX=            -68.6609   YY=           -131.5702   ZZ=           -136.7780
   XY=             -2.0518   XZ=              0.5332   YZ=             -0.8258
 Traceless Quadrupole moment (field-independent basis, Debye-Ang):
   XX=             43.6755   YY=            -19.2338   ZZ=            -24.4417
   XY=             -2.0518   XZ=              0.5332   YZ=             -0.8258
 Octapole moment (field-independent basis, Debye-Ang**2):
  XXX=           -132.8560  YYY=            -21.7756  ZZZ=              2.3400  XYY=            -66.3393
  XXY=            -67.3587  XXZ=             11.2985  XZZ=             13.7321  YZZ=              2.1115
  YYZ=             -1.3903  XYZ=              0.9157
 Hexadecapole moment (field-independent basis, Debye-Ang**3):
 XXXX=         -11654.7300 YYYY=          -1631.7169 ZZZZ=           -180.2741 XXXY=             91.1660
 XXXZ=             52.2818 YYYX=            -10.7918 YYYZ=             -1.2105 ZZZX=              6.0533
 ZZZY=             -0.0448 XXYY=          -2954.8344 XXZZ=          -2868.4672 YYZZ=           -313.8311
 XXYZ=            -33.9269 YYXZ=             -7.0400 ZZXY=             14.2415
 N-N= 1.598332153409D+03 E-N=-5.475084514962D+03  KE= 9.736047919361D+02
 1\1\GINC-NXN34\FOpt\RwB97XD TD-FC\6-311++G(d,p)\C18H19N1O3\BTX008\23-N
 ov-2015\0\\#wb97xd 6-311++g** td(nstates=1,root=1) opt scf(maxcycle=50
 0,xqc)\\title\\0,1\H,-0.4875236708,0.7850847052,1.4964688852\C,-1.3720
 118825,1.3380114716,3.3832106926\C,-2.4507002724,1.9715230687,5.489358
 2026\C,-1.5403296399,1.1824876831,6.2371720471\C,-0.5364096076,0.47124
 67612,5.5137477119\C,-0.4640177128,0.5508989896,4.1522192862\H,0.31063
 73233,0.0012597931,3.6280961335\C,-2.6330187248,1.8446247779,8.3158849
 53\H,-2.5267401166,2.9240572135,8.1562839321\H,-2.5356301652,1.6467747
 274,9.3813190399\H,-3.6404952763,1.5461587006,8.0047034962\C,-0.665979
 3073,0.2993954935,8.3419337678\H,-0.904732336,0.3538274649,9.402099757
 7\H,0.3595646039,0.6614433615,8.2048664635\N,-1.617129216,1.1017547198
 ,7.5968582589\C,-1.256922145,1.3837752596,1.9735183398\C,-2.3724243703
 ,2.0461305631,4.1217460436\H,-3.229330652,2.5265797863,5.9953347507\H,
 0.1825246077,-0.1422710907,6.0397179259\H,-0.706181061,-0.7526165473,8
 .0393427715\C,-2.0634942697,2.1495743659,1.1341956968\H,-3.0957214041,
 2.6564108458,3.5951079859\C,-1.9063465421,2.1037806161,-0.2890781394\H
 ,-2.8321329259,2.7824787414,1.5579135654\C,-2.757603011,2.9282383165,-
 1.1572561703\O,-1.0431133338,1.3262001447,-0.8057625083\C,-2.651332833
 5,2.7587135032,-2.5721693548\C,-3.6848731584,3.8858456073,-0.700481568
 4\C,-3.4513941276,3.4979991545,-3.4506422849\O,-1.7930920392,1.8947842
 592,-3.0881261003\C,-4.4683940375,4.6181067691,-1.5594598184\H,-3.7869
 058176,4.0685670431,0.362072723\H,-3.3247009237,3.3170178639,-4.509122
 8717\C,-4.3545719824,4.4202529381,-2.9488080249\H,-1.3092031787,1.4916
 718343,-2.2925678672\H,-5.1738101911,5.3545274836,-1.1953350134\O,-5.1
 664148438,5.1839647941,-3.7125685686\C,-5.1028867382,5.0338022712,-5.1
 153725577\H,-5.3724936131,4.0162416612,-5.4184129959\H,-5.8255392857,5
 .7365758005,-5.5264554084\H,-4.1045131214,5.2740570834,-5.496605178\\V
 ersion=EM64L-G09RevC.01\State=1-A\HF=-977.6873627\RMSD=4.112e-09\RMSF=
 4.857e-06\Dipole=-0.5024624,0.0790836,4.3150433\PG=C01 [X(C18H19N1O3)]
 \\@


 Any fool can criticize, condemn, and complain -- and most do.
 -- Dale Carnegie
 Job cpu time:  5 days 14 hours 36 minutes 35.9 seconds.
 File lengths (MBytes):  RWF=    364 Int=      0 D2E=      0 Chk=     48 Scr=      1
 Normal termination of Gaussian 09 at Mon Nov 23 01:10:43 2015.
