 Entering Gaussian System, Link 0=g09
 Input=mMeO_optS1_rotated.com
 Output=mMeO_optS1_rotated.out
 Initial command:
 /share/apps/gaussian/g09_D01/g09/l1.exe "/tmp/61410.1.all.q/Gau-9864.inp" -scrdir="/tmp/61410.1.all.q/"
 Entering Link 1 = /share/apps/gaussian/g09_D01/g09/l1.exe PID=      9865.
  
 Copyright (c) 1988,1990,1992,1993,1995,1998,2003,2009,2013,
            Gaussian, Inc.  All Rights Reserved.
  
 This is part of the Gaussian(R) 09 program.  It is based on
 the Gaussian(R) 03 system (copyright 2003, Gaussian, Inc.),
 the Gaussian(R) 98 system (copyright 1998, Gaussian, Inc.),
 the Gaussian(R) 94 system (copyright 1995, Gaussian, Inc.),
 the Gaussian 92(TM) system (copyright 1992, Gaussian, Inc.),
 the Gaussian 90(TM) system (copyright 1990, Gaussian, Inc.),
 the Gaussian 88(TM) system (copyright 1988, Gaussian, Inc.),
 the Gaussian 86(TM) system (copyright 1986, Carnegie Mellon
 University), and the Gaussian 82(TM) system (copyright 1983,
 Carnegie Mellon University). Gaussian is a federally registered
 trademark of Gaussian, Inc.
  
 This software contains proprietary and confidential information,
 including trade secrets, belonging to Gaussian, Inc.
  
 This software is provided under written license and may be
 used, copied, transmitted, or stored only in accord with that
 written license.
  
 The following legend is applicable only to US Government
 contracts under FAR:
  
                    RESTRICTED RIGHTS LEGEND
  
 Use, reproduction and disclosure by the US Government is
 subject to restrictions as set forth in subparagraphs (a)
 and (c) of the Commercial Computer Software - Restricted
 Rights clause in FAR 52.227-19.
  
 Gaussian, Inc.
 340 Quinnipiac St., Bldg. 40, Wallingford CT 06492
  
  
 ---------------------------------------------------------------
 Warning -- This program may not be used in any manner that
 competes with the business of Gaussian, Inc. or will provide
 assistance to any competitor of Gaussian, Inc.  The licensee
 of this program is prohibited from giving any competitor of
 Gaussian, Inc. access to this program.  By using this program,
 the user acknowledges that Gaussian, Inc. is engaged in the
 business of creating and licensing software in the field of
 computational chemistry and represents and warrants to the
 licensee that it is not a competitor of Gaussian, Inc. and that
 it will not use this program in any manner prohibited above.
 ---------------------------------------------------------------
  

 Cite this work as:
 Gaussian 09, Revision D.01,
 M. J. Frisch, G. W. Trucks, H. B. Schlegel, G. E. Scuseria, 
 M. A. Robb, J. R. Cheeseman, G. Scalmani, V. Barone, B. Mennucci, 
 G. A. Petersson, H. Nakatsuji, M. Caricato, X. Li, H. P. Hratchian, 
 A. F. Izmaylov, J. Bloino, G. Zheng, J. L. Sonnenberg, M. Hada, 
 M. Ehara, K. Toyota, R. Fukuda, J. Hasegawa, M. Ishida, T. Nakajima, 
 Y. Honda, O. Kitao, H. Nakai, T. Vreven, J. A. Montgomery, Jr., 
 J. E. Peralta, F. Ogliaro, M. Bearpark, J. J. Heyd, E. Brothers, 
 K. N. Kudin, V. N. Staroverov, T. Keith, R. Kobayashi, J. Normand, 
 K. Raghavachari, A. Rendell, J. C. Burant, S. S. Iyengar, J. Tomasi, 
 M. Cossi, N. Rega, J. M. Millam, M. Klene, J. E. Knox, J. B. Cross, 
 V. Bakken, C. Adamo, J. Jaramillo, R. Gomperts, R. E. Stratmann, 
 O. Yazyev, A. J. Austin, R. Cammi, C. Pomelli, J. W. Ochterski, 
 R. L. Martin, K. Morokuma, V. G. Zakrzewski, G. A. Voth, 
 P. Salvador, J. J. Dannenberg, S. Dapprich, A. D. Daniels, 
 O. Farkas, J. B. Foresman, J. V. Ortiz, J. Cioslowski, 
 and D. J. Fox, Gaussian, Inc., Wallingford CT, 2013.
 
 ******************************************
 Gaussian 09:  ES64L-G09RevD.01 24-Apr-2013
                19-Jul-2017 
 ******************************************
 %chk=mMeO_optS1_rotated
 %mem=28GB
 %nproc=4
 Will use up to    4 processors via shared memory.
 -------------------------------------------
 #wb97xd 6-311++g** td(nstates=1,root=1) opt
 -------------------------------------------
 1/14=-1,18=20,19=15,26=3,38=1/1,3;
 2/9=110,12=2,17=6,18=5,40=1/2;
 3/5=4,6=6,7=1111,11=9,16=1,25=1,30=1,71=1,74=-58/1,2,8,3;
 4//1;
 5/5=2,38=5/2;
 8/6=1,10=2,107=1,108=1/1;
 9/8=1,15=2,41=1,42=1,70=2/14;
 10/5=4/2;
 6/7=2,8=2,9=2,10=2/1;
 7/12=6,13=5,14=1/1,2,3,16;
 1/14=-1,18=20,19=15,26=3/3(2);
 2/9=110/2;
 99//99;
 2/9=110/2;
 3/5=4,6=6,7=1111,11=9,16=1,25=1,30=1,71=1,74=-58/1,2,8,3;
 4/5=5,16=3,69=1/1;
 5/5=2,38=5/2;
 8/6=1,10=2,107=1,108=1/1;
 9/8=1,15=2,41=1,42=1,49=4,70=2/14;
 10/5=4/2;
 7/12=6,13=5,14=1/1,2,3,16;
 1/14=-1,18=20,19=15,26=3/3(-8);
 2/9=110/2;
 6/7=2,8=2,9=2,10=2/1;
 99//99;
 -----
 title
 -----
 Symbolic Z-matrix:
 Charge =  0 Multiplicity = 1
 H                    -0.48752   0.78509   1.49647 
 C                    -1.37201   1.33801   3.38321 
 C                    -2.4507    1.97152   5.48936 
 C                    -1.54033   1.18249   6.23717 
 C                    -0.53641   0.47125   5.51375 
 C                    -0.46402   0.5509    4.15222 
 H                     0.31064   0.00126   3.6281 
 C                    -2.63302   1.84463   8.31588 
 H                    -2.52674   2.92406   8.15628 
 H                    -2.53563   1.64678   9.38132 
 H                    -3.6405    1.54616   8.0047 
 C                    -0.66598   0.2994    8.34193 
 H                    -0.90473   0.35383   9.4021 
 H                     0.35957   0.66144   8.20487 
 N                    -1.61713   1.10176   7.59686 
 C                    -1.25692   1.38378   1.97352 
 C                    -2.37242   2.04613   4.12175 
 H                    -3.22933   2.52658   5.99534 
 H                     0.18253  -0.14227   6.03972 
 H                    -0.70618  -0.75262   8.03934 
 C                    -2.06349   2.14957   1.1342 
 H                    -3.09572   2.65641   3.59511 
 C                    -1.90635   2.10378  -0.28908 
 H                    -2.83213   2.78248   1.55791 
 C                    -2.7576    2.92824  -1.15726 
 O                    -1.04311   1.3262   -0.80576 
 C                    -2.12877   3.86701  -2.03207 
 C                    -4.16471   2.86615  -1.19835 
 C                    -2.88382   4.66454  -2.89936 
 O                    -0.81343   4.00438  -2.04534 
 C                    -4.91049   3.6513   -2.04411 
 H                    -4.69054   2.1873   -0.53843 
 H                    -2.34514   5.35015  -3.53885 
 C                    -4.2646    4.55721  -2.90697 
 H                    -0.4707    3.36117  -1.33938 
 H                    -5.99181   3.59709  -2.06222 
 O                    -5.08027   5.28406  -3.70198 
 C                    -4.49573   6.21118  -4.59261 
 H                    -3.8394    5.7105   -5.31269 
 H                    -5.32203   6.68123  -5.12306 
 H                    -3.92708   6.97669  -4.05369 
 

 GradGradGradGradGradGradGradGradGradGradGradGradGradGradGradGradGradGrad
 Berny optimization.
 Initialization pass.
                           ----------------------------
                           !    Initial Parameters    !
                           ! (Angstroms and Degrees)  !
 --------------------------                            --------------------------
 ! Name  Definition              Value          Derivative Info.                !
 --------------------------------------------------------------------------------
 ! R1    R(1,16)                 1.0853         estimate D2E/DX2                !
 ! R2    R(2,6)                  1.4267         estimate D2E/DX2                !
 ! R3    R(2,16)                 1.4151         estimate D2E/DX2                !
 ! R4    R(2,17)                 1.431          estimate D2E/DX2                !
 ! R5    R(3,4)                  1.4179         estimate D2E/DX2                !
 ! R6    R(3,17)                 1.3719         estimate D2E/DX2                !
 ! R7    R(3,18)                 1.0818         estimate D2E/DX2                !
 ! R8    R(4,5)                  1.4273         estimate D2E/DX2                !
 ! R9    R(4,15)                 1.3642         estimate D2E/DX2                !
 ! R10   R(5,6)                  1.3658         estimate D2E/DX2                !
 ! R11   R(5,19)                 1.0816         estimate D2E/DX2                !
 ! R12   R(6,7)                  1.0848         estimate D2E/DX2                !
 ! R13   R(8,9)                  1.0963         estimate D2E/DX2                !
 ! R14   R(8,10)                 1.088          estimate D2E/DX2                !
 ! R15   R(8,11)                 1.0959         estimate D2E/DX2                !
 ! R16   R(8,15)                 1.4494         estimate D2E/DX2                !
 ! R17   R(12,13)                1.0881         estimate D2E/DX2                !
 ! R18   R(12,14)                1.0962         estimate D2E/DX2                !
 ! R19   R(12,15)                1.4504         estimate D2E/DX2                !
 ! R20   R(12,20)                1.0954         estimate D2E/DX2                !
 ! R21   R(16,21)                1.3934         estimate D2E/DX2                !
 ! R22   R(17,22)                1.083          estimate D2E/DX2                !
 ! R23   R(21,23)                1.4327         estimate D2E/DX2                !
 ! R24   R(21,24)                1.0821         estimate D2E/DX2                !
 ! R25   R(23,25)                1.469          estimate D2E/DX2                !
 ! R26   R(23,26)                1.2715         estimate D2E/DX2                !
 ! R27   R(25,27)                1.429          estimate D2E/DX2                !
 ! R28   R(25,28)                1.4091         estimate D2E/DX2                !
 ! R29   R(27,29)                1.3994         estimate D2E/DX2                !
 ! R30   R(27,30)                1.3226         estimate D2E/DX2                !
 ! R31   R(28,31)                1.374          estimate D2E/DX2                !
 ! R32   R(28,32)                1.083          estimate D2E/DX2                !
 ! R33   R(29,33)                1.0813         estimate D2E/DX2                !
 ! R34   R(29,34)                1.385          estimate D2E/DX2                !
 ! R35   R(30,35)                1.0147         estimate D2E/DX2                !
 ! R36   R(31,34)                1.408          estimate D2E/DX2                !
 ! R37   R(31,36)                1.0828         estimate D2E/DX2                !
 ! R38   R(34,37)                1.3512         estimate D2E/DX2                !
 ! R39   R(37,38)                1.4122         estimate D2E/DX2                !
 ! R40   R(38,39)                1.0954         estimate D2E/DX2                !
 ! R41   R(38,40)                1.0886         estimate D2E/DX2                !
 ! R42   R(38,41)                1.0954         estimate D2E/DX2                !
 ! A1    A(6,2,16)             120.2012         estimate D2E/DX2                !
 ! A2    A(6,2,17)             116.0891         estimate D2E/DX2                !
 ! A3    A(16,2,17)            123.7093         estimate D2E/DX2                !
 ! A4    A(4,3,17)             121.2907         estimate D2E/DX2                !
 ! A5    A(4,3,18)             120.0618         estimate D2E/DX2                !
 ! A6    A(17,3,18)            118.6469         estimate D2E/DX2                !
 ! A7    A(3,4,5)              117.4895         estimate D2E/DX2                !
 ! A8    A(3,4,15)             121.4945         estimate D2E/DX2                !
 ! A9    A(5,4,15)             121.016          estimate D2E/DX2                !
 ! A10   A(4,5,6)              120.8977         estimate D2E/DX2                !
 ! A11   A(4,5,19)             120.246          estimate D2E/DX2                !
 ! A12   A(6,5,19)             118.8562         estimate D2E/DX2                !
 ! A13   A(2,6,5)              122.3975         estimate D2E/DX2                !
 ! A14   A(2,6,7)              118.2664         estimate D2E/DX2                !
 ! A15   A(5,6,7)              119.3358         estimate D2E/DX2                !
 ! A16   A(9,8,10)             108.2353         estimate D2E/DX2                !
 ! A17   A(9,8,11)             108.4177         estimate D2E/DX2                !
 ! A18   A(9,8,15)             111.3744         estimate D2E/DX2                !
 ! A19   A(10,8,11)            108.1093         estimate D2E/DX2                !
 ! A20   A(10,8,15)            109.259          estimate D2E/DX2                !
 ! A21   A(11,8,15)            111.3398         estimate D2E/DX2                !
 ! A22   A(13,12,14)           108.0953         estimate D2E/DX2                !
 ! A23   A(13,12,15)           109.2056         estimate D2E/DX2                !
 ! A24   A(13,12,20)           108.0075         estimate D2E/DX2                !
 ! A25   A(14,12,15)           111.5052         estimate D2E/DX2                !
 ! A26   A(14,12,20)           108.4812         estimate D2E/DX2                !
 ! A27   A(15,12,20)           111.4272         estimate D2E/DX2                !
 ! A28   A(4,15,8)             120.2344         estimate D2E/DX2                !
 ! A29   A(4,15,12)            120.5183         estimate D2E/DX2                !
 ! A30   A(8,15,12)            119.2307         estimate D2E/DX2                !
 ! A31   A(1,16,2)             118.5329         estimate D2E/DX2                !
 ! A32   A(1,16,21)            116.6642         estimate D2E/DX2                !
 ! A33   A(2,16,21)            124.8028         estimate D2E/DX2                !
 ! A34   A(2,17,3)             121.8352         estimate D2E/DX2                !
 ! A35   A(2,17,22)            119.6554         estimate D2E/DX2                !
 ! A36   A(3,17,22)            118.5086         estimate D2E/DX2                !
 ! A37   A(16,21,23)           121.1555         estimate D2E/DX2                !
 ! A38   A(16,21,24)           119.7867         estimate D2E/DX2                !
 ! A39   A(23,21,24)           119.0532         estimate D2E/DX2                !
 ! A40   A(21,23,25)           120.3719         estimate D2E/DX2                !
 ! A41   A(21,23,26)           119.8483         estimate D2E/DX2                !
 ! A42   A(25,23,26)           119.7657         estimate D2E/DX2                !
 ! A43   A(23,25,27)           118.3911         estimate D2E/DX2                !
 ! A44   A(23,25,28)           124.8309         estimate D2E/DX2                !
 ! A45   A(27,25,28)           116.778          estimate D2E/DX2                !
 ! A46   A(25,27,29)           121.0893         estimate D2E/DX2                !
 ! A47   A(25,27,30)           120.7991         estimate D2E/DX2                !
 ! A48   A(29,27,30)           118.1116         estimate D2E/DX2                !
 ! A49   A(25,28,31)           122.3292         estimate D2E/DX2                !
 ! A50   A(25,28,32)           119.6513         estimate D2E/DX2                !
 ! A51   A(31,28,32)           118.0165         estimate D2E/DX2                !
 ! A52   A(27,29,33)           117.3287         estimate D2E/DX2                !
 ! A53   A(27,29,34)           119.8122         estimate D2E/DX2                !
 ! A54   A(33,29,34)           122.8586         estimate D2E/DX2                !
 ! A55   A(27,30,35)           105.2545         estimate D2E/DX2                !
 ! A56   A(28,31,34)           119.7288         estimate D2E/DX2                !
 ! A57   A(28,31,36)           121.581          estimate D2E/DX2                !
 ! A58   A(34,31,36)           118.6892         estimate D2E/DX2                !
 ! A59   A(29,34,31)           120.2548         estimate D2E/DX2                !
 ! A60   A(29,34,37)           124.2908         estimate D2E/DX2                !
 ! A61   A(31,34,37)           115.4536         estimate D2E/DX2                !
 ! A62   A(34,37,38)           118.317          estimate D2E/DX2                !
 ! A63   A(37,38,39)           111.2533         estimate D2E/DX2                !
 ! A64   A(37,38,40)           106.0566         estimate D2E/DX2                !
 ! A65   A(37,38,41)           111.3088         estimate D2E/DX2                !
 ! A66   A(39,38,40)           109.3799         estimate D2E/DX2                !
 ! A67   A(39,38,41)           109.3777         estimate D2E/DX2                !
 ! A68   A(40,38,41)           109.3915         estimate D2E/DX2                !
 ! D1    D(16,2,6,5)          -179.8045         estimate D2E/DX2                !
 ! D2    D(16,2,6,7)             0.3727         estimate D2E/DX2                !
 ! D3    D(17,2,6,5)            -0.0136         estimate D2E/DX2                !
 ! D4    D(17,2,6,7)          -179.8364         estimate D2E/DX2                !
 ! D5    D(6,2,16,1)             1.9188         estimate D2E/DX2                !
 ! D6    D(6,2,16,21)         -177.9759         estimate D2E/DX2                !
 ! D7    D(17,2,16,1)         -177.8555         estimate D2E/DX2                !
 ! D8    D(17,2,16,21)           2.2498         estimate D2E/DX2                !
 ! D9    D(6,2,17,3)             0.0541         estimate D2E/DX2                !
 ! D10   D(6,2,17,22)         -179.6127         estimate D2E/DX2                !
 ! D11   D(16,2,17,3)          179.8369         estimate D2E/DX2                !
 ! D12   D(16,2,17,22)           0.1701         estimate D2E/DX2                !
 ! D13   D(17,3,4,5)             0.1727         estimate D2E/DX2                !
 ! D14   D(17,3,4,15)         -179.7778         estimate D2E/DX2                !
 ! D15   D(18,3,4,5)           179.8929         estimate D2E/DX2                !
 ! D16   D(18,3,4,15)           -0.0576         estimate D2E/DX2                !
 ! D17   D(4,3,17,2)            -0.1379         estimate D2E/DX2                !
 ! D18   D(4,3,17,22)          179.5326         estimate D2E/DX2                !
 ! D19   D(18,3,17,2)         -179.8619         estimate D2E/DX2                !
 ! D20   D(18,3,17,22)          -0.1914         estimate D2E/DX2                !
 ! D21   D(3,4,5,6)             -0.1319         estimate D2E/DX2                !
 ! D22   D(3,4,5,19)           179.8571         estimate D2E/DX2                !
 ! D23   D(15,4,5,6)           179.8188         estimate D2E/DX2                !
 ! D24   D(15,4,5,19)           -0.1921         estimate D2E/DX2                !
 ! D25   D(3,4,15,8)            -0.8339         estimate D2E/DX2                !
 ! D26   D(3,4,15,12)         -179.3422         estimate D2E/DX2                !
 ! D27   D(5,4,15,8)           179.2173         estimate D2E/DX2                !
 ! D28   D(5,4,15,12)            0.7091         estimate D2E/DX2                !
 ! D29   D(4,5,6,2)              0.056          estimate D2E/DX2                !
 ! D30   D(4,5,6,7)            179.8769         estimate D2E/DX2                !
 ! D31   D(19,5,6,2)          -179.9332         estimate D2E/DX2                !
 ! D32   D(19,5,6,7)            -0.1123         estimate D2E/DX2                !
 ! D33   D(9,8,15,4)           -60.8141         estimate D2E/DX2                !
 ! D34   D(9,8,15,12)          117.7133         estimate D2E/DX2                !
 ! D35   D(10,8,15,4)          179.6678         estimate D2E/DX2                !
 ! D36   D(10,8,15,12)          -1.8048         estimate D2E/DX2                !
 ! D37   D(11,8,15,4)           60.3276         estimate D2E/DX2                !
 ! D38   D(11,8,15,12)        -121.145          estimate D2E/DX2                !
 ! D39   D(13,12,15,4)        -179.154          estimate D2E/DX2                !
 ! D40   D(13,12,15,8)           2.323          estimate D2E/DX2                !
 ! D41   D(14,12,15,4)          61.455          estimate D2E/DX2                !
 ! D42   D(14,12,15,8)        -117.0681         estimate D2E/DX2                !
 ! D43   D(20,12,15,4)         -59.9202         estimate D2E/DX2                !
 ! D44   D(20,12,15,8)         121.5567         estimate D2E/DX2                !
 ! D45   D(1,16,21,23)           2.1492         estimate D2E/DX2                !
 ! D46   D(1,16,21,24)        -178.6343         estimate D2E/DX2                !
 ! D47   D(2,16,21,23)        -177.9543         estimate D2E/DX2                !
 ! D48   D(2,16,21,24)           1.2622         estimate D2E/DX2                !
 ! D49   D(16,21,23,25)       -179.4113         estimate D2E/DX2                !
 ! D50   D(16,21,23,26)          1.9542         estimate D2E/DX2                !
 ! D51   D(24,21,23,25)          1.3666         estimate D2E/DX2                !
 ! D52   D(24,21,23,26)       -177.268          estimate D2E/DX2                !
 ! D53   D(21,23,25,27)        121.3643         estimate D2E/DX2                !
 ! D54   D(21,23,25,28)        -58.6978         estimate D2E/DX2                !
 ! D55   D(26,23,25,27)        -60.0            estimate D2E/DX2                !
 ! D56   D(26,23,25,28)        119.9378         estimate D2E/DX2                !
 ! D57   D(23,25,27,29)        178.897          estimate D2E/DX2                !
 ! D58   D(23,25,27,30)         -0.9958         estimate D2E/DX2                !
 ! D59   D(28,25,27,29)         -1.0459         estimate D2E/DX2                !
 ! D60   D(28,25,27,30)        179.0613         estimate D2E/DX2                !
 ! D61   D(23,25,28,31)       -179.166          estimate D2E/DX2                !
 ! D62   D(23,25,28,32)          1.4708         estimate D2E/DX2                !
 ! D63   D(27,25,28,31)          0.7727         estimate D2E/DX2                !
 ! D64   D(27,25,28,32)       -178.5904         estimate D2E/DX2                !
 ! D65   D(25,27,29,33)       -179.6526         estimate D2E/DX2                !
 ! D66   D(25,27,29,34)          0.6186         estimate D2E/DX2                !
 ! D67   D(30,27,29,33)          0.243          estimate D2E/DX2                !
 ! D68   D(30,27,29,34)       -179.4858         estimate D2E/DX2                !
 ! D69   D(25,27,30,35)         -1.4083         estimate D2E/DX2                !
 ! D70   D(29,27,30,35)        178.6958         estimate D2E/DX2                !
 ! D71   D(25,28,31,34)         -0.0676         estimate D2E/DX2                !
 ! D72   D(25,28,31,36)       -179.6977         estimate D2E/DX2                !
 ! D73   D(32,28,31,34)        179.3055         estimate D2E/DX2                !
 ! D74   D(32,28,31,36)         -0.3246         estimate D2E/DX2                !
 ! D75   D(27,29,34,31)          0.1263         estimate D2E/DX2                !
 ! D76   D(27,29,34,37)        179.7795         estimate D2E/DX2                !
 ! D77   D(33,29,34,31)       -179.5869         estimate D2E/DX2                !
 ! D78   D(33,29,34,37)          0.0663         estimate D2E/DX2                !
 ! D79   D(28,31,34,29)         -0.4051         estimate D2E/DX2                !
 ! D80   D(28,31,34,37)        179.9122         estimate D2E/DX2                !
 ! D81   D(36,31,34,29)        179.2358         estimate D2E/DX2                !
 ! D82   D(36,31,34,37)         -0.4469         estimate D2E/DX2                !
 ! D83   D(29,34,37,38)          0.3863         estimate D2E/DX2                !
 ! D84   D(31,34,37,38)       -179.9454         estimate D2E/DX2                !
 ! D85   D(34,37,38,39)         61.4008         estimate D2E/DX2                !
 ! D86   D(34,37,38,40)       -179.7541         estimate D2E/DX2                !
 ! D87   D(34,37,38,41)        -60.8648         estimate D2E/DX2                !
 --------------------------------------------------------------------------------
 Trust Radius=3.00D-01 FncErr=1.00D-07 GrdErr=1.00D-06
 Number of steps in this run=    207 maximum allowed number of steps=    246.
 GradGradGradGradGradGradGradGradGradGradGradGradGradGradGradGradGradGrad

                          Input orientation:                          
 ---------------------------------------------------------------------
 Center     Atomic      Atomic             Coordinates (Angstroms)
 Number     Number       Type             X           Y           Z
 ---------------------------------------------------------------------
      1          1           0       -0.487524    0.785085    1.496469
      2          6           0       -1.372012    1.338011    3.383211
      3          6           0       -2.450700    1.971523    5.489358
      4          6           0       -1.540330    1.182488    6.237172
      5          6           0       -0.536410    0.471247    5.513748
      6          6           0       -0.464018    0.550899    4.152219
      7          1           0        0.310637    0.001260    3.628096
      8          6           0       -2.633019    1.844625    8.315885
      9          1           0       -2.526740    2.924057    8.156284
     10          1           0       -2.535630    1.646775    9.381319
     11          1           0       -3.640495    1.546159    8.004703
     12          6           0       -0.665979    0.299395    8.341934
     13          1           0       -0.904732    0.353827    9.402100
     14          1           0        0.359565    0.661443    8.204866
     15          7           0       -1.617129    1.101755    7.596858
     16          6           0       -1.256922    1.383775    1.973518
     17          6           0       -2.372424    2.046131    4.121746
     18          1           0       -3.229331    2.526580    5.995335
     19          1           0        0.182525   -0.142271    6.039718
     20          1           0       -0.706181   -0.752617    8.039343
     21          6           0       -2.063494    2.149574    1.134196
     22          1           0       -3.095721    2.656411    3.595108
     23          6           0       -1.906347    2.103781   -0.289078
     24          1           0       -2.832133    2.782479    1.557914
     25          6           0       -2.757603    2.928238   -1.157256
     26          8           0       -1.043113    1.326200   -0.805763
     27          6           0       -2.128770    3.867008   -2.032066
     28          6           0       -4.164707    2.866150   -1.198345
     29          6           0       -2.883821    4.664540   -2.899358
     30          8           0       -0.813431    4.004378   -2.045336
     31          6           0       -4.910489    3.651296   -2.044105
     32          1           0       -4.690540    2.187300   -0.538433
     33          1           0       -2.345139    5.350147   -3.538850
     34          6           0       -4.264597    4.557210   -2.906969
     35          1           0       -0.470701    3.361166   -1.339379
     36          1           0       -5.991806    3.597087   -2.062220
     37          8           0       -5.080266    5.284061   -3.701983
     38          6           0       -4.495731    6.211176   -4.592613
     39          1           0       -3.839405    5.710498   -5.312687
     40          1           0       -5.322033    6.681233   -5.123062
     41          1           0       -3.927076    6.976689   -4.053695
 ---------------------------------------------------------------------
                    Distance matrix (angstroms):
                    1          2          3          4          5
     1  H    0.000000
     2  C    2.155885   0.000000
     3  C    4.604873   2.449645   0.000000
     4  C    4.872432   2.863147   1.417948   0.000000
     5  C    4.029816   2.447182   2.432268   1.427257   0.000000
     6  C    2.666159   1.426665   2.784424   2.429893   1.365777
     7  H    2.407338   2.162910   3.869265   3.410082   2.119920
     8  C    7.227047   5.116451   2.835242   2.439968   3.759509
     9  H    7.286065   5.160539   2.832949   2.772915   4.118335
    10  H    8.191954   6.117732   3.906409   3.330442   4.509640
    11  H    7.271696   5.152429   2.814872   2.768956   4.122576
    12  C    6.864993   5.115285   3.757450   2.444252   2.836363
    13  H    7.928370   6.116698   4.507384   3.332782   3.907522
    14  H    6.762798   5.167636   4.121636   2.784405   2.842721
    15  N    6.212168   4.227377   2.427528   1.364244   2.429988
    16  C    1.085347   1.415123   3.759213   4.277801   3.726268
    17  C    3.469173   1.430976   1.371880   2.431725   2.790856
    18  H    5.548883   3.418409   1.081835   2.172048   3.421716
    19  H    4.685090   3.415384   3.421242   2.182247   1.081627
    20  H    6.724696   5.147196   4.119066   2.772770   2.811636
    21  C    2.115834   2.488946   4.375965   5.220088   4.932468
    22  H    3.835210   2.180425   2.115019   3.401793   3.873783
    23  C    2.634425   3.789146   5.805526   6.601113   6.181803
    24  H    3.080674   2.747754   4.032294   5.111182   5.124525
    25  C    4.097392   5.006448   6.722125   7.694606   7.448006
    26  O    2.429353   4.201883   6.482769   7.061927   6.397180
    27  C    4.964121   6.024428   7.763267   8.713966   8.426512
    28  C    5.011440   5.578979   6.961577   8.062815   7.997018
    29  C    6.333696   7.267877   8.821025   9.869439   9.688880
    30  O    4.797337   6.073767   7.974005   8.780170   8.348623
    31  C    6.349287   6.879525   8.100942   9.275372   9.293354
    32  H    4.875693   5.207035   6.434105   7.539383   7.538603
    33  H    7.045918   8.059724   9.640269  10.657753  10.441489
    34  C    6.919933   7.635225   8.970747  10.120558  10.074867
    35  H    3.831255   5.216165   7.244526   7.955808   7.437829
    36  H    7.132232   7.489902   8.497542   9.722439   9.845177
    37  O    8.267888   8.917536  10.117721  11.319932  11.346344
    38  C    9.087635   9.854903  11.126677  12.300664  12.278499
    39  H    9.047618  10.041180  11.514886  12.616967  12.472819
    40  H   10.097288  10.793951  11.960326  13.175447  13.213926
    41  H    8.998378   9.676291  10.876637  12.048704  12.056258
                    6          7          8          9         10
     6  C    0.000000
     7  H    1.084849   0.000000
     8  C    4.869744   5.834250   0.000000
     9  H    5.091094   6.090808   1.096331   0.000000
    10  H    5.730271   6.626351   1.088016   1.769813   0.000000
    11  H    5.091383   6.095313   1.095867   1.778210   1.768028
    12  C    4.202113   4.823166   2.501532   3.222693   2.528112
    13  H    5.272032   5.911053   2.527710   3.284669   2.081340
    14  H    4.136962   4.624398   3.219907   3.667770   3.276748
    15  N    3.674050   4.547356   1.449444   2.112140   2.079661
    16  C    2.463558   2.665749   6.506277   6.497038   7.521953
    17  C    2.424595   3.409399   4.207056   4.131835   5.277237
    18  H    3.866180   4.951003   2.491105   2.306799   3.566534
    19  H    2.112145   2.419284   4.129889   4.606771   4.664263
    20  H    4.107010   4.589265   3.245743   4.104393   3.302252
    21  C    3.771279   4.058483   7.210687   7.079840   8.275914
    22  H    3.416052   4.319050   4.812362   4.604313   5.900280
    23  C    4.921064   4.967883   8.639479   8.507754   9.701620
    24  H    4.161531   4.679512   6.825642   6.606951   7.910967
    25  C    6.253223   6.393817   9.535730   9.316402  10.618521
    26  O    5.051537   4.821536   9.273674   9.223480  10.300826
    27  C    7.212028   7.275448  10.555775  10.239629  11.634445
    28  C    6.905362   7.178498   9.690725   9.497125  10.773582
    29  C    8.514824   8.634720  11.567043  11.197500  12.650817
    30  O    7.103400   7.033940  10.739196  10.400748  11.793757
    31  C    8.232739   8.529759  10.760127  10.500432  11.840539
    32  H    6.522539   6.866623   9.096690   8.990158  10.165495
    33  H    9.258723   9.328926  12.365529  11.945504  13.441801
    34  C    8.962537   9.186758  11.660730  11.317372  12.746057
    35  H    6.168898   6.047749  10.009977   9.725533  11.051536
    36  H    8.857480   9.221196  11.047970  10.810988  12.112120
    37  O   10.266502  10.521401  12.737657  12.357533  13.815854
    38  C   11.169849  11.368566  13.753755  13.312267  14.830594
    39  H   11.295979  11.391042  14.217535  13.816675  15.301224
    40  H   12.133101  12.366559  14.533715  14.080876  15.604066
    41  H   10.982740  11.208244  13.454337  12.940956  14.520458
                   11         12         13         14         15
    11  H    0.000000
    12  C    3.242821   0.000000
    13  H    3.295265   1.088080   0.000000
    14  H    4.101618   1.096178   1.768175   0.000000
    15  N    2.111360   1.450381   2.079857   2.114443   0.000000
    16  C    6.487140   6.487050   7.507907   6.478001   5.641918
    17  C    4.115256   4.875759   5.735865   5.104213   3.679500
    18  H    2.273289   4.127669   4.661616   4.608789   2.682200
    19  H    4.618165   2.493036   3.568453   2.316283   2.685338
    20  H    3.727703   1.095403   1.766564   1.778420   2.112893
    21  C    7.074949   7.571506   8.539653   7.621032   6.562253
    22  H    4.579734   5.830225   6.619931   6.096619   4.540616
    23  C    8.491467   8.904420   9.898712   8.908523   7.954602
    24  H    6.613851   7.541940   8.434719   7.672529   6.385132
    25  C    9.307585  10.075729  11.025458  10.124447   9.015056
    26  O    9.187986   9.212867  10.255005   9.143350   8.425195
    27  C   10.411934  11.067406  12.024178  11.011913  10.031180
    28  C    9.311996  10.480756  11.371396  10.665372   9.325172
    29  C   11.366415  12.261319  13.184267  12.241247  11.156545
    30  O   10.725596  11.029235  12.015767  10.845173  10.101636
    31  C   10.345194  11.709864  12.567219  11.906053  10.502121
    32  H    8.631271   9.930871  10.793895  10.211615   8.763973
    33  H   12.223007  13.018552  13.946547  12.931134  11.940805
    34  C   11.336689  12.554555  13.433923  12.650405  11.370120
    35  H   10.032633  10.155807  11.162968   9.953415   9.288465
    36  H   10.539350  12.144366  12.954832  12.424611  10.893221
    37  O   12.373009  13.761859  14.610246  13.882846  12.535901
    38  C   13.460541  14.728159  15.590247  14.769864  13.526852
    39  H   13.954718  15.026621  15.932080  15.028258  13.886517
    40  H   14.196294  15.611304  16.447764  15.689235  14.375440
    41  H   13.227915  14.452426  15.298865  14.440566  13.250890
                   16         17         18         19         20
    16  C    0.000000
    17  C    2.509570   0.000000
    18  H    4.622923   2.115527   0.000000
    19  H    4.575457   3.872400   4.331916   0.000000
    20  H    6.454589   5.094794   4.614909   2.271744   0.000000
    21  C    1.393366   3.005261   5.013181   5.861851   7.612231
    22  H    2.762307   1.083027   2.407446   4.955364   6.089548
    23  C    2.461606   4.435755   6.436062   7.032908   8.886057
    24  H    2.147182   2.706802   4.462506   6.142385   7.682805
    25  C    3.799889   5.366036   7.179374   8.358757  10.116050
    26  O    2.788088   5.154194   7.243990   7.107686   9.092354
    27  C    4.792835   6.422177   8.212621   9.304305  11.171301
    28  C    4.551194   5.673454   7.262181   8.963179  10.506748
    29  C    6.095501   7.510891   9.154551  10.602593  12.399310
    30  O    4.818239   6.655681   8.524837   9.140827  11.150841
    31  C    5.884853   6.858283   8.289986  10.279987  11.779074
    32  H    4.329582   5.206809   6.703758   8.511506   9.904366
    33  H    6.877683   8.342781   9.982736  11.327167  13.190317
    34  C    6.552553   7.699914   9.189464  11.041070  12.675896
    35  H    3.937450   5.930410   7.880648   8.194624  10.243979
    36  H    6.603412   7.331222   8.584954  10.851108  12.202431
    37  O    7.876643   8.889732  10.250251  12.330564  13.908014
    38  C    8.769707   9.889190  11.282050  13.240046  14.913799
    39  H    8.858810  10.226834  11.763540  13.390590  15.161320
    40  H    9.744211  10.754108  12.052357  14.193943  15.805604
    41  H    8.645097   9.672910  11.012417  13.017119  14.709110
                   21         22         23         24         25
    21  C    0.000000
    22  H    2.716333   0.000000
    23  C    1.432655   4.099623   0.000000
    24  H    1.082087   2.058041   2.174647   0.000000
    25  C    2.517709   4.772125   1.469047   2.720101   0.000000
    26  O    2.341487   5.034911   1.271522   3.302773   2.372667
    27  C    3.602645   5.836576   2.489266   3.815609   1.428989
    28  C    3.220144   4.915680   2.551110   3.062633   1.409072
    29  C    4.823644   6.801145   3.785036   4.838605   2.462842
    30  O    3.887464   6.232212   2.809124   4.307157   2.393025
    31  C    4.523510   6.006988   3.807859   4.248405   2.438079
    32  H    3.114560   4.455298   2.796584   2.864016   2.160596
    33  H    5.671010   7.662437   4.614374   5.727747   3.421661
    34  C    5.193513   6.874323   4.293485   5.013662   2.825965
    35  H    3.181748   5.633523   2.178355   3.782268   2.334634
    36  H    5.267257   6.424760   4.697336   4.873652   3.424381
    37  O    6.504964   8.005655   5.642328   6.243279   4.173764
    38  C    7.430257   9.035217   6.488144   7.235503   5.059688
    39  H    7.576037   9.446127   6.479333   7.536116   5.116529
    40  H    8.384944   9.857086   7.482472   8.126213   6.032321
    41  H    7.327223   8.823839   6.480812   7.090871   5.113412
                   26         27         28         29         30
    26  O    0.000000
    27  C    3.022941   0.000000
    28  C    3.502844   2.416991   0.000000
    29  C    4.349236   1.399412   2.787170   0.000000
    30  O    2.960056   1.322560   3.639232   2.334884   0.000000
    31  C    4.679333   2.790095   1.374029   2.421879   4.112244
    32  H    3.757217   3.408081   1.082969   3.869743   4.539218
    33  H    5.035592   2.125304   3.867691   1.081290   2.527411
    34  C    5.023192   2.409065   2.406046   1.384962   3.599803
    35  H    2.180250   1.866785   3.729694   3.155228   1.014673
    36  H    5.587948   3.872571   2.149148   3.391139   5.194394
    37  O    6.352272   3.675322   3.598993   2.419170   4.752678
    38  C    7.079816   4.201670   4.777010   2.803114   4.991784
    39  H    6.881400   4.133667   5.012379   2.798450   4.768956
    40  H    8.100902   5.260328   5.594432   3.867401   6.079921
    41  H    7.127014   4.122015   5.010591   2.786918   4.750045
                   31         32         33         34         35
    31  C    0.000000
    32  H    2.111566   0.000000
    33  H    3.420728   4.950456   0.000000
    34  C    1.407974   3.377552   2.170794   0.000000
    35  H    4.504723   4.452698   3.508167   4.275688   0.000000
    36  H    1.082826   2.450044   4.307184   2.149113   5.573218
    37  O    2.333090   4.444082   2.740785   1.351176   5.525171
    38  C    3.635918   5.715409   2.544962   2.372851   5.908210
    39  H    4.008885   5.994234   2.347164   2.701544   5.714429
    40  H    4.339339   6.450817   3.625385   3.246647   6.991032
    41  H    4.007966   5.989840   2.326635   2.698663   5.690874
                   36         37         38         39         40
    36  H    0.000000
    37  O    2.523017   0.000000
    38  C    3.933776   1.412248   0.000000
    39  H    4.434509   2.077486   1.095422   0.000000
    40  H    4.396511   2.007487   1.088626   1.782266   0.000000
    41  H    4.432922   2.078109   1.095359   1.787733   1.782343
                   41
    41  H    0.000000
 Stoichiometry    C18H19NO3
 Framework group  C1[X(C18H19NO3)]
 Deg. of freedom   117
 Full point group                 C1      NOp   1
 Largest Abelian subgroup         C1      NOp   1
 Largest concise Abelian subgroup C1      NOp   1
                         Standard orientation:                         
 ---------------------------------------------------------------------
 Center     Atomic      Atomic             Coordinates (Angstroms)
 Number     Number       Type             X           Y           Z
 ---------------------------------------------------------------------
      1          1           0        0.942554    2.344839   -0.480112
      2          6           0        2.314711    0.710586   -0.173117
      3          6           0        3.822098   -1.195804    0.133836
      4          6           0        4.959792   -0.350069    0.102868
      5          6           0        4.736119    1.049075   -0.068684
      6          6           0        3.470801    1.546110   -0.200103
      7          1           0        3.329882    2.614228   -0.327246
      8          6           0        6.429577   -2.271496    0.421134
      9          1           0        5.949243   -2.625451    1.340882
     10          1           0        7.496336   -2.472312    0.495133
     11          1           0        6.031957   -2.848628   -0.421327
     12          6           0        7.370883    0.036560    0.210225
     13          1           0        8.279911   -0.552973    0.310412
     14          1           0        7.338431    0.755440    1.037126
     15          7           0        6.222854   -0.849564    0.230704
     16          6           0        1.025053    1.274865   -0.317849
     17          6           0        2.554059   -0.689523    0.000370
     18          1           0        3.943692   -2.263336    0.260160
     19          1           0        5.571920    1.735066   -0.096425
     20          1           0        7.430179    0.592963   -0.731478
     21          6           0       -0.167721    0.556484   -0.266033
     22          1           0        1.717803   -1.377355    0.022977
     23          6           0       -1.431009    1.201949   -0.465986
     24          1           0       -0.145453   -0.510016   -0.084391
     25          6           0       -2.678957    0.430155   -0.394853
     26          8           0       -1.471629    2.444640   -0.732137
     27          6           0       -3.663236    0.816946    0.566188
     28          6           0       -2.988618   -0.676203   -1.210674
     29          6           0       -4.881521    0.135800    0.667060
     30          8           0       -3.447491    1.832684    1.385270
     31          6           0       -4.181067   -1.351588   -1.111293
     32          1           0       -2.266470   -1.023497   -1.939172
     33          1           0       -5.584417    0.483365    1.411589
     34          6           0       -5.139982   -0.939919   -0.166094
     35          1           0       -2.514263    2.162340    1.161724
     36          1           0       -4.404494   -2.203495   -1.741252
     37          8           0       -6.281010   -1.663262   -0.143612
     38          6           0       -7.285224   -1.301777    0.781226
     39          1           0       -7.647333   -0.284522    0.596784
     40          1           0       -8.100217   -2.007926    0.632079
     41          1           0       -6.922747   -1.377194    1.812116
 ---------------------------------------------------------------------
 Rotational constants (GHZ):      0.8048694      0.0823422      0.0774153
 Standard basis: 6-311++G(d,p) (5D, 7F)
 There are   639 symmetry adapted cartesian basis functions of A   symmetry.
 There are   617 symmetry adapted basis functions of A   symmetry.
   617 basis functions,   963 primitive gaussians,   639 cartesian basis functions
    79 alpha electrons       79 beta electrons
       nuclear repulsion energy      1597.2946567217 Hartrees.
 NAtoms=   41 NActive=   41 NUniq=   41 SFac= 1.00D+00 NAtFMM=   60 NAOKFM=F Big=F
 Integral buffers will be    131072 words long.
 Raffenetti 1 integral format.
 Two-electron integral symmetry is turned on.
 Nuclear repulsion after empirical dispersion term =     1597.2686026483 Hartrees.
 One-electron integrals computed using PRISM.
 NBasis=   617 RedAO= T EigKep=  1.39D-06  NBF=   617
 NBsUse=   611 1.00D-06 EigRej=  9.09D-07 NBFU=   611
 ExpMin= 3.60D-02 ExpMax= 8.59D+03 ExpMxC= 1.30D+03 IAcc=3 IRadAn=         5 AccDes= 0.00D+00
 Harris functional with IExCor= 4639 and IRadAn=       5 diagonalized for initial guess.
 HarFok:  IExCor= 4639 AccDes= 0.00D+00 IRadAn=         5 IDoV= 1 UseB2=F ITyADJ=14
 ICtDFT=  3500011 ScaDFX=  1.000000  1.000000  1.000000  1.000000
 FoFCou: FMM=F IPFlag=           0 FMFlag=      100000 FMFlg1=           0
         NFxFlg=           0 DoJE=T BraDBF=F KetDBF=T FulRan=T
         wScrn=  0.000000 ICntrl=     500 IOpCl=  0 I1Cent=   200000004 NGrid=           0
         NMat0=    1 NMatS0=      1 NMatT0=    0 NMatD0=    1 NMtDS0=    0 NMtDT0=    0
 Petite list used in FoFCou.
 Requested convergence on RMS density matrix=1.00D-08 within 128 cycles.
 Requested convergence on MAX density matrix=1.00D-06.
 Requested convergence on             energy=1.00D-06.
 No special actions if energy rises.
 SCF Done:  E(RwB97XD) =  -977.663792055     A.U. after   18 cycles
            NFock= 18  Conv=0.80D-08     -V/T= 2.0042
 DoSCS=F DFT=T ScalE2(SS,OS)=  1.000000  1.000000
 ExpMin= 3.60D-02 ExpMax= 8.59D+03 ExpMxC= 1.30D+03 IAcc=3 IRadAn=         5 AccDes= 0.00D+00
 HarFok:  IExCor=  205 AccDes= 0.00D+00 IRadAn=         5 IDoV=-2 UseB2=F ITyADJ=14
 ICtDFT= 12500011 ScaDFX=  1.000000  1.000000  1.000000  1.000000
 Range of M.O.s used for correlation:    23   611
 NBasis=   617 NAE=    79 NBE=    79 NFC=    22 NFV=     0
 NROrb=    589 NOA=    57 NOB=    57 NVA=   532 NVB=   532

 **** Warning!!: The largest alpha MO coefficient is  0.11453907D+03

 Would need an additional        105419300000 words for in-memory AO integral storage.
 Orbital symmetries:
       Occupied  (A) (A) (A) (A) (A) (A) (A) (A) (A) (A) (A) (A)
                 (A) (A) (A) (A) (A) (A) (A) (A) (A) (A) (A) (A)
                 (A) (A) (A) (A) (A) (A) (A) (A) (A) (A) (A) (A)
                 (A) (A) (A) (A) (A) (A) (A) (A) (A) (A) (A) (A)
                 (A) (A) (A) (A) (A) (A) (A) (A) (A) (A) (A) (A)
                 (A) (A) (A) (A) (A) (A) (A) (A) (A) (A) (A) (A)
                 (A) (A) (A) (A) (A) (A) (A)
       Virtual   (A) (A) (A) (A) (A) (A) (A) (A) (A) (A) (A) (A)
                 (A) (A) (A) (A) (A) (A) (A) (A) (A) (A) (A) (A)
                 (A) (A) (A) (A) (A) (A) (A) (A) (A) (A) (A) (A)
                 (A) (A) (A) (A) (A) (A) (A) (A) (A) (A) (A) (A)
                 (A) (A) (A) (A) (A) (A) (A) (A) (A) (A) (A) (A)
                 (A) (A) (A) (A) (A) (A) (A) (A) (A) (A) (A) (A)
                 (A) (A) (A) (A) (A) (A) (A) (A) (A) (A) (A) (A)
                 (A) (A) (A) (A) (A) (A) (A) (A) (A) (A) (A) (A)
                 (A) (A) (A) (A) (A) (A) (A) (A) (A) (A) (A) (A)
                 (A) (A) (A) (A) (A) (A) (A) (A) (A) (A) (A) (A)
                 (A) (A) (A) (A) (A) (A) (A) (A) (A) (A) (A) (A)
                 (A) (A) (A) (A) (A) (A) (A) (A) (A) (A) (A) (A)
                 (A) (A) (A) (A) (A) (A) (A) (A) (A) (A) (A) (A)
                 (A) (A) (A) (A) (A) (A) (A) (A) (A) (A) (A) (A)
                 (A) (A) (A) (A) (A) (A) (A) (A) (A) (A) (A) (A)
                 (A) (A) (A) (A) (A) (A) (A) (A) (A) (A) (A) (A)
                 (A) (A) (A) (A) (A) (A) (A) (A) (A) (A) (A) (A)
                 (A) (A) (A) (A) (A) (A) (A) (A) (A) (A) (A) (A)
                 (A) (A) (A) (A) (A) (A) (A) (A) (A) (A) (A) (A)
                 (A) (A) (A) (A) (A) (A) (A) (A) (A) (A) (A) (A)
                 (A) (A) (A) (A) (A) (A) (A) (A) (A) (A) (A) (A)
                 (A) (A) (A) (A) (A) (A) (A) (A) (A) (A) (A) (A)
                 (A) (A) (A) (A) (A) (A) (A) (A) (A) (A) (A) (A)
                 (A) (A) (A) (A) (A) (A) (A) (A) (A) (A) (A) (A)
                 (A) (A) (A) (A) (A) (A) (A) (A) (A) (A) (A) (A)
                 (A) (A) (A) (A) (A) (A) (A) (A) (A) (A) (A) (A)
                 (A) (A) (A) (A) (A) (A) (A) (A) (A) (A) (A) (A)
                 (A) (A) (A) (A) (A) (A) (A) (A) (A) (A) (A) (A)
                 (A) (A) (A) (A) (A) (A) (A) (A) (A) (A) (A) (A)
                 (A) (A) (A) (A) (A) (A) (A) (A) (A) (A) (A) (A)
                 (A) (A) (A) (A) (A) (A) (A) (A) (A) (A) (A) (A)
                 (A) (A) (A) (A) (A) (A) (A) (A) (A) (A) (A) (A)
                 (A) (A) (A) (A) (A) (A) (A) (A) (A) (A) (A) (A)
                 (A) (A) (A) (A) (A) (A) (A) (A) (A) (A) (A) (A)
                 (A) (A) (A) (A) (A) (A) (A) (A) (A) (A) (A) (A)
                 (A) (A) (A) (A) (A) (A) (A) (A) (A) (A) (A) (A)
                 (A) (A) (A) (A) (A) (A) (A) (A) (A) (A) (A) (A)
                 (A) (A) (A) (A) (A) (A) (A) (A) (A) (A) (A) (A)
                 (A) (A) (A) (A) (A) (A) (A) (A) (A) (A) (A) (A)
                 (A) (A) (A) (A) (A) (A) (A) (A) (A) (A) (A) (A)
                 (A) (A) (A) (A) (A) (A) (A) (A) (A) (A) (A) (A)
                 (A) (A) (A) (A) (A) (A) (A) (A) (A) (A) (A) (A)
                 (A) (A) (A) (A) (A) (A) (A) (A) (A) (A) (A) (A)
                 (A) (A) (A) (A) (A) (A) (A) (A) (A) (A) (A) (A)
                 (A) (A) (A) (A)
     8 initial guesses have been made.
 Convergence on wavefunction:    0.000001000000000
 Iteration     1 Dimension     8 NMult     0 NNew      8
 CISAX will form     8 AO SS matrices at one time.
 New state      1 was old state      2
 Iteration     2 Dimension    12 NMult     8 NNew      4
 Iteration     3 Dimension    16 NMult    12 NNew      4
 Iteration     4 Dimension    20 NMult    16 NNew      4
 Iteration     5 Dimension    24 NMult    20 NNew      4
 Iteration     6 Dimension    28 NMult    24 NNew      4
 Iteration     7 Dimension    32 NMult    28 NNew      4
 Iteration     8 Dimension    36 NMult    32 NNew      4
 Iteration     9 Dimension    40 NMult    36 NNew      4
 Iteration    10 Dimension    44 NMult    40 NNew      4
 Iteration    11 Dimension    48 NMult    44 NNew      4
 Iteration    12 Dimension    52 NMult    48 NNew      4
 Iteration    13 Dimension    56 NMult    52 NNew      4
 ***********************************************************************
 Excited states from <AA,BB:AA,BB> singles matrix:
 ***********************************************************************
 
 Ground to excited state transition densities written to RWF  633
 Ground to excited state transition electric dipole moments (Au):
       state          X           Y           Z        Dip. S.      Osc.
         1         2.5659     -0.1964      0.0860      6.6297      0.5229
 Ground to excited state transition velocity dipole moments (Au):
       state          X           Y           Z        Dip. S.      Osc.
         1        -0.3017      0.0252     -0.0083      0.0917      0.5169
 Ground to excited state transition magnetic dipole moments (Au):
       state          X           Y           Z
         1        -0.1201      0.8088      0.6400
 Ground to excited state transition velocity quadrupole moments (Au):
       state          XX          YY          ZZ          XY          XZ          YZ
         1        -0.8258     -0.0115      0.0404      0.2957     -0.1029      0.0337
 <0|del|b> * <b|rxdel|0> + <0|del|b> * <b|delr+rdel|0>
 Rotatory Strengths (R) in cgs (10**-40 erg-esu-cm/Gauss)
       state          XX          YY          ZZ    R(velocity)    E-M Angle
         1        45.5302     69.3269    191.8271    102.2281       80.61
 1/2[<0|r|b>*<b|rxdel|0> + (<0|rxdel|b>*<b|r|0>)*]
 Rotatory Strengths (R) in cgs (10**-40 erg-esu-cm/Gauss)
       state          XX          YY          ZZ     R(length)
         1       217.8534    112.3529    -38.9286     97.0926
  1/2[<0|del|b>*<b|r|0> + (<0|r|b>*<b|del|0>)*] (Au)
       state          X           Y           Z        Dip. S.   Osc.(frdel)
         1        -0.7742     -0.0049     -0.0007      0.7798      0.5199

 Excitation energies and oscillator strengths:
 
 Excited State   1:      Singlet-A      3.2196 eV  385.09 nm  f=0.5229  <S**2>=0.000
      76 -> 80         0.37298
      77 -> 80        -0.10159
      78 -> 80        -0.25060
      79 -> 80         0.48575
 This state for optimization and/or second-order correction.
 Total Energy, E(TD-HF/TD-KS) =  -977.545472837    
 Copying the excited state density for this state as the 1-particle RhoCI density.
 SavETr:  write IOETrn=   770 NScale= 10 NData=  16 NLR=1 NState=    1 LETran=      28.
          IDoAtm=11111111111111111111111111111111111111111
          Differentiating once with respect to electric field.
                with respect to dipole field.
          Differentiating once with respect to nuclear coordinates.
          There are     1 degrees of freedom in the 1st order CPHF.  IDoFFX=0 NUNeed=     1.
 LinEq1:  Iter=  0 NonCon=     1 RMS=3.04D-03 Max=2.65D-01 NDo=     1
 AX will form     1 AO Fock derivatives at one time.
 LinEq1:  Iter=  1 NonCon=     1 RMS=1.47D-03 Max=1.31D-01 NDo=     1
 LinEq1:  Iter=  2 NonCon=     1 RMS=9.16D-04 Max=6.07D-02 NDo=     1
 LinEq1:  Iter=  3 NonCon=     1 RMS=3.68D-04 Max=2.32D-02 NDo=     1
 LinEq1:  Iter=  4 NonCon=     1 RMS=2.32D-04 Max=1.73D-02 NDo=     1
 LinEq1:  Iter=  5 NonCon=     1 RMS=1.11D-04 Max=7.61D-03 NDo=     1
 LinEq1:  Iter=  6 NonCon=     1 RMS=5.15D-05 Max=2.96D-03 NDo=     1
 LinEq1:  Iter=  7 NonCon=     1 RMS=2.75D-05 Max=1.20D-03 NDo=     1
 LinEq1:  Iter=  8 NonCon=     1 RMS=1.32D-05 Max=8.35D-04 NDo=     1
 LinEq1:  Iter=  9 NonCon=     1 RMS=6.70D-06 Max=3.66D-04 NDo=     1
 LinEq1:  Iter= 10 NonCon=     1 RMS=2.80D-06 Max=1.22D-04 NDo=     1
 LinEq1:  Iter= 11 NonCon=     1 RMS=1.34D-06 Max=8.40D-05 NDo=     1
 LinEq1:  Iter= 12 NonCon=     1 RMS=5.85D-07 Max=2.69D-05 NDo=     1
 LinEq1:  Iter= 13 NonCon=     1 RMS=3.32D-07 Max=1.88D-05 NDo=     1
 LinEq1:  Iter= 14 NonCon=     1 RMS=1.56D-07 Max=6.00D-06 NDo=     1
 LinEq1:  Iter= 15 NonCon=     1 RMS=7.28D-08 Max=2.00D-06 NDo=     1
 LinEq1:  Iter= 16 NonCon=     1 RMS=3.57D-08 Max=1.76D-06 NDo=     1
 LinEq1:  Iter= 17 NonCon=     1 RMS=1.58D-08 Max=4.99D-07 NDo=     1
 LinEq1:  Iter= 18 NonCon=     1 RMS=6.25D-09 Max=2.42D-07 NDo=     1
 LinEq1:  Iter= 19 NonCon=     1 RMS=3.11D-09 Max=1.45D-07 NDo=     1
 LinEq1:  Iter= 20 NonCon=     1 RMS=1.46D-09 Max=4.62D-08 NDo=     1
 LinEq1:  Iter= 21 NonCon=     1 RMS=7.14D-10 Max=5.41D-08 NDo=     1
 LinEq1:  Iter= 22 NonCon=     1 RMS=2.85D-10 Max=1.37D-08 NDo=     1
 LinEq1:  Iter= 23 NonCon=     1 RMS=1.27D-10 Max=5.23D-09 NDo=     1
 LinEq1:  Iter= 24 NonCon=     1 RMS=6.91D-11 Max=4.15D-09 NDo=     1
 LinEq1:  Iter= 25 NonCon=     0 RMS=3.15D-11 Max=7.31D-10 NDo=     1
 Linear equations converged to 1.000D-10 1.000D-09 after    25 iterations.
 End of Minotr F.D. properties file   721 does not exist.
 End of Minotr F.D. properties file   722 does not exist.
 End of Minotr F.D. properties file   788 does not exist.

 **********************************************************************

            Population analysis using the SCF density.

 **********************************************************************

 Orbital symmetries:
       Occupied  (A) (A) (A) (A) (A) (A) (A) (A) (A) (A) (A) (A)
                 (A) (A) (A) (A) (A) (A) (A) (A) (A) (A) (A) (A)
                 (A) (A) (A) (A) (A) (A) (A) (A) (A) (A) (A) (A)
                 (A) (A) (A) (A) (A) (A) (A) (A) (A) (A) (A) (A)
                 (A) (A) (A) (A) (A) (A) (A) (A) (A) (A) (A) (A)
                 (A) (A) (A) (A) (A) (A) (A) (A) (A) (A) (A) (A)
                 (A) (A) (A) (A) (A) (A) (A)
       Virtual   (A) (A) (A) (A) (A) (A) (A) (A) (A) (A) (A) (A)
                 (A) (A) (A) (A) (A) (A) (A) (A) (A) (A) (A) (A)
                 (A) (A) (A) (A) (A) (A) (A) (A) (A) (A) (A) (A)
                 (A) (A) (A) (A) (A) (A) (A) (A) (A) (A) (A) (A)
                 (A) (A) (A) (A) (A) (A) (A) (A) (A) (A) (A) (A)
                 (A) (A) (A) (A) (A) (A) (A) (A) (A) (A) (A) (A)
                 (A) (A) (A) (A) (A) (A) (A) (A) (A) (A) (A) (A)
                 (A) (A) (A) (A) (A) (A) (A) (A) (A) (A) (A) (A)
                 (A) (A) (A) (A) (A) (A) (A) (A) (A) (A) (A) (A)
                 (A) (A) (A) (A) (A) (A) (A) (A) (A) (A) (A) (A)
                 (A) (A) (A) (A) (A) (A) (A) (A) (A) (A) (A) (A)
                 (A) (A) (A) (A) (A) (A) (A) (A) (A) (A) (A) (A)
                 (A) (A) (A) (A) (A) (A) (A) (A) (A) (A) (A) (A)
                 (A) (A) (A) (A) (A) (A) (A) (A) (A) (A) (A) (A)
                 (A) (A) (A) (A) (A) (A) (A) (A) (A) (A) (A) (A)
                 (A) (A) (A) (A) (A) (A) (A) (A) (A) (A) (A) (A)
                 (A) (A) (A) (A) (A) (A) (A) (A) (A) (A) (A) (A)
                 (A) (A) (A) (A) (A) (A) (A) (A) (A) (A) (A) (A)
                 (A) (A) (A) (A) (A) (A) (A) (A) (A) (A) (A) (A)
                 (A) (A) (A) (A) (A) (A) (A) (A) (A) (A) (A) (A)
                 (A) (A) (A) (A) (A) (A) (A) (A) (A) (A) (A) (A)
                 (A) (A) (A) (A) (A) (A) (A) (A) (A) (A) (A) (A)
                 (A) (A) (A) (A) (A) (A) (A) (A) (A) (A) (A) (A)
                 (A) (A) (A) (A) (A) (A) (A) (A) (A) (A) (A) (A)
                 (A) (A) (A) (A) (A) (A) (A) (A) (A) (A) (A) (A)
                 (A) (A) (A) (A) (A) (A) (A) (A) (A) (A) (A) (A)
                 (A) (A) (A) (A) (A) (A) (A) (A) (A) (A) (A) (A)
                 (A) (A) (A) (A) (A) (A) (A) (A) (A) (A) (A) (A)
                 (A) (A) (A) (A) (A) (A) (A) (A) (A) (A) (A) (A)
                 (A) (A) (A) (A) (A) (A) (A) (A) (A) (A) (A) (A)
                 (A) (A) (A) (A) (A) (A) (A) (A) (A) (A) (A) (A)
                 (A) (A) (A) (A) (A) (A) (A) (A) (A) (A) (A) (A)
                 (A) (A) (A) (A) (A) (A) (A) (A) (A) (A) (A) (A)
                 (A) (A) (A) (A) (A) (A) (A) (A) (A) (A) (A) (A)
                 (A) (A) (A) (A) (A) (A) (A) (A) (A) (A) (A) (A)
                 (A) (A) (A) (A) (A) (A) (A) (A) (A) (A) (A) (A)
                 (A) (A) (A) (A) (A) (A) (A) (A) (A) (A) (A) (A)
                 (A) (A) (A) (A) (A) (A) (A) (A) (A) (A) (A) (A)
                 (A) (A) (A) (A) (A) (A) (A) (A) (A) (A) (A) (A)
                 (A) (A) (A) (A) (A) (A) (A) (A) (A) (A) (A) (A)
                 (A) (A) (A) (A) (A) (A) (A) (A) (A) (A) (A) (A)
                 (A) (A) (A) (A) (A) (A) (A) (A) (A) (A) (A) (A)
                 (A) (A) (A) (A) (A) (A) (A) (A) (A) (A) (A) (A)
                 (A) (A) (A) (A) (A) (A) (A) (A) (A) (A) (A) (A)
                 (A) (A) (A) (A)
 The electronic state is 1-A.
 Alpha  occ. eigenvalues --  -19.28019 -19.27524 -19.21708 -14.47905 -10.36673
 Alpha  occ. eigenvalues --  -10.35580 -10.35405 -10.35048 -10.33523 -10.33477
 Alpha  occ. eigenvalues --  -10.33476 -10.31470 -10.30810 -10.30631 -10.30053
 Alpha  occ. eigenvalues --  -10.29826 -10.29631 -10.29274 -10.28380 -10.28248
 Alpha  occ. eigenvalues --  -10.27655 -10.27180  -1.17793  -1.17228  -1.10795
 Alpha  occ. eigenvalues --   -1.08178  -0.97075  -0.95055  -0.90653  -0.87362
 Alpha  occ. eigenvalues --   -0.86968  -0.84664  -0.84463  -0.84331  -0.80833
 Alpha  occ. eigenvalues --   -0.78639  -0.73769  -0.71954  -0.70887  -0.69974
 Alpha  occ. eigenvalues --   -0.67948  -0.64786  -0.63686  -0.62442  -0.60576
 Alpha  occ. eigenvalues --   -0.59332  -0.58331  -0.57974  -0.57463  -0.56233
 Alpha  occ. eigenvalues --   -0.55843  -0.54927  -0.53597  -0.53439  -0.52835
 Alpha  occ. eigenvalues --   -0.51658  -0.51484  -0.50729  -0.50482  -0.49768
 Alpha  occ. eigenvalues --   -0.48856  -0.48603  -0.48213  -0.47779  -0.46572
 Alpha  occ. eigenvalues --   -0.46090  -0.45460  -0.44961  -0.43075  -0.42360
 Alpha  occ. eigenvalues --   -0.41717  -0.41004  -0.38866  -0.35145  -0.34491
 Alpha  occ. eigenvalues --   -0.33164  -0.31327  -0.28209  -0.26748
 Alpha virt. eigenvalues --   -0.02617   0.02628   0.04049   0.04394   0.04442
 Alpha virt. eigenvalues --    0.04743   0.05592   0.05777   0.06156   0.06265
 Alpha virt. eigenvalues --    0.06484   0.07010   0.07450   0.07707   0.07889
 Alpha virt. eigenvalues --    0.08111   0.08371   0.08781   0.08868   0.09046
 Alpha virt. eigenvalues --    0.10246   0.10918   0.11372   0.11502   0.12044
 Alpha virt. eigenvalues --    0.12131   0.12483   0.13158   0.13538   0.14038
 Alpha virt. eigenvalues --    0.14141   0.14464   0.14620   0.15159   0.15347
 Alpha virt. eigenvalues --    0.15699   0.15922   0.15984   0.16189   0.16823
 Alpha virt. eigenvalues --    0.16952   0.17050   0.17235   0.17653   0.18011
 Alpha virt. eigenvalues --    0.18174   0.18412   0.18780   0.18980   0.19424
 Alpha virt. eigenvalues --    0.19617   0.19947   0.20232   0.20506   0.20789
 Alpha virt. eigenvalues --    0.20854   0.20963   0.21134   0.21475   0.21764
 Alpha virt. eigenvalues --    0.22142   0.22347   0.22389   0.22873   0.23022
 Alpha virt. eigenvalues --    0.23275   0.23713   0.24043   0.24200   0.24486
 Alpha virt. eigenvalues --    0.24766   0.24845   0.25363   0.25850   0.25904
 Alpha virt. eigenvalues --    0.26139   0.26514   0.26939   0.27150   0.27593
 Alpha virt. eigenvalues --    0.28275   0.28330   0.28587   0.29178   0.29297
 Alpha virt. eigenvalues --    0.29626   0.29985   0.30194   0.30393   0.30588
 Alpha virt. eigenvalues --    0.30813   0.31282   0.31891   0.32163   0.32567
 Alpha virt. eigenvalues --    0.32806   0.33048   0.33376   0.33593   0.33870
 Alpha virt. eigenvalues --    0.33974   0.34694   0.35027   0.35502   0.35561
 Alpha virt. eigenvalues --    0.35609   0.36129   0.36910   0.37422   0.37508
 Alpha virt. eigenvalues --    0.37716   0.38051   0.38524   0.38665   0.38857
 Alpha virt. eigenvalues --    0.38938   0.39232   0.39827   0.40244   0.40397
 Alpha virt. eigenvalues --    0.40723   0.41448   0.41821   0.42377   0.42774
 Alpha virt. eigenvalues --    0.43077   0.43489   0.43955   0.44501   0.44599
 Alpha virt. eigenvalues --    0.45335   0.45799   0.46545   0.47205   0.47592
 Alpha virt. eigenvalues --    0.48110   0.49006   0.49716   0.50066   0.50132
 Alpha virt. eigenvalues --    0.50937   0.51106   0.52375   0.53015   0.53622
 Alpha virt. eigenvalues --    0.54103   0.55381   0.55900   0.56124   0.56374
 Alpha virt. eigenvalues --    0.58318   0.60281   0.61069   0.61456   0.61968
 Alpha virt. eigenvalues --    0.62129   0.62745   0.63476   0.63801   0.64888
 Alpha virt. eigenvalues --    0.65537   0.65771   0.66231   0.66705   0.66907
 Alpha virt. eigenvalues --    0.67661   0.68089   0.68307   0.68734   0.69459
 Alpha virt. eigenvalues --    0.70359   0.70919   0.71365   0.72095   0.72249
 Alpha virt. eigenvalues --    0.72811   0.73423   0.73958   0.74160   0.74286
 Alpha virt. eigenvalues --    0.74583   0.75219   0.75747   0.76159   0.76224
 Alpha virt. eigenvalues --    0.76663   0.76874   0.77514   0.78245   0.78501
 Alpha virt. eigenvalues --    0.79104   0.79808   0.80211   0.80834   0.80974
 Alpha virt. eigenvalues --    0.81446   0.82100   0.82824   0.83627   0.84324
 Alpha virt. eigenvalues --    0.84900   0.85178   0.86684   0.87034   0.88270
 Alpha virt. eigenvalues --    0.88957   0.89374   0.90379   0.91179   0.91840
 Alpha virt. eigenvalues --    0.92407   0.92746   0.94922   0.95601   0.95902
 Alpha virt. eigenvalues --    0.96660   0.96921   0.97240   0.98128   0.98676
 Alpha virt. eigenvalues --    0.99888   1.00336   1.01037   1.01494   1.01733
 Alpha virt. eigenvalues --    1.02697   1.03456   1.03926   1.04393   1.05892
 Alpha virt. eigenvalues --    1.06281   1.06535   1.07047   1.08127   1.08324
 Alpha virt. eigenvalues --    1.09270   1.09829   1.10703   1.11619   1.12006
 Alpha virt. eigenvalues --    1.12803   1.13107   1.14553   1.15201   1.15684
 Alpha virt. eigenvalues --    1.16631   1.17024   1.17443   1.18722   1.19243
 Alpha virt. eigenvalues --    1.20252   1.20591   1.21157   1.23863   1.24315
 Alpha virt. eigenvalues --    1.26130   1.28035   1.28743   1.29736   1.31204
 Alpha virt. eigenvalues --    1.34007   1.35356   1.35792   1.36745   1.37870
 Alpha virt. eigenvalues --    1.38800   1.39139   1.39270   1.41986   1.42736
 Alpha virt. eigenvalues --    1.44444   1.48167   1.48539   1.49416   1.51526
 Alpha virt. eigenvalues --    1.51741   1.52116   1.52499   1.54939   1.56293
 Alpha virt. eigenvalues --    1.57244   1.57699   1.58504   1.58882   1.61024
 Alpha virt. eigenvalues --    1.61917   1.62175   1.62593   1.62873   1.63047
 Alpha virt. eigenvalues --    1.63285   1.64030   1.64781   1.65175   1.65535
 Alpha virt. eigenvalues --    1.66096   1.66911   1.67672   1.68654   1.69045
 Alpha virt. eigenvalues --    1.69933   1.70254   1.70935   1.71550   1.74549
 Alpha virt. eigenvalues --    1.75733   1.76517   1.77256   1.77886   1.78822
 Alpha virt. eigenvalues --    1.79578   1.79763   1.80200   1.80530   1.81491
 Alpha virt. eigenvalues --    1.81814   1.83135   1.83878   1.84176   1.84778
 Alpha virt. eigenvalues --    1.85260   1.87018   1.88270   1.88647   1.89684
 Alpha virt. eigenvalues --    1.90341   1.91229   1.94085   1.94184   1.94880
 Alpha virt. eigenvalues --    1.95948   1.96647   1.97290   1.99530   2.00023
 Alpha virt. eigenvalues --    2.01008   2.02153   2.02785   2.03110   2.04114
 Alpha virt. eigenvalues --    2.04734   2.05794   2.06636   2.07467   2.08683
 Alpha virt. eigenvalues --    2.09604   2.09927   2.10296   2.13037   2.13468
 Alpha virt. eigenvalues --    2.13888   2.14069   2.15452   2.16258   2.17968
 Alpha virt. eigenvalues --    2.18669   2.19131   2.20025   2.20330   2.21461
 Alpha virt. eigenvalues --    2.22388   2.24139   2.24755   2.25982   2.28305
 Alpha virt. eigenvalues --    2.29610   2.30542   2.32502   2.34487   2.35335
 Alpha virt. eigenvalues --    2.39380   2.40352   2.41250   2.42240   2.43435
 Alpha virt. eigenvalues --    2.45945   2.47320   2.48918   2.50588   2.51996
 Alpha virt. eigenvalues --    2.53183   2.55084   2.55098   2.55890   2.56104
 Alpha virt. eigenvalues --    2.56899   2.57202   2.58401   2.59287   2.61468
 Alpha virt. eigenvalues --    2.61561   2.62371   2.64165   2.66740   2.68597
 Alpha virt. eigenvalues --    2.68939   2.70124   2.70983   2.74280   2.75214
 Alpha virt. eigenvalues --    2.76762   2.77571   2.78238   2.78671   2.79297
 Alpha virt. eigenvalues --    2.79447   2.80641   2.82061   2.82739   2.83477
 Alpha virt. eigenvalues --    2.83855   2.84286   2.84515   2.85208   2.86015
 Alpha virt. eigenvalues --    2.86693   2.87438   2.89887   2.90897   2.91177
 Alpha virt. eigenvalues --    2.91730   2.92265   2.93209   2.94587   2.96579
 Alpha virt. eigenvalues --    2.96747   2.98615   2.99999   3.00332   3.01754
 Alpha virt. eigenvalues --    3.01981   3.02521   3.04010   3.05701   3.06021
 Alpha virt. eigenvalues --    3.07637   3.08970   3.11317   3.13993   3.15797
 Alpha virt. eigenvalues --    3.17958   3.18896   3.19526   3.21034   3.22412
 Alpha virt. eigenvalues --    3.23769   3.24477   3.26343   3.28190   3.30890
 Alpha virt. eigenvalues --    3.31834   3.32560   3.34955   3.35187   3.36365
 Alpha virt. eigenvalues --    3.41621   3.42090   3.44084   3.45317   3.48193
 Alpha virt. eigenvalues --    3.50659   3.55716   3.57121   3.59841   3.62061
 Alpha virt. eigenvalues --    3.62600   3.64300   3.65765   3.67989   3.70409
 Alpha virt. eigenvalues --    3.76084   3.77472   3.77581   3.79103   3.79512
 Alpha virt. eigenvalues --    3.80052   3.87459   3.87692   3.89768   3.93040
 Alpha virt. eigenvalues --    3.93736   3.97280   3.98424   4.06363   4.08706
 Alpha virt. eigenvalues --    4.09693   4.14054   4.16427   4.20524   4.27112
 Alpha virt. eigenvalues --    4.27368   4.29390   4.30059   4.32992   4.36271
 Alpha virt. eigenvalues --    4.47308   4.74366   4.91915   4.95237   5.01348
 Alpha virt. eigenvalues --    5.14476   5.15858   5.18200   5.24045   5.37756
 Alpha virt. eigenvalues --    5.52269   5.56576   5.84774   5.88588   5.93120
 Alpha virt. eigenvalues --   23.74431  23.80631  23.96803  24.02567  24.03494
 Alpha virt. eigenvalues --   24.04670  24.05829  24.06129  24.09001  24.09067
 Alpha virt. eigenvalues --   24.09865  24.12880  24.16898  24.22833  24.25492
 Alpha virt. eigenvalues --   24.27631  24.33065  24.33230  35.73971  50.09601
 Alpha virt. eigenvalues --   50.11872  50.15793
          Condensed to atoms (all electrons):
               1          2          3          4          5          6
     1  H    0.455288  -0.058372   0.022791   0.003531  -0.018810   0.027886
     2  C   -0.058372  11.347482  -0.573851  -2.710995  -1.747548  -0.157560
     3  C    0.022791  -0.573851   8.971324   0.027522  -1.844377  -1.364921
     4  C    0.003531  -2.710995   0.027522  14.049255  -0.086120  -0.489580
     5  C   -0.018810  -1.747548  -1.844377  -0.086120   9.165132   1.894008
     6  C    0.027886  -0.157560  -1.364921  -0.489580   1.894008  10.185260
     7  H   -0.002293  -0.068512   0.001005   0.065687  -0.021202   0.313373
     8  C    0.000425   0.033708   0.091096  -0.221747  -0.151885  -0.053275
     9  H    0.000034  -0.018370   0.025001   0.024056  -0.011944  -0.001580
    10  H    0.000038   0.014208   0.028827  -0.041744   0.002914   0.003312
    11  H   -0.000002  -0.013717   0.015647   0.020409  -0.005581  -0.001018
    12  C   -0.000761  -0.186341  -0.254487  -0.037320   0.235621   0.048103
    13  H   -0.000048  -0.010452   0.006991   0.014286   0.014310  -0.007651
    14  H    0.000020   0.002993  -0.014459  -0.025693   0.026119   0.012019
    15  N   -0.000391  -0.028469  -0.342168   0.271544  -0.198152   0.048632
    16  C    0.360646   0.784418   0.003285  -1.042194   0.096084  -1.050713
    17  C    0.048252   0.262463   1.790235  -0.869742  -1.357976  -0.461056
    18  H   -0.000060   0.200481   0.331345  -0.363988   0.025546  -0.053448
    19  H    0.001909  -0.013349  -0.033833  -0.117266   0.485970   0.040082
    20  H   -0.000150   0.002702   0.008803   0.012179  -0.004216  -0.021253
    21  C   -0.070616  -1.101470  -0.608319  -1.615111  -0.023293  -1.626031
    22  H    0.001947  -0.244292   0.075039   0.310128  -0.010997   0.147964
    23  C    0.007960  -0.950841   0.128050  -0.347898  -0.233425  -0.985915
    24  H    0.008115  -0.014204  -0.058867  -0.113003  -0.000205  -0.115939
    25  C   -0.001386   0.374979   0.013784  -0.027199  -0.085587  -0.045218
    26  O    0.018195   0.060397  -0.001670  -0.000512  -0.001323   0.014569
    27  C   -0.029409   0.395480  -0.074633   0.013286   0.033528   0.295092
    28  C    0.010888  -0.593948   0.096607  -0.024834  -0.028704  -0.350763
    29  C    0.000479  -0.093671   0.012440   0.000070  -0.003158  -0.028730
    30  O    0.000318   0.001029   0.000802   0.000086  -0.000313  -0.003859
    31  C   -0.006558   0.055983  -0.020598  -0.001554   0.003263   0.019940
    32  H    0.000046  -0.013533   0.004136   0.001215  -0.001606  -0.006897
    33  H   -0.000050   0.001314   0.000111   0.000065  -0.000013   0.000197
    34  C    0.001060  -0.040972   0.006182  -0.000453  -0.000715  -0.009183
    35  H   -0.003858  -0.000160  -0.000548  -0.000125   0.000139   0.001241
    36  H   -0.000138   0.002850  -0.000412   0.000045   0.000034   0.000686
    37  O    0.000018   0.000038   0.000009   0.000000   0.000000  -0.000009
    38  C    0.000049  -0.000298   0.000111   0.000007  -0.000010  -0.000110
    39  H    0.000003   0.000051   0.000001   0.000000   0.000000  -0.000002
    40  H   -0.000001  -0.000010   0.000002   0.000000   0.000000  -0.000002
    41  H    0.000003  -0.000142  -0.000004  -0.000002  -0.000001  -0.000006
               7          8          9         10         11         12
     1  H   -0.002293   0.000425   0.000034   0.000038  -0.000002  -0.000761
     2  C   -0.068512   0.033708  -0.018370   0.014208  -0.013717  -0.186341
     3  C    0.001005   0.091096   0.025001   0.028827   0.015647  -0.254487
     4  C    0.065687  -0.221747   0.024056  -0.041744   0.020409  -0.037320
     5  C   -0.021202  -0.151885  -0.011944   0.002914  -0.005581   0.235621
     6  C    0.313373  -0.053275  -0.001580   0.003312  -0.001018   0.048103
     7  H    0.485925  -0.001405   0.000037  -0.000364   0.000037   0.004625
     8  C   -0.001405   5.219175   0.422584   0.403037   0.414829  -0.119495
     9  H    0.000037   0.422584   0.557446  -0.022450  -0.062506   0.000312
    10  H   -0.000364   0.403037  -0.022450   0.511481  -0.022907  -0.019427
    11  H    0.000037   0.414829  -0.062506  -0.022907   0.563479   0.002790
    12  C    0.004625  -0.119495   0.000312  -0.019427   0.002790   5.270242
    13  H    0.000163  -0.012540  -0.002007   0.013715  -0.001365   0.405163
    14  H    0.000354  -0.001847  -0.001548  -0.002518   0.002009   0.424812
    15  N   -0.001497   0.292719  -0.054011  -0.048642  -0.055137   0.317446
    16  C    0.030703   0.004437  -0.002783   0.001128  -0.002429  -0.005520
    17  C    0.012075   0.018879  -0.011594   0.009031  -0.009217  -0.092518
    18  H   -0.000765   0.019574  -0.016885   0.011470  -0.014704  -0.011453
    19  H   -0.013161  -0.002324  -0.000811   0.002225  -0.000496   0.014541
    20  H    0.000847   0.001408   0.002157  -0.002091  -0.002761   0.415939
    21  C   -0.003069   0.024870  -0.004845   0.002951  -0.003195  -0.028959
    22  H    0.000927  -0.000767   0.003790  -0.001776   0.004555   0.003487
    23  C   -0.013277   0.004029  -0.000975   0.000440  -0.000852  -0.002601
    24  H   -0.002927   0.001047  -0.000648   0.000281  -0.000907  -0.000869
    25  C   -0.001236   0.000828  -0.000058   0.000058  -0.000102  -0.000553
    26  O    0.000199   0.000004   0.000000   0.000000   0.000000  -0.000004
    27  C    0.007374  -0.000104   0.000082  -0.000014   0.000043   0.000012
    28  C   -0.006280   0.000160  -0.000177   0.000029  -0.000075  -0.000034
    29  C   -0.000216   0.000006  -0.000006   0.000001  -0.000001  -0.000003
    30  O   -0.000114   0.000000   0.000000   0.000000   0.000000   0.000000
    31  C    0.000315  -0.000028   0.000004  -0.000002   0.000012   0.000004
    32  H    0.000026   0.000000  -0.000004   0.000001   0.000000   0.000006
    33  H    0.000010   0.000000   0.000000   0.000000   0.000000   0.000000
    34  C   -0.000131   0.000015  -0.000004   0.000001  -0.000003  -0.000002
    35  H    0.000083  -0.000005  -0.000001   0.000000   0.000000   0.000004
    36  H    0.000010  -0.000001   0.000000   0.000000   0.000000   0.000000
    37  O    0.000000   0.000000   0.000000   0.000000   0.000000   0.000000
    38  C   -0.000001   0.000000   0.000000   0.000000   0.000000   0.000000
    39  H    0.000000   0.000000   0.000000   0.000000   0.000000   0.000000
    40  H    0.000000   0.000000   0.000000   0.000000   0.000000   0.000000
    41  H    0.000000   0.000000   0.000000   0.000000   0.000000   0.000000
              13         14         15         16         17         18
     1  H   -0.000048   0.000020  -0.000391   0.360646   0.048252  -0.000060
     2  C   -0.010452   0.002993  -0.028469   0.784418   0.262463   0.200481
     3  C    0.006991  -0.014459  -0.342168   0.003285   1.790235   0.331345
     4  C    0.014286  -0.025693   0.271544  -1.042194  -0.869742  -0.363988
     5  C    0.014310   0.026119  -0.198152   0.096084  -1.357976   0.025546
     6  C   -0.007651   0.012019   0.048632  -1.050713  -0.461056  -0.053448
     7  H    0.000163   0.000354  -0.001497   0.030703   0.012075  -0.000765
     8  C   -0.012540  -0.001847   0.292719   0.004437   0.018879   0.019574
     9  H   -0.002007  -0.001548  -0.054011  -0.002783  -0.011594  -0.016885
    10  H    0.013715  -0.002518  -0.048642   0.001128   0.009031   0.011470
    11  H   -0.001365   0.002009  -0.055137  -0.002429  -0.009217  -0.014704
    12  C    0.405163   0.424812   0.317446  -0.005520  -0.092518  -0.011453
    13  H    0.514484  -0.021517  -0.048146   0.000402   0.000526   0.000207
    14  H   -0.021517   0.553201  -0.054453  -0.001461  -0.006964  -0.000175
    15  N   -0.048146  -0.054453   7.002335  -0.002040  -0.033061  -0.037916
    16  C    0.000402  -0.001461  -0.002040   8.381365  -0.092186   0.043840
    17  C    0.000526  -0.006964  -0.033061  -0.092186  10.813475  -0.029263
    18  H    0.000207  -0.000175  -0.037916   0.043840  -0.029263   0.558010
    19  H    0.005272  -0.008562  -0.033883   0.013565  -0.034860   0.002400
    20  H   -0.020534  -0.062500  -0.056965  -0.000880   0.000862  -0.000488
    21  C   -0.001483  -0.000243   0.005577   2.348419  -1.558856   0.100097
    22  H    0.000326  -0.000314  -0.000805   0.009538   0.640818  -0.071043
    23  C   -0.000224   0.000073   0.001293  -2.880355  -1.455449   0.037071
    24  H   -0.000087   0.000067  -0.000496  -0.231562  -0.238908   0.023768
    25  C   -0.000041   0.000048   0.000161  -0.724263  -0.398609   0.002946
    26  O    0.000000   0.000000   0.000002  -0.003167   0.003728  -0.000109
    27  C    0.000005   0.000001   0.000013   1.295194   0.048180  -0.004661
    28  C   -0.000008  -0.000007  -0.000019  -1.273531  -0.082882   0.008932
    29  C    0.000000   0.000001  -0.000001  -0.144210   0.023086   0.000256
    30  O    0.000000   0.000000   0.000000  -0.046577   0.002649   0.000010
    31  C    0.000001  -0.000002   0.000002   0.135086  -0.017979  -0.000370
    32  H    0.000000   0.000001  -0.000005  -0.032640  -0.001140   0.000150
    33  H    0.000000   0.000000   0.000000   0.002595   0.000647  -0.000007
    34  C    0.000000   0.000000   0.000000  -0.069924  -0.003499   0.000164
    35  H    0.000000  -0.000001   0.000000  -0.004789  -0.001214   0.000005
    36  H    0.000000   0.000000   0.000000   0.005110  -0.000286  -0.000012
    37  O    0.000000   0.000000   0.000000   0.000236   0.000038   0.000000
    38  C    0.000000   0.000000   0.000000   0.000136   0.000287   0.000000
    39  H    0.000000   0.000000   0.000000  -0.000129  -0.000014   0.000000
    40  H    0.000000   0.000000   0.000000   0.000025   0.000008   0.000000
    41  H    0.000000   0.000000   0.000000  -0.000012  -0.000001   0.000000
              19         20         21         22         23         24
     1  H    0.001909  -0.000150  -0.070616   0.001947   0.007960   0.008115
     2  C   -0.013349   0.002702  -1.101470  -0.244292  -0.950841  -0.014204
     3  C   -0.033833   0.008803  -0.608319   0.075039   0.128050  -0.058867
     4  C   -0.117266   0.012179  -1.615111   0.310128  -0.347898  -0.113003
     5  C    0.485970  -0.004216  -0.023293  -0.010997  -0.233425  -0.000205
     6  C    0.040082  -0.021253  -1.626031   0.147964  -0.985915  -0.115939
     7  H   -0.013161   0.000847  -0.003069   0.000927  -0.013277  -0.002927
     8  C   -0.002324   0.001408   0.024870  -0.000767   0.004029   0.001047
     9  H   -0.000811   0.002157  -0.004845   0.003790  -0.000975  -0.000648
    10  H    0.002225  -0.002091   0.002951  -0.001776   0.000440   0.000281
    11  H   -0.000496  -0.002761  -0.003195   0.004555  -0.000852  -0.000907
    12  C    0.014541   0.415939  -0.028959   0.003487  -0.002601  -0.000869
    13  H    0.005272  -0.020534  -0.001483   0.000326  -0.000224  -0.000087
    14  H   -0.008562  -0.062500  -0.000243  -0.000314   0.000073   0.000067
    15  N   -0.033883  -0.056965   0.005577  -0.000805   0.001293  -0.000496
    16  C    0.013565  -0.000880   2.348419   0.009538  -2.880355  -0.231562
    17  C   -0.034860   0.000862  -1.558856   0.640818  -1.455449  -0.238908
    18  H    0.002400  -0.000488   0.100097  -0.071043   0.037071   0.023768
    19  H    0.512955  -0.009390  -0.005722  -0.001797   0.003990   0.001309
    20  H   -0.009390   0.559888   0.000688   0.000080   0.000032  -0.000058
    21  C   -0.005722   0.000688  16.309605  -0.146336  -1.541222   0.359082
    22  H   -0.001797   0.000080  -0.146336   0.669281  -0.295545  -0.109381
    23  C    0.003990   0.000032  -1.541222  -0.295545  13.321117   0.510707
    24  H    0.001309  -0.000058   0.359082  -0.109381   0.510707   0.725928
    25  C    0.000032   0.000023  -5.032207  -0.045075   0.631593   0.110523
    26  O    0.000003   0.000000  -0.293992   0.005434   0.647604  -0.015397
    27  C   -0.000760   0.000000   2.552528   0.090689  -4.341751  -0.395878
    28  C    0.000787   0.000004  -1.803696  -0.135588   3.880951   0.438071
    29  C    0.000011   0.000000  -0.522422  -0.010638   0.520894   0.038373
    30  O    0.000008   0.000000  -0.134065  -0.001120   0.048282   0.009960
    31  C   -0.000026   0.000002   0.864512   0.014361  -1.074732  -0.057500
    32  H   -0.000005   0.000000  -0.061474  -0.003338   0.052561  -0.000725
[...]
    15  N   -0.051842  -0.055946   6.909817  -0.003043  -0.041306  -0.034047
    16  C    0.001297  -0.002287  -0.003043   9.193968   0.032304   0.052137
    17  C    0.003571  -0.009128  -0.041306   0.032304  10.846814   0.016410
    18  H    0.000742  -0.000501  -0.034047   0.052137   0.016410   0.556392
    19  H    0.002650  -0.010612  -0.030302   0.019732  -0.041378   0.002831
    20  H   -0.027356  -0.048266  -0.044127  -0.003844  -0.002307  -0.001313
    21  C   -0.000658  -0.000035   0.001904   3.278594  -0.982768   0.066586
    22  H   -0.000025  -0.000204   0.001678  -0.040397   0.548009  -0.054654
    23  C   -0.000187   0.000128   0.001335  -3.802561  -1.458611   0.021219
    24  H   -0.000015   0.000023  -0.000681  -0.070528  -0.122256   0.014241
    25  C   -0.000033   0.000058  -0.000026  -0.860573  -0.259894   0.000090
    26  O    0.000000  -0.000001   0.000001   0.057084  -0.001675  -0.000048
    27  C    0.000002   0.000001  -0.000006   0.149879  -0.072208   0.000126
    28  C    0.000002  -0.000011   0.000032  -0.366881   0.041092   0.001267
    29  C    0.000000   0.000000  -0.000002  -0.079632   0.020365  -0.000091
    30  O    0.000000   0.000000   0.000000  -0.049026   0.001392   0.000006
    31  C    0.000002  -0.000002   0.000006   0.292965  -0.002556  -0.000436
    32  H    0.000000   0.000000  -0.000005  -0.051166  -0.004911   0.000114
    33  H    0.000000   0.000000   0.000000   0.002561   0.000490  -0.000010
    34  C    0.000000   0.000000  -0.000001  -0.060852   0.008181  -0.000049
    35  H    0.000000  -0.000001   0.000001  -0.017714  -0.002540  -0.000005
    36  H    0.000000   0.000000   0.000000   0.006317  -0.000362  -0.000012
    37  O    0.000000   0.000000   0.000000   0.000526   0.000039   0.000000
    38  C    0.000000   0.000000   0.000000   0.001191   0.000315  -0.000003
    39  H    0.000000   0.000000   0.000000  -0.000073  -0.000004   0.000000
    40  H    0.000000   0.000000   0.000000   0.000040   0.000006   0.000000
    41  H    0.000000   0.000000   0.000000  -0.000019  -0.000006   0.000000
              19         20         21         22         23         24
     1  H    0.002304  -0.000166  -0.091063   0.003585   0.050521   0.003316
     2  C    0.030811  -0.003768  -2.165277  -0.218772  -0.107756  -0.048530
     3  C   -0.031398  -0.018949  -0.807712   0.114161   0.372950  -0.082574
     4  C   -0.188372   0.044252  -1.121964   0.226333  -0.277488  -0.066835
     5  C    0.472577   0.009814   0.127549  -0.019084  -0.364996   0.013799
     6  C    0.067058  -0.017853  -1.158695   0.080907  -1.054855  -0.044186
     7  H   -0.015981   0.001545   0.001481  -0.000631  -0.008249  -0.001541
     8  C    0.000181   0.014349   0.005895   0.005928   0.006255  -0.000186
     9  H   -0.000625  -0.000036  -0.001939   0.002519  -0.000788  -0.000275
    10  H    0.001652   0.003551   0.001124  -0.000357   0.000526   0.000076
    11  H   -0.000901  -0.004765  -0.001872   0.003339  -0.000884  -0.000544
    12  C    0.005390   0.376603  -0.019638   0.001086  -0.001843  -0.000281
    13  H    0.002650  -0.027356  -0.000658  -0.000025  -0.000187  -0.000015
    14  H   -0.010612  -0.048266  -0.000035  -0.000204   0.000128   0.000023
    15  N   -0.030302  -0.044127   0.001904   0.001678   0.001335  -0.000681
    16  C    0.019732  -0.003844   3.278594  -0.040397  -3.802561  -0.070528
    17  C   -0.041378  -0.002307  -0.982768   0.548009  -1.458611  -0.122256
    18  H    0.002831  -0.001313   0.066586  -0.054654   0.021219   0.014241
    19  H    0.525499  -0.005476  -0.002816  -0.001428   0.007782   0.000790
    20  H   -0.005476   0.567039  -0.000389   0.000387  -0.000097  -0.000075
    21  C   -0.002816  -0.000389  16.513455  -0.130878  -3.394772   0.581182
    22  H   -0.001428   0.000387  -0.130878   0.595012  -0.150474  -0.057205
    23  C    0.007782  -0.000097  -3.394772  -0.150474  15.483981   0.177938
    24  H    0.000790  -0.000075   0.581182  -0.057205   0.177938   0.617155
    25  C    0.000104   0.000026  -5.433779  -0.007123   1.122485  -0.081183
    26  O    0.000030  -0.000001  -0.110210   0.003511   0.510802  -0.012175
    27  C   -0.000392   0.000002   0.892801   0.003211  -2.429851  -0.015708
    28  C    0.000346  -0.000003  -0.419182  -0.023417   2.222852   0.066335
    29  C    0.000002   0.000000  -0.196768  -0.001219   0.473885   0.027005
    30  O    0.000007   0.000000  -0.173685  -0.000498   0.080944   0.004094
    31  C   -0.000093   0.000001   1.302590   0.011667  -1.956660  -0.069066
    32  H    0.000029   0.000000  -0.024954  -0.001605   0.107999  -0.000595
    33  H   -0.000001   0.000000   0.004794   0.000145  -0.028201  -0.000881
    34  C    0.000014   0.000000  -0.233457   0.000863   0.553270   0.008467
    35  H    0.000015   0.000000   0.045336   0.000255  -0.036014  -0.003642
    36  H   -0.000001   0.000000   0.003126   0.000288  -0.034982  -0.002121
    37  O    0.000000   0.000000   0.001341   0.000035   0.006756  -0.000518
    38  C    0.000000   0.000000  -0.007843   0.000082   0.006383  -0.000221
    39  H    0.000000   0.000000   0.000159  -0.000002   0.000286   0.000014
    40  H    0.000000   0.000000   0.000059   0.000001  -0.000475   0.000013
    41  H    0.000000   0.000000  -0.001020  -0.000007   0.004068   0.000052
              25         26         27         28         29         30
     1  H    0.016040   0.016301  -0.020599  -0.003757   0.000868   0.000815
     2  C    0.779582   0.056740   0.019494  -0.262294  -0.067303   0.008338
     3  C    0.131435  -0.003033  -0.037871   0.032764   0.008256   0.000811
     4  C    0.018432  -0.000334  -0.000335  -0.008678   0.000467   0.000059
     5  C   -0.097563   0.000631   0.018633  -0.005694  -0.001645  -0.000398
     6  C   -0.026542   0.006181   0.101674  -0.143319  -0.015301  -0.003188
     7  H    0.001381   0.000126   0.002607  -0.001499  -0.000222  -0.000067
     8  C    0.001264  -0.000002   0.000006  -0.000219   0.000006   0.000000
     9  H   -0.000072   0.000000   0.000015  -0.000020   0.000000   0.000000
    10  H    0.000070   0.000000  -0.000001  -0.000009   0.000000   0.000000
    11  H   -0.000093   0.000000  -0.000008   0.000007  -0.000001   0.000000
    12  C   -0.000354   0.000002   0.000010   0.000011  -0.000003   0.000000
    13  H   -0.000033   0.000000   0.000002   0.000002   0.000000   0.000000
    14  H    0.000058  -0.000001   0.000001  -0.000011   0.000000   0.000000
    15  N   -0.000026   0.000001  -0.000006   0.000032  -0.000002   0.000000
    16  C   -0.860573   0.057084   0.149879  -0.366881  -0.079632  -0.049026
    17  C   -0.259894  -0.001675  -0.072208   0.041092   0.020365   0.001392
    18  H    0.000090  -0.000048   0.000126   0.001267  -0.000091   0.000006
    19  H    0.000104   0.000030  -0.000392   0.000346   0.000002   0.000007
    20  H    0.000026  -0.000001   0.000002  -0.000003   0.000000   0.000000
    21  C   -5.433779  -0.110210   0.892801  -0.419182  -0.196768  -0.173685
    22  H   -0.007123   0.003511   0.003211  -0.023417  -0.001219  -0.000498
    23  C    1.122485   0.510802  -2.429851   2.222852   0.473885   0.080944
    24  H   -0.081183  -0.012175  -0.015708   0.066335   0.027005   0.004094
    25  C   16.666292  -0.320732  -0.132425  -3.047873  -2.475614   0.228740
    26  O   -0.320732   8.169838   0.091996  -0.101073  -0.074172  -0.052584
    27  C   -0.132425   0.091996  13.890884  -5.376130  -0.352538   0.049213
    28  C   -3.047873  -0.101073  -5.376130  14.802875   1.623958   0.103557
    29  C   -2.475614  -0.074172  -0.352538   1.623958  12.513291  -0.189775
    30  O    0.228740  -0.052584   0.049213   0.103557  -0.189775   7.973701
    31  C   -0.708800   0.044166   2.335261  -3.797984  -4.745795  -0.039699
    32  H   -0.082427  -0.007603  -0.012867   0.513766   0.096290   0.000032
    33  H   -0.089881  -0.001305   0.043825   0.022230   0.684230  -0.029952
    34  C   -0.306973  -0.007841  -2.598785   0.100782  -1.192443   0.042921
    35  H   -0.217854   0.047561   0.123229   0.037258   0.064195   0.238626
    36  H    0.014314   0.000633   0.024286  -0.099176  -0.128912   0.000253
    37  O    0.026529  -0.000121  -0.026285   0.029721   0.236482  -0.001030
    38  C   -0.039105  -0.001323  -0.201137   0.096325  -0.374919   0.006645
    39  H    0.012453   0.000047   0.010577  -0.000679   0.020507   0.000247
    40  H   -0.000344  -0.000030  -0.001170  -0.004070  -0.012369   0.000338
    41  H    0.005462   0.000020  -0.004615  -0.007089   0.005316  -0.000269
              31         32         33         34         35         36
     1  H   -0.013038  -0.000060  -0.000163   0.002386  -0.002781  -0.000102
     2  C    0.082212  -0.015135   0.001009  -0.030276   0.000491   0.003122
     3  C   -0.040243   0.003256   0.000073   0.008044  -0.000570  -0.000453
     4  C   -0.001044   0.000012   0.000065   0.000157  -0.000147   0.000034
     5  C    0.007615  -0.001327   0.000018  -0.001306   0.000201   0.000037
     6  C    0.049237  -0.009548   0.000318  -0.011251   0.002489   0.000871
     7  H    0.001172  -0.000121   0.000016  -0.000194   0.000093   0.000014
     8  C   -0.000108   0.000006   0.000000   0.000013  -0.000004  -0.000001
     9  H    0.000014  -0.000001   0.000000  -0.000002   0.000000   0.000000
    10  H   -0.000008   0.000001   0.000000   0.000001   0.000000   0.000000
    11  H    0.000022  -0.000008   0.000000  -0.000001   0.000000   0.000001
    12  C    0.000016   0.000002   0.000000  -0.000002   0.000002   0.000000
    13  H    0.000002   0.000000   0.000000   0.000000   0.000000   0.000000
    14  H   -0.000002   0.000000   0.000000   0.000000  -0.000001   0.000000
    15  N    0.000006  -0.000005   0.000000  -0.000001   0.000001   0.000000
    16  C    0.292965  -0.051166   0.002561  -0.060852  -0.017714   0.006317
    17  C   -0.002556  -0.004911   0.000490   0.008181  -0.002540  -0.000362
    18  H   -0.000436   0.000114  -0.000010  -0.000049  -0.000005  -0.000012
    19  H   -0.000093   0.000029  -0.000001   0.000014   0.000015  -0.000001
    20  H    0.000001   0.000000   0.000000   0.000000   0.000000   0.000000
    21  C    1.302590  -0.024954   0.004794  -0.233457   0.045336   0.003126
    22  H    0.011667  -0.001605   0.000145   0.000863   0.000255   0.000288
    23  C   -1.956660   0.107999  -0.028201   0.553270  -0.036014  -0.034982
    24  H   -0.069066  -0.000595  -0.000881   0.008467  -0.003642  -0.002121
    25  C   -0.708800  -0.082427  -0.089881  -0.306973  -0.217854   0.014314
    26  O    0.044166  -0.007603  -0.001305  -0.007841   0.047561   0.000633
    27  C    2.335261  -0.012867   0.043825  -2.598785   0.123229   0.024286
    28  C   -3.797984   0.513766   0.022230   0.100782   0.037258  -0.099176
    29  C   -4.745795   0.096290   0.684230  -1.192443   0.064195  -0.128912
    30  O   -0.039699   0.000032  -0.029952   0.042921   0.238626   0.000253
    31  C   14.654753  -0.243268  -0.063301  -0.389120   0.029921   0.603849
    32  H   -0.243268   0.514427   0.003303   0.018182   0.000851  -0.016687
    33  H   -0.063301   0.003303   0.512819  -0.242337   0.003520  -0.002710
    34  C   -0.389120   0.018182  -0.242337  10.333935  -0.018137  -0.056080
    35  H    0.029921   0.000851   0.003520  -0.018137   0.398325   0.000590
    36  H    0.603849  -0.016687  -0.002710  -0.056080   0.000590   0.478589
    37  O   -0.673921  -0.001444  -0.019410   0.308794  -0.000284  -0.023838
    38  C    0.067384  -0.000788  -0.016860   0.173743  -0.000691   0.002471
    39  H   -0.013857  -0.000061  -0.006736  -0.044602   0.000156  -0.000483
    40  H    0.016820  -0.000065   0.000270   0.038320   0.000036   0.000984
    41  H   -0.004802  -0.000387  -0.008866  -0.019259  -0.000324   0.000215
              37         38         39         40         41
     1  H    0.000019   0.000061   0.000003   0.000000   0.000004
     2  C    0.000061   0.000091   0.000036   0.000008  -0.000143
     3  C    0.000003   0.000118   0.000003   0.000001  -0.000008
     4  C    0.000000   0.000009   0.000000   0.000000  -0.000003
     5  C    0.000000  -0.000010   0.000000   0.000000   0.000000
     6  C   -0.000005  -0.000077  -0.000007   0.000000  -0.000003
     7  H    0.000000  -0.000001   0.000000   0.000000   0.000000
     8  C    0.000000   0.000000   0.000000   0.000000   0.000000
     9  H    0.000000   0.000000   0.000000   0.000000   0.000000
    10  H    0.000000   0.000000   0.000000   0.000000   0.000000
    11  H    0.000000   0.000000   0.000000   0.000000   0.000000
    12  C    0.000000   0.000000   0.000000   0.000000   0.000000
    13  H    0.000000   0.000000   0.000000   0.000000   0.000000
    14  H    0.000000   0.000000   0.000000   0.000000   0.000000
    15  N    0.000000   0.000000   0.000000   0.000000   0.000000
    16  C    0.000526   0.001191  -0.000073   0.000040  -0.000019
    17  C    0.000039   0.000315  -0.000004   0.000006  -0.000006
    18  H    0.000000  -0.000003   0.000000   0.000000   0.000000
    19  H    0.000000   0.000000   0.000000   0.000000   0.000000
    20  H    0.000000   0.000000   0.000000   0.000000   0.000000
    21  C    0.001341  -0.007843   0.000159   0.000059  -0.001020
    22  H    0.000035   0.000082  -0.000002   0.000001  -0.000007
    23  C    0.006756   0.006383   0.000286  -0.000475   0.004068
    24  H   -0.000518  -0.000221   0.000014   0.000013   0.000052
    25  C    0.026529  -0.039105   0.012453  -0.000344   0.005462
    26  O   -0.000121  -0.001323   0.000047  -0.000030   0.000020
    27  C   -0.026285  -0.201137   0.010577  -0.001170  -0.004615
    28  C    0.029721   0.096325  -0.000679  -0.004070  -0.007089
    29  C    0.236482  -0.374919   0.020507  -0.012369   0.005316
    30  O   -0.001030   0.006645   0.000247   0.000338  -0.000269
    31  C   -0.673921   0.067384  -0.013857   0.016820  -0.004802
    32  H   -0.001444  -0.000788  -0.000061  -0.000065  -0.000387
    33  H   -0.019410  -0.016860  -0.006736   0.000270  -0.008866
    34  C    0.308794   0.173743  -0.044602   0.038320  -0.019259
    35  H   -0.000284  -0.000691   0.000156   0.000036  -0.000324
    36  H   -0.023838   0.002471  -0.000483   0.000984   0.000215
    37  O    8.183535   0.210026  -0.032985  -0.065840  -0.036467
    38  C    0.210026   5.261417   0.400699   0.397171   0.408030
    39  H   -0.032985   0.400699   0.568806  -0.020622  -0.064077
    40  H   -0.065840   0.397171  -0.020622   0.458903  -0.020214
    41  H   -0.036467   0.408030  -0.064077  -0.020214   0.576968
 Mulliken charges:
               1
     1  H    0.227469
     2  C    1.197134
     3  C   -0.387466
     4  C   -0.797366
     5  C   -0.118564
     6  C   -0.252047
     7  H    0.212518
     8  C   -0.430246
     9  H    0.186375
    10  H    0.156226
    11  H    0.161415
    12  C   -0.433441
    13  H    0.152434
    14  H    0.191308
    15  N    0.092928
    16  C    0.228376
    17  C   -0.983616
    18  H    0.237924
    19  H    0.189969
    20  H    0.161222
    21  C   -0.346601
    22  H    0.104980
    23  C   -0.102622
    24  H    0.167322
    25  C    1.164503
    26  O   -0.311408
    27  C   -0.474803
    28  C   -0.026121
    29  C    0.133601
    30  O   -0.200569
    31  C   -0.735872
    32  H    0.216763
    33  H    0.230929
    34  C   -0.385099
    35  H    0.307558
    36  H    0.225923
    37  O   -0.121720
    38  C   -0.389180
    39  H    0.170195
    40  H    0.212230
    41  H    0.167441
 Sum of Mulliken charges =   0.00000
 Mulliken charges with hydrogens summed into heavy atoms:
               1
     2  C    1.197134
     3  C   -0.149541
     4  C   -0.797366
     5  C    0.071404
     6  C   -0.039529
     8  C    0.073770
    12  C    0.071521
    15  N    0.092928
    16  C    0.455845
    17  C   -0.878636
    21  C   -0.179278
    23  C   -0.102622
    25  C    1.164503
    26  O   -0.311408
    27  C   -0.474803
    28  C    0.190642
    29  C    0.364530
    30  O    0.106989
    31  C   -0.509949
    34  C   -0.385099
    37  O   -0.121720
    38  C    0.160686
 Electronic spatial extent (au):  <R**2>=          13467.9168
 Charge=              0.0000 electrons
 Dipole moment (field-independent basis, Debye):
    X=              7.6350    Y=             -3.4064    Z=              1.4409  Tot=              8.4837
 Quadrupole moment (field-independent basis, Debye-Ang):
   XX=            -80.8966   YY=           -130.8663   ZZ=           -134.6708
   XY=              4.2360   XZ=             -3.0400   YZ=             -0.9746
 Traceless Quadrupole moment (field-independent basis, Debye-Ang):
   XX=             34.5813   YY=            -15.3884   ZZ=            -19.1929
   XY=              4.2360   XZ=             -3.0400   YZ=             -0.9746
 Octapole moment (field-independent basis, Debye-Ang**2):
  XXX=            176.9410  YYY=            -16.7763  ZZZ=              1.7644  XYY=             55.6264
  XXY=            -63.7804  XXZ=             91.1171  XZZ=            -17.0800  YZZ=             -9.3000
  YYZ=              8.6560  XYZ=             -2.9645
 Hexadecapole moment (field-independent basis, Debye-Ang**3):
 XXXX=         -12419.1181 YYYY=          -1430.3033 ZZZZ=           -508.1202 XXXY=            -17.3914
 XXXZ=           -249.6496 YYYX=             -7.5319 YYYZ=             18.3854 ZZZX=              3.6708
 ZZZY=              5.6886 XXYY=          -2805.9416 XXZZ=          -2854.8438 YYZZ=           -326.6393
 XXYZ=           -148.3847 YYXZ=            -16.6817 ZZXY=             36.2196
 N-N= 1.596747198140D+03 E-N=-5.471955460609D+03  KE= 9.736843081674D+02
 1\1\GINC-NXV23\FOpt\RwB97XD TD-FC\6-311++G(d,p)\C18H19N1O3\BTX008\21-J
 ul-2017\0\\#wb97xd 6-311++g** td(nstates=1,root=1) opt\\title\\0,1\H,-
 0.5485213733,0.7559076733,1.5447348426\C,-1.4586450955,1.2974869071,3.
 423860026\C,-2.506377558,1.9070329486,5.540128642\C,-1.6296142964,1.08
 5016532,6.2734682239\C,-0.6548259297,0.3835936667,5.5418096047\C,-0.58
 29129155,0.4887940568,4.1649542416\H,0.1838576011,-0.0718959984,3.6391
 19363\C,-2.5407703034,1.9245238959,8.3737522322\H,-2.2060021272,2.9616
 632486,8.2209726385\H,-2.4931290739,1.7018669597,9.4394440648\H,-3.590
 2355839,1.8557980617,8.07419118\C,-0.6384897712,0.3493016542,8.3757709
 4\H,-0.882704661,0.3211542528,9.4375588234\H,0.3110349205,0.8918598769
 ,8.2520576669\N,-1.7319814387,0.9640084556,7.653404372\C,-1.327068703,
 1.3702696869,1.986371834\C,-2.4212994502,2.0029414611,4.163685892\H,-3
 .2687758429,2.4823919534,6.0482033259\H,0.060676929,-0.2524243722,6.04
 5431195\H,-0.4874001222,-0.6835267819,8.0514315512\C,-2.0862399682,2.1
 452290436,1.1347314491\H,-3.1266462947,2.6522221507,3.6567401024\C,-1.
 8948506312,2.1922858556,-0.2384585351\H,-2.8885773744,2.7740991302,1.5
 076320786\C,-2.7241310217,2.9361804826,-1.2142340924\O,-1.0187659382,1
 .5643618327,-0.9545382017\C,-2.0943258606,3.8770041372,-2.0734739064\C
 ,-4.1082639445,2.7167015639,-1.3557946682\C,-2.8590811609,4.7002783285
 ,-2.8992718414\O,-0.7733897643,4.036292982,-2.0897551488\C,-4.86377980
 01,3.5189382169,-2.1691010048\H,-4.573506166,1.9432060218,-0.757396705
 \H,-2.3428769947,5.4281003789,-3.5089193514\C,-4.2352309228,4.52736780
 3,-2.9384865102\H,-0.3703919843,3.2612336712,-1.6605735317\H,-5.938412
 6672,3.4113941828,-2.2399692754\O,-5.0632538763,5.2572525253,-3.697932
 1948\C,-4.5230324826,6.2933513313,-4.5001871404\H,-3.8404759652,5.8905
 264033,-5.2547030428\H,-5.3729881045,6.7614158735,-4.9917544357\H,-4.0
 023654682,7.033563916,-3.8850022138\\Version=ES64L-G09RevD.01\State=1-
 A\HF=-977.6566394\RMSD=9.210e-09\RMSF=8.151e-06\Dipole=-1.0324695,1.37
 97527,-0.16192\PG=C01 [X(C18H19N1O3)]\\@


 IF MATHEMATICALLY YOU END UP WITH THE INCORRECT ANSWER,
 TRY MULTIPLYING BY THE PAGE NUMBER.
 Job cpu time:       7 days  2 hours  3 minutes 54.9 seconds.
 File lengths (MBytes):  RWF=    370 Int=      0 D2E=      0 Chk=     55 Scr=      1
 Normal termination of Gaussian 09 at Fri Jul 21 06:03:40 2017.
