 Entering Gaussian System, Link 0=g09
 Input=mMeOK_opt.com
 Output=mMeOK_opt.out
 Initial command:
 /share/apps/gaussian/g09/l1.exe /tmp/3548257.1.chemistry.q/Gau-26676.inp -scrdir=/tmp/3548257.1.chemistry.q/
 Entering Link 1 = /share/apps/gaussian/g09/l1.exe PID=     26677.
  
 Copyright (c) 1988,1990,1992,1993,1995,1998,2003,2009,2011,
            Gaussian, Inc.  All Rights Reserved.
  
 This is part of the Gaussian(R) 09 program.  It is based on
 the Gaussian(R) 03 system (copyright 2003, Gaussian, Inc.),
 the Gaussian(R) 98 system (copyright 1998, Gaussian, Inc.),
 the Gaussian(R) 94 system (copyright 1995, Gaussian, Inc.),
 the Gaussian 92(TM) system (copyright 1992, Gaussian, Inc.),
 the Gaussian 90(TM) system (copyright 1990, Gaussian, Inc.),
 the Gaussian 88(TM) system (copyright 1988, Gaussian, Inc.),
 the Gaussian 86(TM) system (copyright 1986, Carnegie Mellon
 University), and the Gaussian 82(TM) system (copyright 1983,
 Carnegie Mellon University). Gaussian is a federally registered
 trademark of Gaussian, Inc.
  
 This software contains proprietary and confidential information,
 including trade secrets, belonging to Gaussian, Inc.
  
 This software is provided under written license and may be
 used, copied, transmitted, or stored only in accord with that
 written license.
  
 The following legend is applicable only to US Government
 contracts under FAR:
  
                    RESTRICTED RIGHTS LEGEND
  
 Use, reproduction and disclosure by the US Government is
 subject to restrictions as set forth in subparagraphs (a)
 and (c) of the Commercial Computer Software - Restricted
 Rights clause in FAR 52.227-19.
  
 Gaussian, Inc.
 340 Quinnipiac St., Bldg. 40, Wallingford CT 06492
  
  
 ---------------------------------------------------------------
 Warning -- This program may not be used in any manner that
 competes with the business of Gaussian, Inc. or will provide
 assistance to any competitor of Gaussian, Inc.  The licensee
 of this program is prohibited from giving any competitor of
 Gaussian, Inc. access to this program.  By using this program,
 the user acknowledges that Gaussian, Inc. is engaged in the
 business of creating and licensing software in the field of
 computational chemistry and represents and warrants to the
 licensee that it is not a competitor of Gaussian, Inc. and that
 it will not use this program in any manner prohibited above.
 ---------------------------------------------------------------
  

 Cite this work as:
 Gaussian 09, Revision C.01,
 M. J. Frisch, G. W. Trucks, H. B. Schlegel, G. E. Scuseria, 
 M. A. Robb, J. R. Cheeseman, G. Scalmani, V. Barone, B. Mennucci, 
 G. A. Petersson, H. Nakatsuji, M. Caricato, X. Li, H. P. Hratchian, 
 A. F. Izmaylov, J. Bloino, G. Zheng, J. L. Sonnenberg, M. Hada, 
 M. Ehara, K. Toyota, R. Fukuda, J. Hasegawa, M. Ishida, T. Nakajima, 
 Y. Honda, O. Kitao, H. Nakai, T. Vreven, J. A. Montgomery, Jr., 
 J. E. Peralta, F. Ogliaro, M. Bearpark, J. J. Heyd, E. Brothers, 
 K. N. Kudin, V. N. Staroverov, T. Keith, R. Kobayashi, J. Normand, 
 K. Raghavachari, A. Rendell, J. C. Burant, S. S. Iyengar, J. Tomasi, 
 M. Cossi, N. Rega, J. M. Millam, M. Klene, J. E. Knox, J. B. Cross, 
 V. Bakken, C. Adamo, J. Jaramillo, R. Gomperts, R. E. Stratmann, 
 O. Yazyev, A. J. Austin, R. Cammi, C. Pomelli, J. W. Ochterski, 
 R. L. Martin, K. Morokuma, V. G. Zakrzewski, G. A. Voth, 
 P. Salvador, J. J. Dannenberg, S. Dapprich, A. D. Daniels, 
 O. Farkas, J. B. Foresman, J. V. Ortiz, J. Cioslowski, 
 and D. J. Fox, Gaussian, Inc., Wallingford CT, 2010.
 
 ******************************************
 Gaussian 09:  EM64L-G09RevC.01 23-Sep-2011
                21-Nov-2015 
 ******************************************
 %chk=mMeOK_opt
 %mem=2GB
 %nproc=4
 Will use up to    4 processors via shared memory.
 ----------------------
 #wb97xd 6-311++g** opt
 ----------------------
 1/14=-1,18=20,19=15,26=3,38=1/1,3;
 2/9=110,12=2,17=6,18=5,40=1/2;
 3/5=4,6=6,7=1111,11=2,16=1,25=1,30=1,71=1,74=-58/1,2,3;
 4//1;
 5/5=2,38=5/2;
 6/7=2,8=2,9=2,10=2,28=1/1;
 7//1,2,3,16;
 1/14=-1,18=20,19=15/3(2);
 2/9=110/2;
 99//99;
 2/9=110/2;
 3/5=4,6=6,7=1111,11=2,16=1,25=1,30=1,71=1,74=-58/1,2,3;
 4/5=5,16=3/1;
 5/5=2,38=5/2;
 7//1,2,3,16;
 1/14=-1,18=20,19=15/3(-5);
 2/9=110/2;
 6/7=2,8=2,9=2,10=2,19=2,28=1/1;
 99/9=1/99;
 -----
 title
 -----
 Charge =  0 Multiplicity = 1
 Symbolic Z-Matrix:
 1                    -0.7202    0.96397   1.11296 
 6                    -1.45798   1.44243   2.9419 
 6                    -2.44797   2.10657   5.0418 
 6                    -1.59794   1.273     5.77676 
 6                    -0.65372   0.54786   5.03954 
 6                    -0.60113   0.64545   3.68364 
 1                     0.0454    0.15344   3.23092 
 6                    -2.64681   1.97374   7.8823 
 1                    -2.61367   2.89271   7.60909 
 1                    -2.44793   1.9114    8.81936 
 1                    -3.52554   1.6227    7.7186 
 6                    -0.81642   0.31202   7.88118 
 1                    -1.00593   0.39877   8.81823 
 1                     0.10251   0.53567   7.7186 
 7                    -1.6733    1.2093    7.12928 
 6                    -1.38483   1.48173   1.50584 
 6                    -2.37004   2.17434   3.67799 
 1                    -3.07843   2.62298   5.48887 
 1                    -0.05514  -0.00921   5.48323 
 1                    -0.97982  -0.59338   7.60345 
 6                    -2.15714   2.17163   0.6783 
 1                    -2.95596   2.73684   3.22527 
 6                    -1.98434   2.13504  -0.7634 
 1                    -2.8364    2.69888   1.03506 
 6                    -2.85419   2.92524  -1.63046 
 8                    -1.08078   1.4263   -1.2737 
 6                    -2.72572   2.82765  -3.01797 
 6                    -3.83685   3.7832   -1.16193 
 6                    -3.5208    3.55414  -3.88164 
 8                    -1.78156   2.03745  -3.57907 
 6                    -4.62641   4.50428  -2.00189 
 1                    -3.96073   3.86859  -0.24407 
 1                    -3.41154   3.47959  -4.80288 
 6                    -4.4702    4.38365  -3.36118 
 1                    -1.21096   1.53403  -2.07598 
 1                    -5.27095   5.07897  -1.65755 
 8                    -5.29879   5.15487  -4.11872 
 6                    -5.11396   5.16436  -5.52317 
 1                    -5.19296   4.26979  -5.86186 
 1                    -5.78207   5.72007  -5.9296 
 1                    -4.24196   5.50863  -5.72864 
 

 GradGradGradGradGradGradGradGradGradGradGradGradGradGradGradGradGradGrad
 Berny optimization.
 Initialization pass.
                           ----------------------------
                           !    Initial Parameters    !
                           ! (Angstroms and Degrees)  !
 --------------------------                            --------------------------
 ! Name  Definition              Value          Derivative Info.                !
 --------------------------------------------------------------------------------
 ! R1    R(1,16)                 0.9296         estimate D2E/DX2                !
 ! R2    R(2,6)                  1.3855         estimate D2E/DX2                !
 ! R3    R(2,16)                 1.4385         estimate D2E/DX2                !
 ! R4    R(2,17)                 1.3818         estimate D2E/DX2                !
 ! R5    R(3,4)                  1.3991         estimate D2E/DX2                !
 ! R6    R(3,17)                 1.3677         estimate D2E/DX2                !
 ! R7    R(3,18)                 0.9295         estimate D2E/DX2                !
 ! R8    R(4,5)                  1.4003         estimate D2E/DX2                !
 ! R9    R(4,15)                 1.3561         estimate D2E/DX2                !
 ! R10   R(5,6)                  1.3604         estimate D2E/DX2                !
 ! R11   R(5,19)                 0.9303         estimate D2E/DX2                !
 ! R12   R(6,7)                  0.9301         estimate D2E/DX2                !
 ! R13   R(8,9)                  0.9593         estimate D2E/DX2                !
 ! R14   R(8,10)                 0.96           estimate D2E/DX2                !
 ! R15   R(8,11)                 0.9603         estimate D2E/DX2                !
 ! R16   R(8,15)                 1.4488         estimate D2E/DX2                !
 ! R17   R(12,13)                0.96           estimate D2E/DX2                !
 ! R18   R(12,14)                0.9596         estimate D2E/DX2                !
 ! R19   R(12,15)                1.4508         estimate D2E/DX2                !
 ! R20   R(12,20)                0.961          estimate D2E/DX2                !
 ! R21   R(16,21)                1.3256         estimate D2E/DX2                !
 ! R22   R(17,22)                0.9299         estimate D2E/DX2                !
 ! R23   R(21,23)                1.4525         estimate D2E/DX2                !
 ! R24   R(21,24)                0.9309         estimate D2E/DX2                !
 ! R25   R(23,25)                1.4604         estimate D2E/DX2                !
 ! R26   R(23,26)                1.2566         estimate D2E/DX2                !
 ! R27   R(25,27)                1.3969         estimate D2E/DX2                !
 ! R28   R(25,28)                1.3861         estimate D2E/DX2                !
 ! R29   R(26,35)                0.8199         estimate D2E/DX2                !
 ! R30   R(27,29)                1.3805         estimate D2E/DX2                !
 ! R31   R(27,30)                1.353          estimate D2E/DX2                !
 ! R32   R(28,31)                1.3597         estimate D2E/DX2                !
 ! R33   R(28,32)                0.9301         estimate D2E/DX2                !
 ! R34   R(29,33)                0.9307         estimate D2E/DX2                !
 ! R35   R(29,34)                1.3639         estimate D2E/DX2                !
 ! R36   R(31,34)                1.3735         estimate D2E/DX2                !
 ! R37   R(31,36)                0.9297         estimate D2E/DX2                !
 ! R38   R(34,37)                1.3621         estimate D2E/DX2                !
 ! R39   R(37,38)                1.4166         estimate D2E/DX2                !
 ! R40   R(38,39)                0.9598         estimate D2E/DX2                !
 ! R41   R(38,40)                0.9594         estimate D2E/DX2                !
 ! R42   R(38,41)                0.9598         estimate D2E/DX2                !
 ! A1    A(6,2,16)             121.2482         estimate D2E/DX2                !
 ! A2    A(6,2,17)             115.3221         estimate D2E/DX2                !
 ! A3    A(16,2,17)            123.4292         estimate D2E/DX2                !
 ! A4    A(4,3,17)             121.2456         estimate D2E/DX2                !
 ! A5    A(4,3,18)             119.3671         estimate D2E/DX2                !
 ! A6    A(17,3,18)            119.3872         estimate D2E/DX2                !
 ! A7    A(3,4,5)              116.2075         estimate D2E/DX2                !
 ! A8    A(3,4,15)             121.2072         estimate D2E/DX2                !
 ! A9    A(5,4,15)             122.5625         estimate D2E/DX2                !
 ! A10   A(4,5,6)              120.9062         estimate D2E/DX2                !
 ! A11   A(4,5,19)             119.5279         estimate D2E/DX2                !
 ! A12   A(6,5,19)             119.5658         estimate D2E/DX2                !
 ! A13   A(2,6,5)              123.4321         estimate D2E/DX2                !
 ! A14   A(2,6,7)              118.2694         estimate D2E/DX2                !
 ! A15   A(5,6,7)              118.2982         estimate D2E/DX2                !
 ! A16   A(9,8,10)             109.4555         estimate D2E/DX2                !
 ! A17   A(9,8,11)             109.4663         estimate D2E/DX2                !
 ! A18   A(9,8,15)             109.5242         estimate D2E/DX2                !
 ! A19   A(10,8,11)            109.4045         estimate D2E/DX2                !
 ! A20   A(10,8,15)            109.5039         estimate D2E/DX2                !
 ! A21   A(11,8,15)            109.4729         estimate D2E/DX2                !
 ! A22   A(13,12,14)           109.4727         estimate D2E/DX2                !
 ! A23   A(13,12,15)           109.4767         estimate D2E/DX2                !
 ! A24   A(13,12,20)           109.4913         estimate D2E/DX2                !
 ! A25   A(14,12,15)           109.4908         estimate D2E/DX2                !
 ! A26   A(14,12,20)           109.4759         estimate D2E/DX2                !
 ! A27   A(15,12,20)           109.4199         estimate D2E/DX2                !
 ! A28   A(4,15,8)             122.0677         estimate D2E/DX2                !
 ! A29   A(4,15,12)            120.873          estimate D2E/DX2                !
 ! A30   A(8,15,12)            116.9891         estimate D2E/DX2                !
 ! A31   A(1,16,2)             116.2996         estimate D2E/DX2                !
 ! A32   A(1,16,21)            116.268          estimate D2E/DX2                !
 ! A33   A(2,16,21)            127.4324         estimate D2E/DX2                !
 ! A34   A(2,17,3)             122.857          estimate D2E/DX2                !
 ! A35   A(2,17,22)            118.4872         estimate D2E/DX2                !
 ! A36   A(3,17,22)            118.6558         estimate D2E/DX2                !
 ! A37   A(16,21,23)           122.4942         estimate D2E/DX2                !
 ! A38   A(16,21,24)           118.7257         estimate D2E/DX2                !
 ! A39   A(23,21,24)           118.7801         estimate D2E/DX2                !
 ! A40   A(21,23,25)           120.3182         estimate D2E/DX2                !
 ! A41   A(21,23,26)           120.1868         estimate D2E/DX2                !
 ! A42   A(25,23,26)           119.4945         estimate D2E/DX2                !
 ! A43   A(23,25,27)           119.8112         estimate D2E/DX2                !
 ! A44   A(23,25,28)           123.8135         estimate D2E/DX2                !
 ! A45   A(27,25,28)           116.3727         estimate D2E/DX2                !
 ! A46   A(23,26,35)           102.0687         estimate D2E/DX2                !
 ! A47   A(25,27,29)           122.1191         estimate D2E/DX2                !
 ! A48   A(25,27,30)           121.1251         estimate D2E/DX2                !
 ! A49   A(29,27,30)           116.7299         estimate D2E/DX2                !
 ! A50   A(25,28,31)           122.0803         estimate D2E/DX2                !
 ! A51   A(25,28,32)           119.0009         estimate D2E/DX2                !
 ! A52   A(31,28,32)           118.9189         estimate D2E/DX2                !
 ! A53   A(27,29,33)           120.6299         estimate D2E/DX2                !
 ! A54   A(27,29,34)           118.8298         estimate D2E/DX2                !
 ! A55   A(33,29,34)           120.5403         estimate D2E/DX2                !
 ! A56   A(28,31,34)           119.9148         estimate D2E/DX2                !
 ! A57   A(28,31,36)           120.1058         estimate D2E/DX2                !
 ! A58   A(34,31,36)           119.9793         estimate D2E/DX2                !
 ! A59   A(29,34,31)           120.6773         estimate D2E/DX2                !
 ! A60   A(29,34,37)           123.7501         estimate D2E/DX2                !
 ! A61   A(31,34,37)           115.5622         estimate D2E/DX2                !
 ! A62   A(34,37,38)           118.4135         estimate D2E/DX2                !
 ! A63   A(37,38,39)           109.4435         estimate D2E/DX2                !
 ! A64   A(37,38,40)           109.4532         estimate D2E/DX2                !
 ! A65   A(37,38,41)           109.4631         estimate D2E/DX2                !
 ! A66   A(39,38,40)           109.4554         estimate D2E/DX2                !
 ! A67   A(39,38,41)           109.485          estimate D2E/DX2                !
 ! A68   A(40,38,41)           109.527          estimate D2E/DX2                !
 ! D1    D(16,2,6,5)          -178.2429         estimate D2E/DX2                !
 ! D2    D(16,2,6,7)             1.9451         estimate D2E/DX2                !
 ! D3    D(17,2,6,5)             1.5082         estimate D2E/DX2                !
 ! D4    D(17,2,6,7)          -178.3039         estimate D2E/DX2                !
 ! D5    D(6,2,16,1)            -1.6134         estimate D2E/DX2                !
 ! D6    D(6,2,16,21)          178.3651         estimate D2E/DX2                !
 ! D7    D(17,2,16,1)          178.6563         estimate D2E/DX2                !
 ! D8    D(17,2,16,21)          -1.3653         estimate D2E/DX2                !
 ! D9    D(6,2,17,3)            -1.1693         estimate D2E/DX2                !
 ! D10   D(6,2,17,22)          178.8526         estimate D2E/DX2                !
 ! D11   D(16,2,17,3)          178.5757         estimate D2E/DX2                !
 ! D12   D(16,2,17,22)          -1.4025         estimate D2E/DX2                !
 ! D13   D(17,3,4,5)             1.5019         estimate D2E/DX2                !
 ! D14   D(17,3,4,15)          179.8082         estimate D2E/DX2                !
 ! D15   D(18,3,4,5)          -178.5978         estimate D2E/DX2                !
 ! D16   D(18,3,4,15)           -0.2915         estimate D2E/DX2                !
 ! D17   D(4,3,17,2)            -0.3259         estimate D2E/DX2                !
 ! D18   D(4,3,17,22)          179.6522         estimate D2E/DX2                !
 ! D19   D(18,3,17,2)          179.7738         estimate D2E/DX2                !
 ! D20   D(18,3,17,22)          -0.2481         estimate D2E/DX2                !
 ! D21   D(3,4,5,6)             -1.1793         estimate D2E/DX2                !
 ! D22   D(3,4,5,19)           178.9166         estimate D2E/DX2                !
 ! D23   D(15,4,5,6)          -179.4605         estimate D2E/DX2                !
 ! D24   D(15,4,5,19)            0.6354         estimate D2E/DX2                !
 ! D25   D(3,4,15,8)             1.2276         estimate D2E/DX2                !
 ! D26   D(3,4,15,12)          178.0892         estimate D2E/DX2                !
 ! D27   D(5,4,15,8)           179.4246         estimate D2E/DX2                !
 ! D28   D(5,4,15,12)           -3.7138         estimate D2E/DX2                !
 ! D29   D(4,5,6,2)             -0.3421         estimate D2E/DX2                !
 ! D30   D(4,5,6,7)            179.4699         estimate D2E/DX2                !
 ! D31   D(19,5,6,2)           179.562          estimate D2E/DX2                !
 ! D32   D(19,5,6,7)            -0.6259         estimate D2E/DX2                !
 ! D33   D(9,8,15,4)           -50.465          estimate D2E/DX2                !
 ! D34   D(9,8,15,12)          132.5578         estimate D2E/DX2                !
 ! D35   D(10,8,15,4)         -170.4982         estimate D2E/DX2                !
 ! D36   D(10,8,15,12)          12.5246         estimate D2E/DX2                !
 ! D37   D(11,8,15,4)           69.5625         estimate D2E/DX2                !
 ! D38   D(11,8,15,12)        -107.4147         estimate D2E/DX2                !
 ! D39   D(13,12,15,4)        -179.9645         estimate D2E/DX2                !
 ! D40   D(13,12,15,8)          -2.9489         estimate D2E/DX2                !
 ! D41   D(14,12,15,4)          60.0184         estimate D2E/DX2                !
 ! D42   D(14,12,15,8)        -122.9661         estimate D2E/DX2                !
 ! D43   D(20,12,15,4)         -59.968          estimate D2E/DX2                !
 ! D44   D(20,12,15,8)         117.0476         estimate D2E/DX2                !
 ! D45   D(1,16,21,23)          -0.2148         estimate D2E/DX2                !
 ! D46   D(1,16,21,24)         179.7299         estimate D2E/DX2                !
 ! D47   D(2,16,21,23)         179.8068         estimate D2E/DX2                !
 ! D48   D(2,16,21,24)          -0.2486         estimate D2E/DX2                !
 ! D49   D(16,21,23,25)       -179.3717         estimate D2E/DX2                !
 ! D50   D(16,21,23,26)          0.3516         estimate D2E/DX2                !
 ! D51   D(24,21,23,25)          0.6836         estimate D2E/DX2                !
 ! D52   D(24,21,23,26)       -179.593          estimate D2E/DX2                !
 ! D53   D(21,23,25,27)       -176.594          estimate D2E/DX2                !
 ! D54   D(21,23,25,28)          2.7972         estimate D2E/DX2                !
 ! D55   D(26,23,25,27)          3.6807         estimate D2E/DX2                !
 ! D56   D(26,23,25,28)       -176.928          estimate D2E/DX2                !
 ! D57   D(21,23,26,35)        176.7608         estimate D2E/DX2                !
 ! D58   D(25,23,26,35)         -3.5136         estimate D2E/DX2                !
 ! D59   D(23,25,27,29)       -179.8788         estimate D2E/DX2                !
 ! D60   D(23,25,27,30)         -1.7889         estimate D2E/DX2                !
 ! D61   D(28,25,27,29)          0.6858         estimate D2E/DX2                !
 ! D62   D(28,25,27,30)        178.7756         estimate D2E/DX2                !
 ! D63   D(23,25,28,31)        179.9053         estimate D2E/DX2                !
 ! D64   D(23,25,28,32)         -0.1158         estimate D2E/DX2                !
 ! D65   D(27,25,28,31)         -0.6842         estimate D2E/DX2                !
 ! D66   D(27,25,28,32)        179.2946         estimate D2E/DX2                !
 ! D67   D(25,27,29,33)        179.3723         estimate D2E/DX2                !
 ! D68   D(25,27,29,34)         -0.6369         estimate D2E/DX2                !
 ! D69   D(30,27,29,33)          1.2031         estimate D2E/DX2                !
 ! D70   D(30,27,29,34)       -178.8061         estimate D2E/DX2                !
 ! D71   D(25,28,31,34)          0.638          estimate D2E/DX2                !
 ! D72   D(25,28,31,36)       -179.3119         estimate D2E/DX2                !
 ! D73   D(32,28,31,34)       -179.3409         estimate D2E/DX2                !
 ! D74   D(32,28,31,36)          0.7092         estimate D2E/DX2                !
 ! D75   D(27,29,34,31)          0.556          estimate D2E/DX2                !
 ! D76   D(27,29,34,37)        179.3337         estimate D2E/DX2                !
 ! D77   D(33,29,34,31)       -179.4532         estimate D2E/DX2                !
 ! D78   D(33,29,34,37)         -0.6755         estimate D2E/DX2                !
 ! D79   D(28,31,34,29)         -0.5608         estimate D2E/DX2                !
 ! D80   D(28,31,34,37)       -179.4343         estimate D2E/DX2                !
 ! D81   D(36,31,34,29)        179.3891         estimate D2E/DX2                !
 ! D82   D(36,31,34,37)          0.5157         estimate D2E/DX2                !
 ! D83   D(29,34,37,38)         -4.1181         estimate D2E/DX2                !
 ! D84   D(31,34,37,38)        174.7166         estimate D2E/DX2                !
 ! D85   D(34,37,38,39)         57.976          estimate D2E/DX2                !
 ! D86   D(34,37,38,40)        177.9286         estimate D2E/DX2                !
 ! D87   D(34,37,38,41)        -62.019          estimate D2E/DX2                !
 --------------------------------------------------------------------------------
 Trust Radius=3.00D-01 FncErr=1.00D-07 GrdErr=1.00D-06
 Number of steps in this run=    207 maximum allowed number of steps=    246.
 GradGradGradGradGradGradGradGradGradGradGradGradGradGradGradGradGradGrad

                          Input orientation:                          
 ---------------------------------------------------------------------
 Center     Atomic      Atomic             Coordinates (Angstroms)
 Number     Number       Type             X           Y           Z
 ---------------------------------------------------------------------
      1          1           0       -0.720196    0.963972    1.112958
      2          6           0       -1.457978    1.442429    2.941901
      3          6           0       -2.447966    2.106575    5.041798
      4          6           0       -1.597942    1.273004    5.776762
      5          6           0       -0.653717    0.547865    5.039540
      6          6           0       -0.601134    0.645453    3.683639
      7          1           0        0.045400    0.153443    3.230919
      8          6           0       -2.646809    1.973745    7.882304
      9          1           0       -2.613668    2.892707    7.609092
     10          1           0       -2.447929    1.911397    8.819356
     11          1           0       -3.525536    1.622697    7.718603
     12          6           0       -0.816423    0.312025    7.881175
     13          1           0       -1.005935    0.398771    8.818227
     14          1           0        0.102509    0.535666    7.718603
     15          7           0       -1.673303    1.209300    7.129276
     16          6           0       -1.384832    1.481735    1.505842
     17          6           0       -2.370038    2.174345    3.677994
     18          1           0       -3.078434    2.622982    5.488873
     19          1           0       -0.055141   -0.009205    5.483228
     20          1           0       -0.979817   -0.593382    7.603447
     21          6           0       -2.157140    2.171634    0.678302
     22          1           0       -2.955960    2.736836    3.225274
     23          6           0       -1.984341    2.135038   -0.763401
     24          1           0       -2.836401    2.698884    1.035059
     25          6           0       -2.854195    2.925236   -1.630456
     26          8           0       -1.080780    1.426299   -1.273699
     27          6           0       -2.725719    2.827647   -3.017968
     28          6           0       -3.836847    3.783204   -1.161930
     29          6           0       -3.520805    3.554142   -3.881637
     30          8           0       -1.781560    2.037449   -3.579070
     31          6           0       -4.626414    4.504277   -2.001889
     32          1           0       -3.960731    3.868595   -0.244072
     33          1           0       -3.411545    3.479595   -4.802881
     34          6           0       -4.470203    4.383647   -3.361178
     35          1           0       -1.210963    1.534030   -2.075976
     36          1           0       -5.270946    5.078967   -1.657552
     37          8           0       -5.298787    5.154869   -4.118722
     38          6           0       -5.113964    5.164357   -5.523168
     39          1           0       -5.192960    4.269793   -5.861862
     40          1           0       -5.782070    5.720071   -5.929600
     41          1           0       -4.241961    5.508628   -5.728643
 ---------------------------------------------------------------------
                    Distance matrix (angstroms):
                    1          2          3          4          5
     1  H    0.000000
     2  C    2.029354   0.000000
     3  C    4.441454   2.414691   0.000000
     4  C    4.755734   2.843366   1.399126   0.000000
     5  C    3.949128   2.418092   2.376744   1.400316   0.000000
     6  C    2.593074   1.385470   2.718504   2.401793   1.360425
     7  H    2.393502   2.001290   3.648408   3.230372   1.978748
     8  C    7.110241   5.109129   2.850554   2.454479   3.753246
     9  H    7.035980   5.022111   2.690067   2.648126   3.992780
    10  H    7.954322   5.978663   3.782597   3.222949   4.400616
    11  H    7.206830   5.208087   2.925847   2.758378   4.071853
    12  C    6.800225   5.107429   3.734221   2.441886   2.856043
    13  H    7.731253   5.985380   4.388333   3.219513   3.797994
    14  H    6.670445   5.106292   4.017208   2.684390   2.783775
    15  N    6.096284   4.199384   2.400577   1.356109   2.417447
    16  C    0.929611   1.438458   3.744818   4.281325   3.727421
    17  C    3.281218   1.381806   1.367709   2.411094   2.728553
    18  H    5.240442   3.241396   0.929539   2.024149   3.222928
    19  H    4.526437   3.245541   3.224437   2.027426   0.930311
    20  H    6.679761   5.109127   4.000909   2.683701   2.825315
    21  C    1.926702   2.478800   4.373661   5.207162   4.890532
    22  H    3.550150   1.999935   1.988730   3.239924   3.658344
    23  C    2.547583   3.806052   5.823753   6.608036   6.161477
    24  H    2.737574   2.667354   4.068866   5.103985   5.042505
    25  C    3.990843   5.005456   6.734553   7.692524   7.415042
    26  O    2.457621   4.232472   6.497498   7.071065   6.388350
    27  C    4.955800   6.248683   8.096723   9.002004   8.626357
    28  C    4.778776   5.289582   6.574672   7.710982   7.684918
    29  C    6.284773   7.434733   9.103523  10.108692   9.841001
    30  O    4.928892   6.556052   8.646863   9.388806   8.818805
    31  C    6.123281   6.622308   7.752944   8.950988   9.000958
    32  H    4.558446   4.722338   5.773525   6.969240   7.062588
    33  H    6.969137   8.243065   9.986560  10.958424  10.633622
    34  C    6.765695   7.579780   8.937813  10.071143   9.992540
    35  H    3.276450   5.024789   7.247117   7.866600   7.205111
    36  H    6.731882   6.994148   7.854019   9.123888   9.311323
    37  O    8.117733   8.853611  10.066499  11.255476  11.254996
    38  C    8.999256   9.943660  11.317070  12.457667  12.360283
    39  H    8.920885   9.972478  11.450079  12.544420  12.381359
    40  H    9.891444  10.756371  12.022694  13.203115  13.167147
    41  H    8.936679   9.973107  11.436555  12.542157  12.387027
                    6          7          8          9         10
     6  C    0.000000
     7  H    0.930073   0.000000
     8  C    4.855711   5.674229   0.000000
     9  H    4.950720   5.808839   0.959288   0.000000
    10  H    5.602576   6.366924   0.959952   1.566901   0.000000
    11  H    5.078195   5.920270   0.960309   1.567297   1.567240
    12  C    4.216258   4.732100   2.472171   3.156587   2.469815
    13  H    5.156424   5.690650   2.459464   3.204143   2.089829
    14  H    4.097329   4.504294   3.107027   3.597951   3.099843
    15  N    3.652381   4.389301   1.448841   1.987050   1.987299
    16  C    2.460965   2.604959   6.518737   6.383615   7.402856
    17  C    2.338068   3.180922   4.218183   4.003615   5.148671
    18  H    3.647808   4.577698   2.517205   2.187256   3.463525
    19  H    1.991283   2.260411   4.050234   4.414346   4.532538
    20  H    4.128318   4.552781   3.073559   3.849976   3.147651
    21  C    3.712470   3.929393   7.223336   6.983138   8.150401
    22  H    3.182638   3.960065   4.729251   4.399923   5.677429
    23  C    4.889610   4.899098   8.672548   8.430229   9.596570
    24  H    4.028396   4.427849   6.888145   6.580660   7.833666
    25  C    6.205908   6.302655   9.562476   9.242735  10.506736
    26  O    5.041327   4.814564   9.305081   9.132583  10.196773
    27  C    7.361207   7.340235  10.933952  10.627850  11.875981
    28  C    6.617768   6.895225   9.299919   8.900561  10.249821
    29  C    8.615007   8.652804  11.901757  11.545443  12.851650
    30  O    7.488525   7.298165  11.494164  11.251615  12.416960
    31  C    7.963582   8.254567  10.393253   9.950842  11.338790
    32  H    6.091178   6.475106   8.447179   8.027398   9.394941
    33  H    9.378262   9.357120  12.797122  12.451430  13.746023
    34  C    8.864155   9.041075  11.642520  11.225705  12.592340
    35  H    5.859576   5.625621  10.070867   9.879987  10.971817
    36  H    8.366093   8.741937  10.370022   9.884915  11.303474
    37  O   10.162658  10.372648  12.695557  12.242094  13.639698
    38  C   11.204973  11.329710  13.999055  13.559798  14.946487
    39  H   11.195414  11.272241  14.165339  13.784619  15.120694
    40  H   12.041935  12.200896  14.650376  14.189043  15.593402
    41  H   11.202551  11.284202  14.152660  13.689030  15.093141
                   11         12         13         14         15
    11  H    0.000000
    12  C    3.013898   0.000000
    13  H    3.009245   0.959951   0.000000
    14  H    3.787393   0.959625   1.567342   0.000000
    15  N    1.987202   1.450758   1.988691   1.988617   0.000000
    16  C    6.572738   6.506626   7.401848   6.457990   5.637415
    17  C    4.238633   4.852699   5.606731   5.012512   3.650767
    18  H    2.484384   4.022477   4.508544   4.409873   2.581436
    19  H    4.438879   2.536314   3.491801   2.306218   2.610110
    20  H    3.377122   0.961037   1.568675   1.568260   1.988825
    21  C    7.193030   7.558905   8.409916   7.572862   6.540279
    22  H    4.664304   5.668751   6.367909   5.864247   4.384040
    23  C    8.636097   8.911571   9.786700   8.880165   7.952867
    24  H    6.804619   7.526401   8.319785   7.614884   6.380528
    25  C    9.463203  10.072364  10.907523  10.092425   9.003991
    26  O    9.320778   9.226224  10.144377   9.113446   8.426634
    27  C   10.833539  11.347470  12.204614  11.336931  10.329239
    28  C    9.144866  10.146418  10.912011  10.243481   8.947067
    29  C   11.759935  12.497550  13.325445  12.522187  11.408407
    30  O   11.439007  11.629522  12.529159  11.551731  10.740867
    31  C   10.198206  11.391486  12.125921  11.515231  10.146719
    32  H    8.284784   9.410393  10.143755   9.540573   8.165197
    33  H   12.658935  13.328670  14.170851  13.334274  12.269967
    34  C   11.457608  12.502748  13.274724  12.588812  11.311443
    35  H   10.064735  10.039613  10.955114   9.932559   9.222575
    36  H   10.144188  11.556549  12.240772  11.722964  10.253083
    37  O   12.479700  13.694607  14.436540  13.807002  12.459097
    38  C   13.798948  14.889271  15.660853  14.965990  13.695436
    39  H   13.936156  14.956238  15.748683  15.047084  13.803053
    40  H   14.427538  15.641040  16.389817  15.741022  14.413995
    41  H   14.015782  14.965498  15.754172  14.981095  13.798852
                   16         17         18         19         20
    16  C    0.000000
    17  C    2.483663   0.000000
    18  H    4.476077   1.995591   0.000000
    19  H    4.450908   3.658621   4.008583   0.000000
    20  H    6.453754   5.000221   4.384132   2.385711   0.000000
    21  C    1.325610   3.007239   4.918749   5.679945   7.549108
    22  H    2.645783   0.929869   2.269767   4.588447   5.844989
    23  C    2.436325   4.458284   6.366008   6.880404   8.857623
    24  H    1.951958   2.734546   4.461031   5.903843   7.578235
    25  C    3.752211   5.383111   7.129270   8.188415  10.057780
    26  O    2.796671   5.171172   7.152276   6.983457   9.104561
    27  C    4.906558   6.737152   8.516610   9.351473  11.294515
    28  C    4.292569   5.307054   6.793709   8.534740  10.205340
    29  C    6.154850   7.770208   9.427047  10.602309  12.472599
    30  O    5.130550   7.282172   9.178906   9.449580  11.515761
    31  C    5.652238   6.540710   7.876994   9.863824  11.469363
    32  H    3.923590   4.558880   5.932677   7.943106   9.506768
    33  H    6.920910   8.643706  10.332713  11.368430  13.282297
    34  C    6.452015   7.670831   9.130190  10.817275  12.537010
    35  H    3.586417   5.904374   7.867669   7.801223   9.913151
    36  H    6.168389   6.732024   7.868314  10.202199  11.677133
    37  O    7.774746   8.845896  10.180683  12.097972  13.751550
    38  C    8.767845  10.056375  11.483336  13.171871  14.918135
    39  H    8.749752  10.167037  11.662864  13.168830  14.923659
    40  H    9.622110  10.794443  12.136026  13.995534  15.686449
    41  H    8.758814  10.154130  11.641023  13.178846  15.020677
                   21         22         23         24         25
    21  C    0.000000
    22  H    2.728485   0.000000
    23  C    1.452483   4.149185   0.000000
    24  H    0.930948   2.193804   2.068426   0.000000
    25  C    2.526691   4.860449   1.460426   2.675168   0.000000
    26  O    2.350401   5.047233   1.256637   3.167340   2.349274
    27  C    3.796847   6.248146   2.472331   4.056582   1.396860
    28  C    2.967327   4.595477   2.511385   2.646394   1.386085
    29  C    4.956204   7.176017   3.754727   5.037239   2.430578
    30  O    4.276012   6.940278   2.824648   4.779160   2.394955
    31  C    4.326888   5.765197   3.758683   3.960637   2.402518
    32  H    2.642611   3.785077   2.679746   2.066039   2.009082
    33  H    5.773011   8.075303   4.490228   5.917926   3.268369
    34  C    5.153704   6.956024   4.240778   4.983436   2.780979
    35  H    2.981248   5.709204   1.637735   3.698307   2.198670
    36  H    4.858455   5.889544   4.501999   4.340732   3.237279
    37  O    6.463828   8.078985   5.600278   6.217448   4.139899
    38  C    7.493826   9.331939   6.451875   7.367238   5.027268
    39  H    7.509475   9.483152   6.391144   7.455779   5.018212
    40  H    8.330420  10.034855   7.346075   8.143157   5.904760
    41  H    7.518707   9.460933   6.413391   7.457743   5.039340
                   26         27         28         29         30
    26  O    0.000000
    27  C    2.777062   0.000000
    28  C    3.628140   2.364862   0.000000
    29  C    4.157256   1.380536   2.747573   0.000000
    30  O    2.485826   1.353028   3.621385   2.327419   0.000000
    31  C    4.751392   2.730594   1.359740   2.378777   4.082393
    32  H    3.913957   3.209879   0.930109   3.677539   4.384529
    33  H    4.701448   2.020225   3.678258   0.930691   2.496868
    34  C    4.958998   2.362658   2.366086   1.363933   3.575042
    35  H    0.819880   2.203469   3.576245   3.560425   1.684726
    36  H    5.571967   3.660240   1.995315   3.214753   5.011874
    37  O    6.307771   3.639821   3.572304   2.404112   4.730795
    38  C    6.949650   4.176117   4.749632   2.797422   4.966084
    39  H    6.785774   4.031724   4.915808   2.688782   4.672489
    40  H    7.887713   5.117128   5.501456   3.741486   5.923747
    41  H    6.819458   4.102975   4.898579   2.784154   4.766898
                   31         32         33         34         35
    31  C    0.000000
    32  H    1.984224   0.000000
    33  H    3.220471   4.608217   0.000000
    34  C    1.373543   3.200186   2.004139   0.000000
    35  H    4.526937   4.045650   4.007965   4.516049   0.000000
    36  H    0.929655   2.275871   3.988541   2.006739   5.406025
    37  O    2.314376   4.296255   2.614632   1.362060   5.830401
    38  C    3.615635   5.556780   2.501093   2.387077   6.347898
    39  H    3.908369   5.765320   2.217948   2.605525   6.137884
    40  H    4.270903   6.250637   3.450886   3.178650   7.298518
    41  H    3.878817   5.731432   2.379832   2.631077   6.190827
                   36         37         38         39         40
    36  H    0.000000
    37  O    2.462498   0.000000
    38  C    3.869744   1.416587   0.000000
    39  H    4.282180   1.957829   0.959791   0.000000
    40  H    4.350018   1.957625   0.959359   1.566827   0.000000
    41  H    4.221043   1.958028   0.959756   1.567437   1.567491
                   41
    41  H    0.000000
 Stoichiometry    C18H19NO3
 Framework group  C1[X(C18H19NO3)]
 Deg. of freedom   117
 Full point group                 C1      NOp   1
 Largest Abelian subgroup         C1      NOp   1
 Largest concise Abelian subgroup C1      NOp   1
                         Standard orientation:                         
 ---------------------------------------------------------------------
 Center     Atomic      Atomic             Coordinates (Angstroms)
 Number     Number       Type             X           Y           Z
 ---------------------------------------------------------------------
      1          1           0       -0.910016    2.132841   -0.066027
      2          6           0       -2.330549    0.683623   -0.054592
      3          6           0       -3.898765   -1.152426   -0.035700
      4          6           0       -5.000918   -0.291389    0.002110
      5          6           0       -4.715763    1.079423   -0.019004
      6          6           0       -3.430902    1.525480   -0.049347
      7          1           0       -3.283266    2.443524   -0.070212
      8          6           0       -6.551400   -2.193921    0.031169
      9          1           0       -6.059408   -2.623442   -0.671461
     10          1           0       -7.491266   -2.334475   -0.104489
     11          1           0       -6.291980   -2.566387    0.877434
     12          6           0       -7.404923    0.125141    0.102437
     13          1           0       -8.217359   -0.386174    0.105976
     14          1           0       -7.401369    0.714837   -0.654615
     15          7           0       -6.268471   -0.773004    0.021749
     16          6           0       -0.990647    1.206880   -0.049500
     17          6           0       -2.620133   -0.667489   -0.059442
     18          1           0       -4.038286   -2.071401   -0.043444
     19          1           0       -5.414725    1.693316   -0.010826
     20          1           0       -7.347424    0.641395    0.910996
     21          6           0        0.142628    0.519671   -0.023534
     22          1           0       -1.914134   -1.272322   -0.079430
     23          6           0        1.445152    1.162426   -0.025288
     24          1           0        0.101683   -0.410141   -0.002629
     25          6           0        2.664118    0.358235   -0.009753
     26          8           0        1.531156    2.415955   -0.045447
     27          6           0        3.909728    0.986527    0.060417
     28          6           0        2.674702   -1.027254   -0.048980
     29          6           0        5.091718    0.273399    0.075500
     30          8           0        4.012583    2.335518    0.078570
     31          6           0        3.831783   -1.741295   -0.034730
     32          1           0        1.865040   -1.483525   -0.085935
     33          1           0        5.910738    0.713757    0.113924
     34          6           0        5.038556   -1.088843    0.033277
     35          1           0        2.341161    2.533017    0.003451
     36          1           0        3.807182   -2.669892   -0.071637
     37          8           0        6.140504   -1.889411    0.030114
     38          6           0        7.417590   -1.278188   -0.016529
     39          1           0        7.515997   -0.686174    0.732494
     40          1           0        8.097015   -1.954550    0.019341
     41          1           0        7.503936   -0.779679   -0.832105
 ---------------------------------------------------------------------
 Rotational constants (GHZ):      0.8819077      0.0826134      0.0756376
 Standard basis: 6-311++G(d,p) (5D, 7F)
 There are   617 symmetry adapted basis functions of A   symmetry.
 Integral buffers will be    131072 words long.
 Raffenetti 2 integral format.
 Two-electron integral symmetry is turned on.
   617 basis functions,   963 primitive gaussians,   639 cartesian basis functions
    79 alpha electrons       79 beta electrons
       nuclear repulsion energy      1623.7572065584 Hartrees.
 NAtoms=   41 NActive=   41 NUniq=   41 SFac= 1.00D+00 NAtFMM=   60 NAOKFM=F Big=F
 Nuclear repulsion after empirical dispersion term =     1623.7312218059 Hartrees.
 One-electron integrals computed using PRISM.
 NBasis=   617 RedAO= T  NBF=   617
 NBsUse=   609 1.00D-06 NBFU=   609
 Harris functional with IExCor= 4639 diagonalized for initial guess.
 ExpMin= 3.60D-02 ExpMax= 8.59D+03 ExpMxC= 1.30D+03 IAcc=3 IRadAn=         5 AccDes= 0.00D+00
 HarFok:  IExCor= 4639 AccDes= 0.00D+00 IRadAn=         5 IDoV= 1
 ScaDFX=  1.000000  1.000000  1.000000  1.000000
 FoFCou: FMM=F IPFlag=           0 FMFlag=      100000 FMFlg1=           0
         NFxFlg=           0 DoJE=T BraDBF=F KetDBF=T FulRan=T
         Omega=  0.000000  0.000000  1.000000  0.000000  0.000000 ICntrl=     500 IOpCl=  0
         NMat0=    1 NMatS0=    1 NMatT0=    0 NMatD0=    1 NMtDS0=    0 NMtDT0=    0
         I1Cent=           4 NGrid=           0.
 Petite list used in FoFCou.
 Initial guess orbital symmetries:
       Occupied  (A) (A) (A) (A) (A) (A) (A) (A) (A) (A) (A) (A)
                 (A) (A) (A) (A) (A) (A) (A) (A) (A) (A) (A) (A)
                 (A) (A) (A) (A) (A) (A) (A) (A) (A) (A) (A) (A)
                 (A) (A) (A) (A) (A) (A) (A) (A) (A) (A) (A) (A)
                 (A) (A) (A) (A) (A) (A) (A) (A) (A) (A) (A) (A)
                 (A) (A) (A) (A) (A) (A) (A) (A) (A) (A) (A) (A)
                 (A) (A) (A) (A) (A) (A) (A)
       Virtual   (A) (A) (A) (A) (A) (A) (A) (A) (A) (A) (A) (A)
                 (A) (A) (A) (A) (A) (A) (A) (A) (A) (A) (A) (A)
                 (A) (A) (A) (A) (A) (A) (A) (A) (A) (A) (A) (A)
                 (A) (A) (A) (A) (A) (A) (A) (A) (A) (A) (A) (A)
                 (A) (A) (A) (A) (A) (A) (A) (A) (A) (A) (A) (A)
                 (A) (A) (A) (A) (A) (A) (A) (A) (A) (A) (A) (A)
                 (A) (A) (A) (A) (A) (A) (A) (A) (A) (A) (A) (A)
                 (A) (A) (A) (A) (A) (A) (A) (A) (A) (A) (A) (A)
                 (A) (A) (A) (A) (A) (A) (A) (A) (A) (A) (A) (A)
                 (A) (A) (A) (A) (A) (A) (A) (A) (A) (A) (A) (A)
                 (A) (A) (A) (A) (A) (A) (A) (A) (A) (A) (A) (A)
                 (A) (A) (A) (A) (A) (A) (A) (A) (A) (A) (A) (A)
                 (A) (A) (A) (A) (A) (A) (A) (A) (A) (A) (A) (A)
                 (A) (A) (A) (A) (A) (A) (A) (A) (A) (A) (A) (A)
                 (A) (A) (A) (A) (A) (A) (A) (A) (A) (A) (A) (A)
                 (A) (A) (A) (A) (A) (A) (A) (A) (A) (A) (A) (A)
                 (A) (A) (A) (A) (A) (A) (A) (A) (A) (A) (A) (A)
                 (A) (A) (A) (A) (A) (A) (A) (A) (A) (A) (A) (A)
                 (A) (A) (A) (A) (A) (A) (A) (A) (A) (A) (A) (A)
                 (A) (A) (A) (A) (A) (A) (A) (A) (A) (A) (A) (A)
                 (A) (A) (A) (A) (A) (A) (A) (A) (A) (A) (A) (A)
                 (A) (A) (A) (A) (A) (A) (A) (A) (A) (A) (A) (A)
                 (A) (A) (A) (A) (A) (A) (A) (A) (A) (A) (A) (A)
                 (A) (A) (A) (A) (A) (A) (A) (A) (A) (A) (A) (A)
                 (A) (A) (A) (A) (A) (A) (A) (A) (A) (A) (A) (A)
                 (A) (A) (A) (A) (A) (A) (A) (A) (A) (A) (A) (A)
                 (A) (A) (A) (A) (A) (A) (A) (A) (A) (A) (A) (A)
                 (A) (A) (A) (A) (A) (A) (A) (A) (A) (A) (A) (A)
                 (A) (A) (A) (A) (A) (A) (A) (A) (A) (A) (A) (A)
                 (A) (A) (A) (A) (A) (A) (A) (A) (A) (A) (A) (A)
                 (A) (A) (A) (A) (A) (A) (A) (A) (A) (A) (A) (A)
                 (A) (A) (A) (A) (A) (A) (A) (A) (A) (A) (A) (A)
                 (A) (A) (A) (A) (A) (A) (A) (A) (A) (A) (A) (A)
                 (A) (A) (A) (A) (A) (A) (A) (A) (A) (A) (A) (A)
                 (A) (A) (A) (A) (A) (A) (A) (A) (A) (A) (A) (A)
                 (A) (A) (A) (A) (A) (A) (A) (A) (A) (A) (A) (A)
                 (A) (A) (A) (A) (A) (A) (A) (A) (A) (A) (A) (A)
                 (A) (A) (A) (A) (A) (A) (A) (A) (A) (A) (A) (A)
                 (A) (A) (A) (A) (A) (A) (A) (A) (A) (A) (A) (A)
                 (A) (A) (A) (A) (A) (A) (A) (A) (A) (A) (A) (A)
                 (A) (A) (A) (A) (A) (A) (A) (A) (A) (A) (A) (A)
                 (A) (A) (A) (A) (A) (A) (A) (A) (A) (A) (A) (A)
                 (A) (A) (A) (A) (A) (A) (A) (A) (A) (A) (A) (A)
                 (A) (A) (A) (A) (A) (A) (A) (A) (A) (A) (A) (A)
                 (A) (A)
 The electronic state of the initial guess is 1-A.
 Requested convergence on RMS density matrix=1.00D-08 within 128 cycles.
 Requested convergence on MAX density matrix=1.00D-06.
 Requested convergence on             energy=1.00D-06.
 No special actions if energy rises.
 FoFJK:  IHMeth= 1 ICntrl=     0 DoSepK=T KAlg= 1 I1Cent= 0 FoldK=F
 FoFJK:  IHMeth= 1 ICntrl=     0 DoSepK=T KAlg= 1 I1Cent= 0 FoldK=F
 FoFJK:  IHMeth= 1 ICntrl=     0 DoSepK=T KAlg= 1 I1Cent= 0 FoldK=F
 FoFJK:  IHMeth= 1 ICntrl=     0 DoSepK=T KAlg= 1 I1Cent= 0 FoldK=F
 FoFJK:  IHMeth= 1 ICntrl=     0 DoSepK=T KAlg= 1 I1Cent= 0 FoldK=F
 FoFJK:  IHMeth= 1 ICntrl=     0 DoSepK=T KAlg= 1 I1Cent= 0 FoldK=F
 FoFJK:  IHMeth= 1 ICntrl=     0 DoSepK=T KAlg= 1 I1Cent= 0 FoldK=F
 FoFJK:  IHMeth= 1 ICntrl=     0 DoSepK=T KAlg= 1 I1Cent= 0 FoldK=F
 FoFJK:  IHMeth= 1 ICntrl=     0 DoSepK=T KAlg= 1 I1Cent= 0 FoldK=F
 FoFJK:  IHMeth= 1 ICntrl=     0 DoSepK=T KAlg= 1 I1Cent= 0 FoldK=F
 FoFJK:  IHMeth= 1 ICntrl=     0 DoSepK=T KAlg= 1 I1Cent= 0 FoldK=F
 FoFJK:  IHMeth= 1 ICntrl=     0 DoSepK=T KAlg= 1 I1Cent= 0 FoldK=F
 FoFJK:  IHMeth= 1 ICntrl=     0 DoSepK=T KAlg= 1 I1Cent= 0 FoldK=F
 FoFJK:  IHMeth= 1 ICntrl=     0 DoSepK=T KAlg= 1 I1Cent= 0 FoldK=F
 FoFJK:  IHMeth= 1 ICntrl=     0 DoSepK=T KAlg= 1 I1Cent= 0 FoldK=F
 FoFJK:  IHMeth= 1 ICntrl=     0 DoSepK=T KAlg= 1 I1Cent= 0 FoldK=F
 FoFJK:  IHMeth= 1 ICntrl=     0 DoSepK=T KAlg= 1 I1Cent= 0 FoldK=F
 SCF Done:  E(RwB97XD) =  -977.297922744     A.U. after   17 cycles
             Convg  =    0.6305D-08             -V/T =  1.9981

 **********************************************************************

            Population analysis using the SCF density.

 **********************************************************************

 Orbital symmetries:
       Occupied  (A) (A) (A) (A) (A) (A) (A) (A) (A) (A) (A) (A)
                 (A) (A) (A) (A) (A) (A) (A) (A) (A) (A) (A) (A)
                 (A) (A) (A) (A) (A) (A) (A) (A) (A) (A) (A) (A)
                 (A) (A) (A) (A) (A) (A) (A) (A) (A) (A) (A) (A)
                 (A) (A) (A) (A) (A) (A) (A) (A) (A) (A) (A) (A)
                 (A) (A) (A) (A) (A) (A) (A) (A) (A) (A) (A) (A)
                 (A) (A) (A) (A) (A) (A) (A)
       Virtual   (A) (A) (A) (A) (A) (A) (A) (A) (A) (A) (A) (A)
                 (A) (A) (A) (A) (A) (A) (A) (A) (A) (A) (A) (A)
                 (A) (A) (A) (A) (A) (A) (A) (A) (A) (A) (A) (A)
                 (A) (A) (A) (A) (A) (A) (A) (A) (A) (A) (A) (A)
                 (A) (A) (A) (A) (A) (A) (A) (A) (A) (A) (A) (A)
                 (A) (A) (A) (A) (A) (A) (A) (A) (A) (A) (A) (A)
                 (A) (A) (A) (A) (A) (A) (A) (A) (A) (A) (A) (A)
                 (A) (A) (A) (A) (A) (A) (A) (A) (A) (A) (A) (A)
                 (A) (A) (A) (A) (A) (A) (A) (A) (A) (A) (A) (A)
                 (A) (A) (A) (A) (A) (A) (A) (A) (A) (A) (A) (A)
                 (A) (A) (A) (A) (A) (A) (A) (A) (A) (A) (A) (A)
                 (A) (A) (A) (A) (A) (A) (A) (A) (A) (A) (A) (A)
                 (A) (A) (A) (A) (A) (A) (A) (A) (A) (A) (A) (A)
                 (A) (A) (A) (A) (A) (A) (A) (A) (A) (A) (A) (A)
                 (A) (A) (A) (A) (A) (A) (A) (A) (A) (A) (A) (A)
                 (A) (A) (A) (A) (A) (A) (A) (A) (A) (A) (A) (A)
                 (A) (A) (A) (A) (A) (A) (A) (A) (A) (A) (A) (A)
                 (A) (A) (A) (A) (A) (A) (A) (A) (A) (A) (A) (A)
                 (A) (A) (A) (A) (A) (A) (A) (A) (A) (A) (A) (A)
                 (A) (A) (A) (A) (A) (A) (A) (A) (A) (A) (A) (A)
                 (A) (A) (A) (A) (A) (A) (A) (A) (A) (A) (A) (A)
                 (A) (A) (A) (A) (A) (A) (A) (A) (A) (A) (A) (A)
                 (A) (A) (A) (A) (A) (A) (A) (A) (A) (A) (A) (A)
                 (A) (A) (A) (A) (A) (A) (A) (A) (A) (A) (A) (A)
                 (A) (A) (A) (A) (A) (A) (A) (A) (A) (A) (A) (A)
                 (A) (A) (A) (A) (A) (A) (A) (A) (A) (A) (A) (A)
                 (A) (A) (A) (A) (A) (A) (A) (A) (A) (A) (A) (A)
                 (A) (A) (A) (A) (A) (A) (A) (A) (A) (A) (A) (A)
                 (A) (A) (A) (A) (A) (A) (A) (A) (A) (A) (A) (A)
                 (A) (A) (A) (A) (A) (A) (A) (A) (A) (A) (A) (A)
                 (A) (A) (A) (A) (A) (A) (A) (A) (A) (A) (A) (A)
                 (A) (A) (A) (A) (A) (A) (A) (A) (A) (A) (A) (A)
                 (A) (A) (A) (A) (A) (A) (A) (A) (A) (A) (A) (A)
                 (A) (A) (A) (A) (A) (A) (A) (A) (A) (A) (A) (A)
                 (A) (A) (A) (A) (A) (A) (A) (A) (A) (A) (A) (A)
                 (A) (A) (A) (A) (A) (A) (A) (A) (A) (A) (A) (A)
                 (A) (A) (A) (A) (A) (A) (A) (A) (A) (A) (A) (A)
                 (A) (A) (A) (A) (A) (A) (A) (A) (A) (A) (A) (A)
                 (A) (A) (A) (A) (A) (A) (A) (A) (A) (A) (A) (A)
                 (A) (A) (A) (A) (A) (A) (A) (A) (A) (A) (A) (A)
                 (A) (A) (A) (A) (A) (A) (A) (A) (A) (A) (A) (A)
                 (A) (A) (A) (A) (A) (A) (A) (A) (A) (A) (A) (A)
                 (A) (A) (A) (A) (A) (A) (A) (A) (A) (A) (A) (A)
                 (A) (A) (A) (A) (A) (A) (A) (A) (A) (A) (A) (A)
                 (A) (A)
 The electronic state is 1-A.
 Alpha  occ. eigenvalues --  -19.29485 -19.27357 -19.16801 -14.46891 -10.40055
 Alpha  occ. eigenvalues --  -10.34493 -10.34234 -10.32690 -10.30043 -10.29179
 Alpha  occ. eigenvalues --  -10.29070 -10.28996 -10.28870 -10.28327 -10.28264
 Alpha  occ. eigenvalues --  -10.28222 -10.28176 -10.27641 -10.27504 -10.27361
 Alpha  occ. eigenvalues --  -10.25179 -10.23907  -1.26755  -1.16984  -1.08412
 Alpha  occ. eigenvalues --   -1.04350  -0.98715  -0.96152  -0.93801  -0.89418
 Alpha  occ. eigenvalues --   -0.89336  -0.87325  -0.87102  -0.84585  -0.83494
 Alpha  occ. eigenvalues --   -0.81063  -0.77278  -0.75493  -0.73390  -0.72791
 Alpha  occ. eigenvalues --   -0.71017  -0.68916  -0.66259  -0.64892  -0.62505
 Alpha  occ. eigenvalues --   -0.61737  -0.60511  -0.60251  -0.59783  -0.58756
 Alpha  occ. eigenvalues --   -0.57815  -0.57223  -0.55673  -0.55147  -0.55015
 Alpha  occ. eigenvalues --   -0.54573  -0.53993  -0.53437  -0.52843  -0.51505
 Alpha  occ. eigenvalues --   -0.51290  -0.49999  -0.49152  -0.48483  -0.48146
 Alpha  occ. eigenvalues --   -0.47784  -0.45440  -0.44513  -0.44031  -0.42938
 Alpha  occ. eigenvalues --   -0.42585  -0.40970  -0.38189  -0.36560  -0.35066
 Alpha  occ. eigenvalues --   -0.31280  -0.30317  -0.28203  -0.25825
 Alpha virt. eigenvalues --   -0.03326   0.02593   0.03899   0.03914   0.04307
 Alpha virt. eigenvalues --    0.04897   0.04954   0.05502   0.05754   0.06246
 Alpha virt. eigenvalues --    0.07027   0.07720   0.07774   0.08212   0.08273
 Alpha virt. eigenvalues --    0.08684   0.08812   0.09280   0.10137   0.10390
 Alpha virt. eigenvalues --    0.10741   0.11187   0.11541   0.11811   0.12193
 Alpha virt. eigenvalues --    0.12655   0.13343   0.13686   0.13944   0.14546
 Alpha virt. eigenvalues --    0.14707   0.14766   0.15179   0.15265   0.15814
 Alpha virt. eigenvalues --    0.16058   0.16254   0.16744   0.16830   0.17205
 Alpha virt. eigenvalues --    0.17443   0.17670   0.17893   0.18166   0.18800
 Alpha virt. eigenvalues --    0.18912   0.19394   0.19558   0.19852   0.19972
 Alpha virt. eigenvalues --    0.20301   0.20491   0.20630   0.21122   0.21287
 Alpha virt. eigenvalues --    0.21792   0.22067   0.22148   0.22355   0.22591
 Alpha virt. eigenvalues --    0.23100   0.23441   0.23626   0.23792   0.24489
 Alpha virt. eigenvalues --    0.24552   0.24634   0.25368   0.25709   0.25812
 Alpha virt. eigenvalues --    0.25906   0.26251   0.26421   0.26599   0.26869
 Alpha virt. eigenvalues --    0.27627   0.28027   0.28075   0.28395   0.28971
 Alpha virt. eigenvalues --    0.29238   0.29532   0.29602   0.29928   0.30289
 Alpha virt. eigenvalues --    0.30410   0.30967   0.31570   0.32058   0.32225
 Alpha virt. eigenvalues --    0.32811   0.33066   0.33159   0.33677   0.33988
 Alpha virt. eigenvalues --    0.34040   0.34591   0.35087   0.35644   0.35993
 Alpha virt. eigenvalues --    0.36183   0.36739   0.37219   0.37358   0.37697
 Alpha virt. eigenvalues --    0.37996   0.38556   0.38609   0.39407   0.39661
 Alpha virt. eigenvalues --    0.39977   0.40317   0.40617   0.40920   0.41339
 Alpha virt. eigenvalues --    0.41571   0.41943   0.42238   0.42594   0.43250
 Alpha virt. eigenvalues --    0.43410   0.43570   0.43977   0.44180   0.44671
 Alpha virt. eigenvalues --    0.45055   0.46078   0.46544   0.46763   0.47571
 Alpha virt. eigenvalues --    0.47677   0.48129   0.48540   0.49121   0.50471
 Alpha virt. eigenvalues --    0.51095   0.51708   0.52306   0.53047   0.53905
 Alpha virt. eigenvalues --    0.54252   0.54721   0.55813   0.56366   0.57297
 Alpha virt. eigenvalues --    0.57519   0.58040   0.60542   0.60729   0.61032
 Alpha virt. eigenvalues --    0.62168   0.63140   0.63418   0.63923   0.64552
 Alpha virt. eigenvalues --    0.64978   0.65036   0.65307   0.65715   0.66894
 Alpha virt. eigenvalues --    0.67333   0.67877   0.68203   0.68496   0.68907
 Alpha virt. eigenvalues --    0.69542   0.71016   0.71412   0.71619   0.72306
 Alpha virt. eigenvalues --    0.72864   0.73282   0.73919   0.74779   0.75113
 Alpha virt. eigenvalues --    0.75490   0.75841   0.76047   0.76770   0.77087
 Alpha virt. eigenvalues --    0.77777   0.78229   0.78674   0.79142   0.79469
 Alpha virt. eigenvalues --    0.79613   0.80375   0.80891   0.82063   0.82580
 Alpha virt. eigenvalues --    0.83596   0.83774   0.84345   0.85287   0.85602
 Alpha virt. eigenvalues --    0.86006   0.86249   0.87904   0.88144   0.89528
 Alpha virt. eigenvalues --    0.90590   0.90725   0.92737   0.93695   0.94584
 Alpha virt. eigenvalues --    0.94684   0.95412   0.96135   0.96876   0.97037
 Alpha virt. eigenvalues --    0.97257   0.98137   0.99407   0.99677   1.00596
 Alpha virt. eigenvalues --    1.00715   1.01090   1.01692   1.02580   1.03133
 Alpha virt. eigenvalues --    1.04020   1.04633   1.04957   1.05911   1.06258
 Alpha virt. eigenvalues --    1.06470   1.07322   1.08104   1.08457   1.09071
 Alpha virt. eigenvalues --    1.09429   1.09773   1.10085   1.11097   1.11514
 Alpha virt. eigenvalues --    1.11913   1.13360   1.13916   1.14248   1.14583
 Alpha virt. eigenvalues --    1.16243   1.17137   1.17739   1.17863   1.18777
 Alpha virt. eigenvalues --    1.19174   1.20552   1.20768   1.21870   1.22640
 Alpha virt. eigenvalues --    1.23309   1.24903   1.25266   1.26557   1.27943
 Alpha virt. eigenvalues --    1.28778   1.31576   1.32537   1.34384   1.36161
 Alpha virt. eigenvalues --    1.36891   1.39081   1.40026   1.40567   1.41323
 Alpha virt. eigenvalues --    1.42529   1.43206   1.46207   1.50028   1.50096
 Alpha virt. eigenvalues --    1.51037   1.51332   1.52341   1.54557   1.55249
 Alpha virt. eigenvalues --    1.55778   1.59807   1.60269   1.61144   1.61710
 Alpha virt. eigenvalues --    1.62362   1.62851   1.63786   1.64165   1.64386
 Alpha virt. eigenvalues --    1.65302   1.65670   1.66120   1.66242   1.66783
 Alpha virt. eigenvalues --    1.67539   1.68718   1.69573   1.69978   1.70068
 Alpha virt. eigenvalues --    1.70530   1.72547   1.73278   1.74272   1.75728
 Alpha virt. eigenvalues --    1.75859   1.76946   1.77388   1.78185   1.79686
 Alpha virt. eigenvalues --    1.80520   1.81524   1.82777   1.83578   1.84352
 Alpha virt. eigenvalues --    1.85019   1.85358   1.86012   1.86304   1.87122
 Alpha virt. eigenvalues --    1.87364   1.89359   1.90616   1.91256   1.91839
 Alpha virt. eigenvalues --    1.92666   1.92785   1.94162   1.94757   1.96460
 Alpha virt. eigenvalues --    1.96949   1.97600   1.99325   2.00261   2.01330
 Alpha virt. eigenvalues --    2.01909   2.02643   2.03153   2.03494   2.04599
 Alpha virt. eigenvalues --    2.04928   2.05823   2.09258   2.09590   2.10011
 Alpha virt. eigenvalues --    2.10233   2.11198   2.12694   2.14121   2.15536
 Alpha virt. eigenvalues --    2.16717   2.17720   2.19355   2.19724   2.20741
 Alpha virt. eigenvalues --    2.22229   2.24481   2.25006   2.25589   2.26511
 Alpha virt. eigenvalues --    2.27083   2.28004   2.28975   2.29334   2.30300
 Alpha virt. eigenvalues --    2.32202   2.35342   2.36603   2.38291   2.38525
 Alpha virt. eigenvalues --    2.41038   2.41343   2.44183   2.45065   2.47159
 Alpha virt. eigenvalues --    2.47231   2.47750   2.49117   2.51230   2.52093
 Alpha virt. eigenvalues --    2.52878   2.55060   2.55781   2.57825   2.59713
 Alpha virt. eigenvalues --    2.60407   2.61500   2.64130   2.65046   2.66949
 Alpha virt. eigenvalues --    2.67615   2.68969   2.70122   2.71148   2.72655
 Alpha virt. eigenvalues --    2.74733   2.75955   2.76654   2.78080   2.78871
 Alpha virt. eigenvalues --    2.79966   2.80876   2.81189   2.84683   2.85584
 Alpha virt. eigenvalues --    2.87920   2.88178   2.89445   2.90056   2.90374
 Alpha virt. eigenvalues --    2.90874   2.91560   2.92126   2.93260   2.94157
 Alpha virt. eigenvalues --    2.94825   2.95740   2.97668   2.98499   2.99250
 Alpha virt. eigenvalues --    2.99394   3.01083   3.01776   3.02248   3.02944
 Alpha virt. eigenvalues --    3.03731   3.04850   3.05494   3.06141   3.06698
 Alpha virt. eigenvalues --    3.08718   3.09051   3.09123   3.10707   3.11017
 Alpha virt. eigenvalues --    3.11499   3.13060   3.15148   3.18269   3.19424
 Alpha virt. eigenvalues --    3.19723   3.20664   3.21484   3.21739   3.22690
 Alpha virt. eigenvalues --    3.26759   3.27222   3.28791   3.32086   3.33458
 Alpha virt. eigenvalues --    3.34347   3.35102   3.35479   3.38225   3.38818
 Alpha virt. eigenvalues --    3.39911   3.40063   3.41292   3.44771   3.47012
 Alpha virt. eigenvalues --    3.52148   3.53810   3.55297   3.57156   3.61193
 Alpha virt. eigenvalues --    3.63712   3.68590   3.72138   3.76910   3.77211
 Alpha virt. eigenvalues --    3.80914   3.83465   3.84504   3.85061   3.87404
 Alpha virt. eigenvalues --    3.91477   3.94495   3.96030   4.00694   4.02574
 Alpha virt. eigenvalues --    4.15313   4.22152   4.22924   4.23085   4.23751
 Alpha virt. eigenvalues --    4.24534   4.25734   4.27657   4.28357   4.30118
 Alpha virt. eigenvalues --    4.35042   4.40424   4.44231   4.46413   4.47235
 Alpha virt. eigenvalues --    4.53863   4.61163   4.61952   4.71094   4.82662
 Alpha virt. eigenvalues --    4.97670   5.00514   5.11161   5.11216   5.16708
 Alpha virt. eigenvalues --    5.24393   5.26475   5.44695   5.55015   5.78522
 Alpha virt. eigenvalues --    5.90354   5.95745   6.29510  23.84191  23.94946
 Alpha virt. eigenvalues --   24.01711  24.14216  24.14648  24.18029  24.19506
 Alpha virt. eigenvalues --   24.26164  24.29117  24.31028  24.38569  24.42484
 Alpha virt. eigenvalues --   24.43236  24.43950  24.45964  24.51145  24.51959
 Alpha virt. eigenvalues --   24.52709  35.76199  50.12237  50.18300  50.26354
          Condensed to atoms (all electrons):
              1          2          3          4          5          6
     1  H    0.530797  -0.182772   0.007407   0.001966   0.057010   0.036538
     2  C   -0.182772  10.739977  -0.888171  -1.782328  -2.494438  -0.332626
     3  C    0.007407  -0.888171   8.768874   0.627741  -1.614980  -1.538031
     4  C    0.001966  -1.782328   0.627741  11.488324  -0.101836  -1.493149
     5  C    0.057010  -2.494438  -1.614980  -0.101836  10.304840   0.668188
     6  C    0.036538  -0.332626  -1.538031  -1.493149   0.668188  10.198523
     7  H   -0.017420   0.047892  -0.015993   0.022558  -0.107763   0.382276
     8  C    0.000258  -0.014498   0.076376  -0.079199  -0.158132  -0.043168
     9  H    0.000052  -0.014634   0.023082   0.061354  -0.018381  -0.001263
    10  H   -0.000032   0.005786   0.020273  -0.030391   0.005273   0.009373
    11  H    0.000081  -0.006980   0.007223   0.002416  -0.001570  -0.000048
    12  C   -0.001172  -0.144711  -0.151708  -0.064205   0.211823  -0.072456
    13  H    0.000024  -0.007003   0.015629  -0.014617   0.027833  -0.017159
    14  H   -0.000186   0.010991  -0.008860   0.011142   0.006055  -0.001675
    15  N   -0.000623  -0.027645  -0.332555   0.307274  -0.214175   0.052695
    16  C    0.390577   0.103273  -0.185771  -0.521317   0.272817  -0.951305
    17  C    0.014881   0.717279   1.813305  -1.196818  -2.046304  -0.933712
    18  H    0.001763   0.164393   0.396664  -0.358846  -0.013551  -0.081417
    19  H    0.003494  -0.082564   0.012932  -0.087341   0.568722  -0.065930
    20  H   -0.000159   0.007095  -0.007604  -0.021503   0.017694   0.005607
    21  C    0.080262  -0.857642  -0.660270  -0.348621   0.731959   0.067059
    22  H   -0.003377  -0.141046   0.071646   0.258039  -0.036551   0.089311
    23  C   -0.045588   0.574139  -0.049330  -0.100014   0.137977   0.093282
    24  H    0.003126   0.042839  -0.158914  -0.083108   0.047929   0.016223
    25  C   -0.094775   0.022424   0.223791   0.072368  -0.090367  -0.076541
    26  O   -0.017207   0.044854   0.002587  -0.000729  -0.002922  -0.025048
    27  C    0.018215   0.054415   0.059861   0.029814  -0.045816  -0.082481
    28  C    0.001387  -0.194226  -0.165789  -0.056663   0.101391   0.209361
    29  C    0.011015  -0.041891   0.005516   0.002765  -0.004338  -0.009844
    30  O   -0.001236   0.000430   0.000078  -0.000042  -0.000059  -0.000732
    31  C   -0.007781  -0.031660  -0.045837  -0.011654   0.011407   0.039519
    32  H    0.004972  -0.029128   0.006028   0.003797   0.000476   0.006667
    33  H   -0.000188  -0.000905   0.000292   0.000079  -0.000135  -0.000236
    34  C    0.002416  -0.003608  -0.010846  -0.001839   0.002758   0.012057
    35  H   -0.003376  -0.004220   0.000617  -0.000543  -0.000064   0.004536
    36  H   -0.000637   0.001233   0.000438   0.000036  -0.000087  -0.000706
    37  O    0.000011  -0.000004   0.000002   0.000000   0.000000  -0.000004
    38  C    0.000028  -0.000371  -0.000025  -0.000002   0.000005   0.000062
    39  H    0.000004   0.000026  -0.000008  -0.000001   0.000002   0.000010
    40  H    0.000000  -0.000029  -0.000002   0.000000   0.000000   0.000003
    41  H    0.000006   0.000062   0.000000   0.000000   0.000001  -0.000002
              7          8          9         10         11         12
     1  H   -0.017420   0.000258   0.000052  -0.000032   0.000081  -0.001172
     2  C    0.047892  -0.014498  -0.014634   0.005786  -0.006980  -0.144711
     3  C   -0.015993   0.076376   0.023082   0.020273   0.007223  -0.151708
     4  C    0.022558  -0.079199   0.061354  -0.030391   0.002416  -0.064205
     5  C   -0.107763  -0.158132  -0.018381   0.005273  -0.001570   0.211823
     6  C    0.382276  -0.043168  -0.001263   0.009373  -0.000048  -0.072456
     7  H    0.526173  -0.000120  -0.000224  -0.000111  -0.000324   0.004565
     8  C   -0.000120   4.961192   0.412824   0.425417   0.453619  -0.090894
     9  H   -0.000224   0.412824   0.583475  -0.034730  -0.050758   0.007032
    10  H   -0.000111   0.425417  -0.034730   0.523730  -0.019154  -0.017542
    11  H   -0.000324   0.453619  -0.050758  -0.019154   0.521045  -0.001665
    12  C    0.004565  -0.090894   0.007032  -0.017542  -0.001665   4.996348
    13  H   -0.000349  -0.012150   0.002514   0.006888  -0.005120   0.419448
    14  H    0.001615   0.006712  -0.007008   0.001643   0.002418   0.421420
    15  N   -0.001588   0.315549  -0.052239  -0.036056  -0.059333   0.332290
    16  C    0.021805  -0.003368  -0.002059  -0.000908  -0.000673   0.014509
    17  C   -0.015379  -0.010203  -0.027989   0.003991  -0.004529  -0.067405
    18  H    0.001304   0.019402  -0.020493   0.008927  -0.018399  -0.008190
    19  H   -0.028767  -0.004115  -0.000141   0.001560   0.000361   0.019076
    20  H    0.001515  -0.004854   0.001986  -0.002128  -0.000436   0.455285
    21  C   -0.005411   0.005292  -0.001014   0.000387  -0.001322  -0.003522
    22  H   -0.004873   0.001801   0.003753  -0.000197   0.003009   0.002120
    23  C    0.002430   0.000991  -0.000293   0.000114  -0.000303   0.001369
    24  H   -0.001213   0.000144  -0.000523   0.000076  -0.000480  -0.000312
    25  C    0.005855   0.000070   0.000133   0.000020   0.000072  -0.000248
    26  O    0.001249   0.000005  -0.000001   0.000000  -0.000001   0.000000
    27  C    0.002651  -0.000166   0.000047  -0.000012   0.000048   0.000018
    28  C   -0.003301  -0.000161  -0.000091  -0.000016  -0.000060   0.000095
    29  C    0.000227  -0.000014   0.000006  -0.000001   0.000005  -0.000001
    30  O    0.000041   0.000000   0.000000   0.000000   0.000000   0.000000
    31  C   -0.000026  -0.000010  -0.000024   0.000000  -0.000014   0.000003
    32  H    0.000460  -0.000070   0.000055  -0.000015   0.000041   0.000020
    33  H    0.000041   0.000000   0.000000   0.000000   0.000000   0.000000
    34  C   -0.000340  -0.000002  -0.000003   0.000000  -0.000002   0.000002
    35  H    0.000162   0.000000   0.000000   0.000001  -0.000002  -0.000008
    36  H   -0.000001   0.000005  -0.000002   0.000001  -0.000002   0.000000
    37  O    0.000000   0.000000   0.000000   0.000000   0.000000   0.000000
    38  C   -0.000001   0.000000   0.000000   0.000000   0.000000   0.000000
    39  H    0.000000   0.000000   0.000000   0.000000   0.000000   0.000000
    40  H    0.000000   0.000000   0.000000   0.000000   0.000000   0.000000
    41  H    0.000000   0.000000   0.000000   0.000000   0.000000   0.000000
             13         14         15         16         17         18
     1  H    0.000024  -0.000186  -0.000623   0.390577   0.014881   0.001763
     2  C   -0.007003   0.010991  -0.027645   0.103273   0.717279   0.164393
     3  C    0.015629  -0.008860  -0.332555  -0.185771   1.813305   0.396664
     4  C   -0.014617   0.011142   0.307274  -0.521317  -1.196818  -0.358846
     5  C    0.027833   0.006055  -0.214175   0.272817  -2.046304  -0.013551
     6  C   -0.017159  -0.001675   0.052695  -0.951305  -0.933712  -0.081417
     7  H   -0.000349   0.001615  -0.001588   0.021805  -0.015379   0.001304
     8  C   -0.012150   0.006712   0.315549  -0.003368  -0.010203   0.019402
     9  H    0.002514  -0.007008  -0.052239  -0.002059  -0.027989  -0.020493
    10  H    0.006888   0.001643  -0.036056  -0.000908   0.003991   0.008927
    11  H   -0.005120   0.002418  -0.059333  -0.000673  -0.004529  -0.018399
    12  C    0.419448   0.421420   0.332290   0.014509  -0.067405  -0.008190
    13  H    0.513868  -0.026101  -0.033535   0.002623   0.004258   0.003174
    14  H   -0.026101   0.564262  -0.056895  -0.003016  -0.001645  -0.000208
    15  N   -0.033535  -0.056895   7.104702  -0.001392  -0.043210  -0.034995
    16  C    0.002623  -0.003016  -0.001392   7.057390   0.153814   0.049814
    17  C    0.004258  -0.001645  -0.043210   0.153814  10.040317   0.076831
    18  H    0.003174  -0.000208  -0.034995   0.049814   0.076831   0.602645
    19  H    0.010202  -0.015452  -0.034295   0.004704  -0.019132  -0.002694
    20  H   -0.017379  -0.058414  -0.052704  -0.000559  -0.005995   0.000602
    21  C    0.000255   0.000450   0.002028   0.944645  -1.176050   0.053142
    22  H   -0.000684  -0.000002  -0.003163  -0.087158   0.436462  -0.074377
    23  C    0.000043  -0.000155   0.000787  -1.482145  -1.179421   0.011011
    24  H    0.000032   0.000013  -0.000256   0.014654  -0.213987   0.018574
    25  C   -0.000046   0.000070  -0.000204  -0.409288   0.220898  -0.011272
    26  O    0.000000  -0.000002   0.000000   0.125204   0.023693  -0.000028
    27  C   -0.000002   0.000006  -0.000061   0.750716   0.504288  -0.005419
    28  C    0.000025  -0.000015   0.000207  -0.621080  -0.499483   0.008135
    29  C    0.000000   0.000001  -0.000003   0.335165   0.094546  -0.000728
    30  O    0.000000   0.000000   0.000000   0.031498   0.000192   0.000004
    31  C    0.000002   0.000001   0.000044  -0.157021  -0.114300   0.002120
    32  H    0.000003  -0.000001  -0.000003   0.014663   0.029987  -0.001157
    33  H    0.000000   0.000000   0.000000   0.010952   0.002628  -0.000022
    34  C    0.000000   0.000000   0.000003  -0.037252  -0.030399   0.000481
    35  H   -0.000001   0.000002   0.000005  -0.012983  -0.003643  -0.000031
    36  H    0.000000   0.000000   0.000000  -0.004756  -0.002153   0.000049
    37  O    0.000000   0.000000   0.000000   0.000034  -0.000021   0.000000
    38  C    0.000000   0.000000   0.000000   0.001334  -0.000033   0.000001
    39  H    0.000000   0.000000   0.000000  -0.000297  -0.000064   0.000000
    40  H    0.000000   0.000000   0.000000   0.000067   0.000000   0.000000
    41  H    0.000000   0.000000   0.000000  -0.000287  -0.000024   0.000000
             19         20         21         22         23         24
     1  H    0.003494  -0.000159   0.080262  -0.003377  -0.045588   0.003126
     2  C   -0.082564   0.007095  -0.857642  -0.141046   0.574139   0.042839
     3  C    0.012932  -0.007604  -0.660270   0.071646  -0.049330  -0.158914
     4  C   -0.087341  -0.021503  -0.348621   0.258039  -0.100014  -0.083108
     5  C    0.568722   0.017694   0.731959  -0.036551   0.137977   0.047929
     6  C   -0.065930   0.005607   0.067059   0.089311   0.093282   0.016223
     7  H   -0.028767   0.001515  -0.005411  -0.004873   0.002430  -0.001213
     8  C   -0.004115  -0.004854   0.005292   0.001801   0.000991   0.000144
     9  H   -0.000141   0.001986  -0.001014   0.003753  -0.000293  -0.000523
    10  H    0.001560  -0.002128   0.000387  -0.000197   0.000114   0.000076
    11  H    0.000361  -0.000436  -0.001322   0.003009  -0.000303  -0.000480
    12  C    0.019076   0.455285  -0.003522   0.002120   0.001369  -0.000312
    13  H    0.010202  -0.017379   0.000255  -0.000684   0.000043   0.000032
    14  H   -0.015452  -0.058414   0.000450  -0.000002  -0.000155   0.000013
    15  N   -0.034295  -0.052704   0.002028  -0.003163   0.000787  -0.000256
    16  C    0.004704  -0.000559   0.944645  -0.087158  -1.482145   0.014654
    17  C   -0.019132  -0.005995  -1.176050   0.436462  -1.179421  -0.213987
    18  H   -0.002694   0.000602   0.053142  -0.074377   0.011011   0.018574
    19  H    0.552076  -0.016457  -0.003024   0.003386   0.004872  -0.000403
    20  H   -0.016457   0.537771  -0.000464  -0.000410  -0.000152   0.000023
    21  C   -0.003024  -0.000464   9.215262  -0.177550  -0.507968   0.701732
    22  H    0.003386  -0.000410  -0.177550   0.644522  -0.071943  -0.069240
    23  C    0.004872  -0.000152  -0.507968  -0.071943  10.613487   0.196072
    24  H   -0.000403   0.000023   0.701732  -0.069240   0.196072   0.767385
    25  C   -0.000531   0.000046  -2.101679   0.048972   2.296706  -0.100051
    26  O    0.000043   0.000000  -0.543914   0.003860   0.355730  -0.012400
    27  C   -0.000396   0.000015   1.149332   0.058712  -4.169753  -0.202012
    28  C    0.000497  -0.000042  -0.404501  -0.058907   0.660235   0.192264
    29  C   -0.000071   0.000001   0.783958   0.010034  -1.090080  -0.073801
    30  O    0.000000   0.000000   0.007526   0.000004  -0.127274   0.000355
    31  C   -0.000020  -0.000003  -1.007153  -0.017458  -0.553815   0.039607
    32  H   -0.000074  -0.000001   0.066486   0.004061  -0.042849  -0.064321
    33  H   -0.000002   0.000000   0.015269   0.000345  -0.056542  -0.004520
    34  C    0.000016  -0.000001  -0.132020  -0.008364   0.370593   0.051366
    35  H    0.000016   0.000000   0.009510  -0.000122  -0.004762   0.005867
    36  H    0.000002   0.000000  -0.020125  -0.000258  -0.013286   0.010071
    37  O    0.000000   0.000000  -0.003395  -0.000004   0.004047  -0.000002
    38  C    0.000000   0.000000  -0.010781  -0.000061   0.033087   0.001292
    39  H    0.000000   0.000000  -0.000741  -0.000008   0.003365   0.000138
    40  H    0.000000   0.000000  -0.000904  -0.000005   0.001626   0.000093
    41  H    0.000000   0.000000   0.000815  -0.000001  -0.000716  -0.000013
             25         26         27         28         29         30
     1  H   -0.094775  -0.017207   0.018215   0.001387   0.011015  -0.001236
     2  C    0.022424   0.044854   0.054415  -0.194226  -0.041891   0.000430
     3  C    0.223791   0.002587   0.059861  -0.165789   0.005516   0.000078
     4  C    0.072368  -0.000729   0.029814  -0.056663   0.002765  -0.000042
     5  C   -0.090367  -0.002922  -0.045816   0.101391  -0.004338  -0.000059
     6  C   -0.076541  -0.025048  -0.082481   0.209361  -0.009844  -0.000732
     7  H    0.005855   0.001249   0.002651  -0.003301   0.000227   0.000041
     8  C    0.000070   0.000005  -0.000166  -0.000161  -0.000014   0.000000
     9  H    0.000133  -0.000001   0.000047  -0.000091   0.000006   0.000000
    10  H    0.000020   0.000000  -0.000012  -0.000016  -0.000001   0.000000
    11  H    0.000072  -0.000001   0.000048  -0.000060   0.000005   0.000000
    12  C   -0.000248   0.000000   0.000018   0.000095  -0.000001   0.000000
    13  H   -0.000046   0.000000  -0.000002   0.000025   0.000000   0.000000
    14  H    0.000070  -0.000002   0.000006  -0.000015   0.000001   0.000000
    15  N   -0.000204   0.000000  -0.000061   0.000207  -0.000003   0.000000
    16  C   -0.409288   0.125204   0.750716  -0.621080   0.335165   0.031498
    17  C    0.220898   0.023693   0.504288  -0.499483   0.094546   0.000192
    18  H   -0.011272  -0.000028  -0.005419   0.008135  -0.000728   0.000004
    19  H   -0.000531   0.000043  -0.000396   0.000497  -0.000071   0.000000
    20  H    0.000046   0.000000   0.000015  -0.000042   0.000001   0.000000
    21  C   -2.101679  -0.543914   1.149332  -0.404501   0.783958   0.007526
    22  H    0.048972   0.003860   0.058712  -0.058907   0.010034   0.000004
    23  C    2.296706   0.355730  -4.169753   0.660235  -1.090080  -0.127274
    24  H   -0.100051  -0.012400  -0.202012   0.192264  -0.073801   0.000355
    25  C   18.278758   0.178583  -4.629617   0.295507  -6.616874  -0.074095
    26  O    0.178583   8.061322  -0.229810  -0.039809  -0.000707   0.021088
    27  C   -4.629617  -0.229810  13.121358  -0.953858   3.077992   0.700867
    28  C    0.295507  -0.039809  -0.953858   7.988947  -0.650159  -0.072515
    29  C   -6.616874  -0.000707   3.077992  -0.650159  15.631226  -0.346090
    30  O   -0.074095   0.021088   0.700867  -0.072515  -0.346090   8.267253
    31  C   -2.284044   0.018121  -0.423701   1.770457  -3.169205  -0.031000
    32  H   -0.039812  -0.004172   0.113822   0.381474   0.222874  -0.000884
    33  H   -0.336124  -0.002044   0.091767   0.049698   1.094263  -0.039121
    34  C   -0.130254   0.007386  -2.461409  -1.343788  -2.720785   0.027697
    35  H   -0.138419   0.178596   0.116639   0.035838  -0.007624   0.097936
    36  H    0.015275   0.001003  -0.030630   0.048436  -0.220556   0.000274
    37  O    0.036671  -0.000080   0.056045  -0.148011   0.278655  -0.000356
    38  C   -0.091459   0.000980  -0.140749  -0.043063  -0.467051   0.004869
    39  H    0.014705  -0.000124   0.013784  -0.024682  -0.012372   0.000931
    40  H   -0.005920   0.000087  -0.011207  -0.003676  -0.074873   0.000349
    41  H    0.023206  -0.000116  -0.002838   0.001317  -0.004677   0.000022
             31         32         33         34         35         36
     1  H   -0.007781   0.004972  -0.000188   0.002416  -0.003376  -0.000637
     2  C   -0.031660  -0.029128  -0.000905  -0.003608  -0.004220   0.001233
     3  C   -0.045837   0.006028   0.000292  -0.010846   0.000617   0.000438
     4  C   -0.011654   0.003797   0.000079  -0.001839  -0.000543   0.000036
     5  C    0.011407   0.000476  -0.000135   0.002758  -0.000064  -0.000087
     6  C    0.039519   0.006667  -0.000236   0.012057   0.004536  -0.000706
     7  H   -0.000026   0.000460   0.000041  -0.000340   0.000162  -0.000001
     8  C   -0.000010  -0.000070   0.000000  -0.000002   0.000000   0.000005
     9  H   -0.000024   0.000055   0.000000  -0.000003   0.000000  -0.000002
    10  H    0.000000  -0.000015   0.000000   0.000000   0.000001   0.000001
    11  H   -0.000014   0.000041   0.000000  -0.000002  -0.000002  -0.000002
    12  C    0.000003   0.000020   0.000000   0.000002  -0.000008   0.000000
    13  H    0.000002   0.000003   0.000000   0.000000  -0.000001   0.000000
    14  H    0.000001  -0.000001   0.000000   0.000000   0.000002   0.000000
    15  N    0.000044  -0.000003   0.000000   0.000003   0.000005   0.000000
    16  C   -0.157021   0.014663   0.010952  -0.037252  -0.012983  -0.004756
    17  C   -0.114300   0.029987   0.002628  -0.030399  -0.003643  -0.002153
    18  H    0.002120  -0.001157  -0.000022   0.000481  -0.000031   0.000049
    19  H   -0.000020  -0.000074  -0.000002   0.000016   0.000016   0.000002
    20  H   -0.000003  -0.000001   0.000000  -0.000001   0.000000   0.000000
    21  C   -1.007153   0.066486   0.015269  -0.132020   0.009510  -0.020125
[...]
    17  C    0.004230  -0.004462  -0.033490  -0.157534   9.430704   0.076543
    18  H    0.002057  -0.000276  -0.034726   0.040912   0.076543   0.552923
    19  H    0.004677  -0.004932  -0.032776   0.003853  -0.018528   0.002046
    20  H   -0.019767  -0.061741  -0.058263  -0.001271  -0.005553  -0.000902
    21  C    0.000097  -0.000012  -0.001283   0.714207  -0.868326   0.024066
    22  H   -0.000375  -0.000145  -0.000583  -0.084563   0.398945  -0.048347
    23  C   -0.000021  -0.000019   0.000434  -1.063174  -0.488788  -0.002849
    24  H    0.000038   0.000050  -0.000855   0.003925  -0.111534   0.013388
    25  C   -0.000039   0.000054  -0.000141   0.147444   0.477805  -0.010554
    26  O    0.000000  -0.000001   0.000000   0.106643   0.021766   0.000022
    27  C   -0.000001   0.000007  -0.000026   0.389371   0.368426  -0.003016
    28  C    0.000014  -0.000027   0.000074  -0.694822  -0.359848   0.003855
    29  C    0.000000   0.000000  -0.000001   0.187657   0.043778  -0.000197
    30  O    0.000000   0.000000   0.000000   0.032882  -0.000348   0.000002
    31  C    0.000001  -0.000002   0.000015  -0.151291  -0.031731  -0.000073
    32  H    0.000000   0.000001   0.000030  -0.014251  -0.001614  -0.000240
    33  H    0.000000   0.000000   0.000000   0.002780   0.000773  -0.000004
    34  C    0.000000   0.000000   0.000001  -0.011113  -0.010482   0.000161
    35  H    0.000000   0.000000   0.000001  -0.005198  -0.002145  -0.000017
    36  H    0.000000   0.000000  -0.000001   0.000859   0.000765  -0.000061
    37  O    0.000000   0.000000   0.000000   0.000116  -0.000011   0.000000
    38  C    0.000000   0.000000   0.000000   0.001132  -0.000013   0.000000
    39  H    0.000000   0.000000   0.000000  -0.000084  -0.000011   0.000000
    40  H    0.000000   0.000000   0.000000   0.000048  -0.000002   0.000000
    41  H    0.000000   0.000000   0.000000  -0.000103  -0.000010   0.000000
             19         20         21         22         23         24
     1  H    0.001853  -0.000055   0.009070  -0.000030   0.036939   0.004179
     2  C   -0.007011   0.002104  -1.293284  -0.173737   0.477260   0.051838
     3  C   -0.025133  -0.001381  -0.587721   0.100859   0.052653  -0.129228
     4  C   -0.152483  -0.005142  -0.035066   0.201002   0.023548  -0.047626
     5  C    0.491358   0.010180   0.545414  -0.045333  -0.004242   0.046689
     6  C    0.066504  -0.009022  -0.033369   0.031117   0.129154   0.039352
     7  H   -0.015309   0.000662   0.015837  -0.001993  -0.003420   0.001104
     8  C   -0.002897  -0.005726   0.003954   0.005809   0.000097  -0.001212
     9  H   -0.001021   0.001486   0.000539   0.002536   0.000005  -0.000361
    10  H    0.001963  -0.004480   0.000047   0.000016   0.000028  -0.000051
    11  H   -0.000642   0.002401  -0.000185   0.002244   0.000012  -0.000293
    12  C    0.010292   0.436017  -0.005070  -0.000018   0.000959   0.000027
    13  H    0.004677  -0.019767   0.000097  -0.000375  -0.000021   0.000038
    14  H   -0.004932  -0.061741  -0.000012  -0.000145  -0.000019   0.000050
    15  N   -0.032776  -0.058263  -0.001283  -0.000583   0.000434  -0.000855
    16  C    0.003853  -0.001271   0.714207  -0.084563  -1.063174   0.003925
    17  C   -0.018528  -0.005553  -0.868326   0.398945  -0.488788  -0.111534
    18  H    0.002046  -0.000902   0.024066  -0.048347  -0.002849   0.013388
    19  H    0.520616  -0.012747  -0.016540   0.000302   0.002378  -0.000124
    20  H   -0.012747   0.552224   0.000538   0.000048   0.000009  -0.000053
    21  C   -0.016540   0.000538  10.106210  -0.136514  -0.035204   0.712298
    22  H    0.000302   0.000048  -0.136514   0.596119  -0.013150  -0.055298
    23  C    0.002378   0.000009  -0.035204  -0.013150   9.762190   0.057137
    24  H   -0.000124  -0.000053   0.712298  -0.055298   0.057137   0.851470
    25  C   -0.000809   0.000053  -1.535599   0.067447   0.117611  -0.181458
    26  O    0.000094  -0.000001  -0.363606   0.002410   0.685740  -0.009536
    27  C   -0.000408   0.000007  -0.384737   0.036231  -3.580830  -0.101137
    28  C   -0.000152   0.000007  -0.124874  -0.042522   0.891169   0.101437
    29  C   -0.000061   0.000000   0.235067   0.001856  -0.190199  -0.013860
    30  O    0.000001   0.000000  -0.032769   0.000004  -0.048327   0.001392
    31  C   -0.000069   0.000003  -0.986189   0.001616  -1.062902  -0.047619
    32  H   -0.000049   0.000002   0.012918  -0.003121  -0.000881  -0.035178
    33  H   -0.000001   0.000000  -0.002326   0.000068  -0.030748  -0.001520
    34  C   -0.000005   0.000000   0.002136  -0.003678   0.293577   0.026973
    35  H    0.000001   0.000001   0.010251   0.000070   0.024172   0.000671
    36  H    0.000001   0.000000  -0.010428   0.000565  -0.021191   0.003558
    37  O    0.000000   0.000000  -0.002531   0.000008   0.005912  -0.000129
    38  C    0.000000   0.000000  -0.003671  -0.000015   0.036738   0.000647
    39  H    0.000000   0.000000   0.000472  -0.000003   0.001010   0.000055
    40  H    0.000000   0.000000  -0.000084  -0.000002   0.001630   0.000037
    41  H    0.000000   0.000000  -0.000503   0.000001   0.001545  -0.000037
             25         26         27         28         29         30
     1  H   -0.038251   0.006692  -0.015839   0.009298  -0.000538  -0.001955
     2  C    0.002167   0.069200  -0.057443  -0.143745  -0.060610  -0.000161
     3  C    0.244940   0.002109   0.055355  -0.116662   0.000072   0.000063
     4  C    0.079078  -0.000898   0.021509  -0.030396   0.001042  -0.000053
     5  C   -0.136588  -0.006462  -0.030267   0.067266  -0.001541  -0.000214
     6  C   -0.168598  -0.032689  -0.065689   0.162331  -0.003757  -0.000974
     7  H    0.002115  -0.000238   0.003253  -0.000742   0.000434   0.000036
     8  C    0.000529   0.000006  -0.000059  -0.000373  -0.000004   0.000000
     9  H    0.000073   0.000000   0.000024   0.000045   0.000002   0.000000
    10  H    0.000035   0.000000  -0.000003  -0.000024   0.000000   0.000000
    11  H    0.000074  -0.000001   0.000023  -0.000019   0.000002   0.000000
    12  C   -0.000376   0.000000   0.000009   0.000050  -0.000001   0.000000
    13  H   -0.000039   0.000000  -0.000001   0.000014   0.000000   0.000000
    14  H    0.000054  -0.000001   0.000007  -0.000027   0.000000   0.000000
    15  N   -0.000141   0.000000  -0.000026   0.000074  -0.000001   0.000000
    16  C    0.147444   0.106643   0.389371  -0.694822   0.187657   0.032882
    17  C    0.477805   0.021766   0.368426  -0.359848   0.043778  -0.000348
    18  H   -0.010554   0.000022  -0.003016   0.003855  -0.000197   0.000002
    19  H   -0.000809   0.000094  -0.000408  -0.000152  -0.000061   0.000001
    20  H    0.000053  -0.000001   0.000007   0.000007   0.000000   0.000000
    21  C   -1.535599  -0.363606  -0.384737  -0.124874   0.235067  -0.032769
    22  H    0.067447   0.002410   0.036231  -0.042522   0.001856   0.000004
    23  C    0.117611   0.685740  -3.580830   0.891169  -0.190199  -0.048327
    24  H   -0.181458  -0.009536  -0.101137   0.101437  -0.013860   0.001392
    25  C   14.310408  -0.123433  -1.302451   0.157414  -3.871815   0.070081
    26  O   -0.123433   8.110085  -0.162253  -0.101457   0.060673   0.012428
    27  C   -1.302451  -0.162253  11.632183  -1.156709   2.148778   0.252653
    28  C    0.157414  -0.101457  -1.156709   8.566582  -0.963111  -0.041375
    29  C   -3.871815   0.060673   2.148778  -0.963111  12.722121  -0.286417
    30  O    0.070081   0.012428   0.252653  -0.041375  -0.286417   8.085664
    31  C   -2.606138  -0.028299   0.371130   1.416898  -2.732341  -0.008607
    32  H   -0.045872   0.001494   0.036211   0.443160   0.098543  -0.003474
    33  H   -0.138364   0.000421   0.062599   0.023020   0.735787  -0.038250
    34  C   -0.585506   0.001590  -2.414473  -1.374783  -1.815402   0.050164
    35  H   -0.179761   0.078041   0.035662   0.020000   0.063262   0.245533
    36  H    0.002935   0.000001  -0.000291   0.013338  -0.121677   0.000539
    37  O    0.030861  -0.000046   0.059203  -0.131809   0.263669  -0.000764
    38  C   -0.085726   0.000266  -0.179246  -0.016902  -0.399914   0.006336
    39  H    0.010639  -0.000023   0.000746  -0.006722   0.000138   0.000268
    40  H   -0.002396   0.000017  -0.014217   0.003884  -0.029229   0.000386
    41  H    0.004664  -0.000052   0.011272  -0.013214   0.019078   0.000182
             31         32         33         34         35         36
     1  H   -0.002809   0.002010  -0.000169   0.001364   0.000263  -0.000193
     2  C   -0.058640  -0.010091  -0.000950  -0.011569  -0.002905  -0.000761
     3  C   -0.011953  -0.001070   0.000062  -0.007022   0.000153   0.001401
     4  C   -0.003154  -0.000226   0.000019  -0.000946  -0.000066   0.000283
     5  C    0.004281   0.000398  -0.000033   0.001631  -0.000196  -0.000173
     6  C    0.022969   0.002130  -0.000060   0.007975   0.001950  -0.000536
     7  H    0.000202   0.000164   0.000019  -0.000099   0.000036   0.000003
     8  C   -0.000062   0.000063   0.000000  -0.000007  -0.000001   0.000002
     9  H    0.000026   0.000003   0.000000   0.000003   0.000000   0.000000
    10  H   -0.000003   0.000002   0.000000   0.000000   0.000000   0.000000
    11  H    0.000000   0.000017   0.000000  -0.000001   0.000000   0.000000
    12  C   -0.000002   0.000007   0.000000   0.000001  -0.000001   0.000000
    13  H    0.000001   0.000000   0.000000   0.000000   0.000000   0.000000
    14  H   -0.000002   0.000001   0.000000   0.000000   0.000000   0.000000
    15  N    0.000015   0.000030   0.000000   0.000001   0.000001  -0.000001
    16  C   -0.151291  -0.014251   0.002780  -0.011113  -0.005198   0.000859
    17  C   -0.031731  -0.001614   0.000773  -0.010482  -0.002145   0.000765
    18  H   -0.000073  -0.000240  -0.000004   0.000161  -0.000017  -0.000061
    19  H   -0.000069  -0.000049  -0.000001  -0.000005   0.000001   0.000001
    20  H    0.000003   0.000002   0.000000   0.000000   0.000001   0.000000
    21  C   -0.986189   0.012918  -0.002326   0.002136   0.010251  -0.010428
    22  H    0.001616  -0.003121   0.000068  -0.003678   0.000070   0.000565
    23  C   -1.062902  -0.000881  -0.030748   0.293577   0.024172  -0.021191
    24  H   -0.047619  -0.035178  -0.001520   0.026973   0.000671   0.003558
    25  C   -2.606138  -0.045872  -0.138364  -0.585506  -0.179761   0.002935
    26  O   -0.028299   0.001494   0.000421   0.001590   0.078041   0.000001
    27  C    0.371130   0.036211   0.062599  -2.414473   0.035662  -0.000291
    28  C    1.416898   0.443160   0.023020  -1.374783   0.020000   0.013338
    29  C   -2.732341   0.098543   0.735787  -1.815402   0.063262  -0.121677
    30  O   -0.008607  -0.003474  -0.038250   0.050164   0.245533   0.000539
    31  C   11.590168  -0.152939  -0.034594   1.224703   0.025216   0.540764
    32  H   -0.152939   0.597994   0.005019  -0.051163   0.000608  -0.030710
    33  H   -0.034594   0.005019   0.507415  -0.271288   0.002283  -0.002052
    34  C    1.224703  -0.051163  -0.271288  10.971505   0.002067  -0.077049
    35  H    0.025216   0.000608   0.002283   0.002067   0.299620   0.000724
    36  H    0.540764  -0.030710  -0.002052  -0.077049   0.000724   0.485966
    37  O   -0.557998  -0.000457  -0.015295   0.256245  -0.000440  -0.023360
    38  C    0.134625  -0.003890  -0.023854   0.235017   0.000500   0.005162
    39  H   -0.007286  -0.000135  -0.008752  -0.018557  -0.000077  -0.000575
    40  H    0.018105  -0.000295  -0.001745   0.060355   0.000099   0.001147
    41  H   -0.016511   0.000010  -0.007586  -0.031892  -0.000065  -0.000655
             37         38         39         40         41
     1  H    0.000013   0.000011   0.000004   0.000000   0.000005
     2  C    0.000013  -0.000306   0.000036  -0.000014   0.000002
     3  C    0.000004  -0.000013  -0.000001  -0.000001  -0.000001
     4  C    0.000000   0.000000   0.000000   0.000000   0.000000
     5  C    0.000000   0.000003   0.000000   0.000000   0.000001
     6  C   -0.000006   0.000032  -0.000001   0.000001   0.000006
     7  H    0.000000   0.000000   0.000000   0.000000   0.000000
     8  C    0.000000   0.000000   0.000000   0.000000   0.000000
     9  H    0.000000   0.000000   0.000000   0.000000   0.000000
    10  H    0.000000   0.000000   0.000000   0.000000   0.000000
    11  H    0.000000   0.000000   0.000000   0.000000   0.000000
    12  C    0.000000   0.000000   0.000000   0.000000   0.000000
    13  H    0.000000   0.000000   0.000000   0.000000   0.000000
    14  H    0.000000   0.000000   0.000000   0.000000   0.000000
    15  N    0.000000   0.000000   0.000000   0.000000   0.000000
    16  C    0.000116   0.001132  -0.000084   0.000048  -0.000103
    17  C   -0.000011  -0.000013  -0.000011  -0.000002  -0.000010
    18  H    0.000000   0.000000   0.000000   0.000000   0.000000
    19  H    0.000000   0.000000   0.000000   0.000000   0.000000
    20  H    0.000000   0.000000   0.000000   0.000000   0.000000
    21  C   -0.002531  -0.003671   0.000472  -0.000084  -0.000503
    22  H    0.000008  -0.000015  -0.000003  -0.000002   0.000001
    23  C    0.005912   0.036738   0.001010   0.001630   0.001545
    24  H   -0.000129   0.000647   0.000055   0.000037  -0.000037
    25  C    0.030861  -0.085726   0.010639  -0.002396   0.004664
    26  O   -0.000046   0.000266  -0.000023   0.000017  -0.000052
    27  C    0.059203  -0.179246   0.000746  -0.014217   0.011272
    28  C   -0.131809  -0.016902  -0.006722   0.003884  -0.013214
    29  C    0.263669  -0.399914   0.000138  -0.029229   0.019078
    30  O   -0.000764   0.006336   0.000268   0.000386   0.000182
    31  C   -0.557998   0.134625  -0.007286   0.018105  -0.016511
    32  H   -0.000457  -0.003890  -0.000135  -0.000295   0.000010
    33  H   -0.015295  -0.023854  -0.008752  -0.001745  -0.007586
    34  C    0.256245   0.235017  -0.018557   0.060355  -0.031892
    35  H   -0.000440   0.000500  -0.000077   0.000099  -0.000065
    36  H   -0.023360   0.005162  -0.000575   0.001147  -0.000655
    37  O    8.181563   0.198874  -0.033260  -0.068605  -0.034354
    38  C    0.198874   5.261754   0.405966   0.393880   0.413577
    39  H   -0.033260   0.405966   0.568914  -0.019216  -0.062128
    40  H   -0.068605   0.393880  -0.019216   0.454807  -0.018686
    41  H   -0.034354   0.413577  -0.062128  -0.018686   0.565748
 Mulliken atomic charges:
              1
     1  H    0.230013
     2  C    0.831613
     3  C   -0.430874
     4  C   -0.407616
     5  C   -0.263868
     6  C   -0.267874
     7  H    0.209973
     8  C   -0.395990
     9  H    0.164477
    10  H    0.152436
    11  H    0.180414
    12  C   -0.391519
    13  H    0.153292
    14  H    0.166947
    15  N    0.052152
    16  C    0.171645
    17  C   -0.479160
    18  H    0.216951
    19  H    0.185759
    20  H    0.180362
    21  C    0.066769
    22  H    0.160153
    23  C   -0.055963
    24  H   -0.179156
    25  C    1.287445
    26  O   -0.330703
    27  C   -0.015554
    28  C   -0.559554
    29  C   -0.091287
    30  O   -0.294924
    31  C   -0.849506
    32  H    0.154870
    33  H    0.237325
    34  C   -0.450433
    35  H    0.379688
    36  H    0.231700
    37  O   -0.127418
    38  C   -0.380969
    39  H    0.168583
    40  H    0.220096
    41  H    0.169706
 Sum of Mulliken atomic charges =   0.00000
 Mulliken charges with hydrogens summed into heavy atoms:
              1
     2  C    0.831613
     3  C   -0.213923
     4  C   -0.407616
     5  C   -0.078109
     6  C   -0.057901
     8  C    0.101337
    12  C    0.109082
    15  N    0.052152
    16  C    0.401657
    17  C   -0.319007
    21  C   -0.112387
    23  C   -0.055963
    25  C    1.287445
    26  O   -0.330703
    27  C   -0.015554
    28  C   -0.404684
    29  C    0.146038
    30  O    0.084764
    31  C   -0.617806
    34  C   -0.450433
    37  O   -0.127418
    38  C    0.177416
 Sum of Mulliken charges with hydrogens summed into heavy atoms =   0.00000
 Electronic spatial extent (au):  <R**2>=          13723.4767
 Charge=              0.0000 electrons
 Dipole moment (field-independent basis, Debye):
    X=             -4.6980    Y=             -3.3962    Z=              0.1527  Tot=              5.7991
 Quadrupole moment (field-independent basis, Debye-Ang):
   XX=            -72.0001   YY=           -130.6377   ZZ=           -136.6804
   XY=             -1.8389   XZ=             -1.3393   YZ=              0.9977
 Traceless Quadrupole moment (field-independent basis, Debye-Ang):
   XX=             41.1060   YY=            -17.5316   ZZ=            -23.5744
   XY=             -1.8389   XZ=             -1.3393   YZ=              0.9977
 Octapole moment (field-independent basis, Debye-Ang**2):
  XXX=            -79.4992  YYY=            -17.0527  ZZZ=             -0.5266  XYY=            -56.9809
  XXY=            -56.0110  XXZ=              3.1271  XZZ=             15.6672  YZZ=              3.1130
  YYZ=              0.7596  XYZ=             -1.6933
 Hexadecapole moment (field-independent basis, Debye-Ang**3):
 XXXX=         -12083.8022 YYYY=          -1555.2676 ZZZZ=           -177.0144 XXXY=             62.6158
 XXXZ=            -69.8550 YYYX=             -7.5436 YYYZ=              3.9895 ZZZX=             -5.4752
 ZZZY=             -0.6918 XXYY=          -3006.7824 XXZZ=          -2929.3239 YYZZ=           -301.6461
 XXYZ=             22.7597 YYXZ=              6.8818 ZZXY=             14.2863
 N-N= 1.596596052545D+03 E-N=-5.471738601972D+03  KE= 9.738087779111D+02
 1\1\GINC-NXN32\FOpt\RwB97XD\6-311++G(d,p)\C18H19N1O3\ROOT\22-Nov-2015\
 0\\#wb97xd 6-311++g** opt\\title\\0,1\H,-0.7693061162,0.8434840661,1.0
 914303865\C,-1.5459901372,1.4594720008,3.0161813914\C,-2.4118162012,2.
 1803978682,5.1690908694\C,-1.5524044219,1.296308219,5.858706894\C,-0.6
 986205061,0.4886596474,5.0820977408\C,-0.7027427203,0.5797993471,3.702
 7761039\H,-0.030799848,-0.0570864887,3.1358516905\C,-2.5276358264,1.97
 84073284,7.9919516175\H,-2.4342276498,3.054216599,7.8109468726\H,-2.36
 01692595,1.8091530994,9.0545082332\H,-3.5563585381,1.6763000645,7.7550
 962905\C,-0.7463150645,0.2287781933,7.8994033465\H,-0.8622124151,0.336
 5022638,8.9767009093\H,0.3165007304,0.3526004042,7.6672999058\N,-1.548
 9254597,1.2309438248,7.2308602179\C,-1.4953061246,1.5029016933,1.56275
 2098\C,-2.3998943386,2.2544653932,3.7917547579\H,-3.0939109444,2.81750
 08132,5.715485319\H,-0.0260315019,-0.2145261595,5.5536108994\H,-1.0428
 350176,-0.7917562763,7.6230675443\C,-2.2348776593,2.2568115089,0.73367
 36228\H,-3.0770110481,2.9519498815,3.3109278817\C,-2.0277770467,2.1714
 918538,-0.7217436626\H,-2.9799461618,2.9390512345,1.119676734\C,-2.888
 7187002,2.9337821374,-1.6388379119\O,-1.1182988191,1.4604085501,-1.174
 0882799\C,-2.6195153339,2.9033034715,-3.0283925074\C,-3.988800995,3.70
 41647535,-1.2121940718\C,-3.4096329257,3.6292514248,-3.9271344525\O,-1
 .616987515,2.1969560642,-3.5452659264\C,-4.7743051854,4.4109058715,-2.
 0864056893\H,-4.2402608585,3.741375684,-0.1602415725\H,-3.1502165805,3
 .5702166506,-4.9749627446\C,-4.4777368579,4.3760307791,-3.4602361927\H
 ,-1.1824275402,1.7349758314,-2.78785665\H,-5.620210511,4.9952565007,-1
 .7484336003\O,-5.2955024221,5.1009833228,-4.2495575806\C,-5.0485289018
 ,5.1182631333,-5.6414764063\H,-5.1216448339,4.113619328,-6.0707372329\
 H,-5.8190710737,5.7532181719,-6.0745097919\H,-4.0627000115,5.540170607
 4,-5.8632970798\\Version=EM64L-G09RevC.01\State=1-A\HF=-977.6944838\RM
 SD=3.294e-09\RMSF=8.274e-06\Dipole=-0.6039497,0.2529187,2.1855539\Quad
 rupole=-13.2086948,-11.1620876,24.3707823,-5.3655506,9.3731404,-12.075
 1132\PG=C01 [X(C18H19N1O3)]\\@


 Luck is a matter of preparation meeting opportunity.
                                    -- Oprah Winfrey
 Job cpu time:  2 days  3 hours 49 minutes 47.4 seconds.
 File lengths (MBytes):  RWF=    231 Int=      0 D2E=      0 Chk=     26 Scr=      1
 Normal termination of Gaussian 09 at Sun Nov 22 04:26:38 2015.
