 Entering Gaussian System, Link 0=g09
 Input=mMeOK_optS1.com
 Output=mMeOK_optS1.out
 Initial command:
 /share/apps/gaussian/g09_D01/g09/l1.exe "/tmp/3644839.1.smserial.q/Gau-41487.inp" -scrdir="/tmp/3644839.1.smserial.q/"
 Entering Link 1 = /share/apps/gaussian/g09_D01/g09/l1.exe PID=     41488.
  
 Copyright (c) 1988,1990,1992,1993,1995,1998,2003,2009,2013,
            Gaussian, Inc.  All Rights Reserved.
  
 This is part of the Gaussian(R) 09 program.  It is based on
 the Gaussian(R) 03 system (copyright 2003, Gaussian, Inc.),
 the Gaussian(R) 98 system (copyright 1998, Gaussian, Inc.),
 the Gaussian(R) 94 system (copyright 1995, Gaussian, Inc.),
 the Gaussian 92(TM) system (copyright 1992, Gaussian, Inc.),
 the Gaussian 90(TM) system (copyright 1990, Gaussian, Inc.),
 the Gaussian 88(TM) system (copyright 1988, Gaussian, Inc.),
 the Gaussian 86(TM) system (copyright 1986, Carnegie Mellon
 University), and the Gaussian 82(TM) system (copyright 1983,
 Carnegie Mellon University). Gaussian is a federally registered
 trademark of Gaussian, Inc.
  
 This software contains proprietary and confidential information,
 including trade secrets, belonging to Gaussian, Inc.
  
 This software is provided under written license and may be
 used, copied, transmitted, or stored only in accord with that
 written license.
  
 The following legend is applicable only to US Government
 contracts under FAR:
  
                    RESTRICTED RIGHTS LEGEND
  
 Use, reproduction and disclosure by the US Government is
 subject to restrictions as set forth in subparagraphs (a)
 and (c) of the Commercial Computer Software - Restricted
 Rights clause in FAR 52.227-19.
  
 Gaussian, Inc.
 340 Quinnipiac St., Bldg. 40, Wallingford CT 06492
  
  
 ---------------------------------------------------------------
 Warning -- This program may not be used in any manner that
 competes with the business of Gaussian, Inc. or will provide
 assistance to any competitor of Gaussian, Inc.  The licensee
 of this program is prohibited from giving any competitor of
 Gaussian, Inc. access to this program.  By using this program,
 the user acknowledges that Gaussian, Inc. is engaged in the
 business of creating and licensing software in the field of
 computational chemistry and represents and warrants to the
 licensee that it is not a competitor of Gaussian, Inc. and that
 it will not use this program in any manner prohibited above.
 ---------------------------------------------------------------
  

 Cite this work as:
 Gaussian 09, Revision D.01,
 M. J. Frisch, G. W. Trucks, H. B. Schlegel, G. E. Scuseria, 
 M. A. Robb, J. R. Cheeseman, G. Scalmani, V. Barone, B. Mennucci, 
 G. A. Petersson, H. Nakatsuji, M. Caricato, X. Li, H. P. Hratchian, 
 A. F. Izmaylov, J. Bloino, G. Zheng, J. L. Sonnenberg, M. Hada, 
 M. Ehara, K. Toyota, R. Fukuda, J. Hasegawa, M. Ishida, T. Nakajima, 
 Y. Honda, O. Kitao, H. Nakai, T. Vreven, J. A. Montgomery, Jr., 
 J. E. Peralta, F. Ogliaro, M. Bearpark, J. J. Heyd, E. Brothers, 
 K. N. Kudin, V. N. Staroverov, T. Keith, R. Kobayashi, J. Normand, 
 K. Raghavachari, A. Rendell, J. C. Burant, S. S. Iyengar, J. Tomasi, 
 M. Cossi, N. Rega, J. M. Millam, M. Klene, J. E. Knox, J. B. Cross, 
 V. Bakken, C. Adamo, J. Jaramillo, R. Gomperts, R. E. Stratmann, 
 O. Yazyev, A. J. Austin, R. Cammi, C. Pomelli, J. W. Ochterski, 
 R. L. Martin, K. Morokuma, V. G. Zakrzewski, G. A. Voth, 
 P. Salvador, J. J. Dannenberg, S. Dapprich, A. D. Daniels, 
 O. Farkas, J. B. Foresman, J. V. Ortiz, J. Cioslowski, 
 and D. J. Fox, Gaussian, Inc., Wallingford CT, 2013.
 
 ******************************************
 Gaussian 09:  ES64L-G09RevD.01 24-Apr-2013
                22-Feb-2016 
 ******************************************
 %chk=mMeOK_optS1
 %mem=2GB
 %nproc=4
 Will use up to    4 processors via shared memory.
 -----------------------------------------------------------------
 #wb97xd 6-311++g** opt td(nstates=1,root=1) scf(maxcycle=500,xqc)
 -----------------------------------------------------------------
 1/14=-1,18=20,19=15,26=3,38=1/1,3;
 2/9=110,12=2,17=6,18=5,40=1/2;
 3/5=4,6=6,7=1111,11=9,16=1,25=1,30=1,71=1,74=-58/1,2,8,3;
 4//1;
 5/5=2,7=500,8=3,13=1,38=5/2,8;
 8/6=1,10=2,107=1,108=1/1;
 9/8=1,15=2,41=1,42=1,70=2/14;
 10/5=4/2;
 6/7=2,8=2,9=2,10=2/1;
 7/12=6,13=5,14=1/1,2,3,16;
 1/14=-1,18=20,19=15,26=3/3(2);
 2/9=110/2;
 99//99;
 2/9=110/2;
 3/5=4,6=6,7=1111,11=9,16=1,25=1,30=1,71=1,74=-58/1,2,8,3;
 4/5=5,16=3,69=1/1;
 5/5=2,7=500,8=3,13=1,38=5/2,8;
 8/6=1,10=2,107=1,108=1/1;
 9/8=1,15=2,41=1,42=1,49=4,70=2/14;
 10/5=4/2;
 7/12=6,13=5,14=1/1,2,3,16;
 1/14=-1,18=20,19=15,26=3/3(-8);
 2/9=110/2;
 6/7=2,8=2,9=2,10=2/1;
 99//99;
 -----
 title
 -----
 Symbolic Z-matrix:
 Charge =  0 Multiplicity = 1
 H                    -0.0223    1.50972   1.18852 
 C                    -1.27074   1.64714   2.94631 
 C                    -2.67716   1.83086   4.9356 
 C                    -1.73653   1.14183   5.72814 
 C                    -0.55524   0.71252   5.09128 
 C                    -0.33955   0.96322   3.74733 
 H                     0.58334   0.61167   3.29227 
 C                    -3.20534   1.32375   7.67434 
 H                    -3.32429   2.41605   7.63951 
 H                    -3.21883   1.01822   8.72173 
 H                    -4.07922   0.87283   7.18309 
 C                    -0.96942   0.21164   7.85631 
 H                    -1.30855   0.14584   8.89149 
 H                    -0.00904   0.74613   7.8521 
 N                    -1.96728   0.89556   7.06811 
 C                    -0.98412   1.86642   1.54636 
 C                    -2.44465   2.0728    3.59272 
 H                    -3.60382   2.18639   5.371 
 H                     0.20361   0.17252   5.64533 
 H                    -0.7886   -0.81131   7.49588 
 C                    -1.81335   2.48146   0.62679 
 H                    -3.20599   2.61019   3.03536 
 C                    -1.51053   2.67799  -0.7029 
 H                    -2.78835   2.84523   0.93963 
 C                    -2.42925   3.34934  -1.66088 
 O                    -0.27693   2.34146  -1.18681 
 C                    -3.28358   2.52518  -2.49444 
 C                    -2.46333   4.73008  -1.80981 
 C                    -4.19227   3.17265  -3.41715 
 O                    -3.19692   1.27834  -2.43619 
 C                    -3.34094   5.32424  -2.70068 
 H                    -1.8142    5.35117  -1.20233 
 H                    -4.82841   2.52391  -4.00627 
 C                    -4.21708   4.53725  -3.50913 
 H                    -0.3899    1.97273  -2.0715 
 H                    -3.39705   6.40221  -2.80331 
 O                    -5.01346   5.26171  -4.3222 
 C                    -5.91305   4.55211  -5.14951 
 H                    -6.62218   3.96772  -4.55103 
 H                    -6.45154   5.30645  -5.72245 
 H                    -5.37712   3.88353  -5.83413 
 

 GradGradGradGradGradGradGradGradGradGradGradGradGradGradGradGradGradGrad
 Berny optimization.
 Initialization pass.
                           ----------------------------
                           !    Initial Parameters    !
                           ! (Angstroms and Degrees)  !
 --------------------------                            --------------------------
 ! Name  Definition              Value          Derivative Info.                !
 --------------------------------------------------------------------------------
 ! R1    R(1,16)                 1.0865         estimate D2E/DX2                !
 ! R2    R(2,6)                  1.4059         estimate D2E/DX2                !
 ! R3    R(2,16)                 1.4457         estimate D2E/DX2                !
 ! R4    R(2,17)                 1.4061         estimate D2E/DX2                !
 ! R5    R(3,4)                  1.4098         estimate D2E/DX2                !
 ! R6    R(3,17)                 1.3842         estimate D2E/DX2                !
 ! R7    R(3,18)                 1.0838         estimate D2E/DX2                !
 ! R8    R(4,5)                  1.409          estimate D2E/DX2                !
 ! R9    R(4,15)                 1.3818         estimate D2E/DX2                !
 ! R10   R(5,6)                  1.384          estimate D2E/DX2                !
 ! R11   R(5,19)                 1.0837         estimate D2E/DX2                !
 ! R12   R(6,7)                  1.0874         estimate D2E/DX2                !
 ! R13   R(8,9)                  1.0993         estimate D2E/DX2                !
 ! R14   R(8,10)                 1.0911         estimate D2E/DX2                !
 ! R15   R(8,11)                 1.0992         estimate D2E/DX2                !
 ! R16   R(8,15)                 1.4435         estimate D2E/DX2                !
 ! R17   R(12,13)                1.0913         estimate D2E/DX2                !
 ! R18   R(12,14)                1.0991         estimate D2E/DX2                !
 ! R19   R(12,15)                1.4439         estimate D2E/DX2                !
 ! R20   R(12,20)                1.0996         estimate D2E/DX2                !
 ! R21   R(16,21)                1.3826         estimate D2E/DX2                !
 ! R22   R(17,22)                1.0858         estimate D2E/DX2                !
 ! R23   R(21,23)                1.3778         estimate D2E/DX2                !
 ! R24   R(21,24)                1.0867         estimate D2E/DX2                !
 ! R25   R(23,25)                1.4875         estimate D2E/DX2                !
 ! R26   R(23,26)                1.3672         estimate D2E/DX2                !
 ! R27   R(25,27)                1.4505         estimate D2E/DX2                !
 ! R28   R(25,28)                1.3892         estimate D2E/DX2                !
 ! R29   R(26,35)                0.9651         estimate D2E/DX2                !
 ! R30   R(27,29)                1.4479         estimate D2E/DX2                !
 ! R31   R(27,30)                1.2512         estimate D2E/DX2                !
 ! R32   R(28,31)                1.3845         estimate D2E/DX2                !
 ! R33   R(28,32)                1.0845         estimate D2E/DX2                !
 ! R34   R(29,33)                1.0829         estimate D2E/DX2                !
 ! R35   R(29,34)                1.3679         estimate D2E/DX2                !
 ! R36   R(31,34)                1.4285         estimate D2E/DX2                !
 ! R37   R(31,36)                1.0843         estimate D2E/DX2                !
 ! R38   R(34,37)                1.3491         estimate D2E/DX2                !
 ! R39   R(37,38)                1.4132         estimate D2E/DX2                !
 ! R40   R(38,39)                1.0966         estimate D2E/DX2                !
 ! R41   R(38,40)                1.0896         estimate D2E/DX2                !
 ! R42   R(38,41)                1.0968         estimate D2E/DX2                !
 ! A1    A(6,2,16)             119.6166         estimate D2E/DX2                !
 ! A2    A(6,2,17)             115.9969         estimate D2E/DX2                !
 ! A3    A(16,2,17)            124.3862         estimate D2E/DX2                !
 ! A4    A(4,3,17)             121.2471         estimate D2E/DX2                !
 ! A5    A(4,3,18)             120.3266         estimate D2E/DX2                !
 ! A6    A(17,3,18)            118.4262         estimate D2E/DX2                !
 ! A7    A(3,4,5)              117.0123         estimate D2E/DX2                !
 ! A8    A(3,4,15)             121.3862         estimate D2E/DX2                !
 ! A9    A(5,4,15)             121.6011         estimate D2E/DX2                !
 ! A10   A(4,5,6)              120.9545         estimate D2E/DX2                !
 ! A11   A(4,5,19)             120.5173         estimate D2E/DX2                !
 ! A12   A(6,5,19)             118.5275         estimate D2E/DX2                !
 ! A13   A(2,6,5)              122.5579         estimate D2E/DX2                !
 ! A14   A(2,6,7)              118.7507         estimate D2E/DX2                !
 ! A15   A(5,6,7)              118.6901         estimate D2E/DX2                !
 ! A16   A(9,8,10)             107.8964         estimate D2E/DX2                !
 ! A17   A(9,8,11)             107.9032         estimate D2E/DX2                !
 ! A18   A(9,8,15)             111.978          estimate D2E/DX2                !
 ! A19   A(10,8,11)            107.7157         estimate D2E/DX2                !
 ! A20   A(10,8,15)            109.3106         estimate D2E/DX2                !
 ! A21   A(11,8,15)            111.8686         estimate D2E/DX2                !
 ! A22   A(13,12,14)           107.7274         estimate D2E/DX2                !
 ! A23   A(13,12,15)           109.3674         estimate D2E/DX2                !
 ! A24   A(13,12,20)           107.815          estimate D2E/DX2                !
 ! A25   A(14,12,15)           111.8043         estimate D2E/DX2                !
 ! A26   A(14,12,20)           107.9065         estimate D2E/DX2                !
 ! A27   A(15,12,20)           112.0481         estimate D2E/DX2                !
 ! A28   A(4,15,8)             119.8426         estimate D2E/DX2                !
 ! A29   A(4,15,12)            119.8924         estimate D2E/DX2                !
 ! A30   A(8,15,12)            120.265          estimate D2E/DX2                !
 ! A31   A(1,16,2)             116.4013         estimate D2E/DX2                !
 ! A32   A(1,16,21)            117.255          estimate D2E/DX2                !
 ! A33   A(2,16,21)            126.3436         estimate D2E/DX2                !
 ! A34   A(2,17,3)             122.2308         estimate D2E/DX2                !
 ! A35   A(2,17,22)            119.948          estimate D2E/DX2                !
 ! A36   A(3,17,22)            117.8212         estimate D2E/DX2                !
 ! A37   A(16,21,23)           124.9958         estimate D2E/DX2                !
 ! A38   A(16,21,24)           119.7083         estimate D2E/DX2                !
 ! A39   A(23,21,24)           115.2949         estimate D2E/DX2                !
 ! A40   A(21,23,25)           123.3793         estimate D2E/DX2                !
 ! A41   A(21,23,26)           120.3169         estimate D2E/DX2                !
 ! A42   A(25,23,26)           116.1318         estimate D2E/DX2                !
 ! A43   A(23,25,27)           118.5194         estimate D2E/DX2                !
 ! A44   A(23,25,28)           122.1949         estimate D2E/DX2                !
 ! A45   A(27,25,28)           119.2545         estimate D2E/DX2                !
 ! A46   A(23,26,35)           108.2338         estimate D2E/DX2                !
 ! A47   A(25,27,29)           118.8027         estimate D2E/DX2                !
 ! A48   A(25,27,30)           119.9115         estimate D2E/DX2                !
 ! A49   A(29,27,30)           121.2495         estimate D2E/DX2                !
 ! A50   A(25,28,31)           120.7354         estimate D2E/DX2                !
 ! A51   A(25,28,32)           119.6357         estimate D2E/DX2                !
 ! A52   A(31,28,32)           119.6083         estimate D2E/DX2                !
 ! A53   A(27,29,33)           116.5832         estimate D2E/DX2                !
 ! A54   A(27,29,34)           120.0223         estimate D2E/DX2                !
 ! A55   A(33,29,34)           123.3944         estimate D2E/DX2                !
 ! A56   A(28,31,34)           121.0987         estimate D2E/DX2                !
 ! A57   A(28,31,36)           121.3558         estimate D2E/DX2                !
 ! A58   A(34,31,36)           117.5422         estimate D2E/DX2                !
 ! A59   A(29,34,31)           120.0271         estimate D2E/DX2                !
 ! A60   A(29,34,37)           125.9378         estimate D2E/DX2                !
 ! A61   A(31,34,37)           114.0347         estimate D2E/DX2                !
 ! A62   A(34,37,38)           117.3179         estimate D2E/DX2                !
 ! A63   A(37,38,39)           111.0829         estimate D2E/DX2                !
 ! A64   A(37,38,40)           105.9489         estimate D2E/DX2                !
 ! A65   A(37,38,41)           111.1279         estimate D2E/DX2                !
 ! A66   A(39,38,40)           109.6533         estimate D2E/DX2                !
 ! A67   A(39,38,41)           109.3773         estimate D2E/DX2                !
 ! A68   A(40,38,41)           109.59           estimate D2E/DX2                !
 ! D1    D(16,2,6,5)          -179.5793         estimate D2E/DX2                !
 ! D2    D(16,2,6,7)             0.0128         estimate D2E/DX2                !
 ! D3    D(17,2,6,5)             0.2558         estimate D2E/DX2                !
 ! D4    D(17,2,6,7)           179.8478         estimate D2E/DX2                !
 ! D5    D(6,2,16,1)            -2.0606         estimate D2E/DX2                !
 ! D6    D(6,2,16,21)          177.8639         estimate D2E/DX2                !
 ! D7    D(17,2,16,1)          178.1191         estimate D2E/DX2                !
 ! D8    D(17,2,16,21)          -1.9565         estimate D2E/DX2                !
 ! D9    D(6,2,17,3)            -0.2575         estimate D2E/DX2                !
 ! D10   D(6,2,17,22)          179.7926         estimate D2E/DX2                !
 ! D11   D(16,2,17,3)          179.5687         estimate D2E/DX2                !
 ! D12   D(16,2,17,22)          -0.3812         estimate D2E/DX2                !
 ! D13   D(17,3,4,5)            -0.0508         estimate D2E/DX2                !
 ! D14   D(17,3,4,15)         -179.8223         estimate D2E/DX2                !
 ! D15   D(18,3,4,5)          -179.9144         estimate D2E/DX2                !
 ! D16   D(18,3,4,15)            0.314          estimate D2E/DX2                !
 ! D17   D(4,3,17,2)             0.1642         estimate D2E/DX2                !
 ! D18   D(4,3,17,22)         -179.8848         estimate D2E/DX2                !
 ! D19   D(18,3,17,2)         -179.9696         estimate D2E/DX2                !
 ! D20   D(18,3,17,22)          -0.0187         estimate D2E/DX2                !
 ! D21   D(3,4,5,6)              0.048          estimate D2E/DX2                !
 ! D22   D(3,4,5,19)          -179.6315         estimate D2E/DX2                !
 ! D23   D(15,4,5,6)           179.8191         estimate D2E/DX2                !
 ! D24   D(15,4,5,19)            0.1395         estimate D2E/DX2                !
 ! D25   D(3,4,15,8)             1.282          estimate D2E/DX2                !
 ! D26   D(3,4,15,12)         -178.697          estimate D2E/DX2                !
 ! D27   D(5,4,15,8)          -178.479          estimate D2E/DX2                !
 ! D28   D(5,4,15,12)            1.542          estimate D2E/DX2                !
 ! D29   D(4,5,6,2)             -0.1594         estimate D2E/DX2                !
 ! D30   D(4,5,6,7)           -179.7517         estimate D2E/DX2                !
 ! D31   D(19,5,6,2)           179.5264         estimate D2E/DX2                !
 ! D32   D(19,5,6,7)            -0.0659         estimate D2E/DX2                !
 ! D33   D(9,8,15,4)           -62.1333         estimate D2E/DX2                !
 ! D34   D(9,8,15,12)          117.8456         estimate D2E/DX2                !
 ! D35   D(10,8,15,4)          178.3585         estimate D2E/DX2                !
 ! D36   D(10,8,15,12)          -1.6626         estimate D2E/DX2                !
 ! D37   D(11,8,15,4)           59.1444         estimate D2E/DX2                !
 ! D38   D(11,8,15,12)        -120.8767         estimate D2E/DX2                !
 ! D39   D(13,12,15,4)         177.6553         estimate D2E/DX2                !
 ! D40   D(13,12,15,8)          -2.3235         estimate D2E/DX2                !
 ! D41   D(14,12,15,4)          58.4298         estimate D2E/DX2                !
 ! D42   D(14,12,15,8)        -121.5491         estimate D2E/DX2                !
 ! D43   D(20,12,15,4)         -62.8562         estimate D2E/DX2                !
 ! D44   D(20,12,15,8)         117.1649         estimate D2E/DX2                !
 ! D45   D(1,16,21,23)          -0.1844         estimate D2E/DX2                !
 ! D46   D(1,16,21,24)         179.4458         estimate D2E/DX2                !
 ! D47   D(2,16,21,23)         179.8917         estimate D2E/DX2                !
 ! D48   D(2,16,21,24)          -0.478          estimate D2E/DX2                !
 ! D49   D(16,21,23,25)       -179.7829         estimate D2E/DX2                !
 ! D50   D(16,21,23,26)         -4.7381         estimate D2E/DX2                !
 ! D51   D(24,21,23,25)          0.5723         estimate D2E/DX2                !
 ! D52   D(24,21,23,26)        175.6171         estimate D2E/DX2                !
 ! D53   D(21,23,25,27)        -96.3705         estimate D2E/DX2                !
 ! D54   D(21,23,25,28)         85.6747         estimate D2E/DX2                !
 ! D55   D(26,23,25,27)         88.3936         estimate D2E/DX2                !
 ! D56   D(26,23,25,28)        -89.5612         estimate D2E/DX2                !
 ! D57   D(21,23,26,35)        142.0461         estimate D2E/DX2                !
 ! D58   D(25,23,26,35)        -42.562          estimate D2E/DX2                !
 ! D59   D(23,25,27,29)        179.2344         estimate D2E/DX2                !
 ! D60   D(23,25,27,30)         -2.9281         estimate D2E/DX2                !
 ! D61   D(28,25,27,29)         -2.7494         estimate D2E/DX2                !
 ! D62   D(28,25,27,30)        175.0881         estimate D2E/DX2                !
 ! D63   D(23,25,28,31)       -179.3036         estimate D2E/DX2                !
 ! D64   D(23,25,28,32)         -0.9619         estimate D2E/DX2                !
 ! D65   D(27,25,28,31)          2.7562         estimate D2E/DX2                !
 ! D66   D(27,25,28,32)       -178.9021         estimate D2E/DX2                !
 ! D67   D(25,27,29,33)       -178.7141         estimate D2E/DX2                !
 ! D68   D(25,27,29,34)          1.1933         estimate D2E/DX2                !
 ! D69   D(30,27,29,33)          3.4784         estimate D2E/DX2                !
 ! D70   D(30,27,29,34)       -176.6141         estimate D2E/DX2                !
 ! D71   D(25,28,31,34)         -1.192          estimate D2E/DX2                !
 ! D72   D(25,28,31,36)        178.131          estimate D2E/DX2                !
 ! D73   D(32,28,31,34)       -179.5342         estimate D2E/DX2                !
 ! D74   D(32,28,31,36)         -0.2112         estimate D2E/DX2                !
 ! D75   D(27,29,34,31)          0.3714         estimate D2E/DX2                !
 ! D76   D(27,29,34,37)       -179.8733         estimate D2E/DX2                !
 ! D77   D(33,29,34,31)       -179.7278         estimate D2E/DX2                !
 ! D78   D(33,29,34,37)          0.0276         estimate D2E/DX2                !
 ! D79   D(28,31,34,29)         -0.4232         estimate D2E/DX2                !
 ! D80   D(28,31,34,37)        179.7937         estimate D2E/DX2                !
 ! D81   D(36,31,34,29)       -179.7711         estimate D2E/DX2                !
 ! D82   D(36,31,34,37)          0.4457         estimate D2E/DX2                !
 ! D83   D(29,34,37,38)          0.4979         estimate D2E/DX2                !
 ! D84   D(31,34,37,38)       -179.734          estimate D2E/DX2                !
 ! D85   D(34,37,38,39)         61.2737         estimate D2E/DX2                !
 ! D86   D(34,37,38,40)       -179.7097         estimate D2E/DX2                !
 ! D87   D(34,37,38,41)        -60.7448         estimate D2E/DX2                !
 --------------------------------------------------------------------------------
 Trust Radius=3.00D-01 FncErr=1.00D-07 GrdErr=1.00D-06
 Number of steps in this run=    207 maximum allowed number of steps=    246.
 GradGradGradGradGradGradGradGradGradGradGradGradGradGradGradGradGradGrad

                          Input orientation:                          
 ---------------------------------------------------------------------
 Center     Atomic      Atomic             Coordinates (Angstroms)
 Number     Number       Type             X           Y           Z
 ---------------------------------------------------------------------
      1          1           0       -0.022301    1.509716    1.188518
      2          6           0       -1.270740    1.647141    2.946312
      3          6           0       -2.677162    1.830858    4.935599
      4          6           0       -1.736526    1.141830    5.728136
      5          6           0       -0.555239    0.712519    5.091277
      6          6           0       -0.339547    0.963224    3.747325
      7          1           0        0.583335    0.611667    3.292267
      8          6           0       -3.205336    1.323750    7.674338
      9          1           0       -3.324289    2.416049    7.639511
     10          1           0       -3.218832    1.018223    8.721732
     11          1           0       -4.079219    0.872834    7.183085
     12          6           0       -0.969422    0.211636    7.856312
     13          1           0       -1.308545    0.145835    8.891494
     14          1           0       -0.009044    0.746127    7.852097
     15          7           0       -1.967284    0.895558    7.068112
     16          6           0       -0.984118    1.866423    1.546363
     17          6           0       -2.444654    2.072804    3.592723
     18          1           0       -3.603822    2.186386    5.371003
     19          1           0        0.203610    0.172522    5.645331
     20          1           0       -0.788599   -0.811313    7.495884
     21          6           0       -1.813345    2.481456    0.626794
     22          1           0       -3.205991    2.610185    3.035361
     23          6           0       -1.510527    2.677989   -0.702897
     24          1           0       -2.788348    2.845231    0.939632
     25          6           0       -2.429254    3.349339   -1.660884
     26          8           0       -0.276934    2.341458   -1.186814
     27          6           0       -3.283585    2.525178   -2.494440
     28          6           0       -2.463333    4.730084   -1.809808
     29          6           0       -4.192268    3.172645   -3.417148
     30          8           0       -3.196921    1.278336   -2.436192
     31          6           0       -3.340943    5.324241   -2.700675
     32          1           0       -1.814202    5.351166   -1.202334
     33          1           0       -4.828406    2.523911   -4.006271
     34          6           0       -4.217080    4.537251   -3.509128
     35          1           0       -0.389901    1.972726   -2.071502
     36          1           0       -3.397053    6.402213   -2.803311
     37          8           0       -5.013462    5.261707   -4.322201
     38          6           0       -5.913052    4.552109   -5.149511
     39          1           0       -6.622176    3.967717   -4.551033
     40          1           0       -6.451536    5.306454   -5.722446
     41          1           0       -5.377124    3.883525   -5.834129
 ---------------------------------------------------------------------
                    Distance matrix (angstroms):
                    1          2          3          4          5
     1  H    0.000000
     2  C    2.160399   0.000000
     3  C    4.603481   2.443161   0.000000
     4  C    4.866420   2.865456   1.409848   0.000000
     5  C    4.018840   2.446699   2.403638   1.409020   0.000000
     6  C    2.635677   1.405875   2.762106   2.430445   1.384046
     7  H    2.366231   2.151624   3.849391   3.405332   2.131422
     8  C    7.227182   5.118737   2.834928   2.445036   3.750843
     9  H    7.303415   5.180193   2.841190   2.792486   4.130756
    10  H    8.198091   6.127485   3.910062   3.342772   4.513135
    11  H    7.266295   5.141726   2.816872   2.770820   4.101195
    12  C    6.858683   5.124409   3.750843   2.445985   2.840396
    13  H    7.927827   6.131928   4.512374   3.343951   3.915386
    14  H    6.707200   5.144942   4.098958   2.766222   2.814531
    15  N    6.223325   4.247268   2.434404   1.381823   2.436237
    16  C    1.086455   1.445716   3.788744   4.310264   3.752579
    17  C    3.459055   1.406098   1.384165   2.434779   2.768741
    18  H    5.547824   3.407812   1.083825   2.169202   3.397703
    19  H    4.658573   3.410706   3.398918   2.170378   1.083709
    20  H    6.764411   5.193752   4.135553   2.799690   2.856336
    21  C    2.113682   2.524018   4.442438   5.274864   4.964230
    22  H    3.841581   2.163465   2.120829   3.400946   3.854142
    23  C    2.675281   3.799588   5.819906   6.615818   6.192584
    24  H    3.081649   2.786632   4.124205   5.190152   5.174108
    25  C    4.158933   5.046374   6.773539   7.742776   7.487084
    26  O    2.529592   4.307256   6.595889   7.168406   6.491943
    27  C    5.023078   5.867220   7.487009   8.480436   8.262730
    28  C    5.031835   5.792020   7.345185   8.380001   8.210154
    29  C    6.431650   7.166318   8.594435   9.684580   9.574628
    30  O    4.823927   5.728660   7.410717   8.295037   7.997589
    31  C    6.378856   7.049487   8.423598   9.545238   9.473259
    32  H    4.866603   5.588060   7.128218   8.109005   7.919064
    33  H    7.149340   7.859015   9.223080  10.306724  10.213054
    34  C    6.987848   7.662008   9.000518  10.149339  10.099734
    35  H    3.313192   5.104933   7.372324   7.958526   7.274673
    36  H    7.159621   7.758227   9.016998  10.159457  10.137704
    37  O    8.328094   8.938923  10.145732  11.345526  11.365933
    38  C    9.172116   9.774060  10.935522  12.140699  12.178766
    39  H    9.085294   9.499112  10.494069  11.726744  11.848130
    40  H   10.174070  10.741442  11.828761  13.064886  13.145614
    41  H    9.144762   9.947861  11.291159  12.428066  12.355984
                    6          7          8          9         10
     6  C    0.000000
     7  H    1.087374   0.000000
     8  C    4.874849   5.836406   0.000000
     9  H    5.115515   6.117504   1.099309   0.000000
    10  H    5.747872   6.640847   1.091129   1.770944   0.000000
    11  H    5.079150   6.078329   1.099239   1.777570   1.768852
    12  C    4.224382   4.837519   2.503842   3.232930   2.541531
    13  H    5.298071   5.928537   2.542984   3.283985   2.106912
    14  H    4.123775   4.600113   3.252926   3.718156   3.336621
    15  N    3.698883   4.565442   1.443479   2.116566   2.077469
    16  C    2.464848   2.660733   6.540671   6.550186   7.563023
    17  C    2.384648   3.375487   4.218922   4.155486   5.293225
    18  H    3.845510   4.932866   2.491643   2.297175   3.569343
    19  H    2.126654   2.423623   4.130752   4.632088   4.678949
    20  H    4.171609   4.645156   3.229699   4.106850   3.279625
    21  C    3.770255   4.042887   7.276386   7.173941   8.345326
    22  H    3.381697   4.291744   4.814044   4.609759   5.905025
    23  C    4.910813   4.961379   8.653578   8.541318   9.720944
    24  H    4.173933   4.678883   6.917012   6.734969   8.005270
    25  C    6.269701   6.411259   9.583928   9.389860  10.670344
    26  O    5.123395   4.877951   9.387826   9.337877  10.420413
    27  C    7.075782   7.218073  10.239805  10.134620  11.317138
    28  C    7.041408   7.230125  10.104588   9.766557  11.192052
    29  C    8.429393   8.624456  11.287759  11.116453  12.366953
    30  O    6.819074   6.895653  10.110635  10.140533  11.160977
    31  C    8.342874   8.574594  11.120396  10.741383  12.207706
    32  H    6.777003   6.957907   9.846352   9.437876  10.919454
    33  H    9.094166   9.285057  11.853749  11.743008  12.917426
    34  C    8.970231   9.203976  11.679903  11.383704  12.766127
    35  H    5.905961   5.618691  10.165099  10.154356  11.198564
    36  H    9.046644   9.302149  11.645114  11.177984  12.721860
    37  O   10.268383  10.532195  12.755147  12.411029  13.833728
    38  C   11.094942  11.357541  13.498338  13.222085  14.565664
    39  H   10.833335  11.166907  12.966305  12.723722  14.016011
    40  H   12.078767  12.361047  14.348295  14.024122  15.410178
    41  H   11.212029  11.380827  13.919332  13.707903  14.991373
                   11         12         13         14         15
    11  H    0.000000
    12  C    3.249808   0.000000
    13  H    3.335240   1.091300   0.000000
    14  H    4.126737   1.099102   1.769011   0.000000
    15  N    2.115184   1.443862   2.078640   2.114631   0.000000
    16  C    6.506881   6.523342   7.550935   6.478280   5.692004
    17  C    4.123400   4.880415   5.751602   5.082768   3.700286
    18  H    2.288026   4.125101   4.671831   4.599196   2.687875
    19  H    4.604101   2.503192   3.581187   2.289991   2.694414
    20  H    3.709767   1.099559   1.770368   1.777699   2.117946
    21  C    7.120871   7.624318   8.603210   7.646690   6.635461
    22  H    4.580887   5.830681   6.630808   6.074218   4.553836
    23  C    8.487961   8.923887   9.924965   8.898003   7.985879
    24  H    6.673635   7.621337   8.526938   7.740345   6.483335
    25  C    9.331198  10.126861  11.084724  10.155340   9.079087
    26  O    9.309642   9.316320  10.366160   9.182525   8.549369
    27  C    9.849760  10.855685  11.798371  10.997203   9.789316
    28  C    9.917741  10.774137  11.699006  10.735355   9.683342
    29  C   10.847435  12.093189  12.999235  12.263084  10.957936
    30  O    9.668163  10.584670  11.539714  10.784002   9.591158
    31  C   10.865026  11.967156  12.857874  11.975879  10.813389
    32  H    9.772462  10.449282  11.368224  10.317349   9.395539
    33  H   11.335300  12.686972  13.579286  12.923144  11.553333
    34  C   11.303556  12.586956  13.472919  12.694787  11.410588
    35  H   10.023383  10.099444  11.152072  10.006369   9.337075
    36  H   11.435361  12.563606  13.426563  12.530269  11.393528
    37  O   12.349357  13.790346  14.645828  13.915753  12.573054
    38  C   12.999728  14.575000  15.419681  14.777842  13.349523
    39  H   12.398970  14.142276  14.951354  14.420464  12.888394
    40  H   13.850545  15.504626  16.329409  15.702564  14.253522
    41  H   13.423736  14.843813  15.727925  15.032376  13.675627
                   16         17         18         19         20
    16  C    0.000000
    17  C    2.522568   0.000000
    18  H    4.646837   2.125759   0.000000
    19  H    4.591463   3.851957   4.315952   0.000000
    20  H    6.527273   5.127896   4.628909   2.318827   0.000000
    21  C    1.382567   3.059785   5.079409   5.880901   7.686145
    22  H    2.776151   1.085847   2.406886   4.937562   6.119371
    23  C    2.448452   4.437476   6.443277   7.036734   8.939598
    24  H    2.140428   2.784540   4.553693   6.183752   7.768768
    25  C    3.817577   5.406493   7.223538   8.390764  10.190641
    26  O    2.862870   5.255013   7.355080   7.184247   9.251541
    27  C    4.695700   6.161331   7.879246   9.162499  10.824218
    28  C    4.653226   6.020700   7.702932   9.135812  10.959367
    29  C    6.052676   7.307674   8.862876  10.509663  12.105831
    30  O    4.593810   6.127389   7.870351   8.837276  10.431337
    31  C    5.962253   7.140171   8.664134  10.428801  12.170838
    32  H    4.515286   5.842748   7.511813   8.819322  10.709202
    33  H    6.785469   7.976872   9.462917  11.135692  12.638961
    34  C    6.568360   7.723424   9.206486  11.063339  12.707160
    35  H    3.667880   6.026232   8.109613   7.946226   9.972197
    36  H    6.731665   7.782037   9.199748  11.097449  12.841823
    37  O    7.886927   8.911448  10.266591  12.347848  13.942675
    38  C    8.737393   9.726428  11.027711  13.157619  14.660571
    39  H    8.566293   9.346826  10.522851  12.843703  14.212599
    40  H    9.724302  10.643494  11.870506  14.137701  15.627545
    41  H    8.822634  10.037113  11.470827  13.292635  14.858846
                   21         22         23         24         25
    21  C    0.000000
    22  H    2.785180   0.000000
    23  C    1.377825   4.105334   0.000000
    24  H    1.086660   2.149826   2.087749   0.000000
    25  C    2.523100   4.817093   1.487451   2.673155   0.000000
    26  O    2.381036   5.145712   1.367180   3.329078   2.423437
    27  C    3.450452   5.530999   2.525215   3.484328   1.450496
    28  C    3.378734   5.340522   2.518767   3.349287   1.389171
    29  C    4.742413   6.551639   3.847542   4.589087   2.494775
    30  O    3.569827   5.631323   2.794148   3.744099   2.340826
    31  C    4.635411   6.347158   3.787372   4.438771   2.410929
    32  H    3.403079   5.235276   2.736335   3.437541   2.143798
    33  H    5.527901   7.226635   4.684479   5.359761   3.455156
    34  C    5.206735   6.896827   4.319400   4.969474   2.832572
    35  H    3.092863   5.866580   1.904279   3.947245   2.494520
    36  H    5.444822   6.964630   4.673389   5.199256   3.400267
    37  O    6.516371   8.026907   5.660876   6.203013   4.173475
    38  C    7.379763   8.836933   6.531993   7.053713   5.074842
    39  H    7.221061   8.430100   6.526906   6.790111   5.129907
    40  H    8.355015   9.721245   7.517863   7.991236   6.041965
    41  H    7.510649   9.219711   6.537081   7.325548   5.137243
                   26         27         28         29         30
    26  O    0.000000
    27  C    3.283838   0.000000
    28  C    3.297574   2.450132   0.000000
    29  C    4.582041   1.447863   2.828140   0.000000
    30  O    3.349253   1.251207   3.584002   2.354017   0.000000
    31  C    4.536179   2.807236   1.384509   2.422283   4.057098
    32  H    3.379612   3.437271   1.084499   3.912359   4.474624
    33  H    5.357100   2.161506   3.909632   1.082863   2.584250
    34  C    5.073401   2.439148   2.449592   1.367927   3.579447
    35  H    0.965089   2.976153   3.459859   4.208154   2.914539
    36  H    5.370096   3.890974   2.157521   3.382199   5.140909
    37  O    6.386956   3.717765   3.619102   2.420260   4.766980
    38  C    7.235729   4.251111   4.804774   2.804479   5.045499
    39  H    7.363748   4.178120   5.038997   2.796835   4.841249
    40  H    8.215161   5.309560   5.616645   3.869345   6.133329
    41  H    7.070180   4.169117   5.040040   2.784067   4.804817
                   31         32         33         34         35
    31  C    0.000000
    32  H    2.139320   0.000000
    33  H    3.429136   4.994082   0.000000
    34  C    1.428484   3.428933   2.162038   0.000000
    35  H    4.509674   3.768016   4.873137   4.826060   0.000000
    36  H    1.084300   2.484601   4.305474   2.156086   5.403597
    37  O    2.330360   4.469546   2.762170   1.349129   6.104126
    38  C    3.634382   5.746240   2.568471   2.359533   6.828803
    39  H    4.003807   6.020326   2.366211   2.682242   6.997808
    40  H    4.336727   6.475977   3.649980   3.237784   7.822183
    41  H    4.005026   6.025106   2.343226   2.679308   6.533063
                   36         37         38         39         40
    36  H    0.000000
    37  O    2.494105   0.000000
    38  C    3.906122   1.413235   0.000000
    39  H    4.402581   2.077194   1.096607   0.000000
    40  H    4.364849   2.007672   1.089613   1.787049   0.000000
    41  H    4.410253   2.077874   1.096779   1.789854   1.786494
                   41
    41  H    0.000000
 Stoichiometry    C18H19NO3
 Framework group  C1[X(C18H19NO3)]
 Deg. of freedom   117
 Full point group                 C1      NOp   1
 Largest Abelian subgroup         C1      NOp   1
 Largest concise Abelian subgroup C1      NOp   1
                         Standard orientation:                         
 ---------------------------------------------------------------------
 Center     Atomic      Atomic             Coordinates (Angstroms)
 Number     Number       Type             X           Y           Z
 ---------------------------------------------------------------------
      1          1           0       -0.996740    2.451098   -0.140085
      2          6           0       -2.308819    0.735359   -0.095231
      3          6           0       -3.786875   -1.209857   -0.072351
      4          6           0       -4.936994   -0.400140    0.023855
      5          6           0       -4.736942    0.994181    0.058284
      6          6           0       -3.463191    1.532301   -0.001441
      7          1           0       -3.351118    2.613365    0.032022
      8          6           0       -6.361502   -2.386515    0.081239
      9          1           0       -5.982116   -2.839244   -0.845897
     10          1           0       -7.421271   -2.632297    0.165165
     11          1           0       -5.840579   -2.859259    0.925916
     12          6           0       -7.359831   -0.091526    0.155992
     13          1           0       -8.264686   -0.701585    0.156520
     14          1           0       -7.415331    0.588711   -0.705532
     15          7           0       -6.202360   -0.951844    0.086339
     16          6           0       -1.008211    1.364713   -0.144499
     17          6           0       -2.520475   -0.654254   -0.131105
     18          1           0       -3.878671   -2.289317   -0.104202
     19          1           0       -5.580860    1.669411    0.137597
     20          1           0       -7.365540    0.519509    1.070122
     21          6           0        0.213178    0.718830   -0.194845
     22          1           0       -1.673691   -1.329784   -0.206460
     23          6           0        1.438188    1.347644   -0.243265
     24          1           0        0.248566   -0.367250   -0.191942
     25          6           0        2.731928    0.615955   -0.301380
     26          8           0        1.511559    2.709309   -0.341580
     27          6           0        3.457081    0.392078    0.934731
     28          6           0        3.282802    0.180533   -1.500022
     29          6           0        4.708778   -0.334098    0.887471
     30          8           0        3.017888    0.859283    2.009137
     31          6           0        4.482289   -0.510686   -1.517726
     32          1           0        2.754358    0.360566   -2.429793
     33          1           0        5.209138   -0.499362    1.833474
     34          6           0        5.199922   -0.774143   -0.311012
     35          1           0        2.250914    3.011766    0.199965
     36          1           0        4.906339   -0.881212   -2.444331
     37          8           0        6.347047   -1.460636   -0.492618
     38          6           0        7.110171   -1.764308    0.657451
     39          1           0        6.542315   -2.394201    1.352663
     40          1           0        7.984887   -2.307802    0.301444
     41          1           0        7.429680   -0.850266    1.172590
 ---------------------------------------------------------------------
 Rotational constants (GHZ):      0.7566750      0.0824920      0.0784650
 Standard basis: 6-311++G(d,p) (5D, 7F)
 There are   639 symmetry adapted cartesian basis functions of A   symmetry.
 There are   617 symmetry adapted basis functions of A   symmetry.
   617 basis functions,   963 primitive gaussians,   639 cartesian basis functions
    79 alpha electrons       79 beta electrons
       nuclear repulsion energy      1592.9156433791 Hartrees.
 NAtoms=   41 NActive=   41 NUniq=   41 SFac= 1.00D+00 NAtFMM=   60 NAOKFM=F Big=F
 Integral buffers will be    131072 words long.
 Raffenetti 1 integral format.
 Two-electron integral symmetry is turned on.
 Nuclear repulsion after empirical dispersion term =     1592.8894485174 Hartrees.
 One-electron integrals computed using PRISM.
 NBasis=   617 RedAO= T EigKep=  1.62D-06  NBF=   617
 NBsUse=   611 1.00D-06 EigRej=  8.85D-07 NBFU=   611
 ExpMin= 3.60D-02 ExpMax= 8.59D+03 ExpMxC= 1.30D+03 IAcc=3 IRadAn=         5 AccDes= 0.00D+00
 Harris functional with IExCor= 4639 and IRadAn=       5 diagonalized for initial guess.
 HarFok:  IExCor= 4639 AccDes= 0.00D+00 IRadAn=         5 IDoV= 1 UseB2=F ITyADJ=14
 ICtDFT=  3500011 ScaDFX=  1.000000  1.000000  1.000000  1.000000
 FoFCou: FMM=F IPFlag=           0 FMFlag=      100000 FMFlg1=           0
         NFxFlg=           0 DoJE=T BraDBF=F KetDBF=T FulRan=T
         wScrn=  0.000000 ICntrl=     500 IOpCl=  0 I1Cent=   200000004 NGrid=           0
         NMat0=    1 NMatS0=      1 NMatT0=    0 NMatD0=    1 NMtDS0=    0 NMtDT0=    0
 Petite list used in FoFCou.
 Requested convergence on RMS density matrix=1.00D-08 within 128 cycles.
 Requested convergence on MAX density matrix=1.00D-06.
 Requested convergence on             energy=1.00D-06.
 No special actions if energy rises.
 Restarting incremental Fock formation.
 SCF Done:  E(RwB97XD) =  -977.598808596     A.U. after   25 cycles
            NFock= 25  Conv=0.70D-08     -V/T= 2.0043
 QCSCF skips out because SCF is already converged.
 DoSCS=F DFT=T ScalE2(SS,OS)=  1.000000  1.000000
 ExpMin= 3.60D-02 ExpMax= 8.59D+03 ExpMxC= 1.30D+03 IAcc=3 IRadAn=         5 AccDes= 0.00D+00
 HarFok:  IExCor=  205 AccDes= 0.00D+00 IRadAn=         5 IDoV=-2 UseB2=F ITyADJ=14
 ICtDFT= 12500011 ScaDFX=  1.000000  1.000000  1.000000  1.000000
 Range of M.O.s used for correlation:    23   611
 NBasis=   617 NAE=    79 NBE=    79 NFC=    22 NFV=     0
 NROrb=    589 NOA=    57 NOB=    57 NVA=   532 NVB=   532

 **** Warning!!: The largest alpha MO coefficient is  0.13017440D+03

 Would need an additional        108909000000 words for in-memory AO integral storage.
 Orbital symmetries:
       Occupied  (A) (A) (A) (A) (A) (A) (A) (A) (A) (A) (A) (A)
                 (A) (A) (A) (A) (A) (A) (A) (A) (A) (A) (A) (A)
                 (A) (A) (A) (A) (A) (A) (A) (A) (A) (A) (A) (A)
                 (A) (A) (A) (A) (A) (A) (A) (A) (A) (A) (A) (A)
                 (A) (A) (A) (A) (A) (A) (A) (A) (A) (A) (A) (A)
                 (A) (A) (A) (A) (A) (A) (A) (A) (A) (A) (A) (A)
                 (A) (A) (A) (A) (A) (A) (A)
       Virtual   (A) (A) (A) (A) (A) (A) (A) (A) (A) (A) (A) (A)
                 (A) (A) (A) (A) (A) (A) (A) (A) (A) (A) (A) (A)
                 (A) (A) (A) (A) (A) (A) (A) (A) (A) (A) (A) (A)
                 (A) (A) (A) (A) (A) (A) (A) (A) (A) (A) (A) (A)
                 (A) (A) (A) (A) (A) (A) (A) (A) (A) (A) (A) (A)
                 (A) (A) (A) (A) (A) (A) (A) (A) (A) (A) (A) (A)
                 (A) (A) (A) (A) (A) (A) (A) (A) (A) (A) (A) (A)
                 (A) (A) (A) (A) (A) (A) (A) (A) (A) (A) (A) (A)
                 (A) (A) (A) (A) (A) (A) (A) (A) (A) (A) (A) (A)
                 (A) (A) (A) (A) (A) (A) (A) (A) (A) (A) (A) (A)
                 (A) (A) (A) (A) (A) (A) (A) (A) (A) (A) (A) (A)
                 (A) (A) (A) (A) (A) (A) (A) (A) (A) (A) (A) (A)
                 (A) (A) (A) (A) (A) (A) (A) (A) (A) (A) (A) (A)
                 (A) (A) (A) (A) (A) (A) (A) (A) (A) (A) (A) (A)
                 (A) (A) (A) (A) (A) (A) (A) (A) (A) (A) (A) (A)
                 (A) (A) (A) (A) (A) (A) (A) (A) (A) (A) (A) (A)
                 (A) (A) (A) (A) (A) (A) (A) (A) (A) (A) (A) (A)
                 (A) (A) (A) (A) (A) (A) (A) (A) (A) (A) (A) (A)
                 (A) (A) (A) (A) (A) (A) (A) (A) (A) (A) (A) (A)
                 (A) (A) (A) (A) (A) (A) (A) (A) (A) (A) (A) (A)
                 (A) (A) (A) (A) (A) (A) (A) (A) (A) (A) (A) (A)
                 (A) (A) (A) (A) (A) (A) (A) (A) (A) (A) (A) (A)
                 (A) (A) (A) (A) (A) (A) (A) (A) (A) (A) (A) (A)
                 (A) (A) (A) (A) (A) (A) (A) (A) (A) (A) (A) (A)
                 (A) (A) (A) (A) (A) (A) (A) (A) (A) (A) (A) (A)
                 (A) (A) (A) (A) (A) (A) (A) (A) (A) (A) (A) (A)
                 (A) (A) (A) (A) (A) (A) (A) (A) (A) (A) (A) (A)
                 (A) (A) (A) (A) (A) (A) (A) (A) (A) (A) (A) (A)
                 (A) (A) (A) (A) (A) (A) (A) (A) (A) (A) (A) (A)
                 (A) (A) (A) (A) (A) (A) (A) (A) (A) (A) (A) (A)
                 (A) (A) (A) (A) (A) (A) (A) (A) (A) (A) (A) (A)
                 (A) (A) (A) (A) (A) (A) (A) (A) (A) (A) (A) (A)
                 (A) (A) (A) (A) (A) (A) (A) (A) (A) (A) (A) (A)
                 (A) (A) (A) (A) (A) (A) (A) (A) (A) (A) (A) (A)
                 (A) (A) (A) (A) (A) (A) (A) (A) (A) (A) (A) (A)
                 (A) (A) (A) (A) (A) (A) (A) (A) (A) (A) (A) (A)
                 (A) (A) (A) (A) (A) (A) (A) (A) (A) (A) (A) (A)
                 (A) (A) (A) (A) (A) (A) (A) (A) (A) (A) (A) (A)
                 (A) (A) (A) (A) (A) (A) (A) (A) (A) (A) (A) (A)
                 (A) (A) (A) (A) (A) (A) (A) (A) (A) (A) (A) (A)
                 (A) (A) (A) (A) (A) (A) (A) (A) (A) (A) (A) (A)
                 (A) (A) (A) (A) (A) (A) (A) (A) (A) (A) (A) (A)
                 (A) (A) (A) (A) (A) (A) (A) (A) (A) (A) (A) (A)
                 (A) (A) (A) (A) (A) (A) (A) (A) (A) (A) (A) (A)
                 (A) (A) (A) (A)
     8 initial guesses have been made.
 Convergence on wavefunction:    0.000001000000000
 Iteration     1 Dimension     8 NMult     0 NNew      8
 CISAX will form     8 AO SS matrices at one time.
 Iteration     2 Dimension    12 NMult     8 NNew      4
 Iteration     3 Dimension    16 NMult    12 NNew      4
 Iteration     4 Dimension    20 NMult    16 NNew      4
 Iteration     5 Dimension    24 NMult    20 NNew      4
 Iteration     6 Dimension    28 NMult    24 NNew      4
 Iteration     7 Dimension    32 NMult    28 NNew      4
 Iteration     8 Dimension    36 NMult    32 NNew      4
 Iteration     9 Dimension    40 NMult    36 NNew      4
 Iteration    10 Dimension    44 NMult    40 NNew      4
 Iteration    11 Dimension    48 NMult    44 NNew      4
 ***********************************************************************
 Excited states from <AA,BB:AA,BB> singles matrix:
 ***********************************************************************
 
 Ground to excited state transition densities written to RWF  633
 Ground to excited state transition electric dipole moments (Au):
       state          X           Y           Z        Dip. S.      Osc.
         1        -0.1862     -0.0063     -0.0241      0.0353      0.0002
 Ground to excited state transition velocity dipole moments (Au):
       state          X           Y           Z        Dip. S.      Osc.
         1         0.0004      0.0028     -0.0024      0.0000      0.0010
 Ground to excited state transition magnetic dipole moments (Au):
       state          X           Y           Z
         1         0.0788      0.0183     -0.0321
 Ground to excited state transition velocity quadrupole moments (Au):
       state          XX          YY          ZZ          XY          XZ          YZ
         1        -0.0118      0.0105      0.0011      0.0106     -0.0089     -0.0057
 <0|del|b> * <b|rxdel|0> + <0|del|b> * <b|delr+rdel|0>
 Rotatory Strengths (R) in cgs (10**-40 erg-esu-cm/Gauss)
       state          XX          YY          ZZ    R(velocity)    E-M Angle
         1         5.0413      5.2177      2.3772      4.2121       60.30
 1/2[<0|r|b>*<b|rxdel|0> + (<0|rxdel|b>*<b|r|0>)*]
 Rotatory Strengths (R) in cgs (10**-40 erg-esu-cm/Gauss)
       state          XX          YY          ZZ     R(length)
         1        10.3699      0.0811     -0.5473      3.3012
  1/2[<0|del|b>*<b|r|0> + (<0|r|b>*<b|del|0>)*] (Au)
       state          X           Y           Z        Dip. S.   Osc.(frdel)
         1        -0.0001      0.0000      0.0001      0.0000      0.0000

 Excitation energies and oscillator strengths:
 
 Excited State   1:      Singlet-A      0.2459 eV 5043.05 nm  f=0.0002  <S**2>=0.000
      79 -> 80         0.68121
      79 -> 85        -0.13339
 This state for optimization and/or second-order correction.
 Total Energy, E(TD-HF/TD-KS) =  -977.589773708    
 Copying the excited state density for this state as the 1-particle RhoCI density.
 SavETr:  write IOETrn=   770 NScale= 10 NData=  16 NLR=1 NState=    1 LETran=      28.
          IDoAtm=11111111111111111111111111111111111111111
          Differentiating once with respect to electric field.
                with respect to dipole field.
          Differentiating once with respect to nuclear coordinates.
          There are     1 degrees of freedom in the 1st order CPHF.  IDoFFX=0 NUNeed=     1.
 LinEq1:  Iter=  0 NonCon=     1 RMS=5.31D-03 Max=2.38D-01 NDo=     1
 AX will form     1 AO Fock derivatives at one time.
 LinEq1:  Iter=  1 NonCon=     1 RMS=1.94D-03 Max=1.60D-01 NDo=     1
 LinEq1:  Iter=  2 NonCon=     1 RMS=1.48D-03 Max=1.64D-01 NDo=     1
 LinEq1:  Iter=  3 NonCon=     1 RMS=1.04D-03 Max=1.24D-01 NDo=     1
 LinEq1:  Iter=  4 NonCon=     1 RMS=5.92D-04 Max=3.55D-02 NDo=     1
 LinEq1:  Iter=  5 NonCon=     1 RMS=3.27D-04 Max=1.79D-02 NDo=     1
 LinEq1:  Iter=  6 NonCon=     1 RMS=1.77D-04 Max=1.20D-02 NDo=     1
 LinEq1:  Iter=  7 NonCon=     1 RMS=9.48D-05 Max=6.20D-03 NDo=     1
 LinEq1:  Iter=  8 NonCon=     1 RMS=4.89D-05 Max=3.61D-03 NDo=     1
 LinEq1:  Iter=  9 NonCon=     1 RMS=2.99D-05 Max=2.66D-03 NDo=     1
 LinEq1:  Iter= 10 NonCon=     1 RMS=1.52D-05 Max=1.29D-03 NDo=     1
 LinEq1:  Iter= 11 NonCon=     1 RMS=8.57D-06 Max=6.85D-04 NDo=     1
 LinEq1:  Iter= 12 NonCon=     1 RMS=4.04D-06 Max=2.47D-04 NDo=     1
 LinEq1:  Iter= 13 NonCon=     1 RMS=2.12D-06 Max=8.03D-05 NDo=     1
 LinEq1:  Iter= 14 NonCon=     1 RMS=1.09D-06 Max=7.36D-05 NDo=     1
 LinEq1:  Iter= 15 NonCon=     1 RMS=5.50D-07 Max=2.41D-05 NDo=     1
 LinEq1:  Iter= 16 NonCon=     1 RMS=2.60D-07 Max=9.65D-06 NDo=     1
 LinEq1:  Iter= 17 NonCon=     1 RMS=1.27D-07 Max=5.70D-06 NDo=     1
 LinEq1:  Iter= 18 NonCon=     1 RMS=7.36D-08 Max=4.42D-06 NDo=     1
 LinEq1:  Iter= 19 NonCon=     1 RMS=3.25D-08 Max=2.05D-06 NDo=     1
 LinEq1:  Iter= 20 NonCon=     1 RMS=1.64D-08 Max=1.16D-06 NDo=     1
 LinEq1:  Iter= 21 NonCon=     1 RMS=6.23D-09 Max=3.98D-07 NDo=     1
 LinEq1:  Iter= 22 NonCon=     1 RMS=3.47D-09 Max=1.63D-07 NDo=     1
 LinEq1:  Iter= 23 NonCon=     1 RMS=1.45D-09 Max=6.10D-08 NDo=     1
 LinEq1:  Iter= 24 NonCon=     1 RMS=6.93D-10 Max=2.27D-08 NDo=     1
 LinEq1:  Iter= 25 NonCon=     1 RMS=3.80D-10 Max=1.12D-08 NDo=     1
 LinEq1:  Iter= 26 NonCon=     1 RMS=1.39D-10 Max=3.92D-09 NDo=     1
 LinEq1:  Iter= 27 NonCon=     1 RMS=7.01D-11 Max=1.69D-09 NDo=     1
 LinEq1:  Iter= 28 NonCon=     0 RMS=2.79D-11 Max=5.32D-10 NDo=     1
 Linear equations converged to 1.000D-10 1.000D-09 after    28 iterations.
 End of Minotr F.D. properties file   721 does not exist.
 End of Minotr F.D. properties file   722 does not exist.
 End of Minotr F.D. properties file   788 does not exist.

 **********************************************************************

            Population analysis using the SCF density.

 **********************************************************************

 Orbital symmetries:
       Occupied  (A) (A) (A) (A) (A) (A) (A) (A) (A) (A) (A) (A)
                 (A) (A) (A) (A) (A) (A) (A) (A) (A) (A) (A) (A)
                 (A) (A) (A) (A) (A) (A) (A) (A) (A) (A) (A) (A)
                 (A) (A) (A) (A) (A) (A) (A) (A) (A) (A) (A) (A)
                 (A) (A) (A) (A) (A) (A) (A) (A) (A) (A) (A) (A)
                 (A) (A) (A) (A) (A) (A) (A) (A) (A) (A) (A) (A)
                 (A) (A) (A) (A) (A) (A) (A)
       Virtual   (A) (A) (A) (A) (A) (A) (A) (A) (A) (A) (A) (A)
                 (A) (A) (A) (A) (A) (A) (A) (A) (A) (A) (A) (A)
                 (A) (A) (A) (A) (A) (A) (A) (A) (A) (A) (A) (A)
                 (A) (A) (A) (A) (A) (A) (A) (A) (A) (A) (A) (A)
                 (A) (A) (A) (A) (A) (A) (A) (A) (A) (A) (A) (A)
                 (A) (A) (A) (A) (A) (A) (A) (A) (A) (A) (A) (A)
                 (A) (A) (A) (A) (A) (A) (A) (A) (A) (A) (A) (A)
                 (A) (A) (A) (A) (A) (A) (A) (A) (A) (A) (A) (A)
                 (A) (A) (A) (A) (A) (A) (A) (A) (A) (A) (A) (A)
                 (A) (A) (A) (A) (A) (A) (A) (A) (A) (A) (A) (A)
                 (A) (A) (A) (A) (A) (A) (A) (A) (A) (A) (A) (A)
                 (A) (A) (A) (A) (A) (A) (A) (A) (A) (A) (A) (A)
                 (A) (A) (A) (A) (A) (A) (A) (A) (A) (A) (A) (A)
                 (A) (A) (A) (A) (A) (A) (A) (A) (A) (A) (A) (A)
                 (A) (A) (A) (A) (A) (A) (A) (A) (A) (A) (A) (A)
                 (A) (A) (A) (A) (A) (A) (A) (A) (A) (A) (A) (A)
                 (A) (A) (A) (A) (A) (A) (A) (A) (A) (A) (A) (A)
                 (A) (A) (A) (A) (A) (A) (A) (A) (A) (A) (A) (A)
                 (A) (A) (A) (A) (A) (A) (A) (A) (A) (A) (A) (A)
                 (A) (A) (A) (A) (A) (A) (A) (A) (A) (A) (A) (A)
                 (A) (A) (A) (A) (A) (A) (A) (A) (A) (A) (A) (A)
                 (A) (A) (A) (A) (A) (A) (A) (A) (A) (A) (A) (A)
                 (A) (A) (A) (A) (A) (A) (A) (A) (A) (A) (A) (A)
                 (A) (A) (A) (A) (A) (A) (A) (A) (A) (A) (A) (A)
                 (A) (A) (A) (A) (A) (A) (A) (A) (A) (A) (A) (A)
                 (A) (A) (A) (A) (A) (A) (A) (A) (A) (A) (A) (A)
                 (A) (A) (A) (A) (A) (A) (A) (A) (A) (A) (A) (A)
                 (A) (A) (A) (A) (A) (A) (A) (A) (A) (A) (A) (A)
                 (A) (A) (A) (A) (A) (A) (A) (A) (A) (A) (A) (A)
                 (A) (A) (A) (A) (A) (A) (A) (A) (A) (A) (A) (A)
                 (A) (A) (A) (A) (A) (A) (A) (A) (A) (A) (A) (A)
                 (A) (A) (A) (A) (A) (A) (A) (A) (A) (A) (A) (A)
                 (A) (A) (A) (A) (A) (A) (A) (A) (A) (A) (A) (A)
                 (A) (A) (A) (A) (A) (A) (A) (A) (A) (A) (A) (A)
                 (A) (A) (A) (A) (A) (A) (A) (A) (A) (A) (A) (A)
                 (A) (A) (A) (A) (A) (A) (A) (A) (A) (A) (A) (A)
                 (A) (A) (A) (A) (A) (A) (A) (A) (A) (A) (A) (A)
                 (A) (A) (A) (A) (A) (A) (A) (A) (A) (A) (A) (A)
                 (A) (A) (A) (A) (A) (A) (A) (A) (A) (A) (A) (A)
                 (A) (A) (A) (A) (A) (A) (A) (A) (A) (A) (A) (A)
                 (A) (A) (A) (A) (A) (A) (A) (A) (A) (A) (A) (A)
                 (A) (A) (A) (A) (A) (A) (A) (A) (A) (A) (A) (A)
                 (A) (A) (A) (A) (A) (A) (A) (A) (A) (A) (A) (A)
                 (A) (A) (A) (A) (A) (A) (A) (A) (A) (A) (A) (A)
                 (A) (A) (A) (A)
 The electronic state is 1-A.
 Alpha  occ. eigenvalues --  -19.31615 -19.24704 -19.12632 -14.50596 -10.42349
 Alpha  occ. eigenvalues --  -10.38567 -10.37220 -10.35416 -10.35351 -10.34068
 Alpha  occ. eigenvalues --  -10.33964 -10.33568 -10.32703 -10.32606 -10.31861
 Alpha  occ. eigenvalues --  -10.30813 -10.30772 -10.29664 -10.26317 -10.24355
 Alpha  occ. eigenvalues --  -10.22742 -10.22260  -1.20046  -1.14476  -1.10466
 Alpha  occ. eigenvalues --   -1.04157  -1.00657  -0.95275  -0.91049  -0.89862
 Alpha  occ. eigenvalues --   -0.89275  -0.86544  -0.84611  -0.81651  -0.78631
 Alpha  occ. eigenvalues --   -0.78240  -0.75303  -0.74655  -0.71663  -0.69944
 Alpha  occ. eigenvalues --   -0.67212  -0.66098  -0.64707  -0.63303  -0.61233
 Alpha  occ. eigenvalues --   -0.59962  -0.59879  -0.58442  -0.58142  -0.56962
 Alpha  occ. eigenvalues --   -0.55656  -0.55317  -0.54857  -0.53417  -0.53321
 Alpha  occ. eigenvalues --   -0.53133  -0.52454  -0.51283  -0.50737  -0.50258
 Alpha  occ. eigenvalues --   -0.49737  -0.49437  -0.48401  -0.46111  -0.45879
 Alpha  occ. eigenvalues --   -0.44764  -0.43909  -0.43409  -0.42125  -0.41431
 Alpha  occ. eigenvalues --   -0.39639  -0.38802  -0.37864  -0.37690  -0.34329
 Alpha  occ. eigenvalues --   -0.30987  -0.27238  -0.26136  -0.21202
 Alpha virt. eigenvalues --   -0.07913   0.01503   0.01508   0.02971   0.03503
 Alpha virt. eigenvalues --    0.03875   0.04733   0.05118   0.05352   0.06249
 Alpha virt. eigenvalues --    0.06603   0.06758   0.06891   0.07207   0.07822
 Alpha virt. eigenvalues --    0.08531   0.09025   0.09261   0.09821   0.10089
 Alpha virt. eigenvalues --    0.10148   0.10689   0.10808   0.11070   0.11918
 Alpha virt. eigenvalues --    0.12040   0.12469   0.12749   0.12891   0.13114
 Alpha virt. eigenvalues --    0.13691   0.13778   0.13963   0.14425   0.14804
 Alpha virt. eigenvalues --    0.14924   0.15122   0.15284   0.15859   0.16318
 Alpha virt. eigenvalues --    0.16642   0.16712   0.17154   0.17472   0.18049
 Alpha virt. eigenvalues --    0.18349   0.18385   0.18877   0.18933   0.19154
 Alpha virt. eigenvalues --    0.19270   0.19632   0.19716   0.19957   0.20168
 Alpha virt. eigenvalues --    0.20371   0.20532   0.20997   0.21266   0.21653
 Alpha virt. eigenvalues --    0.21772   0.22062   0.22105   0.22305   0.22686
 Alpha virt. eigenvalues --    0.23281   0.23409   0.23600   0.24029   0.24394
 Alpha virt. eigenvalues --    0.24612   0.24974   0.25211   0.25675   0.25955
 Alpha virt. eigenvalues --    0.26209   0.26281   0.26574   0.26834   0.26961
 Alpha virt. eigenvalues --    0.27635   0.28073   0.28225   0.28666   0.28906
 Alpha virt. eigenvalues --    0.29303   0.29678   0.29898   0.30163   0.30397
 Alpha virt. eigenvalues --    0.30750   0.30915   0.31164   0.31691   0.31895
 Alpha virt. eigenvalues --    0.32220   0.32514   0.32749   0.33154   0.33299
 Alpha virt. eigenvalues --    0.33633   0.34375   0.34452   0.34627   0.35015
 Alpha virt. eigenvalues --    0.35821   0.36378   0.36426   0.36773   0.37287
 Alpha virt. eigenvalues --    0.37377   0.37598   0.38164   0.38364   0.38691
 Alpha virt. eigenvalues --    0.38868   0.39279   0.39714   0.40823   0.40976
 Alpha virt. eigenvalues --    0.41435   0.42038   0.42119   0.42648   0.43029
 Alpha virt. eigenvalues --    0.43447   0.43879   0.44278   0.44648   0.45533
 Alpha virt. eigenvalues --    0.46205   0.46362   0.47016   0.47362   0.47739
 Alpha virt. eigenvalues --    0.48019   0.48775   0.49112   0.49352   0.50432
 Alpha virt. eigenvalues --    0.50843   0.51605   0.52392   0.52997   0.53529
 Alpha virt. eigenvalues --    0.54100   0.55015   0.55347   0.56119   0.56486
 Alpha virt. eigenvalues --    0.57634   0.59312   0.59687   0.60031   0.60530
 Alpha virt. eigenvalues --    0.61296   0.61906   0.62360   0.63031   0.63565
 Alpha virt. eigenvalues --    0.63875   0.64929   0.65487   0.65731   0.66801
 Alpha virt. eigenvalues --    0.67670   0.67750   0.68799   0.68934   0.69696
 Alpha virt. eigenvalues --    0.70196   0.70546   0.70859   0.71217   0.71902
 Alpha virt. eigenvalues --    0.72257   0.72445   0.73905   0.74054   0.74179
 Alpha virt. eigenvalues --    0.74900   0.75265   0.75791   0.76237   0.76320
 Alpha virt. eigenvalues --    0.77166   0.77600   0.77783   0.78111   0.78618
 Alpha virt. eigenvalues --    0.78881   0.79291   0.80088   0.80386   0.80655
 Alpha virt. eigenvalues --    0.81251   0.81960   0.82582   0.82962   0.84071
 Alpha virt. eigenvalues --    0.84750   0.85181   0.85943   0.87081   0.87980
 Alpha virt. eigenvalues --    0.88206   0.89175   0.89859   0.90713   0.91482
 Alpha virt. eigenvalues --    0.92232   0.93323   0.93749   0.94588   0.94632
 Alpha virt. eigenvalues --    0.95017   0.96045   0.96389   0.97320   0.97854
 Alpha virt. eigenvalues --    0.98655   0.99566   1.00435   1.00845   1.01587
 Alpha virt. eigenvalues --    1.01943   1.02707   1.03383   1.03696   1.04987
 Alpha virt. eigenvalues --    1.05763   1.06108   1.07527   1.08077   1.08458
 Alpha virt. eigenvalues --    1.09282   1.10558   1.11052   1.11843   1.11869
 Alpha virt. eigenvalues --    1.12686   1.13075   1.13577   1.14621   1.14681
 Alpha virt. eigenvalues --    1.15770   1.16531   1.17664   1.18354   1.18706
 Alpha virt. eigenvalues --    1.20203   1.22701   1.22947   1.24097   1.24241
 Alpha virt. eigenvalues --    1.24939   1.28217   1.29392   1.32563   1.33586
 Alpha virt. eigenvalues --    1.33962   1.34799   1.36446   1.38685   1.39378
 Alpha virt. eigenvalues --    1.39509   1.40817   1.41018   1.43833   1.44516
 Alpha virt. eigenvalues --    1.45396   1.45738   1.46687   1.47887   1.49657
 Alpha virt. eigenvalues --    1.49969   1.50263   1.52278   1.54612   1.54842
 Alpha virt. eigenvalues --    1.55038   1.55494   1.57352   1.58622   1.59337
 Alpha virt. eigenvalues --    1.59525   1.60667   1.60991   1.61086   1.61991
 Alpha virt. eigenvalues --    1.62573   1.62999   1.63248   1.64684   1.65394
 Alpha virt. eigenvalues --    1.65660   1.66342   1.67704   1.68283   1.69156
 Alpha virt. eigenvalues --    1.69535   1.70911   1.72624   1.73781   1.73967
 Alpha virt. eigenvalues --    1.74497   1.75326   1.76878   1.77362   1.78804
 Alpha virt. eigenvalues --    1.79014   1.79388   1.79934   1.80197   1.81412
 Alpha virt. eigenvalues --    1.81799   1.82439   1.82762   1.83207   1.83742
 Alpha virt. eigenvalues --    1.85044   1.85651   1.86658   1.88730   1.90419
 Alpha virt. eigenvalues --    1.91853   1.92382   1.92878   1.93170   1.94523
 Alpha virt. eigenvalues --    1.94777   1.95442   1.96814   1.98620   1.98833
 Alpha virt. eigenvalues --    1.99366   2.00288   2.02198   2.02901   2.03490
 Alpha virt. eigenvalues --    2.04686   2.05396   2.06334   2.07476   2.08267
 Alpha virt. eigenvalues --    2.09575   2.10282   2.11124   2.11688   2.12429
 Alpha virt. eigenvalues --    2.13849   2.14298   2.15094   2.16914   2.17798
 Alpha virt. eigenvalues --    2.18298   2.19365   2.21443   2.22446   2.22688
 Alpha virt. eigenvalues --    2.23271   2.23858   2.25214   2.26076   2.26415
 Alpha virt. eigenvalues --    2.29848   2.30679   2.31273   2.32213   2.34815
 Alpha virt. eigenvalues --    2.36666   2.38228   2.39840   2.40347   2.42623
 Alpha virt. eigenvalues --    2.43591   2.44814   2.48064   2.49510   2.50433
 Alpha virt. eigenvalues --    2.52583   2.53084   2.53573   2.54359   2.55148
 Alpha virt. eigenvalues --    2.57138   2.57792   2.58402   2.59133   2.61261
 Alpha virt. eigenvalues --    2.61588   2.62382   2.64137   2.67015   2.67670
 Alpha virt. eigenvalues --    2.68408   2.69004   2.70311   2.71758   2.72715
 Alpha virt. eigenvalues --    2.73674   2.75981   2.76377   2.76631   2.76854
 Alpha virt. eigenvalues --    2.77436   2.79033   2.79777   2.80939   2.81349
 Alpha virt. eigenvalues --    2.82185   2.83198   2.84317   2.85399   2.86742
 Alpha virt. eigenvalues --    2.87019   2.88197   2.88862   2.89047   2.89814
 Alpha virt. eigenvalues --    2.90752   2.92199   2.92903   2.95870   2.96369
 Alpha virt. eigenvalues --    2.97467   2.98360   2.99216   3.00875   3.01262
 Alpha virt. eigenvalues --    3.01657   3.02747   3.03617   3.05344   3.06273
 Alpha virt. eigenvalues --    3.07167   3.08488   3.12824   3.13470   3.15185
 Alpha virt. eigenvalues --    3.15761   3.17759   3.19323   3.21805   3.22560
 Alpha virt. eigenvalues --    3.22921   3.25881   3.26065   3.26379   3.30516
 Alpha virt. eigenvalues --    3.31343   3.33205   3.35638   3.36840   3.38488
 Alpha virt. eigenvalues --    3.42407   3.43619   3.44805   3.46524   3.51640
 Alpha virt. eigenvalues --    3.53121   3.54105   3.54998   3.57096   3.57642
 Alpha virt. eigenvalues --    3.61464   3.64266   3.66595   3.68789   3.74004
 Alpha virt. eigenvalues --    3.74529   3.74768   3.77618   3.77785   3.81267
 Alpha virt. eigenvalues --    3.84359   3.84448   3.87392   3.90201   3.91170
 Alpha virt. eigenvalues --    3.94931   3.97700   3.99449   4.01283   4.05443
 Alpha virt. eigenvalues --    4.06658   4.09796   4.20236   4.23621   4.24056
 Alpha virt. eigenvalues --    4.25091   4.29134   4.31117   4.34469   4.38424
 Alpha virt. eigenvalues --    4.44433   4.69573   4.90444   4.97196   5.00262
 Alpha virt. eigenvalues --    5.14525   5.17654   5.18566   5.30594   5.45240
 Alpha virt. eigenvalues --    5.52956   5.56444   5.80865   5.93640   5.97749
 Alpha virt. eigenvalues --   23.71266  23.81404  23.88276  24.01111  24.03248
 Alpha virt. eigenvalues --   24.03859  24.06046  24.07366  24.07615  24.08888
 Alpha virt. eigenvalues --   24.12002  24.12512  24.19525  24.21624  24.26542
 Alpha virt. eigenvalues --   24.27912  24.31243  24.35966  35.70635  50.04277
 Alpha virt. eigenvalues --   50.14517  50.27442
          Condensed to atoms (all electrons):
               1          2          3          4          5          6
     1  H    0.461441  -0.089948   0.019412   0.023455  -0.012184   0.024750
     2  C   -0.089948  11.583112  -1.338144  -1.971670  -1.350256  -0.293121
     3  C    0.019412  -1.338144   9.313157   0.472976  -1.799285  -1.018711
     4  C    0.023455  -1.971670   0.472976  13.466605  -1.012995  -0.550996
     5  C   -0.012184  -1.350256  -1.799285  -1.012995   9.037650   1.913928
     6  C    0.024750  -0.293121  -1.018711  -0.550996   1.913928   9.484100
     7  H   -0.005014  -0.041768   0.008384   0.036447  -0.051157   0.322568
     8  C    0.000033  -0.014795   0.067291  -0.120116  -0.137408  -0.031623
     9  H    0.000076  -0.012369   0.009875   0.018531   0.001295   0.001615
    10  H   -0.000020   0.005163   0.018048  -0.012466   0.003507   0.003920
    11  H    0.000058  -0.012934   0.033284   0.012405  -0.020593  -0.005573
    12  C   -0.001092  -0.132357  -0.188229  -0.203935   0.224248   0.036084
    13  H   -0.000039  -0.002471   0.019216  -0.024611   0.018050  -0.004499
    14  H   -0.000078   0.001667  -0.008031   0.009550   0.010689  -0.010222
    15  N   -0.000695  -0.055685  -0.337104   0.347085  -0.188353   0.034184
    16  C    0.426337   0.473942  -0.340167  -1.352708   0.409594  -1.188437
    17  C    0.103051  -0.101760   2.016124  -1.010385  -1.477927  -0.839499
    18  H   -0.000471   0.198517   0.304114  -0.349463   0.025123  -0.039537
    19  H    0.001079  -0.043170  -0.023424  -0.163317   0.530668   0.029466
    20  H   -0.000004   0.003860  -0.009536  -0.002853   0.010862   0.004320
    21  C    0.066990  -1.301430  -0.685083  -0.894698   0.039643  -1.252729
    22  H    0.003359  -0.259479   0.175345   0.260956  -0.023832   0.062556
    23  C   -0.171833  -0.636617  -0.189199  -0.331739   0.045005  -0.460081
    24  H    0.006148  -0.029184  -0.070155  -0.042962   0.005685  -0.003212
    25  C   -0.073997   0.339248   0.115675   0.022847  -0.066825   0.020388
    26  O   -0.014685   0.044860  -0.004841  -0.002650   0.003690  -0.003817
    27  C   -0.023262   0.249497  -0.025402   0.004416   0.010921   0.110594
    28  C    0.009590  -0.251999  -0.024541  -0.018248   0.002392  -0.116669
    29  C    0.003203  -0.094282   0.007624   0.000280  -0.003753  -0.026866
    30  O    0.003948  -0.003321  -0.000082   0.000007   0.000133  -0.002882
    31  C   -0.002833   0.027687  -0.012875  -0.001670   0.002988   0.009240
    32  H   -0.000858  -0.005289  -0.002181  -0.000991   0.000051  -0.002639
    33  H    0.000143   0.000000  -0.000104   0.000004   0.000020  -0.000045
    34  C   -0.004446  -0.004383   0.005288   0.000634  -0.000897  -0.000683
    35  H   -0.001573  -0.014583  -0.000644  -0.000630   0.000265  -0.000831
    36  H    0.000017   0.001267   0.000100   0.000067   0.000000   0.000305
    37  O    0.000016   0.000051  -0.000001   0.000000   0.000000  -0.000007
    38  C   -0.000012  -0.000341   0.000140   0.000011  -0.000013  -0.000082
    39  H    0.000005  -0.000182   0.000004  -0.000001  -0.000002   0.000005
    40  H   -0.000004  -0.000011   0.000004   0.000000   0.000000  -0.000001
    41  H   -0.000003   0.000108   0.000002   0.000000   0.000000  -0.000004
               7          8          9         10         11         12
     1  H   -0.005014   0.000033   0.000076  -0.000020   0.000058  -0.001092
     2  C   -0.041768  -0.014795  -0.012369   0.005163  -0.012934  -0.132357
     3  C    0.008384   0.067291   0.009875   0.018048   0.033284  -0.188229
     4  C    0.036447  -0.120116   0.018531  -0.012466   0.012405  -0.203935
     5  C   -0.051157  -0.137408   0.001295   0.003507  -0.020593   0.224248
     6  C    0.322568  -0.031623   0.001615   0.003920  -0.005573   0.036084
     7  H    0.472793  -0.000291  -0.000055  -0.000103  -0.000029   0.003014
     8  C   -0.000291   5.235331   0.414152   0.400038   0.424516  -0.109095
     9  H   -0.000055   0.414152   0.548991  -0.021340  -0.059884   0.002944
    10  H   -0.000103   0.400038  -0.021340   0.496274  -0.018997  -0.015076
    11  H   -0.000029   0.424516  -0.059884  -0.018997   0.543338  -0.003127
    12  C    0.003014  -0.109095   0.002944  -0.015076  -0.003127   5.280605
    13  H   -0.000239  -0.011682  -0.002030   0.013340  -0.002300   0.404578
    14  H    0.000931  -0.001099  -0.002883  -0.001910   0.002634   0.420302
    15  N   -0.000264   0.289208  -0.051685  -0.045461  -0.049402   0.306928
    16  C    0.014589  -0.004713  -0.002557  -0.000629  -0.002286   0.016948
    17  C   -0.011749  -0.021835  -0.016576   0.002346  -0.007985  -0.068464
    18  H   -0.000561   0.008923  -0.014362   0.008111  -0.013619  -0.006066
    19  H   -0.012567  -0.003942  -0.000293   0.001272  -0.000967   0.022649
    20  H    0.000696   0.000720   0.002320  -0.001916  -0.002484   0.414665
    21  C    0.009723   0.008728  -0.001653   0.000904  -0.001576  -0.013414
    22  H    0.000155   0.004154   0.003425  -0.000818   0.002775   0.001953
    23  C    0.019988   0.002600  -0.000495   0.000194  -0.000514   0.000977
    24  H   -0.001002  -0.000372  -0.000378   0.000083  -0.000349  -0.000475
    25  C    0.010928   0.000772  -0.000072   0.000056  -0.000072  -0.000339
    26  O    0.001297   0.000001  -0.000002   0.000000  -0.000001   0.000006
    27  C    0.003811  -0.000001  -0.000021  -0.000002   0.000048   0.000002
    28  C   -0.004491  -0.000065   0.000022  -0.000004  -0.000036   0.000044
    29  C   -0.000529  -0.000001   0.000005   0.000001  -0.000012  -0.000005
    30  O   -0.000314  -0.000001   0.000000   0.000000   0.000000   0.000001
    31  C   -0.000042  -0.000007  -0.000002  -0.000001   0.000005   0.000006
    32  H   -0.000058   0.000002  -0.000001   0.000000  -0.000002   0.000002
    33  H   -0.000015  -0.000001   0.000000   0.000000   0.000000   0.000000
    34  C    0.000293   0.000009  -0.000001   0.000001  -0.000001  -0.000002
    35  H   -0.000043   0.000003  -0.000001   0.000000  -0.000001   0.000003
    36  H    0.000004   0.000000   0.000000   0.000000   0.000000   0.000000
    37  O    0.000000   0.000000   0.000000   0.000000   0.000000   0.000000
    38  C    0.000001   0.000000   0.000000   0.000000   0.000000   0.000000
    39  H    0.000000   0.000000   0.000000   0.000000   0.000000   0.000000
    40  H    0.000000   0.000000   0.000000   0.000000   0.000000   0.000000
    41  H    0.000000   0.000000   0.000000   0.000000   0.000000   0.000000
              13         14         15         16         17         18
     1  H   -0.000039  -0.000078  -0.000695   0.426337   0.103051  -0.000471
     2  C   -0.002471   0.001667  -0.055685   0.473942  -0.101760   0.198517
     3  C    0.019216  -0.008031  -0.337104  -0.340167   2.016124   0.304114
     4  C   -0.024611   0.009550   0.347085  -1.352708  -1.010385  -0.349463
     5  C    0.018050   0.010689  -0.188353   0.409594  -1.477927   0.025123
     6  C   -0.004499  -0.010222   0.034184  -1.188437  -0.839499  -0.039537
     7  H   -0.000239   0.000931  -0.000264   0.014589  -0.011749  -0.000561
     8  C   -0.011682  -0.001099   0.289208  -0.004713  -0.021835   0.008923
     9  H   -0.002030  -0.002883  -0.051685  -0.002557  -0.016576  -0.014362
    10  H    0.013340  -0.001910  -0.045461  -0.000629   0.002346   0.008111
    11  H   -0.002300   0.002634  -0.049402  -0.002286  -0.007985  -0.013619
    12  C    0.404578   0.420302   0.306928   0.016948  -0.068464  -0.006066
    13  H    0.501368  -0.019857  -0.046438   0.003620   0.004858   0.001849
    14  H   -0.019857   0.549852  -0.052424  -0.003528  -0.004908  -0.000685
    15  N   -0.046438  -0.052424   6.958275  -0.002430  -0.040570  -0.037597
    16  C    0.003620  -0.003528  -0.002430   9.400192  -0.179200   0.058439
    17  C    0.004858  -0.004908  -0.040570  -0.179200  11.136060   0.033230
    18  H    0.001849  -0.000685  -0.037597   0.058439   0.033230   0.522120
    19  H    0.007663  -0.010576  -0.033252   0.043796  -0.033656   0.003436
    20  H   -0.021451  -0.060754  -0.052080  -0.004514  -0.003822  -0.000623
    21  C   -0.000281   0.000416   0.001100   2.159369  -0.879837   0.060030
    22  H   -0.000123  -0.000096   0.000668  -0.083118   0.507291  -0.049169
    23  C    0.000067  -0.000132   0.001394  -2.896572  -1.719092   0.019404
    24  H   -0.000036   0.000039  -0.000734  -0.073229  -0.105123   0.012191
    25  C   -0.000035   0.000049   0.000004  -0.697919  -0.165883   0.000911
    26  O    0.000001  -0.000002   0.000001  -0.044991  -0.028831   0.000179
    27  C    0.000001   0.000001  -0.000006   0.176704  -0.087441  -0.000195
    28  C    0.000005  -0.000013   0.000015  -0.329159  -0.029210   0.001073
    29  C    0.000000   0.000000  -0.000003  -0.129669   0.030970   0.000105
    30  O    0.000000   0.000000   0.000000  -0.054728  -0.001476  -0.000011
    31  C    0.000001  -0.000001   0.000002   0.057643  -0.026180  -0.000024
    32  H    0.000000  -0.000001   0.000002  -0.037392  -0.009525   0.000124
    33  H    0.000000   0.000000   0.000000  -0.003176  -0.000277  -0.000003
    34  C    0.000000   0.000000  -0.000001   0.050636   0.011025  -0.000078
    35  H    0.000000   0.000000   0.000002  -0.059362  -0.011541   0.000029
    36  H    0.000000   0.000000   0.000000   0.003595   0.000317  -0.000017
    37  O    0.000000   0.000000   0.000000   0.000081   0.000002   0.000000
    38  C    0.000000   0.000000   0.000000   0.001262   0.000375  -0.000004
    39  H    0.000000   0.000000   0.000000   0.000316   0.000073   0.000000
    40  H    0.000000   0.000000   0.000000   0.000050   0.000007   0.000000
    41  H    0.000000   0.000000   0.000000  -0.000099  -0.000018   0.000000
              19         20         21         22         23         24
     1  H    0.001079  -0.000004   0.066990   0.003359  -0.171833   0.006148
     2  C   -0.043170   0.003860  -1.301430  -0.259479  -0.636617  -0.029184
     3  C   -0.023424  -0.009536  -0.685083   0.175345  -0.189199  -0.070155
     4  C   -0.163317  -0.002853  -0.894698   0.260956  -0.331739  -0.042962
     5  C    0.530668   0.010862   0.039643  -0.023832   0.045005   0.005685
     6  C    0.029466   0.004320  -1.252729   0.062556  -0.460081  -0.003212
     7  H   -0.012567   0.000696   0.009723   0.000155   0.019988  -0.001002
     8  C   -0.003942   0.000720   0.008728   0.004154   0.002600  -0.000372
     9  H   -0.000293   0.002320  -0.001653   0.003425  -0.000495  -0.000378
    10  H    0.001272  -0.001916   0.000904  -0.000818   0.000194   0.000083
    11  H   -0.000967  -0.002484  -0.001576   0.002775  -0.000514  -0.000349
    12  C    0.022649   0.414665  -0.013414   0.001953   0.000977  -0.000475
    13  H    0.007663  -0.021451  -0.000281  -0.000123   0.000067  -0.000036
    14  H   -0.010576  -0.060754   0.000416  -0.000096  -0.000132   0.000039
    15  N   -0.033252  -0.052080   0.001100   0.000668   0.001394  -0.000734
    16  C    0.043796  -0.004514   2.159369  -0.083118  -2.896572  -0.073229
    17  C   -0.033656  -0.003822  -0.879837   0.507291  -1.719092  -0.105123
    18  H    0.003436  -0.000623   0.060030  -0.049169   0.019404   0.012191
    19  H    0.501921  -0.009576  -0.012634  -0.001312   0.004065   0.000270
    20  H   -0.009576   0.544946  -0.000111   0.000063  -0.000259   0.000006
    21  C   -0.012634  -0.000111  12.562997  -0.132963  -0.080857   0.434078
    22  H   -0.001312   0.000063  -0.132963   0.563354  -0.091560  -0.049331
    23  C    0.004065  -0.000259  -0.080857  -0.091560  12.600934   0.104603
    24  H    0.000270   0.000006   0.434078  -0.049331   0.104603   0.592728
    25  C   -0.001122   0.000040  -4.273463  -0.016512  -0.435720   0.067418
    26  O    0.000102  -0.000002  -0.491114  -0.000608   0.527251   0.001962
    27  C   -0.000364   0.000005  -0.273960   0.005822  -2.660664  -0.044010
    28  C    0.000543  -0.000010   1.233781  -0.009674   2.055646  -0.007663
    29  C    0.000013   0.000001  -0.164455  -0.008085   0.689803   0.039872
    30  O    0.000018   0.000000   0.065111  -0.000189   0.194580   0.004986
[...]
    15  N   -0.048263  -0.040806   6.881742   0.001470  -0.037474  -0.033210
    16  C    0.002052  -0.004713   0.001470  10.073314  -0.143243   0.080416
    17  C    0.000639  -0.005845  -0.037474  -0.143243  11.218579   0.078742
    18  H    0.000696  -0.001098  -0.033210   0.080416   0.078742   0.549531
    19  H    0.005034  -0.006015  -0.029112   0.052797  -0.028737   0.004740
    20  H   -0.020858  -0.048192  -0.051432  -0.004607  -0.007495  -0.001009
    21  C   -0.000427   0.000063   0.002648   2.322347  -1.092077   0.080330
    22  H    0.000036   0.000273   0.001986  -0.107269   0.512264  -0.061008
    23  C   -0.000008   0.000057   0.001590  -3.249657  -1.721205   0.022835
    24  H   -0.000018  -0.000045  -0.000766  -0.126312  -0.151814   0.015644
    25  C   -0.000029   0.000065  -0.000040  -0.664975  -0.146901  -0.000929
    26  O    0.000000  -0.000002   0.000002  -0.004031  -0.022474   0.000237
    27  C   -0.000002   0.000009  -0.000050   0.602148  -0.012720  -0.002008
    28  C    0.000004  -0.000015   0.000060  -0.722128  -0.086424   0.003079
    29  C    0.000000   0.000000  -0.000003  -0.199895   0.018152   0.000256
    30  O    0.000000   0.000000   0.000000  -0.045280   0.000474  -0.000017
    31  C    0.000000   0.000000   0.000004   0.054381  -0.021188   0.000125
    32  H    0.000000  -0.000001   0.000001  -0.033431  -0.006941   0.000088
    33  H    0.000000   0.000000   0.000000  -0.002439  -0.000033  -0.000010
    34  C    0.000000   0.000000  -0.000001   0.044340   0.008209  -0.000036
    35  H    0.000000   0.000000   0.000001  -0.069496  -0.011046   0.000045
    36  H    0.000000   0.000000   0.000000   0.003508   0.000181  -0.000019
    37  O    0.000000   0.000000   0.000000   0.000029   0.000002   0.000000
    38  C    0.000000   0.000000   0.000000   0.000742   0.000272  -0.000003
    39  H    0.000000   0.000000   0.000000   0.000266   0.000064   0.000000
    40  H    0.000000   0.000000   0.000000   0.000031   0.000002   0.000000
    41  H    0.000000   0.000000   0.000000  -0.000117  -0.000018   0.000000
              19         20         21         22         23         24
     1  H    0.001903  -0.000028   0.072119   0.002067  -0.160289   0.005194
     2  C   -0.013716  -0.001978  -1.521568  -0.276029  -1.029327  -0.025734
     3  C   -0.026655  -0.007254  -0.757507   0.213637  -0.160934  -0.092831
     4  C   -0.213646  -0.011704  -1.142066   0.306877  -0.376545  -0.065237
     5  C    0.526021   0.017308   0.071819  -0.031705   0.002914   0.014381
     6  C    0.035487   0.001115  -1.532237   0.084458  -0.665081  -0.012737
     7  H   -0.016377   0.000678  -0.003216   0.001389   0.018496  -0.001682
     8  C   -0.003088  -0.008268   0.006378   0.006388   0.002354  -0.000973
     9  H   -0.001029   0.000474  -0.003480   0.004361  -0.000803  -0.000581
    10  H    0.000826  -0.005614   0.000972  -0.000405   0.000223   0.000014
    11  H   -0.000618   0.006315  -0.001759   0.002866  -0.000469  -0.000296
    12  C    0.016116   0.439564  -0.016257   0.002107  -0.000337  -0.000355
    13  H    0.005034  -0.020858  -0.000427   0.000036  -0.000008  -0.000018
    14  H   -0.006015  -0.048192   0.000063   0.000273   0.000057  -0.000045
    15  N   -0.029112  -0.051432   0.002648   0.001986   0.001590  -0.000766
    16  C    0.052797  -0.004607   2.322347  -0.107269  -3.249657  -0.126312
    17  C   -0.028737  -0.007495  -1.092077   0.512264  -1.721205  -0.151814
    18  H    0.004740  -0.001009   0.080330  -0.061008   0.022835   0.015644
    19  H    0.513236  -0.013299  -0.005340  -0.002468   0.003650   0.000881
    20  H   -0.013299   0.520557  -0.000243  -0.000051  -0.000211  -0.000002
    21  C   -0.005340  -0.000243  12.859619  -0.174290   0.284965   0.456999
    22  H   -0.002468  -0.000051  -0.174290   0.576516  -0.112813  -0.058289
    23  C    0.003650  -0.000211   0.284965  -0.112813  12.929017   0.197316
    24  H    0.000881  -0.000002   0.456999  -0.058289   0.197316   0.611157
    25  C   -0.001339   0.000041  -4.188839  -0.005692  -0.461741   0.080894
    26  O    0.000088  -0.000002  -0.410018  -0.001486   0.482830   0.004405
    27  C   -0.000618   0.000015  -0.334909   0.023275  -2.867609  -0.067807
    28  C    0.000780  -0.000018   1.390865  -0.027391   2.471896   0.016464
    29  C    0.000034   0.000000  -0.091130  -0.008589   0.669242   0.026361
    30  O    0.000016   0.000000   0.075393  -0.000143   0.159279   0.005068
    31  C    0.000015  -0.000001   0.492606   0.001746  -0.414075  -0.021902
    32  H    0.000010   0.000000  -0.022250  -0.001045   0.035710   0.001376
    33  H    0.000001   0.000000   0.004780   0.000069  -0.005046  -0.000739
    34  C   -0.000019   0.000000  -0.277065   0.000748  -0.117659   0.000279
    35  H    0.000007   0.000000   0.020642  -0.000707   0.161576   0.004476
    36  H    0.000000   0.000000  -0.001456   0.000290  -0.021904  -0.001334
    37  O    0.000000   0.000000   0.002659   0.000045   0.005452  -0.000598
    38  C    0.000000   0.000000  -0.010143   0.000066   0.002256  -0.000151
    39  H    0.000000   0.000000  -0.001525  -0.000012   0.003718   0.000163
    40  H    0.000000   0.000000  -0.000539  -0.000001  -0.000531  -0.000017
    41  H    0.000000   0.000000   0.001219   0.000003  -0.001819  -0.000077
              25         26         27         28         29         30
     1  H   -0.081482  -0.014375  -0.014852   0.005319   0.001889   0.003933
     2  C    0.374121   0.025726   0.367776  -0.425936  -0.113921  -0.002862
     3  C    0.133831  -0.004517   0.006941  -0.054201   0.002330  -0.000080
     4  C    0.030795  -0.003092   0.017347  -0.032441  -0.001334   0.000045
     5  C   -0.065359   0.002647   0.003514   0.005740  -0.003270   0.000064
     6  C    0.042466  -0.010146   0.132241  -0.161460  -0.029438  -0.002943
     7  H    0.012849   0.001092   0.004551  -0.005888  -0.000704  -0.000298
     8  C    0.000809   0.000006   0.000199  -0.000204  -0.000002  -0.000002
     9  H   -0.000059  -0.000004   0.000007  -0.000039  -0.000005   0.000000
    10  H    0.000047   0.000000   0.000008  -0.000008   0.000001   0.000000
    11  H   -0.000038  -0.000001   0.000008  -0.000007  -0.000004   0.000001
    12  C   -0.000352  -0.000001  -0.000014   0.000026  -0.000010   0.000001
    13  H   -0.000029   0.000000  -0.000002   0.000004   0.000000   0.000000
    14  H    0.000065  -0.000002   0.000009  -0.000015   0.000000   0.000000
    15  N   -0.000040   0.000002  -0.000050   0.000060  -0.000003   0.000000
    16  C   -0.664975  -0.004031   0.602148  -0.722128  -0.199895  -0.045280
    17  C   -0.146901  -0.022474  -0.012720  -0.086424   0.018152   0.000474
    18  H   -0.000929   0.000237  -0.002008   0.003079   0.000256  -0.000017
    19  H   -0.001339   0.000088  -0.000618   0.000780   0.000034   0.000016
    20  H    0.000041  -0.000002   0.000015  -0.000018   0.000000   0.000000
    21  C   -4.188839  -0.410018  -0.334909   1.390865  -0.091130   0.075393
    22  H   -0.005692  -0.001486   0.023275  -0.027391  -0.008589  -0.000143
    23  C   -0.461741   0.482830  -2.867609   2.471896   0.669242   0.159279
    24  H    0.080894   0.004405  -0.067807   0.016464   0.026361   0.005068
    25  C   18.377991   0.260558   0.876715  -4.333512  -2.719109  -0.131546
    26  O    0.260558   7.766552   0.097026  -0.262500   0.008300  -0.001554
    27  C    0.876715   0.097026  18.910255  -7.287271  -4.394348   0.175938
    28  C   -4.333512  -0.262500  -7.287271  13.824339   3.023546   0.119447
    29  C   -2.719109   0.008300  -4.394348   3.023546  16.680318  -0.108999
    30  O   -0.131546  -0.001554   0.175938   0.119447  -0.108999   8.308708
    31  C   -2.164024  -0.054738   1.006231   0.211488  -4.365877  -0.075404
    32  H    0.052066   0.000927   0.043745   0.338718   0.052572   0.000179
    33  H   -0.056297  -0.000635  -0.039629   0.053511   0.654585  -0.019305
    34  C   -0.153548   0.014797  -0.282391  -2.087640  -3.541649   0.002486
    35  H   -0.026317   0.249313  -0.108459   0.067767  -0.017127  -0.006541
    36  H    0.008793  -0.000379   0.002384  -0.049418  -0.086977  -0.000666
    37  O    0.017084  -0.000087  -0.016715  -0.000664   0.284294  -0.000614
    38  C   -0.017474   0.000174  -0.246598   0.049190  -0.350735   0.004180
    39  H    0.005760  -0.000036   0.022632  -0.009934  -0.002156   0.000290
    40  H    0.002115   0.000023  -0.005661  -0.004357  -0.007977   0.000293
    41  H    0.009838   0.000009   0.001588  -0.002048   0.011424   0.000551
              31         32         33         34         35         36
     1  H   -0.001853  -0.000577   0.000146  -0.004670   0.000138  -0.000010
     2  C    0.014283  -0.008258  -0.000065  -0.002357  -0.019099   0.001571
     3  C   -0.011452  -0.001863  -0.000085   0.004999  -0.000449   0.000108
     4  C   -0.001492  -0.000871   0.000028   0.000458  -0.000804   0.000071
     5  C    0.002706  -0.000075   0.000019  -0.000898  -0.000172   0.000003
     6  C    0.007205  -0.003008  -0.000041  -0.000371  -0.003002   0.000355
     7  H   -0.000032  -0.000073  -0.000015   0.000310  -0.000054   0.000005
     8  C   -0.000008   0.000001  -0.000001   0.000010   0.000001   0.000000
     9  H   -0.000001  -0.000001   0.000000  -0.000001  -0.000001   0.000000
    10  H   -0.000001   0.000000   0.000000   0.000001   0.000000   0.000000
    11  H    0.000002   0.000000   0.000000  -0.000001  -0.000001   0.000000
    12  C    0.000006   0.000000   0.000000  -0.000002  -0.000002   0.000000
    13  H    0.000000   0.000000   0.000000   0.000000   0.000000   0.000000
    14  H    0.000000  -0.000001   0.000000   0.000000   0.000000   0.000000
    15  N    0.000004   0.000001   0.000000  -0.000001   0.000001   0.000000
    16  C    0.054381  -0.033431  -0.002439   0.044340  -0.069496   0.003508
    17  C   -0.021188  -0.006941  -0.000033   0.008209  -0.011046   0.000181
    18  H    0.000125   0.000088  -0.000010  -0.000036   0.000045  -0.000019
    19  H    0.000015   0.000010   0.000001  -0.000019   0.000007   0.000000
    20  H   -0.000001   0.000000   0.000000   0.000000   0.000000   0.000000
    21  C    0.492606  -0.022250   0.004780  -0.277065   0.020642  -0.001456
    22  H    0.001746  -0.001045   0.000069   0.000748  -0.000707   0.000290
    23  C   -0.414075   0.035710  -0.005046  -0.117659   0.161576  -0.021904
    24  H   -0.021902   0.001376  -0.000739   0.000279   0.004476  -0.001334
    25  C   -2.164024   0.052066  -0.056297  -0.153548  -0.026317   0.008793
    26  O   -0.054738   0.000927  -0.000635   0.014797   0.249313  -0.000379
    27  C    1.006231   0.043745  -0.039629  -0.282391  -0.108459   0.002384
    28  C    0.211488   0.338718   0.053511  -2.087640   0.067767  -0.049418
    29  C   -4.365877   0.052572   0.654585  -3.541649  -0.017127  -0.086977
    30  O   -0.075404   0.000179  -0.019305   0.002486  -0.006541  -0.000666
    31  C   10.690801  -0.158168  -0.034686   1.406855   0.012623   0.490768
    32  H   -0.158168   0.540515   0.002683  -0.003338   0.001395  -0.016621
    33  H   -0.034686   0.002683   0.524526  -0.242488  -0.000703  -0.002053
    34  C    1.406855  -0.003338  -0.242488  11.322323   0.005477  -0.013089
    35  H    0.012623   0.001395  -0.000703   0.005477   0.386773  -0.000204
    36  H    0.490768  -0.016621  -0.002053  -0.013089  -0.000204   0.499638
    37  O   -0.541600  -0.002043  -0.020612   0.161255  -0.000027  -0.020072
    38  C    0.122369  -0.001119  -0.011574   0.186193   0.000152   0.004756
    39  H   -0.002296  -0.000316  -0.008766  -0.031399   0.000023   0.000360
    40  H    0.001262   0.000051   0.000917   0.057905   0.000019   0.000125
    41  H   -0.009710  -0.000091  -0.009522  -0.030382   0.000004  -0.000363
              37         38         39         40         41
     1  H    0.000018  -0.000023   0.000003  -0.000004  -0.000002
     2  C    0.000037  -0.000331  -0.000171  -0.000013   0.000104
     3  C   -0.000003   0.000110   0.000002   0.000002   0.000002
     4  C    0.000000   0.000006  -0.000001   0.000000   0.000000
     5  C    0.000000  -0.000011  -0.000001   0.000000   0.000000
     6  C   -0.000008  -0.000078   0.000007  -0.000001  -0.000005
     7  H    0.000000   0.000000   0.000000   0.000000   0.000000
     8  C    0.000000   0.000000   0.000000   0.000000   0.000000
     9  H    0.000000   0.000000   0.000000   0.000000   0.000000
    10  H    0.000000   0.000000   0.000000   0.000000   0.000000
    11  H    0.000000   0.000000   0.000000   0.000000   0.000000
    12  C    0.000000   0.000000   0.000000   0.000000   0.000000
    13  H    0.000000   0.000000   0.000000   0.000000   0.000000
    14  H    0.000000   0.000000   0.000000   0.000000   0.000000
    15  N    0.000000   0.000000   0.000000   0.000000   0.000000
    16  C    0.000029   0.000742   0.000266   0.000031  -0.000117
    17  C    0.000002   0.000272   0.000064   0.000002  -0.000018
    18  H    0.000000  -0.000003   0.000000   0.000000   0.000000
    19  H    0.000000   0.000000   0.000000   0.000000   0.000000
    20  H    0.000000   0.000000   0.000000   0.000000   0.000000
    21  C    0.002659  -0.010143  -0.001525  -0.000539   0.001219
    22  H    0.000045   0.000066  -0.000012  -0.000001   0.000003
    23  C    0.005452   0.002256   0.003718  -0.000531  -0.001819
    24  H   -0.000598  -0.000151   0.000163  -0.000017  -0.000077
    25  C    0.017084  -0.017474   0.005760   0.002115   0.009838
    26  O   -0.000087   0.000174  -0.000036   0.000023   0.000009
    27  C   -0.016715  -0.246598   0.022632  -0.005661   0.001588
    28  C   -0.000664   0.049190  -0.009934  -0.004357  -0.002048
    29  C    0.284294  -0.350735  -0.002156  -0.007977   0.011424
    30  O   -0.000614   0.004180   0.000290   0.000293   0.000551
    31  C   -0.541600   0.122369  -0.002296   0.001262  -0.009710
    32  H   -0.002043  -0.001119  -0.000316   0.000051  -0.000091
    33  H   -0.020612  -0.011574  -0.008766   0.000917  -0.009522
    34  C    0.161255   0.186193  -0.031399   0.057905  -0.030382
    35  H   -0.000027   0.000152   0.000023   0.000019   0.000004
    36  H   -0.020072   0.004756   0.000360   0.000125  -0.000363
    37  O    8.217640   0.196662  -0.037999  -0.069430  -0.035496
    38  C    0.196662   5.242129   0.403376   0.393598   0.407265
    39  H   -0.037999   0.403376   0.582104  -0.023505  -0.066070
    40  H   -0.069430   0.393598  -0.023505   0.479910  -0.020551
    41  H   -0.035496   0.407265  -0.066070  -0.020551   0.579752
 Mulliken charges:
               1
     1  H    0.251013
     2  C    1.196564
     3  C   -0.424032
     4  C   -0.745863
     5  C   -0.115695
     6  C   -0.226122
     7  H    0.220897
     8  C   -0.432770
     9  H    0.166148
    10  H    0.161165
    11  H    0.198958
    12  C   -0.430496
    13  H    0.162154
    14  H    0.168148
    15  N    0.091884
    16  C    0.194137
    17  C   -0.979488
    18  H    0.252490
    19  H    0.200432
    20  H    0.196200
    21  C   -0.558081
    22  H    0.127928
    23  C   -0.087315
    24  H    0.189226
    25  C    0.932764
    26  O   -0.124635
    27  C   -0.612895
    28  C   -0.028738
    29  C    0.609959
    30  O   -0.460092
    31  C   -0.636968
    32  H    0.190052
    33  H    0.213479
    34  C   -0.427637
    35  H    0.353779
    36  H    0.201647
    37  O   -0.139208
    38  C   -0.375256
    39  H    0.165419
    40  H    0.196334
    41  H    0.164513
 Sum of Mulliken charges =   0.00000
 Mulliken charges with hydrogens summed into heavy atoms:
               1
     2  C    1.196564
     3  C   -0.171542
     4  C   -0.745863
     5  C    0.084737
     6  C   -0.005225
     8  C    0.093502
    12  C    0.096006
    15  N    0.091884
    16  C    0.445149
    17  C   -0.851560
    21  C   -0.368855
    23  C   -0.087315
    25  C    0.932764
    26  O    0.229143
    27  C   -0.612895
    28  C    0.161315
    29  C    0.823439
    30  O   -0.460092
    31  C   -0.435320
    34  C   -0.427637
    37  O   -0.139208
    38  C    0.151009
 Electronic spatial extent (au):  <R**2>=          13217.0778
 Charge=              0.0000 electrons
 Dipole moment (field-independent basis, Debye):
    X=            -14.8858    Y=             -0.3360    Z=             -2.1781  Tot=             15.0480
 Quadrupole moment (field-independent basis, Debye-Ang):
   XX=            -91.7687   YY=           -115.2018   ZZ=           -145.8597
   XY=              5.0023   XZ=             -4.4046   YZ=             -5.2460
 Traceless Quadrupole moment (field-independent basis, Debye-Ang):
   XX=             25.8414   YY=              2.4082   ZZ=            -28.2496
   XY=              5.0023   XZ=             -4.4046   YZ=             -5.2460
 Octapole moment (field-independent basis, Debye-Ang**2):
  XXX=           -418.8666  YYY=             16.1493  ZZZ=            -24.9955  XYY=            -31.5112
  XXY=            -73.8386  XXZ=             64.2030  XZZ=            -20.8058  YZZ=            -11.0288
  YYZ=              8.6197  XYZ=            -22.1637
 Hexadecapole moment (field-independent basis, Debye-Ang**3):
 XXXX=         -12558.5194 YYYY=          -1281.9588 ZZZZ=           -685.2998 XXXY=            102.9026
 XXXZ=            244.7347 YYYX=            110.6387 YYYZ=             12.0219 ZZZX=            -87.0334
 ZZZY=            -22.4707 XXYY=          -2534.9719 XXZZ=          -2917.5820 YYZZ=           -363.0529
 XXYZ=           -137.1795 YYXZ=             35.2387 ZZXY=            -32.1608
 N-N= 1.595648264625D+03 E-N=-5.469565123641D+03  KE= 9.736067847429D+02
 1\1\GINC-SM9\FOpt\RwB97XD TD-FC\6-311++G(d,p)\C18H19N1O3\BTX008\26-Feb
 -2016\0\\#wb97xd 6-311++g** opt td(nstates=1,root=1) scf(maxcycle=500,
 xqc)\\title\\0,1\H,-0.0261096219,1.491737906,1.1895040574\C,-1.2537209
 107,1.6828271606,2.9536848365\C,-2.6510678677,1.8983631796,4.939353936
 \C,-1.6933042101,1.2565738361,5.7477628018\C,-0.5159912441,0.818803761
 6,5.1148036641\C,-0.3107113928,1.0334855215,3.7646527238\H,0.611445607
 8,0.6793052203,3.314336968\C,-3.223749274,1.2791034742,7.6479335042\H,
 -3.5470829147,2.3140257142,7.5061306599\H,-3.2035781051,1.0913717283,8
 .7211047498\H,-3.9764861681,0.6177090555,7.1938813605\C,-1.0154237333,
 0.1764948495,7.8247127647\H,-1.3164879464,0.1400928028,8.8713076986\H,
 0.0159870425,0.5389199702,7.7959430826\N,-1.8972624317,1.0723186105,7.
 1069676685\C,-0.9781452121,1.8699827631,1.5473039749\C,-2.4306402804,2
 .1055231658,3.5908234418\H,-3.5834953208,2.2434619394,5.3653845884\H,0
 .2518283354,0.3045211206,5.6769653677\H,-1.0318012042,-0.8474531029,7.
 422881232\C,-1.8058526309,2.4752114681,0.6270252918\H,-3.2063438911,2.
 6053406593,3.0217837908\C,-1.5097283122,2.6434955302,-0.7100469253\H,-
 2.7720506584,2.8595287437,0.9352827139\C,-2.4209108102,3.311768873,-1.
 6633332238\O,-0.2923380968,2.2644078165,-1.1811715602\C,-3.3125164853,
 2.4910551905,-2.4698385477\C,-2.4251972111,4.6910023617,-1.8310700941\
 C,-4.2192003402,3.1575886434,-3.380672782\O,-3.2681082215,1.2516045337
 ,-2.3870179152\C,-3.2959651967,5.2952739628,-2.714890763\H,-1.75000393
 79,5.3016972974,-1.2436416304\H,-4.8806928718,2.5215746404,-3.95269680
 75\C,-4.203705517,4.5179220128,-3.4933262899\H,-0.3451018977,2.1020575
 853,-2.1238519724\H,-3.3204183895,6.3708819428,-2.836501374\O,-4.99231
 95345,5.248525352,-4.3076066847\C,-5.9278457203,4.5584165045,-5.113650
 9806\H,-6.6428685798,4.0033452161,-4.4977293942\H,-6.4525148786,5.3213
 984505,-5.684605631\H,-5.423694966,3.8694445385,-5.7993963018\\Version
 =ES64L-G09RevD.01\State=1-A\HF=-977.6038228\RMSD=8.550e-09\RMSF=7.749e
 -06\Dipole=-0.8283072,1.01843,-0.1436502\PG=C01 [X(C18H19N1O3)]\\@


 SOME PEOPLE TRY TO PULL THE WOOL OVER YOUR EYES
 USING THE WRONG YARN.
 Job cpu time:      16 days 23 hours  2 minutes 58.4 seconds.
 File lengths (MBytes):  RWF=    370 Int=      0 D2E=      0 Chk=     57 Scr=      1
 Normal termination of Gaussian 09 at Fri Feb 26 21:35:57 2016.
