 Entering Gaussian System, Link 0=g09
 Input=paramethyl_opt.com
 Output=paramethyl_opt.out
 Initial command:
 /share/apps/gaussian/g09/l1.exe /tmp/3499135.1.serial.q/Gau-4318.inp -scrdir=/tmp/3499135.1.serial.q/
 Entering Link 1 = /share/apps/gaussian/g09/l1.exe PID=      4319.
  
 Copyright (c) 1988,1990,1992,1993,1995,1998,2003,2009,2011,
            Gaussian, Inc.  All Rights Reserved.
  
 This is part of the Gaussian(R) 09 program.  It is based on
 the Gaussian(R) 03 system (copyright 2003, Gaussian, Inc.),
 the Gaussian(R) 98 system (copyright 1998, Gaussian, Inc.),
 the Gaussian(R) 94 system (copyright 1995, Gaussian, Inc.),
 the Gaussian 92(TM) system (copyright 1992, Gaussian, Inc.),
 the Gaussian 90(TM) system (copyright 1990, Gaussian, Inc.),
 the Gaussian 88(TM) system (copyright 1988, Gaussian, Inc.),
 the Gaussian 86(TM) system (copyright 1986, Carnegie Mellon
 University), and the Gaussian 82(TM) system (copyright 1983,
 Carnegie Mellon University). Gaussian is a federally registered
 trademark of Gaussian, Inc.
  
 This software contains proprietary and confidential information,
 including trade secrets, belonging to Gaussian, Inc.
  
 This software is provided under written license and may be
 used, copied, transmitted, or stored only in accord with that
 written license.
  
 The following legend is applicable only to US Government
 contracts under FAR:
  
                    RESTRICTED RIGHTS LEGEND
  
 Use, reproduction and disclosure by the US Government is
 subject to restrictions as set forth in subparagraphs (a)
 and (c) of the Commercial Computer Software - Restricted
 Rights clause in FAR 52.227-19.
  
 Gaussian, Inc.
 340 Quinnipiac St., Bldg. 40, Wallingford CT 06492
  
  
 ---------------------------------------------------------------
 Warning -- This program may not be used in any manner that
 competes with the business of Gaussian, Inc. or will provide
 assistance to any competitor of Gaussian, Inc.  The licensee
 of this program is prohibited from giving any competitor of
 Gaussian, Inc. access to this program.  By using this program,
 the user acknowledges that Gaussian, Inc. is engaged in the
 business of creating and licensing software in the field of
 computational chemistry and represents and warrants to the
 licensee that it is not a competitor of Gaussian, Inc. and that
 it will not use this program in any manner prohibited above.
 ---------------------------------------------------------------
  

 Cite this work as:
 Gaussian 09, Revision C.01,
 M. J. Frisch, G. W. Trucks, H. B. Schlegel, G. E. Scuseria, 
 M. A. Robb, J. R. Cheeseman, G. Scalmani, V. Barone, B. Mennucci, 
 G. A. Petersson, H. Nakatsuji, M. Caricato, X. Li, H. P. Hratchian, 
 A. F. Izmaylov, J. Bloino, G. Zheng, J. L. Sonnenberg, M. Hada, 
 M. Ehara, K. Toyota, R. Fukuda, J. Hasegawa, M. Ishida, T. Nakajima, 
 Y. Honda, O. Kitao, H. Nakai, T. Vreven, J. A. Montgomery, Jr., 
 J. E. Peralta, F. Ogliaro, M. Bearpark, J. J. Heyd, E. Brothers, 
 K. N. Kudin, V. N. Staroverov, T. Keith, R. Kobayashi, J. Normand, 
 K. Raghavachari, A. Rendell, J. C. Burant, S. S. Iyengar, J. Tomasi, 
 M. Cossi, N. Rega, J. M. Millam, M. Klene, J. E. Knox, J. B. Cross, 
 V. Bakken, C. Adamo, J. Jaramillo, R. Gomperts, R. E. Stratmann, 
 O. Yazyev, A. J. Austin, R. Cammi, C. Pomelli, J. W. Ochterski, 
 R. L. Martin, K. Morokuma, V. G. Zakrzewski, G. A. Voth, 
 P. Salvador, J. J. Dannenberg, S. Dapprich, A. D. Daniels, 
 O. Farkas, J. B. Foresman, J. V. Ortiz, J. Cioslowski, 
 and D. J. Fox, Gaussian, Inc., Wallingford CT, 2010.
 
 ******************************************
 Gaussian 09:  EM64L-G09RevC.01 23-Sep-2011
                16-Oct-2015 
 ******************************************
 %chk=paramethyl_opt
 %mem=2GB
 %nproc=4
 Will use up to    4 processors via shared memory.
 ---------------------------
 #wb97xd opt 6-311++g** freq
 ---------------------------
 1/14=-1,18=20,19=15,26=3,38=1/1,3;
 2/9=110,12=2,17=6,18=5,40=1/2;
 3/5=4,6=6,7=1111,11=2,16=1,25=1,30=1,71=1,74=-58/1,2,3;
 4//1;
 5/5=2,38=5/2;
 6/7=2,8=2,9=2,10=2,28=1/1;
 7//1,2,3,16;
 1/14=-1,18=20,19=15/3(2);
 2/9=110/2;
 99//99;
 2/9=110/2;
 3/5=4,6=6,7=1111,11=2,16=1,25=1,30=1,71=1,74=-58/1,2,3;
 4/5=5,16=3/1;
 5/5=2,38=5/2;
 7//1,2,3,16;
 1/14=-1,18=20,19=15/3(-5);
 2/9=110/2;
 6/7=2,8=2,9=2,10=2,19=2,28=1/1;
 99/9=1/99;
 ---------------------------------------------
 para-methyl substituent geometry optimization
 ---------------------------------------------
 Charge =  0 Multiplicity = 1
 Symbolic Z-Matrix:
 O                     9.07493   11.04729   18.43681 
 O                     10.01029   12.79297   20.00749 
 C                     8.43155   12.06614   17.81 
 C                     7.02083   12.78073   16.00972 
 C                     7.64002   11.77728   16.70361 
 H                     7.568     10.80963   16.47733 
 H                     6.4715    12.57175   15.24408 
 H                     9.64275   11.54264   19.12982 
 C                     9.29047   13.68614   19.50334 
 C                     8.53367   13.39188   18.27075 
 C                     7.14015   14.11515   16.39917 
 C                     9.16513   14.99095   20.1306 
 C                     7.87824   14.38783   17.53324 
 C                     6.46612   15.22178   15.62358 
 H                     8.53228   15.59855   19.7697 
 C                     9.86786   15.33745   21.22591 
 H                     7.93457   15.31429   17.83015 
 H                     6.88      15.3064   14.7614 
 H                     5.53517   15.01424   15.51199 
 H                     6.55427   16.04862   16.10315 
 H                     10.48125   14.69709   21.56755 
 C                     9.76627   16.57581   21.96188 
 C                     8.8924    17.60729   21.6094 
 C                     10.54037   16.78598   23.09949 
 H                     8.2775    17.48832   20.82582 
 C                     8.78167   18.75708   22.34713 
 H                     11.18     16.09205   23.3654 
 C                     10.44792   17.93747   23.8556 
 H                     8.15925   19.44522   22.04801 
 C                     9.56782   18.96382   23.49581 
 H                     11.0295   18.0292   24.62522 
 N                     9.46355   20.11572   24.2238 
 C                     8.56345   21.17352   23.81464 
 C                     10.3286   20.36379   25.35012 
 H                     8.78275   21.53766   22.91594 
 H                     8.5785    21.88508   24.49237 
 H                     7.6325    20.8586   23.70416 
 H                     10.18025   19.63472   26.06439 
 H                     11.223    20.21376   25.11232 
 H                     10.1695   21.20076   25.71677 
 

 GradGradGradGradGradGradGradGradGradGradGradGradGradGradGradGradGradGrad
 Berny optimization.
 Initialization pass.
                           ----------------------------
                           !    Initial Parameters    !
                           ! (Angstroms and Degrees)  !
 --------------------------                            --------------------------
 ! Name  Definition              Value          Derivative Info.                !
 --------------------------------------------------------------------------------
 ! R1    R(1,3)                  1.3583         estimate D2E/DX2                !
 ! R2    R(1,8)                  1.0237         estimate D2E/DX2                !
 ! R3    R(2,9)                  1.253          estimate D2E/DX2                !
 ! R4    R(3,5)                  1.3907         estimate D2E/DX2                !
 ! R5    R(3,10)                 1.4072         estimate D2E/DX2                !
 ! R6    R(4,5)                  1.3681         estimate D2E/DX2                !
 ! R7    R(4,7)                  0.9652         estimate D2E/DX2                !
 ! R8    R(4,11)                 1.3952         estimate D2E/DX2                !
 ! R9    R(5,6)                  0.9964         estimate D2E/DX2                !
 ! R10   R(9,10)                 1.476          estimate D2E/DX2                !
 ! R11   R(9,12)                 1.4532         estimate D2E/DX2                !
 ! R12   R(10,13)                1.4019         estimate D2E/DX2                !
 ! R13   R(11,13)                1.3803         estimate D2E/DX2                !
 ! R14   R(11,14)                1.5101         estimate D2E/DX2                !
 ! R15   R(12,15)                0.9486         estimate D2E/DX2                !
 ! R16   R(12,16)                1.3467         estimate D2E/DX2                !
 ! R17   R(13,17)                0.9745         estimate D2E/DX2                !
 ! R18   R(14,18)                0.9601         estimate D2E/DX2                !
 ! R19   R(14,19)                0.9603         estimate D2E/DX2                !
 ! R20   R(14,20)                0.9599         estimate D2E/DX2                !
 ! R21   R(16,21)                0.9503         estimate D2E/DX2                !
 ! R22   R(16,22)                1.4441         estimate D2E/DX2                !
 ! R23   R(22,23)                1.3971         estimate D2E/DX2                !
 ! R24   R(22,24)                1.392          estimate D2E/DX2                !
 ! R25   R(23,25)                1.0031         estimate D2E/DX2                !
 ! R26   R(23,26)                1.3706         estimate D2E/DX2                !
 ! R27   R(24,27)                0.9805         estimate D2E/DX2                !
 ! R28   R(24,28)                1.3806         estimate D2E/DX2                !
 ! R29   R(26,29)                0.9749         estimate D2E/DX2                !
 ! R30   R(26,30)                1.4072         estimate D2E/DX2                !
 ! R31   R(28,30)                1.3991         estimate D2E/DX2                !
 ! R32   R(28,31)                0.969          estimate D2E/DX2                !
 ! R33   R(30,32)                1.3666         estimate D2E/DX2                !
 ! R34   R(32,33)                1.4479         estimate D2E/DX2                !
 ! R35   R(32,34)                1.4417         estimate D2E/DX2                !
 ! R36   R(33,35)                0.9942         estimate D2E/DX2                !
 ! R37   R(33,36)                0.9828         estimate D2E/DX2                !
 ! R38   R(33,37)                0.989          estimate D2E/DX2                !
 ! R39   R(34,38)                1.0314         estimate D2E/DX2                !
 ! R40   R(34,39)                0.9376         estimate D2E/DX2                !
 ! R41   R(34,40)                0.9275         estimate D2E/DX2                !
 ! A1    A(3,1,8)              102.2494         estimate D2E/DX2                !
 ! A2    A(1,3,5)              118.746          estimate D2E/DX2                !
 ! A3    A(1,3,10)             121.413          estimate D2E/DX2                !
 ! A4    A(5,3,10)             119.8322         estimate D2E/DX2                !
 ! A5    A(5,4,7)              120.072          estimate D2E/DX2                !
 ! A6    A(5,4,11)             121.4138         estimate D2E/DX2                !
 ! A7    A(7,4,11)             118.5008         estimate D2E/DX2                !
 ! A8    A(3,5,4)              120.5799         estimate D2E/DX2                !
 ! A9    A(3,5,6)              115.0583         estimate D2E/DX2                !
 ! A10   A(4,5,6)              124.3614         estimate D2E/DX2                !
 ! A11   A(2,9,10)             119.2377         estimate D2E/DX2                !
 ! A12   A(2,9,12)             121.0588         estimate D2E/DX2                !
 ! A13   A(10,9,12)            119.686          estimate D2E/DX2                !
 ! A14   A(3,10,9)             119.897          estimate D2E/DX2                !
 ! A15   A(3,10,13)            117.5874         estimate D2E/DX2                !
 ! A16   A(9,10,13)            122.5062         estimate D2E/DX2                !
 ! A17   A(4,11,13)            117.6465         estimate D2E/DX2                !
 ! A18   A(4,11,14)            121.2885         estimate D2E/DX2                !
 ! A19   A(13,11,14)           121.056          estimate D2E/DX2                !
 ! A20   A(9,12,15)            117.9323         estimate D2E/DX2                !
 ! A21   A(9,12,16)            122.486          estimate D2E/DX2                !
 ! A22   A(15,12,16)           119.5205         estimate D2E/DX2                !
 ! A23   A(10,13,11)           122.8112         estimate D2E/DX2                !
 ! A24   A(10,13,17)           119.2146         estimate D2E/DX2                !
 ! A25   A(11,13,17)           117.9724         estimate D2E/DX2                !
 ! A26   A(11,14,18)           109.4745         estimate D2E/DX2                !
 ! A27   A(11,14,19)           109.5119         estimate D2E/DX2                !
 ! A28   A(11,14,20)           109.4899         estimate D2E/DX2                !
 ! A29   A(18,14,19)           109.4263         estimate D2E/DX2                !
 ! A30   A(18,14,20)           109.4593         estimate D2E/DX2                !
 ! A31   A(19,14,20)           109.4654         estimate D2E/DX2                !
 ! A32   A(12,16,21)           117.1195         estimate D2E/DX2                !
 ! A33   A(12,16,22)           126.7571         estimate D2E/DX2                !
 ! A34   A(21,16,22)           116.1063         estimate D2E/DX2                !
 ! A35   A(16,22,23)           123.2665         estimate D2E/DX2                !
 ! A36   A(16,22,24)           120.4548         estimate D2E/DX2                !
 ! A37   A(23,22,24)           116.268          estimate D2E/DX2                !
 ! A38   A(22,23,25)           119.5338         estimate D2E/DX2                !
 ! A39   A(22,23,26)           122.283          estimate D2E/DX2                !
 ! A40   A(25,23,26)           118.0619         estimate D2E/DX2                !
 ! A41   A(22,24,27)           118.5269         estimate D2E/DX2                !
 ! A42   A(22,24,28)           122.4299         estimate D2E/DX2                !
 ! A43   A(27,24,28)           119.0404         estimate D2E/DX2                !
 ! A44   A(23,26,29)           118.5926         estimate D2E/DX2                !
 ! A45   A(23,26,30)           121.1635         estimate D2E/DX2                !
 ! A46   A(29,26,30)           120.2271         estimate D2E/DX2                !
 ! A47   A(24,28,30)           120.8718         estimate D2E/DX2                !
 ! A48   A(24,28,31)           118.2766         estimate D2E/DX2                !
 ! A49   A(30,28,31)           120.8208         estimate D2E/DX2                !
 ! A50   A(26,30,28)           116.973          estimate D2E/DX2                !
 ! A51   A(26,30,32)           121.0661         estimate D2E/DX2                !
 ! A52   A(28,30,32)           121.9601         estimate D2E/DX2                !
 ! A53   A(30,32,33)           120.8414         estimate D2E/DX2                !
 ! A54   A(30,32,34)           121.0251         estimate D2E/DX2                !
 ! A55   A(33,32,34)           117.9087         estimate D2E/DX2                !
 ! A56   A(32,33,35)           112.7001         estimate D2E/DX2                !
 ! A57   A(32,33,36)           108.9385         estimate D2E/DX2                !
 ! A58   A(32,33,37)           112.5885         estimate D2E/DX2                !
 ! A59   A(35,33,36)           110.782          estimate D2E/DX2                !
 ! A60   A(35,33,37)           102.9028         estimate D2E/DX2                !
 ! A61   A(36,33,37)           108.7844         estimate D2E/DX2                !
 ! A62   A(32,34,38)           109.4577         estimate D2E/DX2                !
 ! A63   A(32,34,39)           110.2867         estimate D2E/DX2                !
 ! A64   A(32,34,40)           111.1729         estimate D2E/DX2                !
 ! A65   A(38,34,39)           101.5225         estimate D2E/DX2                !
 ! A66   A(38,34,40)           109.8434         estimate D2E/DX2                !
 ! A67   A(39,34,40)           114.0986         estimate D2E/DX2                !
 ! D1    D(8,1,3,5)            174.3872         estimate D2E/DX2                !
 ! D2    D(8,1,3,10)            -6.6974         estimate D2E/DX2                !
 ! D3    D(1,3,5,4)           -177.2118         estimate D2E/DX2                !
 ! D4    D(1,3,5,6)              3.0064         estimate D2E/DX2                !
 ! D5    D(10,3,5,4)             3.8552         estimate D2E/DX2                !
 ! D6    D(10,3,5,6)          -175.9266         estimate D2E/DX2                !
 ! D7    D(1,3,10,9)            -3.4892         estimate D2E/DX2                !
 ! D8    D(1,3,10,13)          177.598          estimate D2E/DX2                !
 ! D9    D(5,3,10,9)           175.4147         estimate D2E/DX2                !
 ! D10   D(5,3,10,13)           -3.4981         estimate D2E/DX2                !
 ! D11   D(7,4,5,3)           -179.8617         estimate D2E/DX2                !
 ! D12   D(7,4,5,6)             -0.1012         estimate D2E/DX2                !
 ! D13   D(11,4,5,3)            -1.2145         estimate D2E/DX2                !
 ! D14   D(11,4,5,6)           178.546          estimate D2E/DX2                !
 ! D15   D(5,4,11,13)           -1.6621         estimate D2E/DX2                !
 ! D16   D(5,4,11,14)          179.4163         estimate D2E/DX2                !
 ! D17   D(7,4,11,13)          177.0058         estimate D2E/DX2                !
 ! D18   D(7,4,11,14)           -1.9158         estimate D2E/DX2                !
 ! D19   D(2,9,10,3)            11.3944         estimate D2E/DX2                !
 ! D20   D(2,9,10,13)         -169.7482         estimate D2E/DX2                !
 ! D21   D(12,9,10,3)         -167.0982         estimate D2E/DX2                !
 ! D22   D(12,9,10,13)          11.7592         estimate D2E/DX2                !
 ! D23   D(2,9,12,15)         -172.9897         estimate D2E/DX2                !
 ! D24   D(2,9,12,16)            4.1489         estimate D2E/DX2                !
 ! D25   D(10,9,12,15)           5.4748         estimate D2E/DX2                !
 ! D26   D(10,9,12,16)        -177.3867         estimate D2E/DX2                !
 ! D27   D(3,10,13,11)           0.6046         estimate D2E/DX2                !
 ! D28   D(3,10,13,17)        -179.8945         estimate D2E/DX2                !
 ! D29   D(9,10,13,11)        -178.2778         estimate D2E/DX2                !
 ! D30   D(9,10,13,17)           1.2231         estimate D2E/DX2                !
 ! D31   D(4,11,13,10)           1.9491         estimate D2E/DX2                !
 ! D32   D(4,11,13,17)        -177.5577         estimate D2E/DX2                !
 ! D33   D(14,11,13,10)       -179.1266         estimate D2E/DX2                !
 ! D34   D(14,11,13,17)          1.3665         estimate D2E/DX2                !
 ! D35   D(4,11,14,18)         -67.936          estimate D2E/DX2                !
 ! D36   D(4,11,14,19)          52.0359         estimate D2E/DX2                !
 ! D37   D(4,11,14,20)         172.0652         estimate D2E/DX2                !
 ! D38   D(13,11,14,18)        113.1791         estimate D2E/DX2                !
 ! D39   D(13,11,14,19)       -126.849          estimate D2E/DX2                !
 ! D40   D(13,11,14,20)         -6.8197         estimate D2E/DX2                !
 ! D41   D(9,12,16,21)           1.8488         estimate D2E/DX2                !
 ! D42   D(9,12,16,22)        -176.5771         estimate D2E/DX2                !
 ! D43   D(15,12,16,21)        178.9435         estimate D2E/DX2                !
 ! D44   D(15,12,16,22)          0.5176         estimate D2E/DX2                !
 ! D45   D(12,16,22,23)         -0.1553         estimate D2E/DX2                !
 ! D46   D(12,16,22,24)        178.6094         estimate D2E/DX2                !
 ! D47   D(21,16,22,23)       -178.5951         estimate D2E/DX2                !
 ! D48   D(21,16,22,24)          0.1696         estimate D2E/DX2                !
 ! D49   D(16,22,23,25)          1.9507         estimate D2E/DX2                !
 ! D50   D(16,22,23,26)        177.8661         estimate D2E/DX2                !
 ! D51   D(24,22,23,25)       -176.8618         estimate D2E/DX2                !
 ! D52   D(24,22,23,26)         -0.9464         estimate D2E/DX2                !
 ! D53   D(16,22,24,27)          2.5353         estimate D2E/DX2                !
 ! D54   D(16,22,24,28)       -178.0758         estimate D2E/DX2                !
 ! D55   D(23,22,24,27)       -178.6165         estimate D2E/DX2                !
 ! D56   D(23,22,24,28)          0.7724         estimate D2E/DX2                !
 ! D57   D(22,23,26,29)        179.5458         estimate D2E/DX2                !
 ! D58   D(22,23,26,30)          1.0354         estimate D2E/DX2                !
 ! D59   D(25,23,26,29)         -4.4814         estimate D2E/DX2                !
 ! D60   D(25,23,26,30)        177.0082         estimate D2E/DX2                !
 ! D61   D(22,24,28,30)         -0.6866         estimate D2E/DX2                !
 ! D62   D(22,24,28,31)       -178.6842         estimate D2E/DX2                !
 ! D63   D(27,24,28,30)        178.6993         estimate D2E/DX2                !
 ! D64   D(27,24,28,31)          0.7017         estimate D2E/DX2                !
 ! D65   D(23,26,30,28)         -0.8658         estimate D2E/DX2                !
 ! D66   D(23,26,30,32)        179.4642         estimate D2E/DX2                !
 ! D67   D(29,26,30,28)       -179.352          estimate D2E/DX2                !
 ! D68   D(29,26,30,32)          0.978          estimate D2E/DX2                !
 ! D69   D(24,28,30,26)          0.6922         estimate D2E/DX2                !
 ! D70   D(24,28,30,32)       -179.641          estimate D2E/DX2                !
 ! D71   D(31,28,30,26)        178.6387         estimate D2E/DX2                !
 ! D72   D(31,28,30,32)         -1.6945         estimate D2E/DX2                !
 ! D73   D(26,30,32,33)         -1.5646         estimate D2E/DX2                !
 ! D74   D(26,30,32,34)       -176.0031         estimate D2E/DX2                !
 ! D75   D(28,30,32,33)        178.7821         estimate D2E/DX2                !
 ! D76   D(28,30,32,34)          4.3436         estimate D2E/DX2                !
 ! D77   D(30,32,33,35)        -60.7123         estimate D2E/DX2                !
 ! D78   D(30,32,33,36)        175.9103         estimate D2E/DX2                !
 ! D79   D(30,32,33,37)         55.1485         estimate D2E/DX2                !
 ! D80   D(34,32,33,35)        113.8951         estimate D2E/DX2                !
 ! D81   D(34,32,33,36)         -9.4823         estimate D2E/DX2                !
 ! D82   D(34,32,33,37)       -130.2441         estimate D2E/DX2                !
 ! D83   D(30,32,34,38)        -61.3319         estimate D2E/DX2                !
 ! D84   D(30,32,34,39)         49.5507         estimate D2E/DX2                !
 ! D85   D(30,32,34,40)        177.1402         estimate D2E/DX2                !
 ! D86   D(33,32,34,38)        124.0711         estimate D2E/DX2                !
 ! D87   D(33,32,34,39)       -125.0463         estimate D2E/DX2                !
 ! D88   D(33,32,34,40)          2.5432         estimate D2E/DX2                !
 --------------------------------------------------------------------------------
 Trust Radius=3.00D-01 FncErr=1.00D-07 GrdErr=1.00D-06
 Number of steps in this run=    206 maximum allowed number of steps=    240.
 GradGradGradGradGradGradGradGradGradGradGradGradGradGradGradGradGradGrad

                          Input orientation:                          
 ---------------------------------------------------------------------
 Center     Atomic      Atomic             Coordinates (Angstroms)
 Number     Number       Type             X           Y           Z
 ---------------------------------------------------------------------
      1          8           0        9.074930   11.047290   18.436810
      2          8           0       10.010290   12.792970   20.007490
      3          6           0        8.431550   12.066140   17.810000
      4          6           0        7.020830   12.780730   16.009720
      5          6           0        7.640020   11.777280   16.703610
      6          1           0        7.568000   10.809630   16.477330
      7          1           0        6.471500   12.571750   15.244080
      8          1           0        9.642750   11.542640   19.129820
      9          6           0        9.290470   13.686140   19.503340
     10          6           0        8.533670   13.391880   18.270750
     11          6           0        7.140150   14.115150   16.399170
     12          6           0        9.165130   14.990950   20.130600
     13          6           0        7.878240   14.387830   17.533240
     14          6           0        6.466120   15.221780   15.623580
     15          1           0        8.532280   15.598550   19.769700
     16          6           0        9.867860   15.337450   21.225910
     17          1           0        7.934570   15.314290   17.830150
     18          1           0        6.880000   15.306400   14.761400
     19          1           0        5.535170   15.014240   15.511990
     20          1           0        6.554270   16.048620   16.103150
     21          1           0       10.481250   14.697090   21.567550
     22          6           0        9.766270   16.575810   21.961880
     23          6           0        8.892400   17.607290   21.609400
     24          6           0       10.540370   16.785980   23.099490
     25          1           0        8.277500   17.488320   20.825820
     26          6           0        8.781670   18.757080   22.347130
     27          1           0       11.180000   16.092050   23.365400
     28          6           0       10.447920   17.937470   23.855600
     29          1           0        8.159250   19.445220   22.048010
     30          6           0        9.567820   18.963820   23.495810
     31          1           0       11.029500   18.029200   24.625220
     32          7           0        9.463550   20.115720   24.223800
     33          6           0        8.563450   21.173520   23.814640
     34          6           0       10.328600   20.363790   25.350120
     35          1           0        8.782750   21.537660   22.915940
     36          1           0        8.578500   21.885080   24.492370
     37          1           0        7.632500   20.858600   23.704160
     38          1           0       10.180250   19.634720   26.064390
     39          1           0       11.223000   20.213760   25.112320
     40          1           0       10.169500   21.200760   25.716770
 ---------------------------------------------------------------------
                    Distance matrix (angstroms):
                    1          2          3          4          5
     1  O    0.000000
     2  O    2.527713   0.000000
     3  C    1.358265   2.801725   0.000000
     4  C    3.621451   4.991912   2.396201   0.000000
     5  C    2.365552   4.191113   1.390704   1.368134   0.000000
     6  H    2.483321   4.728683   2.024980   2.098402   0.996361
     7  H    4.392647   5.938186   3.268239   0.965215   2.031465
     8  H    1.023745   1.571215   1.866275   4.259384   3.154755
     9  C    2.854378   1.253021   2.495905   4.263381   3.769114
    10  C    2.411979   2.356982   1.407233   2.788269   2.421048
    11  C    4.160182   4.796440   2.802962   1.395201   2.410019
    12  C    4.292961   2.358086   3.804975   5.144390   4.939423
    13  C    3.661654   3.634712   2.402705   2.374665   2.749547
    14  C    5.669790   6.138316   4.312935   2.532890   3.795930
    15  H    4.773367   3.179990   4.040853   4.935792   4.979874
    16  C    5.178155   2.824750   4.942964   6.469238   6.171651
    17  H    4.458222   3.925109   3.286012   3.250817   3.723747
    18  H    6.038739   6.605869   4.711746   2.820841   4.099329
    19  H    6.068045   6.720882   4.728759   2.728276   4.040824
    20  H    6.067372   6.147130   4.722040   3.302350   4.447893
    21  H    5.010021   2.506245   5.024177   6.821761   6.344745
    22  C    6.593072   4.264864   6.273493   7.574185   7.429417
    23  C    7.289187   5.195524   6.734402   7.625934   7.721674
    24  C    7.537948   5.077950   7.396128   8.870965   8.625914
    25  H    6.915933   5.071345   6.206363   6.850945   7.072127
    26  C    8.649709   6.523345   8.091774   8.887074   9.048220
    27  H    7.360158   4.850537   7.390832   9.075768   8.690693
    28  C    8.872596   6.439360   8.665307   9.994736   9.848005
    29  H    9.187190   7.200174   8.513853   9.064898   9.361064
    30  C    9.407862   7.102362   9.010967  10.037893  10.074560
    31  H    9.532252   7.055517   9.420969  10.855538  10.645515
    32  N   10.764604   8.467518  10.343964  11.280074  11.375768
    33  C   11.477073   9.317798  10.909513  11.564401  11.819848
    34  C   11.668878   9.271587  11.371157  12.477468  12.478732
    35  H   11.410339   9.297072  10.765856  11.290884  11.626001
    36  H   12.424731  10.238683  11.878015  12.540769  12.795044
    37  H   11.228864   9.185513  10.615411  11.172758  11.466391
    38  H   11.538876   9.139172  11.334739  12.572013  12.482641
    39  H   11.541266   9.088349  11.291580  12.480605  12.438583
    40  H   12.541485  10.164259  12.205686  13.230187  13.282970
                    6          7          8          9         10
     6  H    0.000000
     7  H    2.414184   0.000000
     8  H    3.446389   5.120046   0.000000
     9  C    4.516409   5.227787   2.204135   0.000000
    10  C    3.288904   3.753117   2.321152   1.476013   0.000000
    11  C    3.334011   2.040443   4.509686   3.800500   2.442914
    12  C    5.777598   6.081632   3.622226   1.453167   2.532747
    13  C    3.743623   3.243041   3.709133   2.523501   1.401936
    14  C    4.627105   2.677071   5.993394   5.038619   3.825024
    15  H    5.890950   5.821475   4.253586   2.074394   2.667629
    16  C    6.952663   7.413950   4.341066   2.455087   3.781306
    17  H    4.717675   4.043496   4.339627   2.699797   2.061240
    18  H    4.861965   2.806807   6.393885   5.560720   4.326147
    19  H    4.768965   2.629496   6.481737   5.638883   4.385637
    20  H    5.349269   3.582384   6.245262   4.962801   3.959139
    21  H    7.036314   7.783408   4.073839   2.588617   4.045433
    22  C    8.255999   8.486274   5.776558   3.823741   5.028037
    23  C    8.619766   8.469635   6.594795   4.468710   5.389337
    24  C    9.402380   9.799128   6.637516   4.909537   6.234059
    25  H    8.001103   7.654418   6.331780   4.151100   4.834752
    26  C    9.954371   9.697861   7.946111   5.836133   6.742681
    27  H    9.401915  10.025883   6.403156   4.926889   6.344245
    28  C   10.655464  10.897759   7.992193   6.193195   7.450993
    29  H   10.293467   9.817665   8.553793   6.397031   7.144985
    30  C   10.942996  10.887461   8.610540   6.623492   7.708257
    31  H   11.423322  11.771360   8.613824   6.936862   8.253072
    32  N   12.255783  12.103686   9.973888   7.978233   9.028483
    33  C   12.737239  12.321575  10.764120   8.670451   9.554555
    34  C   13.327764  13.331360  10.815508   8.936082  10.096870
    35  H   12.570678  12.024427  10.722627   8.576129   9.380488
    36  H   13.708668  13.293172  11.698531   9.623925  10.528296
    37  H   12.377925  11.899276  10.571320   8.475844   9.278252
    38  H   13.289762  13.443195  10.670470   8.900825  10.120529
    39  H   13.280050  13.355120  10.652503   8.820723  10.028840
    40  H   14.146047  14.064574  11.702336   9.790246  10.913192
                   11         12         13         14         15
    11  C    0.000000
    12  C    4.334875   0.000000
    13  C    1.380306   2.960763   0.000000
    14  C    1.510128   5.258438   2.517212   0.000000
    15  H    3.936874   0.948644   2.625903   4.647718   0.000000
    16  C    5.677309   1.346698   4.300718   6.555251   1.993112
    17  H    2.028976   2.628858   0.974503   2.652142   2.049369
    18  H    2.041824   5.843769   3.085993   0.960110   5.281898
    19  H    2.042403   5.874411   3.157185   0.960309   5.239483
    20  H    2.041859   4.914836   2.560523   0.959907   4.190307
    21  H    6.181728   1.970622   4.811129   7.192173   2.800603
    22  C    6.625337   2.495343   5.288172   7.273131   2.698781
    23  C    6.512443   3.017692   5.292308   6.885313   2.747584
    24  C    7.974278   3.731987   6.619758   8.656527   4.065700
    25  H    5.680411   2.740087   4.540213   5.956644   2.179801
    26  C    7.721420   4.386774   6.563541   7.941426   4.084318
    27  H    8.291977   3.966869   6.915206   9.105702   4.492552
    28  C    9.008320   4.919670   7.692557   9.539175   5.082795
    29  H    7.833109   4.952654   6.785227   7.872575   4.486281
    30  C    8.931152   5.222116   7.703675   9.251779   5.126527
    31  H    9.905288   5.736588   8.572409  10.475475   5.976641
    32  N   10.130640   6.565562   8.949052  10.339198   6.411793
    33  C   10.336129   7.222073   9.272060  10.339994   6.887874
    34  C   11.372389   7.580532  10.140018  11.660386   7.554824
    35  H   10.012996   7.124868   8.995091   9.921473   6.725666
    36  H   11.311081   8.179132  10.253224  11.292349   7.862964
    37  H    9.953864   7.039077   8.944915   9.921187   6.630061
    38  H   11.537952   7.602955  10.276654  11.928089   7.656997
    39  H   11.392177   7.505339  10.127751  11.729619   7.555377
    40  H   12.091340   8.412835  10.892018  12.301858   8.332640
                   16         17         18         19         20
    16  C    0.000000
    17  H    3.907599   0.000000
    18  H    7.121668   3.244905   0.000000
    19  H    7.178130   3.349779   1.567581   0.000000
    20  H    6.142338   2.329592   1.567573   1.567794   0.000000
    21  H    0.950277   4.564501   7.724244   7.825222   6.863488
    22  C    1.444129   4.692308   7.860590   7.870311   6.702208
    23  C    2.500152   4.523054   7.499263   7.427874   6.181836
    24  C    2.461871   6.059869   9.225574   9.260737   8.085881
    25  H    2.704729   3.717263   6.594768   6.471340   5.229328
    26  C    3.759097   5.742255   8.547914   8.442023   7.161309
    27  H    2.620792   6.463491   9.650703   9.731486   8.610432
    28  C    3.743240   7.035911  10.117166  10.114159   8.878555
    29  H    4.524265   5.908080   8.477087   8.320994   7.032369
    30  C    4.288710   6.934427   9.843323   9.777670   8.498900
    31  H    4.488901   7.944955  11.042053  11.060226   9.827312
    32  N    5.655323   8.140655  10.924345  10.832954   9.536780
    33  C    6.516343   8.398821  10.918711  10.772242   9.474623
    34  C    6.518089   9.369033  12.230741  12.181275  10.879922
    35  H    6.517382   8.081770  10.437700  10.388468   9.028277
    36  H    7.429917   9.379504  11.868265  11.709719  10.418291
    37  H    6.451485   8.082983  10.553016  10.279445   9.059461
    38  H    6.478812   9.566185  12.545262  12.420900  11.190806
    39  H    6.381143   9.372757  12.250934  12.310676  10.968618
    40  H    7.391699  10.091790  12.867961  12.801858  11.490697
                   21         22         23         24         25
    21  H    0.000000
    22  C    2.048483   0.000000
    23  C    3.315940   1.397083   0.000000
    24  C    2.591100   1.391962   2.368697   0.000000
    25  H    3.632856   2.083205   1.003122   3.283814   0.000000
    26  C    4.469881   2.424004   1.370592   2.746690   2.044095
    27  H    2.380426   2.050006   3.257699   0.980497   4.101651
    28  C    3.966906   2.430008   2.752104   1.380644   3.753935
    29  H    5.307284   3.289901   2.026789   3.721142   2.310236
    30  C    4.770485   2.845156   2.419692   2.417832   3.312231
    31  H    4.555533   3.286559   3.720265   2.027978   4.722446
    32  N    6.119880   4.211755   3.667904   3.675702   4.456031
    33  C    7.118393   5.100827   4.205864   4.865199   4.753474
    34  C    6.814883   5.113236   4.863533   4.232128   5.739741
    35  H    7.176103   5.147572   4.143293   5.069653   4.584870
    36  H    7.990133   6.000210   5.168127   5.638251   5.732860
    37  H    7.116508   5.092230   4.067725   5.040592   4.478800
    38  H    6.685235   5.134092   5.061222   4.127425   5.972446
    39  H    6.599184   5.028122   4.949326   4.033255   5.871803
    40  H    7.720812   5.970926   5.604864   5.145676   6.425206
                   26         27         28         29         30
    26  C    0.000000
    27  H    3.727096   0.000000
    28  C    2.392411   2.044948   0.000000
    29  H    0.974893   4.701510   3.283093   0.000000
    30  C    1.407210   3.295936   1.399078   2.076521   0.000000
    31  H    3.282110   2.315674   0.969002   4.109192   2.070167
    32  N    2.415109   4.457911   2.418539   2.623896   1.366644
    33  C    2.835558   5.733192   3.744987   2.504272   2.448098
    34  C    3.740649   4.786623   2.852167   4.056326   2.444825
    35  H    2.838163   5.966866   4.076410   2.349545   2.752678
    36  H    3.798383   6.449578   4.414049   3.479020   3.241241
    37  H    2.752909   5.951430   4.059868   2.240076   2.716443
    38  H    4.067468   4.564489   2.798403   4.500184   2.724478
    39  H    3.965890   4.476837   2.713225   4.400820   2.629653
    40  H    4.387724   5.713928   3.767032   4.536830   3.209140
                   31         32         33         34         35
    31  H    0.000000
    32  N    2.639489   0.000000
    33  C    4.077400   1.447941   0.000000
    34  C    2.543040   1.441682   2.475705   0.000000
    35  H    4.503201   2.048390   0.994159   3.113335   0.000000
    36  H    4.570871   1.996517   0.982783   2.472430   1.627129
    37  H    4.515912   2.043194   0.988963   3.197339   1.550964
    38  H    2.317354   2.032927   3.169120   1.031374   3.935343
    39  H    2.246555   1.973511   3.111000   0.937555   3.540002
    40  H    3.462640   1.976015   2.489626   0.927504   3.143442
                   36         37         38         39         40
    36  H    0.000000
    37  H    1.603076   0.000000
    38  H    3.178202   3.682336   0.000000
    39  H    3.189205   3.910297   1.526123   0.000000
    40  H    2.121021   3.256385   1.604193   1.565053   0.000000
 Stoichiometry    C18H19NO2
 Framework group  C1[X(C18H19NO2)]
 Deg. of freedom   114
 Full point group                 C1      NOp   1
 Largest Abelian subgroup         C1      NOp   1
 Largest concise Abelian subgroup C1      NOp   1
                         Standard orientation:                         
 ---------------------------------------------------------------------
 Center     Atomic      Atomic             Coordinates (Angstroms)
 Number     Number       Type             X           Y           Z
 ---------------------------------------------------------------------
      1          8           0       -4.626615   -2.235319    0.343277
      2          8           0       -2.152913   -2.410508   -0.146045
      3          6           0       -4.479725   -0.891439    0.211777
      4          6           0       -5.503948    1.274664    0.184494
      5          6           0       -5.597490   -0.078292    0.364918
      6          1           0       -6.436283   -0.556054    0.611710
      7          1           0       -6.284006    1.832363    0.294599
      8          1           0       -3.696800   -2.581208    0.090577
      9          6           0       -2.020306   -1.164941   -0.113794
     10          6           0       -3.224124   -0.313142   -0.051553
     11          6           0       -4.289313    1.883841   -0.131969
     12          6           0       -0.703128   -0.551238   -0.103525
     13          6           0       -3.172874    1.077308   -0.223156
     14          6           0       -4.191831    3.375927   -0.343308
     15          1           0       -0.651225    0.387453    0.023325
     16          6           0        0.430646   -1.270168   -0.209789
     17          1           0       -2.315725    1.502458   -0.408090
     18          1           0       -4.664246    3.617409   -1.143509
     19          1           0       -4.580421    3.832215    0.407020
     20          1           0       -3.269449    3.627783   -0.428166
     21          1           0        0.339148   -2.209507   -0.320681
     22          6           0        1.782575   -0.767042   -0.141533
     23          6           0        2.089301    0.582735    0.047841
     24          6           0        2.864875   -1.636823   -0.239852
     25          1           0        1.346925    1.245744    0.172546
     26          6           0        3.379768    1.032526    0.152277
     27          1           0        2.688013   -2.588888   -0.393691
     28          6           0        4.172696   -1.205518   -0.141071
     29          1           0        3.532422    1.987262    0.277142
     30          6           0        4.469636    0.148108    0.051130
     31          1           0        4.880512   -1.860199   -0.237787
     32          7           0        5.755882    0.600351    0.144739
     33          6           0        6.036262    2.010335    0.317549
     34          6           0        6.872720   -0.291584   -0.043870
     35          1           0        5.695957    2.564178   -0.434649
     36          1           0        7.005117    2.131526    0.429331
     37          1           0        5.574429    2.396078    1.102381
     38          1           0        6.844769   -1.033323    0.672213
     39          1           0        6.763049   -0.787718   -0.831799
     40          1           0        7.678430    0.165034    0.007090
 ---------------------------------------------------------------------
 Rotational constants (GHZ):      0.7507756      0.1040749      0.0919481
 Standard basis: 6-311++G(d,p) (5D, 7F)
 There are   595 symmetry adapted basis functions of A   symmetry.
 Integral buffers will be    131072 words long.
 Raffenetti 2 integral format.
 Two-electron integral symmetry is turned on.
   595 basis functions,   927 primitive gaussians,   616 cartesian basis functions
    75 alpha electrons       75 beta electrons
       nuclear repulsion energy      1498.1955479741 Hartrees.
 NAtoms=   40 NActive=   40 NUniq=   40 SFac= 1.00D+00 NAtFMM=   60 NAOKFM=F Big=F
 Nuclear repulsion after empirical dispersion term =     1498.1701510388 Hartrees.
 One-electron integrals computed using PRISM.
 NBasis=   595 RedAO= T  NBF=   595
 NBsUse=   588 1.00D-06 NBFU=   588
 Harris functional with IExCor= 4639 diagonalized for initial guess.
 ExpMin= 3.60D-02 ExpMax= 8.59D+03 ExpMxC= 1.30D+03 IAcc=3 IRadAn=         5 AccDes= 0.00D+00
 HarFok:  IExCor= 4639 AccDes= 0.00D+00 IRadAn=         5 IDoV= 1
 ScaDFX=  1.000000  1.000000  1.000000  1.000000
 FoFCou: FMM=F IPFlag=           0 FMFlag=      100000 FMFlg1=           0
         NFxFlg=           0 DoJE=T BraDBF=F KetDBF=T FulRan=T
         Omega=  0.000000  0.000000  1.000000  0.000000  0.000000 ICntrl=     500 IOpCl=  0
         NMat0=    1 NMatS0=    1 NMatT0=    0 NMatD0=    1 NMtDS0=    0 NMtDT0=    0
         I1Cent=           4 NGrid=           0.
 Petite list used in FoFCou.
 Initial guess orbital symmetries:
       Occupied  (A) (A) (A) (A) (A) (A) (A) (A) (A) (A) (A) (A)
                 (A) (A) (A) (A) (A) (A) (A) (A) (A) (A) (A) (A)
                 (A) (A) (A) (A) (A) (A) (A) (A) (A) (A) (A) (A)
                 (A) (A) (A) (A) (A) (A) (A) (A) (A) (A) (A) (A)
                 (A) (A) (A) (A) (A) (A) (A) (A) (A) (A) (A) (A)
                 (A) (A) (A) (A) (A) (A) (A) (A) (A) (A) (A) (A)
                 (A) (A) (A)
       Virtual   (A) (A) (A) (A) (A) (A) (A) (A) (A) (A) (A) (A)
                 (A) (A) (A) (A) (A) (A) (A) (A) (A) (A) (A) (A)
                 (A) (A) (A) (A) (A) (A) (A) (A) (A) (A) (A) (A)
                 (A) (A) (A) (A) (A) (A) (A) (A) (A) (A) (A) (A)
                 (A) (A) (A) (A) (A) (A) (A) (A) (A) (A) (A) (A)
                 (A) (A) (A) (A) (A) (A) (A) (A) (A) (A) (A) (A)
                 (A) (A) (A) (A) (A) (A) (A) (A) (A) (A) (A) (A)
                 (A) (A) (A) (A) (A) (A) (A) (A) (A) (A) (A) (A)
                 (A) (A) (A) (A) (A) (A) (A) (A) (A) (A) (A) (A)
                 (A) (A) (A) (A) (A) (A) (A) (A) (A) (A) (A) (A)
                 (A) (A) (A) (A) (A) (A) (A) (A) (A) (A) (A) (A)
                 (A) (A) (A) (A) (A) (A) (A) (A) (A) (A) (A) (A)
                 (A) (A) (A) (A) (A) (A) (A) (A) (A) (A) (A) (A)
                 (A) (A) (A) (A) (A) (A) (A) (A) (A) (A) (A) (A)
                 (A) (A) (A) (A) (A) (A) (A) (A) (A) (A) (A) (A)
                 (A) (A) (A) (A) (A) (A) (A) (A) (A) (A) (A) (A)
                 (A) (A) (A) (A) (A) (A) (A) (A) (A) (A) (A) (A)
                 (A) (A) (A) (A) (A) (A) (A) (A) (A) (A) (A) (A)
                 (A) (A) (A) (A) (A) (A) (A) (A) (A) (A) (A) (A)
                 (A) (A) (A) (A) (A) (A) (A) (A) (A) (A) (A) (A)
                 (A) (A) (A) (A) (A) (A) (A) (A) (A) (A) (A) (A)
                 (A) (A) (A) (A) (A) (A) (A) (A) (A) (A) (A) (A)
                 (A) (A) (A) (A) (A) (A) (A) (A) (A) (A) (A) (A)
                 (A) (A) (A) (A) (A) (A) (A) (A) (A) (A) (A) (A)
                 (A) (A) (A) (A) (A) (A) (A) (A) (A) (A) (A) (A)
                 (A) (A) (A) (A) (A) (A) (A) (A) (A) (A) (A) (A)
                 (A) (A) (A) (A) (A) (A) (A) (A) (A) (A) (A) (A)
                 (A) (A) (A) (A) (A) (A) (A) (A) (A) (A) (A) (A)
                 (A) (A) (A) (A) (A) (A) (A) (A) (A) (A) (A) (A)
                 (A) (A) (A) (A) (A) (A) (A) (A) (A) (A) (A) (A)
                 (A) (A) (A) (A) (A) (A) (A) (A) (A) (A) (A) (A)
                 (A) (A) (A) (A) (A) (A) (A) (A) (A) (A) (A) (A)
                 (A) (A) (A) (A) (A) (A) (A) (A) (A) (A) (A) (A)
                 (A) (A) (A) (A) (A) (A) (A) (A) (A) (A) (A) (A)
                 (A) (A) (A) (A) (A) (A) (A) (A) (A) (A) (A) (A)
                 (A) (A) (A) (A) (A) (A) (A) (A) (A) (A) (A) (A)
                 (A) (A) (A) (A) (A) (A) (A) (A) (A) (A) (A) (A)
                 (A) (A) (A) (A) (A) (A) (A) (A) (A) (A) (A) (A)
                 (A) (A) (A) (A) (A) (A) (A) (A) (A) (A) (A) (A)
                 (A) (A) (A) (A) (A) (A) (A) (A) (A) (A) (A) (A)
                 (A) (A) (A) (A) (A) (A) (A) (A) (A) (A) (A) (A)
                 (A) (A) (A) (A) (A) (A) (A) (A) (A) (A) (A) (A)
                 (A) (A) (A) (A) (A) (A) (A) (A) (A)
 The electronic state of the initial guess is 1-A.
 Requested convergence on RMS density matrix=1.00D-08 within 128 cycles.
 Requested convergence on MAX density matrix=1.00D-06.
 Requested convergence on             energy=1.00D-06.
 No special actions if energy rises.
 FoFJK:  IHMeth= 1 ICntrl=     0 DoSepK=T KAlg= 1 I1Cent= 0 FoldK=F
 FoFJK:  IHMeth= 1 ICntrl=     0 DoSepK=T KAlg= 1 I1Cent= 0 FoldK=F
 FoFJK:  IHMeth= 1 ICntrl=     0 DoSepK=T KAlg= 1 I1Cent= 0 FoldK=F
 FoFJK:  IHMeth= 1 ICntrl=     0 DoSepK=T KAlg= 1 I1Cent= 0 FoldK=F
 FoFJK:  IHMeth= 1 ICntrl=     0 DoSepK=T KAlg= 1 I1Cent= 0 FoldK=F
 FoFJK:  IHMeth= 1 ICntrl=     0 DoSepK=T KAlg= 1 I1Cent= 0 FoldK=F
 FoFJK:  IHMeth= 1 ICntrl=     0 DoSepK=T KAlg= 1 I1Cent= 0 FoldK=F
 FoFJK:  IHMeth= 1 ICntrl=     0 DoSepK=T KAlg= 1 I1Cent= 0 FoldK=F
 FoFJK:  IHMeth= 1 ICntrl=     0 DoSepK=T KAlg= 1 I1Cent= 0 FoldK=F
 FoFJK:  IHMeth= 1 ICntrl=     0 DoSepK=T KAlg= 1 I1Cent= 0 FoldK=F
 FoFJK:  IHMeth= 1 ICntrl=     0 DoSepK=T KAlg= 1 I1Cent= 0 FoldK=F
 FoFJK:  IHMeth= 1 ICntrl=     0 DoSepK=T KAlg= 1 I1Cent= 0 FoldK=F
 FoFJK:  IHMeth= 1 ICntrl=     0 DoSepK=T KAlg= 1 I1Cent= 0 FoldK=F
 FoFJK:  IHMeth= 1 ICntrl=     0 DoSepK=T KAlg= 1 I1Cent= 0 FoldK=F
 FoFJK:  IHMeth= 1 ICntrl=     0 DoSepK=T KAlg= 1 I1Cent= 0 FoldK=F
 FoFJK:  IHMeth= 1 ICntrl=     0 DoSepK=T KAlg= 1 I1Cent= 0 FoldK=F
 FoFJK:  IHMeth= 1 ICntrl=     0 DoSepK=T KAlg= 1 I1Cent= 0 FoldK=F
 FoFJK:  IHMeth= 1 ICntrl=     0 DoSepK=T KAlg= 1 I1Cent= 0 FoldK=F
 SCF Done:  E(RwB97XD) =  -902.272747012     A.U. after   18 cycles
             Convg  =    0.5636D-08             -V/T =  2.0000

 **********************************************************************

            Population analysis using the SCF density.

 **********************************************************************

 Orbital symmetries:
       Occupied  (A) (A) (A) (A) (A) (A) (A) (A) (A) (A) (A) (A)
                 (A) (A) (A) (A) (A) (A) (A) (A) (A) (A) (A) (A)
                 (A) (A) (A) (A) (A) (A) (A) (A) (A) (A) (A) (A)
                 (A) (A) (A) (A) (A) (A) (A) (A) (A) (A) (A) (A)
                 (A) (A) (A) (A) (A) (A) (A) (A) (A) (A) (A) (A)
                 (A) (A) (A) (A) (A) (A) (A) (A) (A) (A) (A) (A)
                 (A) (A) (A)
       Virtual   (A) (A) (A) (A) (A) (A) (A) (A) (A) (A) (A) (A)
                 (A) (A) (A) (A) (A) (A) (A) (A) (A) (A) (A) (A)
                 (A) (A) (A) (A) (A) (A) (A) (A) (A) (A) (A) (A)
                 (A) (A) (A) (A) (A) (A) (A) (A) (A) (A) (A) (A)
                 (A) (A) (A) (A) (A) (A) (A) (A) (A) (A) (A) (A)
                 (A) (A) (A) (A) (A) (A) (A) (A) (A) (A) (A) (A)
                 (A) (A) (A) (A) (A) (A) (A) (A) (A) (A) (A) (A)
                 (A) (A) (A) (A) (A) (A) (A) (A) (A) (A) (A) (A)
                 (A) (A) (A) (A) (A) (A) (A) (A) (A) (A) (A) (A)
                 (A) (A) (A) (A) (A) (A) (A) (A) (A) (A) (A) (A)
                 (A) (A) (A) (A) (A) (A) (A) (A) (A) (A) (A) (A)
                 (A) (A) (A) (A) (A) (A) (A) (A) (A) (A) (A) (A)
                 (A) (A) (A) (A) (A) (A) (A) (A) (A) (A) (A) (A)
                 (A) (A) (A) (A) (A) (A) (A) (A) (A) (A) (A) (A)
                 (A) (A) (A) (A) (A) (A) (A) (A) (A) (A) (A) (A)
                 (A) (A) (A) (A) (A) (A) (A) (A) (A) (A) (A) (A)
                 (A) (A) (A) (A) (A) (A) (A) (A) (A) (A) (A) (A)
                 (A) (A) (A) (A) (A) (A) (A) (A) (A) (A) (A) (A)
                 (A) (A) (A) (A) (A) (A) (A) (A) (A) (A) (A) (A)
                 (A) (A) (A) (A) (A) (A) (A) (A) (A) (A) (A) (A)
                 (A) (A) (A) (A) (A) (A) (A) (A) (A) (A) (A) (A)
                 (A) (A) (A) (A) (A) (A) (A) (A) (A) (A) (A) (A)
                 (A) (A) (A) (A) (A) (A) (A) (A) (A) (A) (A) (A)
                 (A) (A) (A) (A) (A) (A) (A) (A) (A) (A) (A) (A)
                 (A) (A) (A) (A) (A) (A) (A) (A) (A) (A) (A) (A)
                 (A) (A) (A) (A) (A) (A) (A) (A) (A) (A) (A) (A)
                 (A) (A) (A) (A) (A) (A) (A) (A) (A) (A) (A) (A)
                 (A) (A) (A) (A) (A) (A) (A) (A) (A) (A) (A) (A)
                 (A) (A) (A) (A) (A) (A) (A) (A) (A) (A) (A) (A)
                 (A) (A) (A) (A) (A) (A) (A) (A) (A) (A) (A) (A)
                 (A) (A) (A) (A) (A) (A) (A) (A) (A) (A) (A) (A)
                 (A) (A) (A) (A) (A) (A) (A) (A) (A) (A) (A) (A)
                 (A) (A) (A) (A) (A) (A) (A) (A) (A) (A) (A) (A)
                 (A) (A) (A) (A) (A) (A) (A) (A) (A) (A) (A) (A)
                 (A) (A) (A) (A) (A) (A) (A) (A) (A) (A) (A) (A)
                 (A) (A) (A) (A) (A) (A) (A) (A) (A) (A) (A) (A)
                 (A) (A) (A) (A) (A) (A) (A) (A) (A) (A) (A) (A)
                 (A) (A) (A) (A) (A) (A) (A) (A) (A) (A) (A) (A)
                 (A) (A) (A) (A) (A) (A) (A) (A) (A) (A) (A) (A)
                 (A) (A) (A) (A) (A) (A) (A) (A) (A) (A) (A) (A)
                 (A) (A) (A) (A) (A) (A) (A) (A) (A) (A) (A) (A)
                 (A) (A) (A) (A) (A) (A) (A) (A) (A) (A) (A) (A)
                 (A) (A) (A) (A) (A) (A) (A) (A) (A)
 The electronic state is 1-A.
 Alpha  occ. eigenvalues --  -19.24561 -19.23201 -14.46566 -10.37676 -10.34529
 Alpha  occ. eigenvalues --  -10.34265 -10.29580 -10.29535 -10.29048 -10.28960
 Alpha  occ. eigenvalues --  -10.28913 -10.28748 -10.28709 -10.28598 -10.27908
 Alpha  occ. eigenvalues --  -10.27873 -10.27637 -10.27603 -10.26977 -10.26739
 Alpha  occ. eigenvalues --  -10.23589  -1.15232  -1.11986  -1.07759  -0.97542
 Alpha  occ. eigenvalues --   -0.96659  -0.91815  -0.88630  -0.88440  -0.87491
 Alpha  occ. eigenvalues --   -0.86196  -0.85801  -0.80478  -0.79890  -0.75945
 Alpha  occ. eigenvalues --   -0.73857  -0.72939  -0.69937  -0.68173  -0.65663
 Alpha  occ. eigenvalues --   -0.65606  -0.62099  -0.60811  -0.59814  -0.58949
 Alpha  occ. eigenvalues --   -0.58364  -0.57613  -0.56469  -0.55140  -0.54035
 Alpha  occ. eigenvalues --   -0.53706  -0.53571  -0.52599  -0.52457  -0.51787
 Alpha  occ. eigenvalues --   -0.51571  -0.51047  -0.50883  -0.50234  -0.48497
 Alpha  occ. eigenvalues --   -0.48212  -0.46650  -0.46222  -0.45819  -0.45096
 Alpha  occ. eigenvalues --   -0.43521  -0.42363  -0.41245  -0.41054  -0.34941
 Alpha  occ. eigenvalues --   -0.34467  -0.34135  -0.33506  -0.28975  -0.26764
 Alpha virt. eigenvalues --   -0.02122   0.02845   0.03785   0.03853   0.04431
 Alpha virt. eigenvalues --    0.04890   0.04971   0.05750   0.06331   0.06499
 Alpha virt. eigenvalues --    0.06731   0.07040   0.08079   0.08141   0.08208
 Alpha virt. eigenvalues --    0.08419   0.08619   0.09361   0.09876   0.10302
 Alpha virt. eigenvalues --    0.10489   0.10945   0.11621   0.12266   0.12479
 Alpha virt. eigenvalues --    0.12991   0.13371   0.13770   0.14272   0.14557
 Alpha virt. eigenvalues --    0.14829   0.15307   0.15552   0.15948   0.16021
 Alpha virt. eigenvalues --    0.16239   0.16451   0.16867   0.17163   0.17304
 Alpha virt. eigenvalues --    0.17712   0.17962   0.18106   0.18362   0.18457
 Alpha virt. eigenvalues --    0.18969   0.19294   0.19524   0.20016   0.20339
 Alpha virt. eigenvalues --    0.20425   0.20760   0.20917   0.20980   0.21315
 Alpha virt. eigenvalues --    0.21641   0.21993   0.22242   0.22708   0.22767
 Alpha virt. eigenvalues --    0.22949   0.23297   0.23445   0.24179   0.24465
 Alpha virt. eigenvalues --    0.24761   0.25069   0.25493   0.25566   0.25937
 Alpha virt. eigenvalues --    0.26497   0.26627   0.27051   0.27242   0.27478
 Alpha virt. eigenvalues --    0.27600   0.27970   0.28520   0.28788   0.29014
 Alpha virt. eigenvalues --    0.29188   0.29713   0.29994   0.30167   0.30482
 Alpha virt. eigenvalues --    0.30988   0.31242   0.31580   0.32009   0.32627
 Alpha virt. eigenvalues --    0.32956   0.33308   0.33401   0.33801   0.33912
 Alpha virt. eigenvalues --    0.34329   0.34485   0.35081   0.35587   0.36109
 Alpha virt. eigenvalues --    0.36316   0.36541   0.37097   0.37236   0.37400
 Alpha virt. eigenvalues --    0.37758   0.37926   0.38501   0.39006   0.39841
 Alpha virt. eigenvalues --    0.40120   0.40337   0.40752   0.41117   0.41337
 Alpha virt. eigenvalues --    0.41715   0.41943   0.42255   0.42703   0.43006
 Alpha virt. eigenvalues --    0.43384   0.43769   0.44016   0.44892   0.45013
 Alpha virt. eigenvalues --    0.46247   0.46361   0.46486   0.46825   0.48033
 Alpha virt. eigenvalues --    0.48987   0.49389   0.49798   0.50033   0.50720
 Alpha virt. eigenvalues --    0.51696   0.52634   0.53329   0.54319   0.54635
 Alpha virt. eigenvalues --    0.55240   0.56284   0.57233   0.58011   0.59415
 Alpha virt. eigenvalues --    0.60825   0.61887   0.62850   0.63145   0.63538
 Alpha virt. eigenvalues --    0.63802   0.64809   0.64967   0.65165   0.65553
 Alpha virt. eigenvalues --    0.66404   0.66839   0.67542   0.67958   0.68266
 Alpha virt. eigenvalues --    0.68353   0.69097   0.69791   0.69891   0.70513
 Alpha virt. eigenvalues --    0.71455   0.71728   0.72980   0.73393   0.73882
 Alpha virt. eigenvalues --    0.74394   0.74974   0.75450   0.75882   0.76266
 Alpha virt. eigenvalues --    0.76825   0.76895   0.77784   0.78405   0.79204
 Alpha virt. eigenvalues --    0.79632   0.79757   0.80390   0.81114   0.81380
 Alpha virt. eigenvalues --    0.81577   0.82393   0.83695   0.83977   0.84290
 Alpha virt. eigenvalues --    0.84644   0.85857   0.87035   0.87393   0.87554
 Alpha virt. eigenvalues --    0.88319   0.89505   0.89877   0.90270   0.91943
 Alpha virt. eigenvalues --    0.93087   0.93864   0.94862   0.95454   0.95805
 Alpha virt. eigenvalues --    0.96751   0.96888   0.97418   0.97456   0.98427
 Alpha virt. eigenvalues --    0.98794   0.99264   0.99882   1.00406   1.01188
 Alpha virt. eigenvalues --    1.01688   1.02273   1.02749   1.03383   1.04696
 Alpha virt. eigenvalues --    1.05771   1.06070   1.06092   1.06683   1.07278
 Alpha virt. eigenvalues --    1.08132   1.08610   1.08802   1.09912   1.10450
 Alpha virt. eigenvalues --    1.11356   1.12574   1.13095   1.14261   1.14699
 Alpha virt. eigenvalues --    1.15182   1.16394   1.16692   1.17647   1.18293
 Alpha virt. eigenvalues --    1.19918   1.20134   1.20383   1.21453   1.22317
 Alpha virt. eigenvalues --    1.23430   1.24285   1.25008   1.26738   1.28519
 Alpha virt. eigenvalues --    1.31022   1.32520   1.33079   1.34923   1.35410
 Alpha virt. eigenvalues --    1.38130   1.39367   1.40675   1.43095   1.45579
 Alpha virt. eigenvalues --    1.47953   1.48393   1.49019   1.50520   1.52140
 Alpha virt. eigenvalues --    1.53081   1.55418   1.56791   1.57648   1.58198
 Alpha virt. eigenvalues --    1.59104   1.59681   1.60546   1.61926   1.62142
 Alpha virt. eigenvalues --    1.63097   1.63528   1.64321   1.65226   1.65286
 Alpha virt. eigenvalues --    1.65685   1.66378   1.66432   1.67203   1.67585
 Alpha virt. eigenvalues --    1.67914   1.68828   1.69620   1.70031   1.71507
 Alpha virt. eigenvalues --    1.73025   1.73363   1.73608   1.74392   1.76463
 Alpha virt. eigenvalues --    1.76819   1.77612   1.78994   1.79238   1.79775
 Alpha virt. eigenvalues --    1.80991   1.82944   1.83102   1.83942   1.85242
 Alpha virt. eigenvalues --    1.85437   1.87057   1.87697   1.88616   1.89561
 Alpha virt. eigenvalues --    1.90395   1.91275   1.91740   1.92625   1.93457
 Alpha virt. eigenvalues --    1.94595   1.95409   1.96150   1.96911   1.98217
 Alpha virt. eigenvalues --    1.98964   1.99541   2.02274   2.02523   2.02980
 Alpha virt. eigenvalues --    2.03542   2.04335   2.04826   2.05958   2.07733
 Alpha virt. eigenvalues --    2.08451   2.09383   2.10314   2.10924   2.11321
 Alpha virt. eigenvalues --    2.13462   2.13775   2.16237   2.16365   2.16937
 Alpha virt. eigenvalues --    2.19137   2.20493   2.21722   2.23563   2.24168
 Alpha virt. eigenvalues --    2.24734   2.25631   2.26657   2.27683   2.29663
 Alpha virt. eigenvalues --    2.30065   2.31281   2.33882   2.34299   2.35693
 Alpha virt. eigenvalues --    2.36901   2.38457   2.39727   2.41331   2.43589
 Alpha virt. eigenvalues --    2.44717   2.46554   2.47246   2.48659   2.50041
 Alpha virt. eigenvalues --    2.51097   2.53003   2.54425   2.55715   2.57167
 Alpha virt. eigenvalues --    2.58903   2.60750   2.62348   2.63023   2.64378
 Alpha virt. eigenvalues --    2.64773   2.68063   2.68244   2.68612   2.69745
 Alpha virt. eigenvalues --    2.72976   2.75708   2.75957   2.76977   2.77681
 Alpha virt. eigenvalues --    2.78846   2.79149   2.79866   2.81735   2.82259
 Alpha virt. eigenvalues --    2.82615   2.83593   2.85596   2.87269   2.87974
 Alpha virt. eigenvalues --    2.88523   2.89757   2.90456   2.91310   2.91935
 Alpha virt. eigenvalues --    2.92109   2.92465   2.93432   2.93939   2.93987
 Alpha virt. eigenvalues --    2.94559   2.95836   2.96957   2.97580   2.98423
 Alpha virt. eigenvalues --    2.98724   3.00105   3.01022   3.03020   3.03547
 Alpha virt. eigenvalues --    3.04361   3.05279   3.05775   3.07604   3.08306
 Alpha virt. eigenvalues --    3.10007   3.11646   3.11907   3.14438   3.14782
 Alpha virt. eigenvalues --    3.18363   3.18892   3.19790   3.20336   3.20918
 Alpha virt. eigenvalues --    3.22234   3.23999   3.25878   3.27008   3.28378
 Alpha virt. eigenvalues --    3.29723   3.31389   3.33303   3.35042   3.37048
 Alpha virt. eigenvalues --    3.38457   3.41839   3.42525   3.45215   3.50428
 Alpha virt. eigenvalues --    3.51472   3.51922   3.56825   3.61942   3.65883
 Alpha virt. eigenvalues --    3.69594   3.70406   3.71931   3.74942   3.80031
 Alpha virt. eigenvalues --    3.81277   3.84128   3.84696   3.87686   3.89131
 Alpha virt. eigenvalues --    3.90839   3.96488   3.96568   4.01317   4.07459
 Alpha virt. eigenvalues --    4.12189   4.16555   4.24605   4.25199   4.26574
 Alpha virt. eigenvalues --    4.27268   4.31886   4.34499   4.37866   4.39310
 Alpha virt. eigenvalues --    4.39790   4.42894   4.47411   4.50170   4.58218
 Alpha virt. eigenvalues --    4.65410   4.79917   4.96114   4.96594   5.11706
 Alpha virt. eigenvalues --    5.15554   5.19432   5.25822   5.40330   5.63966
 Alpha virt. eigenvalues --    5.87712   5.92427  23.80427  23.91476  24.01213
 Alpha virt. eigenvalues --   24.10132  24.12850  24.14542  24.17116  24.19636
 Alpha virt. eigenvalues --   24.22940  24.24426  24.33044  24.33860  24.35955
 Alpha virt. eigenvalues --   24.42665  24.43480  24.43700  24.44676  24.48573
 Alpha virt. eigenvalues --   35.76698  50.13524  50.19244
          Condensed to atoms (all electrons):
              1          2          3          4          5          6
     1  O    8.126664   0.005345   0.185091   0.101016  -0.318908  -0.033098
     2  O    0.005345   8.072583  -0.150618   0.010410  -0.017385   0.000234
     3  C    0.185091  -0.150618  21.131972  -1.478683   1.135822  -0.062013
     4  C    0.101016   0.010410  -1.478683  10.787722  -0.816487  -0.110336
     5  C   -0.318908  -0.017385   1.135822  -0.816487   8.460501   0.606715
     6  H   -0.033098   0.000234  -0.062013  -0.110336   0.606715   0.480481
     7  H    0.004481   0.000409  -0.076740   0.520095  -0.147763  -0.020960
     8  H    0.231035   0.083621   0.003406  -0.010119   0.040740   0.001451
     9  C   -0.034701   0.874422  -5.348636  -0.836912   0.129438   0.006713
    10  C    0.150004  -0.028078  -1.123127   1.379348  -3.449720  -0.147470
    11  C   -0.092026  -0.071349   0.755843  -0.487745   0.249249   0.033011
    12  C    0.023233  -0.328277  -5.573027  -0.379847   0.474351   0.008846
    13  C   -0.042654  -0.142896  -2.769135  -1.245885  -0.227435   0.002274
    14  C   -0.009415  -0.005757   0.913105  -0.855048  -0.054039   0.008252
    15  H    0.002173  -0.002520   0.187217  -0.037319  -0.026574   0.000326
    16  C    0.027521   0.002213  -1.331891  -0.067756   0.200616   0.002243
    17  H   -0.002078   0.001087   0.078504   0.047761   0.071644   0.001387
    18  H   -0.000254  -0.000054   0.011432  -0.054792   0.008199   0.000780
    19  H   -0.000221  -0.000061   0.008224   0.023865   0.017057   0.001087
    20  H   -0.000041  -0.000263  -0.004908   0.003472  -0.016993  -0.000374
    21  H   -0.002054  -0.012141  -0.120073  -0.003334   0.005854  -0.000069
    22  C    0.005708   0.040129  -0.021918   0.042059  -0.044158  -0.001066
    23  C    0.001294  -0.015412  -0.097519  -0.030321   0.057001   0.000745
    24  C   -0.000394  -0.002517   0.016778   0.000971  -0.002966  -0.000025
    25  H    0.000031   0.001634  -0.020696  -0.002208   0.005651   0.000009
    26  C    0.000178  -0.001908   0.042988  -0.003267   0.003106   0.000035
    27  H    0.000116   0.001467   0.012267   0.000135   0.000166   0.000011
    28  C   -0.000097   0.000770  -0.019490   0.000192  -0.001311  -0.000014
    29  H   -0.000004   0.000050   0.000845   0.000445  -0.000429  -0.000004
    30  C    0.000022  -0.000984   0.000988  -0.000985   0.001447   0.000018
    31  H   -0.000001   0.000065  -0.000895   0.000013  -0.000040  -0.000001
    32  N    0.000000   0.000000   0.000012   0.000002  -0.000001   0.000000
    33  C    0.000000   0.000002   0.000057   0.000008  -0.000009   0.000000
    34  C    0.000000   0.000005  -0.000037  -0.000001   0.000000   0.000000
    35  H    0.000000  -0.000001  -0.000016  -0.000005   0.000004   0.000000
    36  H    0.000000   0.000000   0.000005   0.000001  -0.000001   0.000000
    37  H    0.000000   0.000000  -0.000002  -0.000006   0.000003   0.000000
    38  H    0.000000  -0.000002   0.000009   0.000000   0.000000   0.000000
    39  H    0.000000  -0.000002   0.000018   0.000000   0.000001   0.000000
    40  H    0.000000   0.000001  -0.000005   0.000000   0.000000   0.000000
              7          8          9         10         11         12
     1  O    0.004481   0.231035  -0.034701   0.150004  -0.092026   0.023233
     2  O    0.000409   0.083621   0.874422  -0.028078  -0.071349  -0.328277
     3  C   -0.076740   0.003406  -5.348636  -1.123127   0.755843  -5.573027
     4  C    0.520095  -0.010119  -0.836912   1.379348  -0.487745  -0.379847
     5  C   -0.147763   0.040740   0.129438  -3.449720   0.249249   0.474351
     6  H   -0.020960   0.001451   0.006713  -0.147470   0.033011   0.008846
     7  H    0.502390  -0.000187   0.012283   0.168066  -0.077855   0.004192
     8  H   -0.000187   0.307700   0.060660  -0.155933   0.040968  -0.001338
     9  C    0.012283   0.060660  12.657298   1.749523  -0.527699   0.820325
    10  C    0.168066  -0.155933   1.749523  23.635945  -5.455752  -5.770341
    11  C   -0.077855   0.040968  -0.527699  -5.455752  11.985268  -1.079426
    12  C    0.004192  -0.001338   0.820325  -5.770341  -1.079426  16.234945
    13  C   -0.035503   0.046086   0.447723  -1.666687   1.763630   0.670594
    14  C   -0.027121   0.003250  -0.213018  -1.021661   0.002095  -0.395224
    15  H   -0.000727  -0.003054   0.139205   0.495395  -0.244952   0.586997
    16  C    0.001044  -0.013038  -2.850168  -2.984766  -0.322707   3.157627
    17  H   -0.004450   0.002144  -0.078536  -0.082374   0.013920  -0.033376
    18  H   -0.005020  -0.000068   0.003141  -0.000739  -0.045258   0.007094
    19  H   -0.005038  -0.000008  -0.001329  -0.022606  -0.027939  -0.001266
    20  H    0.004485   0.000137   0.000145   0.018345  -0.061120  -0.021225
    21  H    0.000058   0.000025  -0.168907  -0.249824  -0.000139   0.219277
    22  C    0.000842  -0.008052   0.311551   0.447500  -0.118094  -1.235110
    23  C   -0.000440  -0.005669  -1.259016  -1.083148   0.018755  -0.512805
    24  C    0.000020   0.000925   0.189287   0.049474  -0.009970  -0.487974
    25  H   -0.000048  -0.000016  -0.077384  -0.143162   0.021845  -0.128327
    26  C   -0.000061   0.000306   0.184130   0.123341  -0.006034  -0.430957
    27  H   -0.000004   0.000109   0.071799   0.038643  -0.000270   0.011100
    28  C    0.000007  -0.000227  -0.071998  -0.108390   0.000844   0.296185
    29  H    0.000009   0.000015   0.013237   0.016343  -0.000825   0.057997
    30  C   -0.000020  -0.000405  -0.101316  -0.072584  -0.003980  -0.423517
    31  H    0.000001  -0.000012  -0.009903  -0.004536   0.000053  -0.025003
    32  N    0.000000   0.000001   0.001598   0.000382   0.000015   0.004036
    33  C    0.000000   0.000003   0.003500   0.001913  -0.000034   0.014500
    34  C    0.000000  -0.000004  -0.001395  -0.000953  -0.000017  -0.011690
    35  H    0.000000  -0.000001  -0.000650  -0.000339   0.000002  -0.001954
    36  H    0.000000   0.000000   0.000317   0.000162   0.000000   0.001101
    37  H    0.000000   0.000000  -0.000163  -0.000293   0.000006  -0.000948
    38  H    0.000000   0.000000   0.000141   0.000110  -0.000004  -0.000083
    39  H    0.000000   0.000001   0.000441   0.000159   0.000005   0.001894
    40  H    0.000000   0.000000  -0.000205  -0.000097  -0.000001  -0.000441
             13         14         15         16         17         18
     1  O   -0.042654  -0.009415   0.002173   0.027521  -0.002078  -0.000254
     2  O   -0.142896  -0.005757  -0.002520   0.002213   0.001087  -0.000054
     3  C   -2.769135   0.913105   0.187217  -1.331891   0.078504   0.011432
     4  C   -1.245885  -0.855048  -0.037319  -0.067756   0.047761  -0.054792
     5  C   -0.227435  -0.054039  -0.026574   0.200616   0.071644   0.008199
     6  H    0.002274   0.008252   0.000326   0.002243   0.001387   0.000780
     7  H   -0.035503  -0.027121  -0.000727   0.001044  -0.004450  -0.005020
     8  H    0.046086   0.003250  -0.003054  -0.013038   0.002144  -0.000068
     9  C    0.447723  -0.213018   0.139205  -2.850168  -0.078536   0.003141
    10  C   -1.666687  -1.021661   0.495395  -2.984766  -0.082374  -0.000739
    11  C    1.763630   0.002095  -0.244952  -0.322707   0.013920  -0.045258
    12  C    0.670594  -0.395224   0.586997   3.157627  -0.033376   0.007094
    13  C   10.158784  -0.232406  -0.254520  -0.130654   0.400986   0.023893
    14  C   -0.232406   7.068373   0.020533  -0.104003  -0.040304   0.419832
    15  H   -0.254520   0.020533   0.996394  -0.155632  -0.100749   0.001191
    16  C   -0.130654  -0.104003  -0.155632   9.729258  -0.019051   0.000443
    17  H    0.400986  -0.040304  -0.100749  -0.019051   0.679155  -0.004978
    18  H    0.023893   0.419832   0.001191   0.000443  -0.004978   0.546371
    19  H   -0.007142   0.389796   0.000129  -0.000928   0.000615  -0.058083
    20  H    0.057248   0.388950   0.005271  -0.000705  -0.018793  -0.016311
    21  H    0.042698  -0.003342  -0.008676   0.581196   0.002584   0.000007
    22  C   -0.404254  -0.014790   0.137624   0.054800  -0.024235   0.000566
    23  C    0.167784  -0.012212  -0.337389   1.219316   0.018551   0.000042
    24  C   -0.001695   0.001513   0.052824  -1.016747   0.003389  -0.000025
    25  H    0.031929  -0.001847  -0.139231   0.046205   0.017715   0.000195
    26  C   -0.049429   0.006271  -0.154201  -0.333007   0.006822   0.000332
    27  H   -0.007884   0.000202   0.007076  -0.027069  -0.000124   0.000000
    28  C    0.038340   0.000038   0.026704   0.246967   0.001534   0.000010
    29  H   -0.003975  -0.000045   0.028780   0.006711  -0.002158  -0.000031
    30  C   -0.003607   0.000270  -0.082085  -0.064480   0.003697   0.000115
    31  H    0.000858  -0.000022  -0.002450   0.004980   0.000086   0.000000
    32  N   -0.000018  -0.000002  -0.000741  -0.004507   0.000006   0.000000
    33  C   -0.000683   0.000002  -0.000096  -0.009017   0.000001   0.000000
    34  C    0.000090   0.000001  -0.000588   0.015777   0.000043   0.000000
    35  H    0.000090   0.000000  -0.000690   0.000317   0.000052   0.000000
    36  H   -0.000059  -0.000001   0.000131  -0.001773  -0.000005   0.000000
    37  H    0.000154   0.000010  -0.000703   0.000739   0.000019   0.000000
    38  H   -0.000051   0.000000   0.000197  -0.001258  -0.000004   0.000000
    39  H    0.000003   0.000000   0.000025  -0.001428  -0.000002   0.000000
    40  H    0.000023   0.000000  -0.000022   0.002886   0.000003   0.000000
             19         20         21         22         23         24
     1  O   -0.000221  -0.000041  -0.002054   0.005708   0.001294  -0.000394
     2  O   -0.000061  -0.000263  -0.012141   0.040129  -0.015412  -0.002517
     3  C    0.008224  -0.004908  -0.120073  -0.021918  -0.097519   0.016778
     4  C    0.023865   0.003472  -0.003334   0.042059  -0.030321   0.000971
     5  C    0.017057  -0.016993   0.005854  -0.044158   0.057001  -0.002966
     6  H    0.001087  -0.000374  -0.000069  -0.001066   0.000745  -0.000025
     7  H   -0.005038   0.004485   0.000058   0.000842  -0.000440   0.000020
     8  H   -0.000008   0.000137   0.000025  -0.008052  -0.005669   0.000925
     9  C   -0.001329   0.000145  -0.168907   0.311551  -1.259016   0.189287
    10  C   -0.022606   0.018345  -0.249824   0.447500  -1.083148   0.049474
    11  C   -0.027939  -0.061120  -0.000139  -0.118094   0.018755  -0.009970
    12  C   -0.001266  -0.021225   0.219277  -1.235110  -0.512805  -0.487974
    13  C   -0.007142   0.057248   0.042698  -0.404254   0.167784  -0.001695
    14  C    0.389796   0.388950  -0.003342  -0.014790  -0.012212   0.001513
    15  H    0.000129   0.005271  -0.008676   0.137624  -0.337389   0.052824
    16  C   -0.000928  -0.000705   0.581196   0.054800   1.219316  -1.016747
    17  H    0.000615  -0.018793   0.002584  -0.024235   0.018551   0.003389
    18  H   -0.058083  -0.016311   0.000007   0.000566   0.000042  -0.000025
    19  H    0.557272  -0.018865   0.000009  -0.000465   0.000177   0.000057
    20  H   -0.018865   0.555932  -0.000211  -0.003439   0.001136  -0.000692
    21  H    0.000009  -0.000211   0.513801  -0.168095   0.112441   0.006502
    22  C   -0.000465  -0.003439  -0.168095  10.895941  -0.217016  -0.014679
    23  C    0.000177   0.001136   0.112441  -0.217016  10.327342  -1.275467
    24  C    0.000057  -0.000692   0.006502  -0.014679  -1.275467   9.946789
    25  H    0.000017  -0.002805   0.010956  -0.245074   0.564133   0.024122
    26  C   -0.000333   0.000188  -0.013084  -0.565297   1.424964  -1.357840
    27  H   -0.000001   0.000027  -0.023419   0.015546  -0.092862   0.337157
    28  C    0.000011  -0.000370   0.047977  -2.114442  -1.295750   1.500843
    29  H    0.000002   0.000229  -0.002144   0.200329  -0.009823  -0.025436
    30  C   -0.000075  -0.000441   0.018729  -1.545698  -0.910220  -1.715010
    31  H    0.000000  -0.000010   0.005132  -0.080517   0.004028   0.029724
    32  N    0.000000   0.000003  -0.000662  -0.026164  -0.038642   0.051307
    33  C   -0.000001   0.000006  -0.000293   0.008448  -0.019511  -0.036787
    34  C    0.000000  -0.000006  -0.000265  -0.159121  -0.053817  -0.025920
    35  H    0.000000  -0.000006   0.000182  -0.009197  -0.006918  -0.002359
    36  H    0.000000   0.000002  -0.000095   0.008169   0.002416   0.010455
    37  H    0.000000  -0.000001   0.000117  -0.014802  -0.002925  -0.009362
    38  H    0.000000   0.000000  -0.000190   0.012643  -0.005312   0.019425
    39  H    0.000000   0.000001  -0.000256   0.009570  -0.003614  -0.016212
    40  H    0.000000  -0.000001   0.000059  -0.011656   0.002153  -0.020479
             25         26         27         28         29         30
     1  O    0.000031   0.000178   0.000116  -0.000097  -0.000004   0.000022
     2  O    0.001634  -0.001908   0.001467   0.000770   0.000050  -0.000984
     3  C   -0.020696   0.042988   0.012267  -0.019490   0.000845   0.000988
     4  C   -0.002208  -0.003267   0.000135   0.000192   0.000445  -0.000985
     5  C    0.005651   0.003106   0.000166  -0.001311  -0.000429   0.001447
     6  H    0.000009   0.000035   0.000011  -0.000014  -0.000004   0.000018
     7  H   -0.000048  -0.000061  -0.000004   0.000007   0.000009  -0.000020
     8  H   -0.000016   0.000306   0.000109  -0.000227   0.000015  -0.000405
     9  C   -0.077384   0.184130   0.071799  -0.071998   0.013237  -0.101316
    10  C   -0.143162   0.123341   0.038643  -0.108390   0.016343  -0.072584
    11  C    0.021845  -0.006034  -0.000270   0.000844  -0.000825  -0.003980
    12  C   -0.128327  -0.430957   0.011100   0.296185   0.057997  -0.423517
    13  C    0.031929  -0.049429  -0.007884   0.038340  -0.003975  -0.003607
    14  C   -0.001847   0.006271   0.000202   0.000038  -0.000045   0.000270
    15  H   -0.139231  -0.154201   0.007076   0.026704   0.028780  -0.082085
    16  C    0.046205  -0.333007  -0.027069   0.246967   0.006711  -0.064480
    17  H    0.017715   0.006822  -0.000124   0.001534  -0.002158   0.003697
    18  H    0.000195   0.000332   0.000000   0.000010  -0.000031   0.000115
    19  H    0.000017  -0.000333  -0.000001   0.000011   0.000002  -0.000075
    20  H   -0.002805   0.000188   0.000027  -0.000370   0.000229  -0.000441
    21  H    0.010956  -0.013084  -0.023419   0.047977  -0.002144   0.018729
    22  C   -0.245074  -0.565297   0.015546  -2.114442   0.200329  -1.545698
    23  C    0.564133   1.424964  -0.092862  -1.295750  -0.009823  -0.910220
    24  C    0.024122  -1.357840   0.337157   1.500843  -0.025436  -1.715010
    25  H    0.679705   0.074828  -0.011373   0.004940  -0.082694   0.221709
    26  C    0.074828   8.849564   0.025874  -1.988193   0.362531   0.424797
    27  H   -0.011373   0.025874   0.520040  -0.075727   0.004248   0.019109
    28  C    0.004940  -1.988193  -0.075727   9.362477  -0.025366   0.027228
    29  H   -0.082694   0.362531   0.004248  -0.025366   0.600319  -0.299718
    30  C    0.221709   0.424797   0.019109   0.027228  -0.299718  11.063367
    31  H    0.006259  -0.046793  -0.028112   0.555317  -0.004841  -0.102001
    32  N   -0.000384  -0.304509  -0.001626  -0.216286  -0.040590   0.291685
    33  C    0.002751   0.107523   0.000729  -0.188762   0.025939  -0.136003
    34  C    0.003102  -0.194307   0.001769   0.239263  -0.010547  -0.104394
    35  H    0.003065   0.013617  -0.000414   0.000459  -0.016990   0.009543
    36  H   -0.000968   0.017245   0.000072   0.003188   0.011691  -0.025088
    37  H    0.004708   0.046527  -0.000281  -0.020328  -0.020182   0.004229
    38  H   -0.000878  -0.013078   0.000788   0.026494   0.001212  -0.041170
    39  H   -0.000281   0.008148   0.001741  -0.009608   0.000202   0.018605
    40  H   -0.000050   0.007712  -0.000183   0.021501   0.000732   0.007423
             31         32         33         34         35         36
     1  O   -0.000001   0.000000   0.000000   0.000000   0.000000   0.000000
     2  O    0.000065   0.000000   0.000002   0.000005  -0.000001   0.000000
     3  C   -0.000895   0.000012   0.000057  -0.000037  -0.000016   0.000005
     4  C    0.000013   0.000002   0.000008  -0.000001  -0.000005   0.000001
     5  C   -0.000040  -0.000001  -0.000009   0.000000   0.000004  -0.000001
     6  H   -0.000001   0.000000   0.000000   0.000000   0.000000   0.000000
     7  H    0.000001   0.000000   0.000000   0.000000   0.000000   0.000000
     8  H   -0.000012   0.000001   0.000003  -0.000004  -0.000001   0.000000
     9  C   -0.009903   0.001598   0.003500  -0.001395  -0.000650   0.000317
    10  C   -0.004536   0.000382   0.001913  -0.000953  -0.000339   0.000162
    11  C    0.000053   0.000015  -0.000034  -0.000017   0.000002   0.000000
    12  C   -0.025003   0.004036   0.014500  -0.011690  -0.001954   0.001101
    13  C    0.000858  -0.000018  -0.000683   0.000090   0.000090  -0.000059
    14  C   -0.000022  -0.000002   0.000002   0.000001   0.000000  -0.000001
    15  H   -0.002450  -0.000741  -0.000096  -0.000588  -0.000690   0.000131
    16  C    0.004980  -0.004507  -0.009017   0.015777   0.000317  -0.001773
    17  H    0.000086   0.000006   0.000001   0.000043   0.000052  -0.000005
    18  H    0.000000   0.000000   0.000000   0.000000   0.000000   0.000000
    19  H    0.000000   0.000000  -0.000001   0.000000   0.000000   0.000000
    20  H   -0.000010   0.000003   0.000006  -0.000006  -0.000006   0.000002
    21  H    0.005132  -0.000662  -0.000293  -0.000265   0.000182  -0.000095
    22  C   -0.080517  -0.026164   0.008448  -0.159121  -0.009197   0.008169
    23  C    0.004028  -0.038642  -0.019511  -0.053817  -0.006918   0.002416
    24  C    0.029724   0.051307  -0.036787  -0.025920  -0.002359   0.010455
    25  H    0.006259  -0.000384   0.002751   0.003102   0.003065  -0.000968
    26  C   -0.046793  -0.304509   0.107523  -0.194307   0.013617   0.017245
    27  H   -0.028112  -0.001626   0.000729   0.001769  -0.000414   0.000072
    28  C    0.555317  -0.216286  -0.188762   0.239263   0.000459   0.003188
    29  H   -0.004841  -0.040590   0.025939  -0.010547  -0.016990   0.011691
    30  C   -0.102001   0.291685  -0.136003  -0.104394   0.009543  -0.025088
    31  H    0.555066  -0.033118  -0.006393   0.033705   0.000205   0.001064
    32  N   -0.033118   7.051559   0.315595   0.323975  -0.060539  -0.041266
    33  C   -0.006393   0.315595   5.050826  -0.087152   0.437631   0.421186
    34  C    0.033705   0.323975  -0.087152   5.027203   0.001561  -0.015149
    35  H    0.000205  -0.060539   0.437631   0.001561   0.557237  -0.016626
    36  H    0.001064  -0.041266   0.421186  -0.015149  -0.016626   0.505190
    37  H    0.000187  -0.040491   0.424192  -0.001882  -0.078680  -0.022345
    38  H   -0.009634  -0.059677   0.002242   0.442573   0.002578   0.000251
    39  H   -0.017531  -0.057646  -0.002573   0.430583  -0.002723  -0.001216
    40  H    0.008155  -0.033898  -0.010533   0.424809  -0.002445   0.004178
             37         38         39         40
[...]
 0709,-0.00000543,0.00000888,-0.00000016,0.00000220,-0.00000441,-0.0000
 0466,0.00000121,-0.00000154,0.00000091,0.00000094,0.00000208,0.0000021
 9,0.00000277,0.00000164,0.00002164,-0.00024991,-0.00010622,-0.00010520
 ,0.00020893,-0.00007505,0.00035432,-0.00013782,0.00038791,-0.00000250,
 -0.00003055,-0.00003749,0.00041797,0.00011593,0.00030882,-0.00000265,-
 0.00011846,-0.00006753,-0.00023514,-0.00096668,-0.00113033,-0.00016539
 ,0.00019538,0.00013337,0.00326035,-0.00126954,0.00349041,0.00007387,-0
 .00003344,0.00007340,-0.00145106,-0.02606653,-0.01861931,-0.01430807,-
 0.19288637,-0.13101310,-0.00177685,-0.00006329,-0.00290169,0.00141432,
 0.00940776,0.00699069,0.01288537,0.21477668,0.00000844,-0.00003797,-0.
 00000650,0.00003179,-0.00009661,-0.00001791,-0.00001973,0.00003792,-0.
 00000901,-0.00001062,0.00002098,-0.00000516,0.00000624,-0.00000276,0.0
 0000752,-0.00000038,-0.00000244,-0.00000149,-0.00000173,-0.00000095,-0
 .00000348,0.00000338,0.00002930,0.00002154,-0.00000507,0.00018664,0.00
 011476,-0.00002536,-0.00002828,-0.00005997,-0.00000170,-0.00002966,-0.
 00001818,-0.00005257,-0.00011288,-0.00013622,0.00001827,-0.00000847,0.
 00002249,0.00000007,0.00000180,0.00000117,0.00000866,0.00000668,0.0000
 1059,0.00007682,0.00010103,0.00014950,0.00000489,-0.00000443,0.0000060
 7,0.00000070,0.00000117,-0.00000361,-0.00000363,0.00000033,-0.00000057
 ,0.00000070,-0.00000076,0.00000121,0.00000170,-0.00001227,-0.00000341,
 0.00016576,-0.00021891,0.00003260,0.00007811,0.00010146,0.00032575,-0.
 00009668,-0.00009319,-0.00021802,-0.00001718,0.00001066,0.00000354,-0.
 00065716,-0.00011603,-0.00051975,0.00001903,0.00003116,0.00000984,-0.0
 0016524,0.00073812,0.00059483,0.00059253,-0.00030443,0.00019732,-0.001
 42485,0.00144959,-0.00111992,0.00005428,-0.00003730,0.00004749,0.00031
 209,0.01134108,0.00680588,-0.01569803,-0.14205643,-0.17826649,-0.00147
 135,0.00229835,0.00036385,-0.00407032,-0.02042197,-0.01697108,0.022799
 33,0.14589457,0.18921659,-0.00000108,0.00005625,0.00001966,-0.00008497
 ,0.00019580,0.00000700,0.00002313,-0.00006694,0.00000075,0.00001870,-0
 .00002901,0.00001492,-0.00000264,-0.00000172,-0.00000568,0.00000028,0.
 00000266,0.00000338,0.00000136,0.00000146,0.00000525,-0.00001202,-0.00
 005137,-0.00003871,0.00004837,-0.00047377,-0.00024173,0.00005767,0.000
 05388,0.00011948,0.00000544,0.00004655,0.00002267,0.00013435,0.0003856
 9,0.00042496,-0.00003596,0.00004140,-0.00003217,0.00000037,0.00000866,
 0.00000474,0.00000254,0.00000171,0.00000930,0.00002364,-0.00054168,-0.
 00041265,-0.00001283,0.00000410,-0.00000961,0.00000154,-0.00000454,0.0
 0000424,0.00000705,-0.00000119,0.00000400,-0.00000362,-0.00000523,-0.0
 0000314,-0.00001171,-0.00001776,-0.00000952,-0.00018711,0.00075914,0.0
 0033526,0.00044584,-0.00092126,0.00016249,0.00012346,-0.00044583,-0.00
 032431,0.00000530,0.00004066,0.00002951,-0.00025720,0.00080552,0.00012
 768,-0.00002133,0.00001503,0.00002010,-0.00046340,0.00116035,0.0001129
 8,0.00067968,-0.00023564,0.00075762,-0.00013567,-0.00370768,-0.0031304
 5,0.00000375,-0.00014856,0.00009209,-0.01487131,0.00938313,-0.00822285
 ,-0.28712244,-0.06495136,-0.01840168,-0.00179244,0.00075551,0.00281367
 ,-0.01090945,-0.00487488,-0.00068273,-0.00040145,-0.00086927,0.0003969
 0,0.31566802,0.00000092,0.00000176,0.00000225,0.00000883,-0.00000097,0
 .00000730,0.00000237,-0.00000227,-0.00000221,0.00000146,-0.00000212,-0
 .00000002,-0.00000017,0.00000066,0.00000086,0.,0.00000020,0.00000011,0
 .00000020,0.00000033,0.00000052,-0.00000111,-0.00000252,-0.00000217,-0
 .00002572,-0.00000441,-0.00000051,0.00000175,0.00000220,0.00000768,-0.
 00000216,0.00000412,0.00000211,0.00000744,-0.00002514,-0.00001924,-0.0
 0000109,0.00000073,-0.00000377,0.00000022,0.00000038,0.00000027,0.0000
 0788,0.00000359,-0.00001099,0.00008465,0.00008287,-0.00009016,-0.00000
 119,0.00000018,-0.00000163,-0.00000026,-0.00000053,0.00000032,0.000001
 09,0.00000038,0.00000023,-0.00000108,-0.00000004,-0.00000042,-0.000010
 65,-0.00001391,0.00000830,-0.00065830,0.00031571,-0.00073595,-0.000048
 58,-0.00130189,0.00020205,0.00010491,0.00065081,0.00106974,0.00000274,
 -0.00000319,0.00000334,-0.00089086,0.00037209,-0.00094930,0.00005627,0
 .00003020,-0.00001813,0.00013254,-0.00161241,0.00021886,0.00128197,-0.
 00077861,-0.00147037,0.00078983,0.00361626,0.00137762,0.00008799,0.000
 09755,-0.00008508,0.03225592,0.00126275,0.00710899,-0.06837148,-0.0673
 5598,-0.00632849,0.00222511,-0.00206808,-0.00187051,-0.00897005,-0.002
 01986,-0.00210624,-0.02223791,-0.00488898,0.00010107,0.06344539,0.0731
 0099,-0.00001052,0.00005515,0.00000921,-0.00005888,0.00015428,0.000015
 17,0.00002698,-0.00005774,0.00001133,0.00001454,-0.00002813,0.00000965
 ,-0.00000674,0.00000277,-0.00001025,0.00000028,0.00000310,0.00000251,0
 .00000234,0.00000118,0.00000439,-0.00000595,-0.00004294,-0.00003023,0.
 00001729,-0.00032485,-0.00017094,0.00004140,0.00004520,0.00008894,0.00
 000152,0.00003956,0.00002616,0.00009809,0.00022333,0.00025997,-0.00002
 691,0.00001949,-0.00003033,0.00000007,-0.00000031,-0.00000097,-0.00000
 083,-0.00000139,-0.00001208,-0.00002609,-0.00023175,-0.00030788,-0.000
 00613,0.00000571,-0.00000932,-0.00000006,-0.00000186,0.00000478,0.0000
 0465,-0.00000132,0.00000138,-0.00000036,0.00000009,-0.00000174,-0.0000
 1284,0.00000435,0.00000353,-0.00034628,0.00055194,-0.00005440,-0.00011
 344,-0.00057327,-0.00009662,0.00015353,0.00015548,0.00027410,0.0000169
 4,-0.00000957,0.00001538,0.00084001,0.00008935,0.00026032,-0.00001511,
 0.00002008,0.00000417,-0.00004084,-0.00005111,-0.00024274,0.00068755,-
 0.00079070,-0.00098983,0.00015374,-0.00065362,-0.00018890,-0.00002559,
 -0.00003667,0.00001056,-0.01421766,-0.00094080,-0.00272885,-0.01762039
 ,-0.00493585,-0.05038825,-0.00172390,0.00122214,-0.00016002,0.02823455
 ,0.00793049,0.00243954,-0.02172691,-0.00491197,-0.00084686,0.02655759,
 0.00226986,0.05316877,0.00000543,-0.00003526,-0.00000822,0.00003952,-0
 .00010251,-0.00001133,-0.00001590,0.00003768,-0.00000655,-0.00001000,0
 .00001830,-0.00000686,0.00000400,-0.00000110,0.00000586,-0.00000035,-0
 .00000204,-0.00000162,-0.00000142,-0.00000073,-0.00000301,0.00000505,0
 .00002908,0.00002141,-0.00002571,0.00021802,0.00012401,-0.00002711,-0.
 00003002,-0.00006259,-0.00000281,-0.00002677,-0.00001623,-0.00006626,-
 0.00016872,-0.00018428,0.00002047,-0.00001467,0.00001862,-0.00000015,-
 0.00000107,-0.00000011,-0.00000074,0.00000275,0.00000320,0.00004584,0.
 00020867,0.00013489,0.00000477,-0.00000335,0.00000589,-0.00000030,0.00
 000156,-0.00000319,-0.00000322,0.00000101,-0.00000124,0.00000056,0.000
 00072,0.00000133,0.00000358,0.00000129,0.00000514,0.00016034,-0.000372
 77,-0.00007736,-0.00015829,0.00022110,0.00017213,-0.00033226,-0.000028
 24,-0.00017544,0.00001778,0.00001886,-0.00003715,-0.00062766,-0.000274
 18,-0.00030297,0.00001328,-0.00000520,0.00001113,0.00056958,-0.0008797
 7,0.00092645,0.00007498,0.00006204,-0.00003197,0.00061441,0.00183577,0
 .00087927,0.00001833,0.00041879,0.00012728,0.00006803,0.01855004,-0.02
 092043,-0.00035536,-0.00039054,-0.00313435,-0.05794221,-0.03579041,0.0
 3357061,-0.00064284,0.00072290,-0.00061644,-0.00010371,-0.00012700,0.0
 0000981,-0.00010622,0.00013753,-0.00023993,0.06296795,-0.00001511,0.00
 006652,0.00000570,-0.00008362,0.00018866,0.00000632,0.00003613,-0.0000
 6899,0.00001556,0.00001855,-0.00003108,0.00000917,-0.00001167,0.000001
 60,-0.00001153,0.00000066,0.00000344,0.00000295,0.00000215,0.00000080,
 0.00000507,-0.00000636,-0.00004924,-0.00003166,0.00003206,-0.00040402,
 -0.00019272,0.00004947,0.00005270,0.00009674,0.00000519,0.00004394,0.0
 0002791,0.00007080,0.00028856,0.00034254,-0.00003464,0.00002299,-0.000
 03120,-0.00000031,0.00000058,-0.00000021,-0.00000202,0.00000156,-0.000
 00944,0.00009382,-0.00029656,-0.00039080,-0.00000875,0.00000569,-0.000
 00861,-0.00000006,-0.00000270,0.00000410,0.00000515,-0.00000100,0.0000
 0152,-0.00000096,-0.00000037,-0.00000107,-0.00000162,0.00001611,0.0000
 0065,0.00061363,0.00006533,0.00086231,-0.00041378,0.00067440,0.0000913
 7,-0.00102721,-0.00104305,-0.00091200,0.00002546,0.00003662,0.00000030
 ,-0.00038123,-0.00040885,-0.00008783,-0.00001115,0.00002834,-0.0000034
 3,0.00068260,-0.00007320,0.00052260,-0.00000476,0.00000351,-0.00005980
 ,0.00075342,0.00013874,-0.00057139,0.00064977,-0.00144369,-0.00252078,
 0.00431382,0.00718944,-0.00372626,-0.00033677,-0.00036648,0.00002059,-
 0.03348515,-0.18479703,0.12476372,0.00008851,0.00016660,0.00037141,-0.
 00011576,0.00040647,0.00039679,0.00004845,0.00001786,0.00011285,0.0338
 9098,0.19686619,0.00001465,-0.00005285,0.00000114,0.00008245,-0.000159
 88,0.00002160,-0.00002682,0.00005656,-0.00001410,-0.00001083,0.0000223
 0,-0.00001012,0.00000544,-0.00000142,0.00001111,0.,-0.00000235,-0.0000
 0243,-0.00000132,-0.00000038,-0.00000308,0.00000346,0.00003595,0.00001
 910,-0.00005718,0.00034624,0.00014899,-0.00003309,-0.00003644,-0.00007
 258,-0.00000551,-0.00003080,-0.00001832,-0.00011832,-0.00024601,-0.000
 30649,0.00002090,-0.00002058,0.00002413,0.00000018,-0.00000025,0.00000
 007,0.00000457,-0.00000050,-0.00000080,0.00013922,0.00040890,0.0003637
 7,0.00000620,-0.00000345,0.00000553,-0.00000006,0.00000163,-0.00000245
 ,-0.00000326,0.00000086,-0.00000124,0.00000078,0.00000051,0.00000044,0
 .00000601,-0.00001433,-0.00000502,0.00045059,-0.00080017,-0.00001442,-
 0.00033772,0.00089932,0.00051557,-0.00002529,-0.00023177,0.00032909,0.
 00003316,0.00001325,-0.00003921,-0.00086048,-0.00099920,-0.00124214,0.
 00000177,-0.00002912,-0.00002476,0.00028675,-0.00074098,-0.00022579,0.
 00018201,0.00007727,0.00003158,-0.00025307,0.00524633,0.00260069,0.001
 15791,-0.00141705,-0.00092372,-0.00945575,0.01337160,-0.02378902,0.002
 29866,-0.00142900,-0.00326877,0.03213401,0.12217398,-0.16264206,-0.000
 59899,0.00109188,-0.00058525,-0.00007677,0.00009728,0.00022316,0.00005
 370,0.00002925,-0.00010799,-0.02591958,-0.13632442,0.18415009,0.000030
 82,-0.00011553,-0.00001428,0.00017538,-0.00034593,-0.00000246,-0.00006
 237,0.00012426,-0.00002326,-0.00002901,0.00005463,-0.00002160,0.000016
 23,-0.00000204,0.00002031,-0.00000196,-0.00000619,-0.00000464,-0.00000
 458,-0.00000186,-0.00000780,0.00000551,0.00008532,0.00005920,-0.000112
 55,0.00075056,0.00037816,-0.00007880,-0.00008873,-0.00018383,-0.000009
 17,-0.00007751,-0.00004715,-0.00020452,-0.00055280,-0.00065683,0.00006
 069,-0.00004681,0.00005444,-0.00000041,-0.00000308,-0.00000062,0.00000
 977,0.00000150,0.00000457,0.00013612,0.00076440,0.00066589,0.00001193,
 -0.00001060,0.00001783,-0.00000038,0.00000376,-0.00000938,-0.00000773,
 0.00000357,-0.00000211,-0.00000011,0.00000139,0.00000404,0.00000803,-0
 .00002344,0.00000004,0.00003958,-0.00112917,-0.00060365,0.00005609,0.0
 0066119,0.00038329,0.00032695,0.00047093,0.00079090,-0.00003848,-0.000
 02897,-0.00000737,-0.00057712,-0.00065852,-0.00158910,0.00001419,-0.00
 005361,-0.00001285,0.00025702,-0.00136415,-0.00050577,0.00000226,-0.00
 000185,0.00014387,-0.00017855,0.00596298,0.00337011,0.00022798,-0.0005
 5647,0.00037439,-0.02126160,-0.00167361,-0.01226619,-0.00215692,-0.002
 70411,0.00113040,-0.26973045,0.00892581,0.07884414,-0.00008631,0.00010
 682,-0.00017769,-0.00003586,0.00003657,-0.00005324,-0.00086395,0.00078
 980,-0.00060499,-0.00501723,0.00073671,0.00362247,0.30227012,-0.000004
 76,0.00003520,0.00000934,-0.00003421,0.00010249,0.00001659,0.00001740,
 -0.00003650,0.00000506,0.00000985,-0.00001955,0.00000727,-0.00000513,0
 .00000063,-0.00000552,0.00000050,0.00000212,0.00000153,0.00000157,0.00
 000079,0.00000300,-0.00000593,-0.00003008,-0.00002218,0.00002416,-0.00
 020985,-0.00013222,0.00002714,0.00003010,0.00006423,0.00000369,0.00002
 814,0.00001570,0.00005474,0.00018509,0.00015889,-0.00002081,0.00001446
 ,-0.00001946,-0.00000027,0.00000128,0.00000058,-0.00000554,-0.00000443
 ,-0.00000152,-0.00006135,-0.00020682,-0.00002204,-0.00000449,0.0000039
 1,-0.00000605,0.00000008,-0.00000147,0.00000343,0.00000322,-0.00000111
 ,0.00000098,-0.00000029,-0.00000065,-0.00000167,-0.00000595,0.00000156
 ,0.00000074,0.00064454,-0.00018622,0.00078866,-0.00027454,0.00105565,0
 .00011623,0.00014515,-0.00065960,-0.00101999,-0.00001120,0.00000539,0.
 00002658,-0.00012995,-0.00054837,-0.00091007,-0.00003003,-0.00000643,-
 0.00001335,0.00006339,0.00093811,0.00059966,-0.00003271,-0.00002925,0.
 00004104,-0.00101219,0.00152827,0.00141531,-0.00087184,-0.00147307,0.0
 0031822,-0.00289868,0.00041377,-0.00215093,0.00001756,-0.00048198,0.00
 038226,0.00938367,-0.05135959,-0.00226021,0.00004794,-0.00002912,0.000
 07333,-0.00004282,0.00033668,-0.00005149,0.00004942,0.00023324,0.00033
 320,-0.02293257,0.00094292,0.00866550,-0.00984116,0.04857583,0.0000028
 4,-0.00002357,-0.00000475,0.00003262,-0.00007086,-0.00000326,-0.000010
 86,0.00002589,-0.00000391,-0.00000553,0.00001193,-0.00000568,0.0000005
 5,-0.00000116,0.00000462,0.00000018,-0.00000112,-0.00000140,-0.0000008
 0,-0.00000052,-0.00000200,0.00000327,0.00001901,0.00001400,-0.00001064
 ,0.00016450,0.00007365,-0.00002181,-0.00002085,-0.00003984,-0.00000289
 ,-0.00001756,-0.00000922,-0.00003929,-0.00010068,-0.00016740,0.0000132
 6,-0.00001127,0.00001191,0.00000005,-0.00000105,-0.00000056,0.00000103
 ,0.00000247,-0.00000151,-0.00004864,0.00012880,0.00024698,0.00000376,-
 0.00000202,0.00000394,-0.00000021,0.00000098,-0.00000197,-0.00000221,0
 .00000063,-0.00000097,0.00000044,0.00000078,0.00000102,0.00000096,0.00
 000290,0.00000704,0.00056198,-0.00064555,0.00039933,-0.00014611,0.0011
 1642,0.00011921,0.00003664,-0.00023768,-0.00100334,-0.00006507,-0.0000
 1079,0.00003646,-0.00004118,-0.00027980,-0.00164603,-0.00000469,-0.000
 00967,0.00000432,0.00126567,-0.00020391,0.00085872,-0.00012359,-0.0000
 3801,0.00008804,-0.00109903,0.00327043,0.00344794,-0.00066296,-0.00067
 315,-0.00001076,-0.03388271,-0.00050260,0.00268943,-0.00171257,-0.0020
 0588,0.00011515,0.07969397,-0.00274130,-0.07627826,0.00012096,-0.00005
 576,-0.00012827,0.00000002,0.00027664,-0.00011454,-0.00065828,0.000931
 60,-0.00043377,0.02037928,-0.00201217,-0.00645610,-0.07516800,0.002605
 25,0.08226406,0.00000011,0.00000189,0.00000222,0.00000568,-0.00000377,
 0.00000922,-0.00000033,-0.00000127,0.00000017,-0.00000036,-0.00000216,
 0.00000056,0.00000077,0.00000072,-0.00000080,-0.00000014,0.00000014,-0
 .00000005,0.00000050,0.00000003,0.00000022,0.00000020,-0.00000236,-0.0
 0000326,-0.00000484,0.00000700,-0.00000336,0.00000260,0.00000251,0.000
 00408,0.00000196,0.00000274,0.00000089,-0.00001616,-0.00000308,-0.0000
 1145,-0.00000327,0.00000021,-0.00000093,-0.00000007,-0.00000025,-0.000
 00016,0.00000296,-0.00000018,0.00000139,0.00003231,0.00002553,0.000058
 00,0.00000017,0.00000066,-0.00000027,-0.00000021,-0.00000009,0.0000006
 2,0.00000021,-0.00000025,-0.00000028,0.00000032,0.00000029,-0.00000013
 ,0.00000052,-0.00000767,-0.00000498,0.00007763,-0.00008797,0.00012506,
 -0.00027354,0.00029354,-0.00013467,0.00026951,-0.00017866,0.00002207,-
 0.00001800,-0.00008640,-0.00003146,0.00035626,-0.00117096,-0.00076391,
 0.00000591,-0.00001855,-0.00002562,-0.00026541,0.00075296,-0.00043014,
 0.00000749,0.00000632,0.00001153,-0.00274557,0.00146051,-0.00258950,0.
 00014465,-0.00017384,0.00059204,0.00048579,-0.02241321,-0.01242444,0.0
 0057167,-0.00187483,-0.00153016,-0.05843810,0.05009948,0.02323011,-0.0
 0008665,0.00029946,0.00010571,-0.00027468,0.00062141,-0.00081466,0.000
 04627,-0.00020622,-0.00002069,0.00080587,-0.00617640,-0.00272085,-0.00
 319062,0.02773241,0.01158958,0.06249858,0.00000841,-0.00005467,-0.0000
 1202,0.00004999,-0.00014842,-0.00002565,-0.00002665,0.00005713,-0.0000
 1139,-0.00001592,0.00002925,-0.00000941,0.00000808,-0.00000227,0.00000
 971,-0.00000061,-0.00000327,-0.00000256,-0.00000217,-0.00000114,-0.000
 00488,0.00000808,0.00004496,0.00003267,-0.00002014,0.00030667,0.000181
 11,-0.00004277,-0.00004588,-0.00009123,-0.00000262,-0.00004197,-0.0000
 2579,-0.00007041,-0.00022262,-0.00024504,0.00002819,-0.00002065,0.0000
 3036,-0.00000011,-0.00000113,-0.00000010,0.00000712,0.00000513,0.00000
 807,0.00000691,0.00022605,0.00017729,0.00000763,-0.00000586,0.00000933
 ,0.00000014,0.00000246,-0.00000473,-0.00000531,0.00000114,-0.00000154,
 0.00000113,0.00000064,0.00000194,0.00000437,0.00000353,0.00000603,-0.0
 0011996,-0.00018244,-0.00024588,-0.00007181,-0.00006873,-0.00013019,-0
 .00004056,0.00032147,0.00005035,-0.00001850,-0.00003526,-0.00001645,0.
 00030207,0.00006794,0.00013468,0.00001808,-0.00002018,-0.00000099,0.00
 037432,-0.00032568,0.00002489,-0.00007929,0.00004359,-0.00007580,-0.00
 015993,0.00087968,0.00009864,-0.00045933,0.00009893,-0.00027029,0.0004
 4958,-0.00461824,-0.00075117,0.00205273,0.00002223,0.00232815,0.041507
 60,-0.26704895,-0.10723912,-0.00002582,0.00018957,0.00013733,0.0005244
 3,0.00110566,0.00088854,0.00008695,0.00028604,0.00035428,0.00480985,-0
 .01824328,-0.00999763,-0.00019404,0.00084846,0.00110869,-0.04889970,0.
 28655010,0.00000468,-0.00002823,-0.00000709,0.00003869,-0.00008977,-0.
 00000901,-0.00001371,0.00003088,-0.00000401,-0.00000765,0.00001515,-0.
 00000677,0.00000236,-0.00000083,0.00000481,-0.00000020,-0.00000152,-0.
 00000143,-0.00000128,-0.00000090,-0.00000230,0.00000258,0.00002328,0.0
 0001820,-0.00001523,0.00019038,0.00010631,-0.00002363,-0.00002396,-0.0
 0005131,-0.00000319,-0.00002338,-0.00001063,-0.00005639,-0.00013132,-0
 .00016071,0.00001849,-0.00001102,0.00001436,0.00000002,-0.00000157,-0.
 00000100,0.00000605,0.00000216,0.00000722,0.00005307,0.00016705,0.0001
 7086,0.00000394,-0.00000310,0.00000594,-0.00000026,0.00000119,-0.00000
 302,-0.00000266,0.00000084,-0.00000096,0.00000049,0.00000081,0.0000019
 2,0.00000271,-0.00000621,-0.00000001,0.00008912,-0.00014114,-0.0000297
 7,-0.00034849,0.00032404,-0.00026524,0.00011608,-0.00013607,0.00028023
 ,0.00002634,-0.00009056,-0.00008715,0.00008627,-0.00156164,-0.00039033
 ,-0.00000295,-0.00003781,-0.00001542,-0.00057210,0.00063090,-0.0000229
 9,-0.00004644,0.00003956,-0.00004599,-0.00346193,0.00235617,-0.0027972
 2,0.00045563,0.00016373,0.00025069,0.00253777,-0.02637105,-0.01686100,
 0.00102438,-0.00296355,0.00009771,0.01779570,-0.09780595,-0.09612742,0
 .00000272,0.00020523,0.00008304,-0.00100618,0.00114635,0.00016648,0.00
 007354,0.00035286,0.00020210,-0.00463545,0.01923515,0.01130980,0.00209
 877,-0.00903590,-0.00407231,-0.01424169,0.11357977,0.10825341\\0.00000
 508,0.00000032,0.00000692,0.00000121,0.00000236,-0.00000099,-0.0000008
 9,-0.00000186,-0.00000243,-0.00000074,0.00000033,0.00000153,0.00000592
 ,-0.00000352,0.00000724,0.00000284,-0.00000380,0.00000298,0.00000316,-
 0.00000464,0.00000437,0.00000379,-0.00000234,0.00000144,0.00000642,-0.
 00000669,0.00000263,-0.00000214,-0.00000031,0.00000062,0.00000145,-0.0
 0001038,-0.00000129,-0.00000592,0.00001225,0.00000066,0.00000281,-0.00
 000197,0.00000617,0.00000341,-0.00000193,0.00000172,0.00000563,-0.0000
 0632,0.00000298,0.00000405,-0.00001112,-0.00000095,0.00000067,-0.00000
 348,0.00000069,-0.00000121,-0.00000522,-0.00000082,-0.00000424,-0.0000
 0657,0.00000201,-0.00000096,-0.00000495,0.00000116,-0.00000092,0.00000
 635,-0.00000136,-0.00000357,0.00001102,0.00000078,0.00000204,-0.000006
 12,-0.00000244,0.00000147,0.00000175,0.00000045,-0.00000166,0.00000010
 ,-0.00000022,-0.00000127,0.00000633,0.00000371,0.00000026,0.00000415,-
 0.00000103,0.00000075,0.00000451,0.00000246,-0.00000070,-0.00000091,-0
 .00000300,-0.00000506,-0.00000381,-0.00000825,-0.00000152,0.00000423,-
 0.00000314,0.00000256,0.00001399,0.00000041,-0.00000399,-0.00000419,-0
 .00000190,-0.00000500,-0.00000907,-0.00001491,-0.00000296,0.00000329,-
 0.00000463,-0.00000446,0.00000382,-0.00000152,-0.00000244,0.00000158,-
 0.00000302,0.00000060,0.00000075,0.00000120,0.00000100,0.00000460,-0.0
 0000270,-0.00000550,0.00001747,0.00000247\\\@


 IF I HAVE SEEN FARTHER, IT IS BY STANDING ON THE
 SHOULDERS OF GIANTS. -- SIR ISAAC NEWTON
 Job cpu time:  1 days  6 hours 13 minutes 15.4 seconds.
 File lengths (MBytes):  RWF=   2153 Int=      0 D2E=      0 Chk=     25 Scr=      1
 Normal termination of Gaussian 09 at Sat Oct 17 09:58:10 2015.
