 Entering Gaussian System, Link 0=g09
 Input=pMeketo_optS1.com
 Output=pMeketo_optS1.out
 Initial command:
 /share/apps/gaussian/g09/l1.exe /tmp/3520790.1.serial.q/Gau-32063.inp -scrdir=/tmp/3520790.1.serial.q/
 Entering Link 1 = /share/apps/gaussian/g09/l1.exe PID=     32064.
  
 Copyright (c) 1988,1990,1992,1993,1995,1998,2003,2009,2011,
            Gaussian, Inc.  All Rights Reserved.
  
 This is part of the Gaussian(R) 09 program.  It is based on
 the Gaussian(R) 03 system (copyright 2003, Gaussian, Inc.),
 the Gaussian(R) 98 system (copyright 1998, Gaussian, Inc.),
 the Gaussian(R) 94 system (copyright 1995, Gaussian, Inc.),
 the Gaussian 92(TM) system (copyright 1992, Gaussian, Inc.),
 the Gaussian 90(TM) system (copyright 1990, Gaussian, Inc.),
 the Gaussian 88(TM) system (copyright 1988, Gaussian, Inc.),
 the Gaussian 86(TM) system (copyright 1986, Carnegie Mellon
 University), and the Gaussian 82(TM) system (copyright 1983,
 Carnegie Mellon University). Gaussian is a federally registered
 trademark of Gaussian, Inc.
  
 This software contains proprietary and confidential information,
 including trade secrets, belonging to Gaussian, Inc.
  
 This software is provided under written license and may be
 used, copied, transmitted, or stored only in accord with that
 written license.
  
 The following legend is applicable only to US Government
 contracts under FAR:
  
                    RESTRICTED RIGHTS LEGEND
  
 Use, reproduction and disclosure by the US Government is
 subject to restrictions as set forth in subparagraphs (a)
 and (c) of the Commercial Computer Software - Restricted
 Rights clause in FAR 52.227-19.
  
 Gaussian, Inc.
 340 Quinnipiac St., Bldg. 40, Wallingford CT 06492
  
  
 ---------------------------------------------------------------
 Warning -- This program may not be used in any manner that
 competes with the business of Gaussian, Inc. or will provide
 assistance to any competitor of Gaussian, Inc.  The licensee
 of this program is prohibited from giving any competitor of
 Gaussian, Inc. access to this program.  By using this program,
 the user acknowledges that Gaussian, Inc. is engaged in the
 business of creating and licensing software in the field of
 computational chemistry and represents and warrants to the
 licensee that it is not a competitor of Gaussian, Inc. and that
 it will not use this program in any manner prohibited above.
 ---------------------------------------------------------------
  

 Cite this work as:
 Gaussian 09, Revision C.01,
 M. J. Frisch, G. W. Trucks, H. B. Schlegel, G. E. Scuseria, 
 M. A. Robb, J. R. Cheeseman, G. Scalmani, V. Barone, B. Mennucci, 
 G. A. Petersson, H. Nakatsuji, M. Caricato, X. Li, H. P. Hratchian, 
 A. F. Izmaylov, J. Bloino, G. Zheng, J. L. Sonnenberg, M. Hada, 
 M. Ehara, K. Toyota, R. Fukuda, J. Hasegawa, M. Ishida, T. Nakajima, 
 Y. Honda, O. Kitao, H. Nakai, T. Vreven, J. A. Montgomery, Jr., 
 J. E. Peralta, F. Ogliaro, M. Bearpark, J. J. Heyd, E. Brothers, 
 K. N. Kudin, V. N. Staroverov, T. Keith, R. Kobayashi, J. Normand, 
 K. Raghavachari, A. Rendell, J. C. Burant, S. S. Iyengar, J. Tomasi, 
 M. Cossi, N. Rega, J. M. Millam, M. Klene, J. E. Knox, J. B. Cross, 
 V. Bakken, C. Adamo, J. Jaramillo, R. Gomperts, R. E. Stratmann, 
 O. Yazyev, A. J. Austin, R. Cammi, C. Pomelli, J. W. Ochterski, 
 R. L. Martin, K. Morokuma, V. G. Zakrzewski, G. A. Voth, 
 P. Salvador, J. J. Dannenberg, S. Dapprich, A. D. Daniels, 
 O. Farkas, J. B. Foresman, J. V. Ortiz, J. Cioslowski, 
 and D. J. Fox, Gaussian, Inc., Wallingford CT, 2010.
 
 ******************************************
 Gaussian 09:  EM64L-G09RevC.01 23-Sep-2011
                26-Oct-2015 
 ******************************************
 %chk=pMeketo_optS1
 %mem=4gb
 %nproc=4
 Will use up to    4 processors via shared memory.
 ----------------------------------------------------------------------
 #wb97xd opt 6-311++g** td(nstates=1,root=1) geom=allcheck scf(maxcycle
 =500,xqc)
 ----------------------------------------------------------------------
 1/14=-1,18=20,19=15,26=3,29=7,38=1/1,3;
 2/9=110,12=2,40=1/2;
 3/5=4,6=6,7=1111,11=2,14=-4,16=1,25=1,30=1,71=1,74=-58/1,2,8,3;
 4//1;
 5/5=2,7=500,8=3,13=1,38=5/2,8;
 8/6=1,10=2,107=1,108=1/1;
 9/8=1,15=2,41=1,42=1/14;
 10/5=4/2;
 6/7=2,8=2,9=2,10=2/1;
 7/12=6,13=5,14=1/1,2,3,16;
 1/14=-1,18=20,19=15/3(2);
 2/9=110/2;
 99//99;
 2/9=110/2;
 3/5=4,6=6,7=1111,11=2,14=-2,16=1,25=1,30=1,71=1,74=-58/1,2,8,3;
 4/5=5,16=3/1;
 5/5=2,7=500,8=3,13=1,38=5/2,8;
 8/6=1,10=2,107=1,108=1/1;
 9/8=1,15=2,41=1,42=1,49=4/14;
 10/5=4/2;
 7/12=6,13=5,14=1/1,2,3,16;
 1/14=-1,18=20,19=15/3(-8);
 2/9=110/2;
 6/7=2,8=2,9=2,10=2/1;
 99//99;
 Structure from the checkpoint file:  pMeketo_optS1.chk
 ---------------------------------------------------------
 paramethyl substituent keto form S1 geometry optimization
 ---------------------------------------------------------
 Charge =  0 Multiplicity = 1
 Redundant internal coordinates found in file.
 O,0,-3.3789105869,-1.4786844453,2.0439451308
 O,0,-2.1211705451,-2.1924759626,-1.0579878726
 C,0,-3.8310935474,-0.5837478224,1.2901162736
 C,0,-5.5510375967,1.0893626578,0.7920987085
 C,0,-5.0147018506,0.1619975594,1.6468797071
 H,0,-5.4624150617,-0.0566708658,2.6090554967
 H,0,-6.4490082468,1.6327732675,1.0686874705
 C,0,-1.9750198037,-1.0151275163,-0.3833579875
 C,0,-3.2083719322,-0.2919075374,0.0136708793
 C,0,-4.9532177358,1.3437739228,-0.4606751718
 C,0,-0.7098705048,-0.5055645033,-0.1715590963
 C,0,-3.7933446705,0.632814453,-0.8229302301
 C,0,-5.5384346901,2.3490432185,-1.4079567001
 H,0,-0.6739304664,0.4538910804,0.334477362
 C,0,0.4721673008,-1.1321180605,-0.5258340224
 H,0,-3.3426989354,0.8284261178,-1.7901103264
 H,0,-5.9595482396,1.8495083385,-2.2866328882
 H,0,-6.3300817125,2.937589358,-0.9397654234
 H,0,-4.7636683183,3.0342787792,-1.7660805586
 H,0,0.3984483889,-2.0943134603,-1.0223233754
 C,0,1.8101951028,-0.6303140828,-0.301865845
 C,0,2.1099421531,0.5813798969,0.3456019497
 C,0,2.9145966865,-1.3783407667,-0.7468180864
 H,0,1.308648903,1.210931636,0.7187417781
 C,0,3.4118155641,1.0159111234,0.53316053
 H,0,2.7361961566,-2.3230543406,-1.2528187057
 C,0,4.222028036,-0.9596435452,-0.5671754685
 H,0,3.5710572948,1.9596031175,1.0396431642
 C,0,4.5099669329,0.2552054175,0.0837730771
 H,0,5.0206179847,-1.5911263975,-0.9361887441
 N,0,5.8138064071,0.6817603891,0.2752789113
 C,0,6.0693153145,1.9454955052,0.9208896944
 C,0,6.906953691,-0.1059832304,-0.2393467832
 H,0,5.6405098322,2.7925781379,0.3659142565
 H,0,7.146160566,2.1037427863,0.9943032128
 H,0,5.6598606026,1.9722217358,1.9388893263
 H,0,6.9381915942,-1.1055365584,0.2133969513
 H,0,6.8471926819,-0.2321740475,-1.329375943
 H,0,7.8514561991,0.3899156463,-0.0116477557
 H,0,-2.9566731528,-2.6068852037,-0.8158174055
 Recover connectivity data from disk.

 GradGradGradGradGradGradGradGradGradGradGradGradGradGradGradGradGradGrad
 Berny optimization.
 Initialization pass.
                           ----------------------------
                           !    Initial Parameters    !
                           ! (Angstroms and Degrees)  !
 --------------------------                            --------------------------
 ! Name  Definition              Value          Derivative Info.                !
 --------------------------------------------------------------------------------
 ! R1    R(1,3)                  1.2544         estimate D2E/DX2                !
 ! R2    R(2,8)                  1.3648         estimate D2E/DX2                !
 ! R3    R(2,40)                 0.9636         estimate D2E/DX2                !
 ! R4    R(3,5)                  1.4437         estimate D2E/DX2                !
 ! R5    R(3,9)                  1.4499         estimate D2E/DX2                !
 ! R6    R(4,5)                  1.3705         estimate D2E/DX2                !
 ! R7    R(4,7)                  1.0854         estimate D2E/DX2                !
 ! R8    R(4,10)                 1.4112         estimate D2E/DX2                !
 ! R9    R(5,6)                  1.0835         estimate D2E/DX2                !
 ! R10   R(8,9)                  1.4839         estimate D2E/DX2                !
 ! R11   R(8,11)                 1.3803         estimate D2E/DX2                !
 ! R12   R(9,12)                 1.3774         estimate D2E/DX2                !
 ! R13   R(10,12)                1.4078         estimate D2E/DX2                !
 ! R14   R(10,13)                1.5001         estimate D2E/DX2                !
 ! R15   R(11,14)                1.0853         estimate D2E/DX2                !
 ! R16   R(11,15)                1.3839         estimate D2E/DX2                !
 ! R17   R(12,16)                1.0848         estimate D2E/DX2                !
 ! R18   R(13,17)                1.095          estimate D2E/DX2                !
 ! R19   R(13,18)                1.0919         estimate D2E/DX2                !
 ! R20   R(13,19)                1.0946         estimate D2E/DX2                !
 ! R21   R(15,20)                1.0852         estimate D2E/DX2                !
 ! R22   R(15,21)                1.4465         estimate D2E/DX2                !
 ! R23   R(21,22)                1.4062         estimate D2E/DX2                !
 ! R24   R(21,23)                1.4061         estimate D2E/DX2                !
 ! R25   R(22,24)                1.0852         estimate D2E/DX2                !
 ! R26   R(22,25)                1.3852         estimate D2E/DX2                !
 ! R27   R(23,26)                1.0864         estimate D2E/DX2                !
 ! R28   R(23,27)                1.3845         estimate D2E/DX2                !
 ! R29   R(25,28)                1.0828         estimate D2E/DX2                !
 ! R30   R(25,29)                1.4095         estimate D2E/DX2                !
 ! R31   R(27,29)                1.408          estimate D2E/DX2                !
 ! R32   R(27,30)                1.0829         estimate D2E/DX2                !
 ! R33   R(29,31)                1.3851         estimate D2E/DX2                !
 ! R34   R(31,32)                1.4419         estimate D2E/DX2                !
 ! R35   R(31,33)                1.4423         estimate D2E/DX2                !
 ! R36   R(32,34)                1.0997         estimate D2E/DX2                !
 ! R37   R(32,35)                1.0909         estimate D2E/DX2                !
 ! R38   R(32,36)                1.0976         estimate D2E/DX2                !
 ! R39   R(33,37)                1.0978         estimate D2E/DX2                !
 ! R40   R(33,38)                1.0989         estimate D2E/DX2                !
 ! R41   R(33,39)                1.0908         estimate D2E/DX2                !
 ! A1    A(8,2,40)             109.8547         estimate D2E/DX2                !
 ! A2    A(1,3,5)              121.0328         estimate D2E/DX2                !
 ! A3    A(1,3,9)              121.1854         estimate D2E/DX2                !
 ! A4    A(5,3,9)              117.7545         estimate D2E/DX2                !
 ! A5    A(5,4,7)              120.2376         estimate D2E/DX2                !
 ! A6    A(5,4,10)             120.6553         estimate D2E/DX2                !
 ! A7    A(7,4,10)             119.1051         estimate D2E/DX2                !
 ! A8    A(3,5,4)              121.0796         estimate D2E/DX2                !
 ! A9    A(3,5,6)              116.997          estimate D2E/DX2                !
 ! A10   A(4,5,6)              121.9173         estimate D2E/DX2                !
 ! A11   A(2,8,9)              117.6266         estimate D2E/DX2                !
 ! A12   A(2,8,11)             119.5041         estimate D2E/DX2                !
 ! A13   A(9,8,11)             122.7428         estimate D2E/DX2                !
 ! A14   A(3,9,8)              119.6322         estimate D2E/DX2                !
 ! A15   A(3,9,12)             119.1725         estimate D2E/DX2                !
 ! A16   A(8,9,12)             121.178          estimate D2E/DX2                !
 ! A17   A(4,10,12)            119.1035         estimate D2E/DX2                !
 ! A18   A(4,10,13)            121.0721         estimate D2E/DX2                !
 ! A19   A(12,10,13)           119.8234         estimate D2E/DX2                !
 ! A20   A(8,11,14)            115.3575         estimate D2E/DX2                !
 ! A21   A(8,11,15)            125.2019         estimate D2E/DX2                !
 ! A22   A(14,11,15)           119.4261         estimate D2E/DX2                !
 ! A23   A(9,12,10)            122.1843         estimate D2E/DX2                !
 ! A24   A(9,12,16)            119.0885         estimate D2E/DX2                !
 ! A25   A(10,12,16)           118.7249         estimate D2E/DX2                !
 ! A26   A(10,13,17)           110.5515         estimate D2E/DX2                !
 ! A27   A(10,13,18)           111.9174         estimate D2E/DX2                !
 ! A28   A(10,13,19)           110.4869         estimate D2E/DX2                !
 ! A29   A(17,13,18)           108.1285         estimate D2E/DX2                !
 ! A30   A(17,13,19)           107.1741         estimate D2E/DX2                !
 ! A31   A(18,13,19)           108.4234         estimate D2E/DX2                !
 ! A32   A(11,15,20)           117.419          estimate D2E/DX2                !
 ! A33   A(11,15,21)           126.3971         estimate D2E/DX2                !
 ! A34   A(20,15,21)           116.1838         estimate D2E/DX2                !
 ! A35   A(15,21,22)           124.5706         estimate D2E/DX2                !
 ! A36   A(15,21,23)           119.5369         estimate D2E/DX2                !
 ! A37   A(22,21,23)           115.8924         estimate D2E/DX2                !
 ! A38   A(21,22,24)           120.0548         estimate D2E/DX2                !
 ! A39   A(21,22,25)           122.2079         estimate D2E/DX2                !
 ! A40   A(24,22,25)           117.7373         estimate D2E/DX2                !
 ! A41   A(21,23,26)           118.7497         estimate D2E/DX2                !
 ! A42   A(21,23,27)           122.666          estimate D2E/DX2                !
 ! A43   A(26,23,27)           118.5843         estimate D2E/DX2                !
 ! A44   A(22,25,28)           118.3555         estimate D2E/DX2                !
 ! A45   A(22,25,29)           121.3171         estimate D2E/DX2                !
 ! A46   A(28,25,29)           120.3272         estimate D2E/DX2                !
 ! A47   A(23,27,29)           120.9318         estimate D2E/DX2                !
 ! A48   A(23,27,30)           118.4127         estimate D2E/DX2                !
 ! A49   A(29,27,30)           120.655          estimate D2E/DX2                !
 ! A50   A(25,29,27)           116.9842         estimate D2E/DX2                !
 ! A51   A(25,29,31)           121.5413         estimate D2E/DX2                !
 ! A52   A(27,29,31)           121.4744         estimate D2E/DX2                !
 ! A53   A(29,31,32)           119.9074         estimate D2E/DX2                !
 ! A54   A(29,31,33)           119.7286         estimate D2E/DX2                !
 ! A55   A(32,31,33)           120.273          estimate D2E/DX2                !
 ! A56   A(31,32,34)           112.3356         estimate D2E/DX2                !
 ! A57   A(31,32,35)           109.4017         estimate D2E/DX2                !
 ! A58   A(31,32,36)           111.7474         estimate D2E/DX2                !
 ! A59   A(34,32,35)           107.886          estimate D2E/DX2                !
 ! A60   A(34,32,36)           107.6883         estimate D2E/DX2                !
 ! A61   A(35,32,36)           107.5958         estimate D2E/DX2                !
 ! A62   A(31,33,37)           111.8213         estimate D2E/DX2                !
 ! A63   A(31,33,38)           112.0495         estimate D2E/DX2                !
 ! A64   A(31,33,39)           109.4798         estimate D2E/DX2                !
 ! A65   A(37,33,38)           107.8229         estimate D2E/DX2                !
 ! A66   A(37,33,39)           107.6511         estimate D2E/DX2                !
 ! A67   A(38,33,39)           107.839          estimate D2E/DX2                !
 ! D1    D(40,2,8,9)           -27.9919         estimate D2E/DX2                !
 ! D2    D(40,2,8,11)          155.9856         estimate D2E/DX2                !
 ! D3    D(1,3,5,4)           -176.4464         estimate D2E/DX2                !
 ! D4    D(1,3,5,6)              2.667          estimate D2E/DX2                !
 ! D5    D(9,3,5,4)              1.6748         estimate D2E/DX2                !
 ! D6    D(9,3,5,6)           -179.2117         estimate D2E/DX2                !
 ! D7    D(1,3,9,8)             -3.0557         estimate D2E/DX2                !
 ! D8    D(1,3,9,12)           175.4531         estimate D2E/DX2                !
 ! D9    D(5,3,9,8)            178.8261         estimate D2E/DX2                !
 ! D10   D(5,3,9,12)            -2.6652         estimate D2E/DX2                !
 ! D11   D(7,4,5,3)            179.1788         estimate D2E/DX2                !
 ! D12   D(7,4,5,6)              0.1095         estimate D2E/DX2                !
 ! D13   D(10,4,5,3)            -0.3042         estimate D2E/DX2                !
 ! D14   D(10,4,5,6)          -179.3736         estimate D2E/DX2                !
 ! D15   D(5,4,10,12)           -0.1125         estimate D2E/DX2                !
 ! D16   D(5,4,10,13)          179.52           estimate D2E/DX2                !
 ! D17   D(7,4,10,12)         -179.6013         estimate D2E/DX2                !
 ! D18   D(7,4,10,13)            0.0312         estimate D2E/DX2                !
 ! D19   D(2,8,9,3)             88.9785         estimate D2E/DX2                !
 ! D20   D(2,8,9,12)           -89.4996         estimate D2E/DX2                !
 ! D21   D(11,8,9,3)           -95.1374         estimate D2E/DX2                !
 ! D22   D(11,8,9,12)           86.3846         estimate D2E/DX2                !
 ! D23   D(2,8,11,14)          177.514          estimate D2E/DX2                !
 ! D24   D(2,8,11,15)           -3.886          estimate D2E/DX2                !
 ! D25   D(9,8,11,14)            1.7041         estimate D2E/DX2                !
 ! D26   D(9,8,11,15)         -179.6959         estimate D2E/DX2                !
 ! D27   D(3,9,12,10)            2.3673         estimate D2E/DX2                !
 ! D28   D(3,9,12,16)         -178.1905         estimate D2E/DX2                !
 ! D29   D(8,9,12,10)         -179.1478         estimate D2E/DX2                !
 ! D30   D(8,9,12,16)            0.2944         estimate D2E/DX2                !
 ! D31   D(4,10,12,9)           -0.9616         estimate D2E/DX2                !
 ! D32   D(4,10,12,16)         179.5943         estimate D2E/DX2                !
 ! D33   D(13,10,12,9)         179.4012         estimate D2E/DX2                !
 ! D34   D(13,10,12,16)         -0.0429         estimate D2E/DX2                !
 ! D35   D(4,10,13,17)        -110.8937         estimate D2E/DX2                !
 ! D36   D(4,10,13,18)           9.7056         estimate D2E/DX2                !
 ! D37   D(4,10,13,19)         130.6354         estimate D2E/DX2                !
 ! D38   D(12,10,13,17)         68.7362         estimate D2E/DX2                !
 ! D39   D(12,10,13,18)       -170.6645         estimate D2E/DX2                !
 ! D40   D(12,10,13,19)        -49.7347         estimate D2E/DX2                !
 ! D41   D(8,11,15,20)           0.9136         estimate D2E/DX2                !
 ! D42   D(8,11,15,21)        -179.184          estimate D2E/DX2                !
 ! D43   D(14,11,15,20)        179.4611         estimate D2E/DX2                !
 ! D44   D(14,11,15,21)         -0.6365         estimate D2E/DX2                !
 ! D45   D(11,15,21,22)          1.318          estimate D2E/DX2                !
 ! D46   D(11,15,21,23)       -178.7509         estimate D2E/DX2                !
 ! D47   D(20,15,21,22)       -178.7786         estimate D2E/DX2                !
 ! D48   D(20,15,21,23)          1.1525         estimate D2E/DX2                !
 ! D49   D(15,21,22,24)          0.1026         estimate D2E/DX2                !
 ! D50   D(15,21,22,25)       -179.9497         estimate D2E/DX2                !
 ! D51   D(23,21,22,24)       -179.8308         estimate D2E/DX2                !
 ! D52   D(23,21,22,25)          0.117          estimate D2E/DX2                !
 ! D53   D(15,21,23,26)          0.0236         estimate D2E/DX2                !
 ! D54   D(15,21,23,27)        179.9833         estimate D2E/DX2                !
 ! D55   D(22,21,23,26)        179.9605         estimate D2E/DX2                !
 ! D56   D(22,21,23,27)         -0.0797         estimate D2E/DX2                !
 ! D57   D(21,22,25,28)        179.9709         estimate D2E/DX2                !
 ! D58   D(21,22,25,29)         -0.2158         estimate D2E/DX2                !
 ! D59   D(24,22,25,28)         -0.0802         estimate D2E/DX2                !
 ! D60   D(24,22,25,29)        179.7331         estimate D2E/DX2                !
 ! D61   D(21,23,27,29)          0.1396         estimate D2E/DX2                !
 ! D62   D(21,23,27,30)        179.9052         estimate D2E/DX2                !
 ! D63   D(26,23,27,29)       -179.9006         estimate D2E/DX2                !
 ! D64   D(26,23,27,30)         -0.135          estimate D2E/DX2                !
 ! D65   D(22,25,29,27)          0.2591         estimate D2E/DX2                !
 ! D66   D(22,25,29,31)       -179.6448         estimate D2E/DX2                !
 ! D67   D(28,25,29,27)       -179.9312         estimate D2E/DX2                !
 ! D68   D(28,25,29,31)          0.1649         estimate D2E/DX2                !
 ! D69   D(23,27,29,25)         -0.2212         estimate D2E/DX2                !
 ! D70   D(23,27,29,31)        179.6828         estimate D2E/DX2                !
 ! D71   D(30,27,29,25)       -179.9815         estimate D2E/DX2                !
 ! D72   D(30,27,29,31)         -0.0775         estimate D2E/DX2                !
 ! D73   D(25,29,31,32)         -1.4248         estimate D2E/DX2                !
 ! D74   D(25,29,31,33)       -177.966          estimate D2E/DX2                !
 ! D75   D(27,29,31,32)        178.6755         estimate D2E/DX2                !
 ! D76   D(27,29,31,33)          2.1343         estimate D2E/DX2                !
 ! D77   D(29,31,32,34)        -60.9703         estimate D2E/DX2                !
 ! D78   D(29,31,32,35)        179.2461         estimate D2E/DX2                !
 ! D79   D(29,31,32,36)         60.1975         estimate D2E/DX2                !
 ! D80   D(33,31,32,34)        115.5518         estimate D2E/DX2                !
 ! D81   D(33,31,32,35)         -4.2317         estimate D2E/DX2                !
 ! D82   D(33,31,32,36)       -123.2803         estimate D2E/DX2                !
 ! D83   D(29,31,33,37)        -61.8022         estimate D2E/DX2                !
 ! D84   D(29,31,33,38)         59.3887         estimate D2E/DX2                !
 ! D85   D(29,31,33,39)        178.983          estimate D2E/DX2                !
 ! D86   D(32,31,33,37)        121.6694         estimate D2E/DX2                !
 ! D87   D(32,31,33,38)       -117.1397         estimate D2E/DX2                !
 ! D88   D(32,31,33,39)          2.4546         estimate D2E/DX2                !
 --------------------------------------------------------------------------------
 Trust Radius=3.00D-01 FncErr=1.00D-07 GrdErr=1.00D-06
 Number of steps in this run=    206 maximum allowed number of steps=    240.
 GradGradGradGradGradGradGradGradGradGradGradGradGradGradGradGradGradGrad

                          Input orientation:                          
 ---------------------------------------------------------------------
 Center     Atomic      Atomic             Coordinates (Angstroms)
 Number     Number       Type             X           Y           Z
 ---------------------------------------------------------------------
      1          8           0       -3.378911   -1.478684    2.043945
      2          8           0       -2.121171   -2.192476   -1.057988
      3          6           0       -3.831094   -0.583748    1.290116
      4          6           0       -5.551038    1.089363    0.792099
      5          6           0       -5.014702    0.161998    1.646880
      6          1           0       -5.462415   -0.056671    2.609055
      7          1           0       -6.449008    1.632773    1.068687
      8          6           0       -1.975020   -1.015128   -0.383358
      9          6           0       -3.208372   -0.291908    0.013671
     10          6           0       -4.953218    1.343774   -0.460675
     11          6           0       -0.709871   -0.505565   -0.171559
     12          6           0       -3.793345    0.632814   -0.822930
     13          6           0       -5.538435    2.349043   -1.407957
     14          1           0       -0.673930    0.453891    0.334477
     15          6           0        0.472167   -1.132118   -0.525834
     16          1           0       -3.342699    0.828426   -1.790110
     17          1           0       -5.959548    1.849508   -2.286633
     18          1           0       -6.330082    2.937589   -0.939765
     19          1           0       -4.763668    3.034279   -1.766081
     20          1           0        0.398448   -2.094313   -1.022323
     21          6           0        1.810195   -0.630314   -0.301866
     22          6           0        2.109942    0.581380    0.345602
     23          6           0        2.914597   -1.378341   -0.746818
     24          1           0        1.308649    1.210932    0.718742
     25          6           0        3.411816    1.015911    0.533161
     26          1           0        2.736196   -2.323054   -1.252819
     27          6           0        4.222028   -0.959644   -0.567175
     28          1           0        3.571057    1.959603    1.039643
     29          6           0        4.509967    0.255205    0.083773
     30          1           0        5.020618   -1.591126   -0.936189
     31          7           0        5.813806    0.681760    0.275279
     32          6           0        6.069315    1.945496    0.920890
     33          6           0        6.906954   -0.105983   -0.239347
     34          1           0        5.640510    2.792578    0.365914
     35          1           0        7.146161    2.103743    0.994303
     36          1           0        5.659861    1.972222    1.938889
     37          1           0        6.938192   -1.105537    0.213397
     38          1           0        6.847193   -0.232174   -1.329376
     39          1           0        7.851456    0.389916   -0.011648
     40          1           0       -2.956673   -2.606885   -0.815817
 ---------------------------------------------------------------------
                    Distance matrix (angstroms):
                    1          2          3          4          5
     1  O    0.000000
     2  O    3.422484   0.000000
     3  C    1.254448   3.320457   0.000000
     4  C    3.588889   5.094828   2.450618   0.000000
     5  C    2.350598   4.607860   1.443726   1.370515   0.000000
     6  H    2.585046   5.401184   2.163012   2.150018   1.083534
     7  H    4.478593   6.155116   3.437364   1.085425   2.134180
     8  C    2.842111   1.364784   2.536063   4.312596   3.840203
     9  C    2.357867   2.437749   1.449919   2.828770   2.477141
    10  C    4.088745   4.569720   2.835449   1.411225   2.417057
    11  C    3.602665   2.371327   3.447411   5.187420   4.720586
    12  C    3.584572   3.291456   2.438527   2.430276   2.795236
    13  C    5.588441   5.694345   4.335421   2.535192   3.793348
    14  H    3.738187   3.322156   3.457979   4.939576   4.544216
    15  C    4.642701   2.851832   4.702812   6.553695   6.041618
    16  H    4.474824   3.339758   3.423530   3.407734   3.879771
    17  H    6.040734   5.707920   4.821223   3.197388   4.383258
    18  H    6.092242   6.636752   4.859746   2.649944   4.015578
    19  H    6.066357   5.899420   4.827023   3.308615   4.467809
    20  H    4.904023   2.521783   5.051555   6.987439   6.443429
    21  C    5.757550   4.297407   5.861801   7.638180   7.141749
    22  C    6.103748   5.250396   6.127441   7.690775   7.254637
    23  C    6.885250   5.110635   7.091179   8.951245   8.424738
    24  H    5.564478   5.148166   5.473965   6.861156   6.476609
    25  C    7.390497   6.590860   7.455979   8.966894   8.542584
    26  H    6.998296   4.863026   7.254033   9.192634   8.640611
    27  C    8.053671   6.480505   8.273065  10.077642   9.564377
    28  H    7.818727   7.351277   7.830914   9.166854   8.792917
    29  C    8.311621   7.160080   8.469498  10.120344   9.652528
    30  H    8.913244   7.168096   9.182812  11.042278  10.509678
    31  N    9.607380   8.544161   9.780363  11.383889  10.927398
    32  C   10.112133   9.387376  10.225043  11.652560  11.250038
    33  C   10.625288   9.302185  10.856941  12.557638  12.072926
    34  H   10.119754   9.333914  10.097772  11.328429  11.049632
    35  H   11.167482  10.418868  11.305318  12.739258  12.332186
    36  H    9.675700   9.320431   9.850487  11.303929  10.830903
    37  H   10.484882   9.212486  10.835548  12.693830  12.105089
    38  H   10.840031   9.184115  11.000506  12.647657  12.235931
    39  H   11.568849  10.354557  11.795108  13.444779  12.974617
    40  H    3.103122   0.963559   3.048385   4.793576   4.238758
                    6          7          8          9         10
     6  H    0.000000
     7  H    2.490044   0.000000
     8  C    4.694156   5.397813   0.000000
     9  C    3.445587   3.913972   1.483859   0.000000
    10  C    3.412297   2.158671   3.800007   2.438226   0.000000
    11  C    5.524491   6.248872   1.380259   2.514452   4.637848
    12  C    3.878107   3.410379   2.493039   1.377391   1.407834
    13  C    4.682908   2.734219   5.006533   3.798005   1.500129
    14  H    5.325783   5.939727   2.089530   2.661302   4.442573
    15  C    6.797307   7.621666   2.454121   3.813579   5.963983
    16  H    4.962787   4.297541   2.692246   2.127632   2.150989
    17  H    5.277161   3.397752   5.263560   4.176845   2.145365
    18  H    4.723618   2.398035   5.907633   4.591706   2.159984
    19  H    5.402225   3.583364   5.107463   4.080438   2.144253
    20  H    7.189480   8.071627   2.684450   4.163064   6.385626
    21  C    7.854514   8.672625   3.805598   5.039851   7.047411
    22  C    7.929119   8.653549   4.446024   5.399748   7.149794
    23  C    9.120473  10.001998   4.916541   6.264936   8.330324
    24  H    7.143347   7.776995   4.117335   4.812393   6.373354
    25  C    9.176696   9.894602   5.829504   6.768097   8.430242
    26  H    9.341723  10.266740   4.966104   6.408388   8.555712
    27  C   10.231923  11.102598   6.200022   7.482920   9.460561
    28  H    9.387867  10.025436   6.452358   7.216826   8.677181
    29  C   10.291876  11.089044   6.624727   7.738023   9.541136
    30  H   11.172166  12.081613   7.041047   8.384896  10.407553
    31  N   11.538846  12.325200   7.998690   9.078335  10.812433
    32  C   11.825370  12.523101   8.670506   9.586683  11.125063
    33  C   12.693192  13.532034   8.929543  10.120198  11.950500
    34  H   11.680105  12.165339   8.547299   9.377678  10.724241
    35  H   12.893835  13.603527   9.737620  10.673196  12.210220
    36  H   11.325659  12.144842   8.521061   9.352983  10.899096
    37  H   12.673371  13.691128   8.933623  10.181092  12.159733
    38  H   12.925498  13.638830   8.907267  10.145034  11.936831
    39  H   13.576697  14.394968   9.933375  11.080854  12.848002
    40  H    4.950969   5.807105   1.919468   2.471948   4.440723
                   11         12         13         14         15
    11  C    0.000000
    12  C    3.350821   0.000000
    13  C    5.743910   2.516552   0.000000
    14  H    1.085320   3.332019   5.503733   0.000000
    15  C    1.383941   4.625781   7.001711   2.137546   0.000000
    16  H    3.366159   1.084796   2.698068   3.431687   4.471614
    17  H    6.130173   2.883610   1.094963   6.062650   7.304620
    18  H    6.635678   3.429384   1.091922   6.307495   7.937534
    19  H    5.613044   2.756464   1.094561   5.272258   6.805222
    20  H    2.115725   5.004809   7.425545   3.079651   1.085245
    21  C    2.526514   5.767726   8.006395   2.784118   1.446474
    22  C    3.065982   6.018049   8.043461   2.786813   2.525427
    23  C    3.772191   7.003357   9.261978   4.171786   2.464735
    24  H    2.795249   5.361092   7.259525   2.156708   2.781825
    25  C    4.449698   7.341667   9.254845   4.129003   3.791706
    26  H    4.043237   7.180311   9.503793   4.675457   2.659448
    27  C    4.968533   8.176034  10.340259   5.175081   3.754053
    28  H    5.086296   7.711288   9.440617   4.558985   4.648933
    29  C    5.281162   8.361201  10.372068   5.193758   4.312785
    30  H    5.882313   9.090912  11.280119   6.182602   4.589933
    31  N    6.645883   9.669840  11.596831   6.492007   5.697811
    32  C    7.290988  10.101292  11.845938   6.931099   6.549258
    33  C    7.627599  10.741638  12.738936   7.623158   6.522385
    34  H    7.175929   9.750669  11.327495   6.733692   6.550589
    35  H    8.359722  11.186543  12.912396   8.019427   7.571248
    36  H    7.153104   9.939052  11.693810   6.707934   6.528702
    37  H    7.681212  10.920701  13.047188   7.771157   6.508198
    38  H    7.650130  10.687644  12.651981   7.733459   6.488184
    39  H    8.609516  11.675554  13.604302   8.532650   7.552144
    40  H    3.143046   3.346001   5.619373   3.987787   3.743792
                   16         17         18         19         20
    16  H    0.000000
    17  H    2.852550   0.000000
    18  H    3.754479   1.770669   0.000000
    19  H    2.624027   1.762040   1.773639   0.000000
    20  H    4.809167   7.587907   8.402379   7.314580   0.000000
    21  C    5.558337   8.393910   8.910721   7.667388   2.157633
    22  C    5.861194   8.582161   8.856517   7.597528   3.458289
    23  C    6.716549   9.567679  10.204340   8.914363   2.630498
    24  H    5.298649   7.890928   8.005136   6.809697   3.845051
    25  C    7.145362   9.821842  10.038273   8.729196   4.601457
    26  H    6.868295   9.700259  10.486647   9.231058   2.360194
    27  C    7.868790  10.701045  11.254966   9.906136   4.014274
    28  H    7.555600  10.094983  10.144312   8.859721   5.545394
    29  C    8.093478  10.852252  11.213807   9.856243   4.862949
    30  H    8.748056  11.585582  12.220788  10.854278   4.650276
    31  N    9.387701  12.105326  12.411250  11.026534   6.222255
    32  C    9.858163  12.449537  12.577414  11.214223   7.228753
    33  C   10.408332  13.174301  13.600479  12.181772   6.850339
    34  H    9.444807  11.936781  12.042462  10.623123   7.299871
    35  H   10.926828  13.512542  13.639832  12.260899   8.198907
    36  H    9.811207  12.364496  12.368399  11.113268   7.279282
    37  H   10.651336  13.466036  13.918467  12.569404   6.728516
    38  H   10.255293  13.010087  13.558752  12.069487   6.719237
    39  H   11.343030  14.073017  14.438423  13.008153   7.920870
    40  H    3.591605   5.571355   6.491259   5.999247   3.400326
                   21         22         23         24         25
    21  C    0.000000
    22  C    1.406153   0.000000
    23  C    1.406140   2.383559   0.000000
    24  H    2.164111   1.085191   3.381015   0.000000
    25  C    2.443873   1.385233   2.760075   2.120326   0.000000
    26  H    2.151083   3.373853   1.086438   4.291154   3.846411
    27  C    2.448629   2.769264   1.384542   3.853928   2.402082
    28  H    3.407045   2.125100   3.842428   2.404574   1.082791
    29  C    2.867339   2.436198   2.429724   3.400740   1.409453
    30  H    3.410622   3.851598   2.125198   4.936501   3.397628
    31  N    4.252474   3.705892   3.700556   4.557754   2.438795
    32  C    5.125430   4.227103   4.876616   4.821244   2.841965
    33  C    5.124039   4.881184   4.220822   5.830370   3.751187
    34  H    5.180100   4.165899   5.105423   4.625053   2.855100
    35  H    6.134138   5.301122   5.750004   5.911818   3.916805
    36  H    5.158886   4.132182   5.096643   4.582725   2.818565
    37  H    5.175682   5.116166   4.145570   6.108449   4.127725
    38  H    5.156126   5.090085   4.137437   6.078882   4.102265
    39  H    6.133672   5.755803   5.295261   6.634445   4.516536
    40  H    5.185944   6.097911   5.998824   5.926514   7.449969
                   26         27         28         29         30
    26  H    0.000000
    27  C    2.129951   0.000000
    28  H    4.928847   3.395236   0.000000
    29  C    3.402964   1.408013   2.167997   0.000000
    30  H    2.419619   1.082907   4.314258   2.170260   0.000000
    31  N    4.564612   2.436739   2.692036   1.385143   2.694961
    32  C    5.835684   3.750552   2.501119   2.447328   4.129915
    33  C    4.830916   2.836377   4.126823   2.445488   2.499900
    34  H    6.101232   4.118485   2.330320   2.792130   4.614824
    35  H    6.640322   4.513657   3.578295   3.345993   4.679400
    36  H    6.097886   4.116255   2.274182   2.777023   4.623003
    37  H    4.613990   2.829863   4.627673   2.786520   2.287888
    38  H    4.612801   2.828719   4.598826   2.774374   2.310351
    39  H    5.921706   3.911863   4.678776   3.345565   3.576723
    40  H    5.716668   7.369463   8.179659   8.046834   8.042601
                   31         32         33         34         35
    31  N    0.000000
    32  C    1.441917   0.000000
    33  C    1.442342   2.501270   0.000000
    34  H    2.119858   1.099737   3.220540   0.000000
    35  H    2.077065   1.090884   2.542047   1.770975   0.000000
    36  H    2.111064   1.097584   3.258664   1.774150   1.765964
    37  H    2.112463   3.250275   1.097752   4.111270   3.309462
    38  H    2.116148   3.226613   1.098935   3.671405   3.308379
    39  H    2.078345   2.542731   1.090801   3.286887   2.108692
    40  H    9.430111  10.257134  10.192054  10.220678  11.293086
                   36         37         38         39         40
    36  H    0.000000
    37  H    3.752872   0.000000
    38  H    4.117120   1.775159   0.000000
    39  H    3.333373   1.766656   1.769731   0.000000
    40  H   10.139097  10.060898  10.100435  11.244695   0.000000
 Stoichiometry    C18H19NO2
 Framework group  C1[X(C18H19NO2)]
 Deg. of freedom   114
 Full point group                 C1      NOp   1
 Largest Abelian subgroup         C1      NOp   1
 Largest concise Abelian subgroup C1      NOp   1
                         Standard orientation:                         
 ---------------------------------------------------------------------
 Center     Atomic      Atomic             Coordinates (Angstroms)
 Number     Number       Type             X           Y           Z
 ---------------------------------------------------------------------
      1          8           0       -3.389177   -1.332061    2.107443
      2          8           0       -2.109572   -2.317064   -0.910135
      3          6           0       -3.841649   -0.511835    1.273094
      4          6           0       -5.567437    1.099230    0.616092
      5          6           0       -5.031235    0.256355    1.554368
      6          1           0       -5.483411    0.123303    2.530011
      7          1           0       -6.469860    1.660299    0.837414
      8          6           0       -1.973572   -1.082539   -0.344372
      9          6           0       -3.213017   -0.333416   -0.021222
     10          6           0       -4.963647    1.242379   -0.651386
     11          6           0       -0.712384   -0.548564   -0.172932
     12          6           0       -3.797947    0.508196   -0.941413
     13          6           0       -5.548599    2.154161   -1.689111
     14          1           0       -0.684458    0.453038    0.244122
     15          6           0        0.474989   -1.197839   -0.462554
     16          1           0       -3.342688    0.617850   -1.919931
     17          1           0       -5.961929    1.574543   -2.521063
     18          1           0       -6.346060    2.778176   -1.280508
     19          1           0       -4.775370    2.808542   -2.103800
     20          1           0        0.409244   -2.201521   -0.870054
     21          6           0        1.809023   -0.670065   -0.277901
     22          6           0        2.098592    0.597085    0.258516
     23          6           0        2.919932   -1.448986   -0.647215
     24          1           0        1.291826    1.253257    0.568689
     25          6           0        3.397040    1.054353    0.412823
     26          1           0        2.749472   -2.436726   -1.066333
     27          6           0        4.224067   -1.008173   -0.499325
     28          1           0        3.548344    2.041009    0.832411
     29          6           0        4.501792    0.262367    0.040209
     30          1           0        5.028117   -1.665909   -0.805227
     31          7           0        5.802224    0.712061    0.199181
     32          6           0        6.047294    2.030613    0.728789
     33          6           0        6.902497   -0.112798   -0.235973
     34          1           0        5.617287    2.821360    0.096939
     35          1           0        7.122843    2.201085    0.793295
     36          1           0        5.631756    2.147225    1.737958
     37          1           0        6.936349   -1.066956    0.305781
     38          1           0        6.849778   -0.337708   -1.310355
     39          1           0        7.843026    0.407160   -0.049173
     40          1           0       -2.944283   -2.712611   -0.635824
 ---------------------------------------------------------------------
 Rotational constants (GHZ):      0.7487740      0.0980727      0.0946290
 Standard basis: 6-311++G(d,p) (5D, 7F)
 There are   595 symmetry adapted basis functions of A   symmetry.
 Integral buffers will be    131072 words long.
 Raffenetti 2 integral format.
 Two-electron integral symmetry is turned on.
   595 basis functions,   927 primitive gaussians,   616 cartesian basis functions
    75 alpha electrons       75 beta electrons
       nuclear repulsion energy      1474.4049721134 Hartrees.
 NAtoms=   40 NActive=   40 NUniq=   40 SFac= 1.00D+00 NAtFMM=   60 NAOKFM=F Big=F
 Nuclear repulsion after empirical dispersion term =     1474.3792733035 Hartrees.
 One-electron integrals computed using PRISM.
 NBasis=   595 RedAO= T  NBF=   595
 NBsUse=   590 1.00D-06 NBFU=   590
 Harris functional with IExCor= 4639 diagonalized for initial guess.
 ExpMin= 3.60D-02 ExpMax= 8.59D+03 ExpMxC= 1.30D+03 IAcc=3 IRadAn=         5 AccDes= 0.00D+00
 HarFok:  IExCor= 4639 AccDes= 0.00D+00 IRadAn=         5 IDoV= 1
 ScaDFX=  1.000000  1.000000  1.000000  1.000000
 FoFCou: FMM=F IPFlag=           0 FMFlag=      100000 FMFlg1=           0
         NFxFlg=           0 DoJE=T BraDBF=F KetDBF=T FulRan=T
         Omega=  0.000000  0.000000  1.000000  0.000000  0.000000 ICntrl=     500 IOpCl=  0
         NMat0=    1 NMatS0=    1 NMatT0=    0 NMatD0=    1 NMtDS0=    0 NMtDT0=    0
         I1Cent=           4 NGrid=           0.
 Petite list used in FoFCou.
 Initial guess orbital symmetries:
       Occupied  (A) (A) (A) (A) (A) (A) (A) (A) (A) (A) (A) (A)
                 (A) (A) (A) (A) (A) (A) (A) (A) (A) (A) (A) (A)
                 (A) (A) (A) (A) (A) (A) (A) (A) (A) (A) (A) (A)
                 (A) (A) (A) (A) (A) (A) (A) (A) (A) (A) (A) (A)
                 (A) (A) (A) (A) (A) (A) (A) (A) (A) (A) (A) (A)
                 (A) (A) (A) (A) (A) (A) (A) (A) (A) (A) (A) (A)
                 (A) (A) (A)
       Virtual   (A) (A) (A) (A) (A) (A) (A) (A) (A) (A) (A) (A)
                 (A) (A) (A) (A) (A) (A) (A) (A) (A) (A) (A) (A)
                 (A) (A) (A) (A) (A) (A) (A) (A) (A) (A) (A) (A)
                 (A) (A) (A) (A) (A) (A) (A) (A) (A) (A) (A) (A)
                 (A) (A) (A) (A) (A) (A) (A) (A) (A) (A) (A) (A)
                 (A) (A) (A) (A) (A) (A) (A) (A) (A) (A) (A) (A)
                 (A) (A) (A) (A) (A) (A) (A) (A) (A) (A) (A) (A)
                 (A) (A) (A) (A) (A) (A) (A) (A) (A) (A) (A) (A)
                 (A) (A) (A) (A) (A) (A) (A) (A) (A) (A) (A) (A)
                 (A) (A) (A) (A) (A) (A) (A) (A) (A) (A) (A) (A)
                 (A) (A) (A) (A) (A) (A) (A) (A) (A) (A) (A) (A)
                 (A) (A) (A) (A) (A) (A) (A) (A) (A) (A) (A) (A)
                 (A) (A) (A) (A) (A) (A) (A) (A) (A) (A) (A) (A)
                 (A) (A) (A) (A) (A) (A) (A) (A) (A) (A) (A) (A)
                 (A) (A) (A) (A) (A) (A) (A) (A) (A) (A) (A) (A)
                 (A) (A) (A) (A) (A) (A) (A) (A) (A) (A) (A) (A)
                 (A) (A) (A) (A) (A) (A) (A) (A) (A) (A) (A) (A)
                 (A) (A) (A) (A) (A) (A) (A) (A) (A) (A) (A) (A)
                 (A) (A) (A) (A) (A) (A) (A) (A) (A) (A) (A) (A)
                 (A) (A) (A) (A) (A) (A) (A) (A) (A) (A) (A) (A)
                 (A) (A) (A) (A) (A) (A) (A) (A) (A) (A) (A) (A)
                 (A) (A) (A) (A) (A) (A) (A) (A) (A) (A) (A) (A)
                 (A) (A) (A) (A) (A) (A) (A) (A) (A) (A) (A) (A)
                 (A) (A) (A) (A) (A) (A) (A) (A) (A) (A) (A) (A)
                 (A) (A) (A) (A) (A) (A) (A) (A) (A) (A) (A) (A)
                 (A) (A) (A) (A) (A) (A) (A) (A) (A) (A) (A) (A)
                 (A) (A) (A) (A) (A) (A) (A) (A) (A) (A) (A) (A)
                 (A) (A) (A) (A) (A) (A) (A) (A) (A) (A) (A) (A)
                 (A) (A) (A) (A) (A) (A) (A) (A) (A) (A) (A) (A)
                 (A) (A) (A) (A) (A) (A) (A) (A) (A) (A) (A) (A)
                 (A) (A) (A) (A) (A) (A) (A) (A) (A) (A) (A) (A)
                 (A) (A) (A) (A) (A) (A) (A) (A) (A) (A) (A) (A)
                 (A) (A) (A) (A) (A) (A) (A) (A) (A) (A) (A) (A)
                 (A) (A) (A) (A) (A) (A) (A) (A) (A) (A) (A) (A)
                 (A) (A) (A) (A) (A) (A) (A) (A) (A) (A) (A) (A)
                 (A) (A) (A) (A) (A) (A) (A) (A) (A) (A) (A) (A)
                 (A) (A) (A) (A) (A) (A) (A) (A) (A) (A) (A) (A)
                 (A) (A) (A) (A) (A) (A) (A) (A) (A) (A) (A) (A)
                 (A) (A) (A) (A) (A) (A) (A) (A) (A) (A) (A) (A)
                 (A) (A) (A) (A) (A) (A) (A) (A) (A) (A) (A) (A)
                 (A) (A) (A) (A) (A) (A) (A) (A) (A) (A) (A) (A)
                 (A) (A) (A) (A) (A) (A) (A) (A) (A) (A) (A) (A)
                 (A) (A) (A) (A) (A) (A) (A) (A) (A) (A) (A)
 The electronic state of the initial guess is 1-A.
 Requested convergence on RMS density matrix=1.00D-08 within 128 cycles.
 Requested convergence on MAX density matrix=1.00D-06.
 Requested convergence on             energy=1.00D-06.
 No special actions if energy rises.
 FoFJK:  IHMeth= 1 ICntrl=     0 DoSepK=T KAlg= 1 I1Cent= 0 FoldK=F
 FoFJK:  IHMeth= 1 ICntrl=     0 DoSepK=T KAlg= 1 I1Cent= 0 FoldK=F
 FoFJK:  IHMeth= 1 ICntrl=     0 DoSepK=T KAlg= 1 I1Cent= 0 FoldK=F
 FoFJK:  IHMeth= 1 ICntrl=     0 DoSepK=T KAlg= 1 I1Cent= 0 FoldK=F
 FoFJK:  IHMeth= 1 ICntrl=     0 DoSepK=T KAlg= 1 I1Cent= 0 FoldK=F
 FoFJK:  IHMeth= 1 ICntrl=     0 DoSepK=T KAlg= 1 I1Cent= 0 FoldK=F
 FoFJK:  IHMeth= 1 ICntrl=     0 DoSepK=T KAlg= 1 I1Cent= 0 FoldK=F
 FoFJK:  IHMeth= 1 ICntrl=     0 DoSepK=T KAlg= 1 I1Cent= 0 FoldK=F
 FoFJK:  IHMeth= 1 ICntrl=     0 DoSepK=T KAlg= 1 I1Cent= 0 FoldK=F
 FoFJK:  IHMeth= 1 ICntrl=     0 DoSepK=T KAlg= 1 I1Cent= 0 FoldK=F
 FoFJK:  IHMeth= 1 ICntrl=     0 DoSepK=T KAlg= 1 I1Cent= 0 FoldK=F
 FoFJK:  IHMeth= 1 ICntrl=     0 DoSepK=T KAlg= 1 I1Cent= 0 FoldK=F
 FoFJK:  IHMeth= 1 ICntrl=     0 DoSepK=T KAlg= 1 I1Cent= 0 FoldK=F
 FoFJK:  IHMeth= 1 ICntrl=     0 DoSepK=T KAlg= 1 I1Cent= 0 FoldK=F
 FoFJK:  IHMeth= 1 ICntrl=     0 DoSepK=T KAlg= 1 I1Cent= 0 FoldK=F
 FoFJK:  IHMeth= 1 ICntrl=     0 DoSepK=T KAlg= 1 I1Cent= 0 FoldK=F
 FoFJK:  IHMeth= 1 ICntrl=     0 DoSepK=T KAlg= 1 I1Cent= 0 FoldK=F
 FoFJK:  IHMeth= 1 ICntrl=     0 DoSepK=T KAlg= 1 I1Cent= 0 FoldK=F
 FoFJK:  IHMeth= 1 ICntrl=     0 DoSepK=T KAlg= 1 I1Cent= 0 FoldK=F
 Restarting incremental Fock formation.
 FoFJK:  IHMeth= 1 ICntrl=     0 DoSepK=T KAlg= 1 I1Cent= 0 FoldK=F
 FoFJK:  IHMeth= 1 ICntrl=     0 DoSepK=T KAlg= 1 I1Cent= 0 FoldK=F
 FoFJK:  IHMeth= 1 ICntrl=     0 DoSepK=T KAlg= 1 I1Cent= 0 FoldK=F
 FoFJK:  IHMeth= 1 ICntrl=     0 DoSepK=T KAlg= 1 I1Cent= 0 FoldK=F
 FoFJK:  IHMeth= 1 ICntrl=     0 DoSepK=T KAlg= 1 I1Cent= 0 FoldK=F
 FoFJK:  IHMeth= 1 ICntrl=     0 DoSepK=T KAlg= 1 I1Cent= 0 FoldK=F
 SCF Done:  E(RwB97XD) =  -902.390762425     A.U. after   25 cycles
             Convg  =    0.4040D-08             -V/T =  2.0044
 QCSCF skips out because SCF is already converged.
 ExpMin= 3.60D-02 ExpMax= 8.59D+03 ExpMxC= 1.30D+03 IAcc=3 IRadAn=         5 AccDes= 0.00D+00
 HarFok:  IExCor=  205 AccDes= 0.00D+00 IRadAn=         5 IDoV=-2
 ScaDFX=  1.000000  1.000000  1.000000  1.000000
 Range of M.O.s used for correlation:    22   590
 NBasis=   595 NAE=    75 NBE=    75 NFC=    21 NFV=     0
 NROrb=    569 NOA=    54 NOB=    54 NVA=   515 NVB=   515

 **** Warning!!: The largest alpha MO coefficient is  0.21240003D+03

 Would need an additional 53812200000 words for in-memory AO integral storage.
 Orbital symmetries:
       Occupied  (A) (A) (A) (A) (A) (A) (A) (A) (A) (A) (A) (A)
                 (A) (A) (A) (A) (A) (A) (A) (A) (A) (A) (A) (A)
                 (A) (A) (A) (A) (A) (A) (A) (A) (A) (A) (A) (A)
                 (A) (A) (A) (A) (A) (A) (A) (A) (A) (A) (A) (A)
                 (A) (A) (A) (A) (A) (A) (A) (A) (A) (A) (A) (A)
                 (A) (A) (A) (A) (A) (A) (A) (A) (A) (A) (A) (A)
                 (A) (A) (A)
       Virtual   (A) (A) (A) (A) (A) (A) (A) (A) (A) (A) (A) (A)
                 (A) (A) (A) (A) (A) (A) (A) (A) (A) (A) (A) (A)
                 (A) (A) (A) (A) (A) (A) (A) (A) (A) (A) (A) (A)
                 (A) (A) (A) (A) (A) (A) (A) (A) (A) (A) (A) (A)
                 (A) (A) (A) (A) (A) (A) (A) (A) (A) (A) (A) (A)
                 (A) (A) (A) (A) (A) (A) (A) (A) (A) (A) (A) (A)
                 (A) (A) (A) (A) (A) (A) (A) (A) (A) (A) (A) (A)
                 (A) (A) (A) (A) (A) (A) (A) (A) (A) (A) (A) (A)
                 (A) (A) (A) (A) (A) (A) (A) (A) (A) (A) (A) (A)
                 (A) (A) (A) (A) (A) (A) (A) (A) (A) (A) (A) (A)
                 (A) (A) (A) (A) (A) (A) (A) (A) (A) (A) (A) (A)
                 (A) (A) (A) (A) (A) (A) (A) (A) (A) (A) (A) (A)
                 (A) (A) (A) (A) (A) (A) (A) (A) (A) (A) (A) (A)
                 (A) (A) (A) (A) (A) (A) (A) (A) (A) (A) (A) (A)
                 (A) (A) (A) (A) (A) (A) (A) (A) (A) (A) (A) (A)
                 (A) (A) (A) (A) (A) (A) (A) (A) (A) (A) (A) (A)
                 (A) (A) (A) (A) (A) (A) (A) (A) (A) (A) (A) (A)
                 (A) (A) (A) (A) (A) (A) (A) (A) (A) (A) (A) (A)
                 (A) (A) (A) (A) (A) (A) (A) (A) (A) (A) (A) (A)
                 (A) (A) (A) (A) (A) (A) (A) (A) (A) (A) (A) (A)
                 (A) (A) (A) (A) (A) (A) (A) (A) (A) (A) (A) (A)
                 (A) (A) (A) (A) (A) (A) (A) (A) (A) (A) (A) (A)
                 (A) (A) (A) (A) (A) (A) (A) (A) (A) (A) (A) (A)
                 (A) (A) (A) (A) (A) (A) (A) (A) (A) (A) (A) (A)
                 (A) (A) (A) (A) (A) (A) (A) (A) (A) (A) (A) (A)
                 (A) (A) (A) (A) (A) (A) (A) (A) (A) (A) (A) (A)
                 (A) (A) (A) (A) (A) (A) (A) (A) (A) (A) (A) (A)
                 (A) (A) (A) (A) (A) (A) (A) (A) (A) (A) (A) (A)
                 (A) (A) (A) (A) (A) (A) (A) (A) (A) (A) (A) (A)
                 (A) (A) (A) (A) (A) (A) (A) (A) (A) (A) (A) (A)
                 (A) (A) (A) (A) (A) (A) (A) (A) (A) (A) (A) (A)
                 (A) (A) (A) (A) (A) (A) (A) (A) (A) (A) (A) (A)
                 (A) (A) (A) (A) (A) (A) (A) (A) (A) (A) (A) (A)
                 (A) (A) (A) (A) (A) (A) (A) (A) (A) (A) (A) (A)
                 (A) (A) (A) (A) (A) (A) (A) (A) (A) (A) (A) (A)
                 (A) (A) (A) (A) (A) (A) (A) (A) (A) (A) (A) (A)
                 (A) (A) (A) (A) (A) (A) (A) (A) (A) (A) (A) (A)
                 (A) (A) (A) (A) (A) (A) (A) (A) (A) (A) (A) (A)
                 (A) (A) (A) (A) (A) (A) (A) (A) (A) (A) (A) (A)
                 (A) (A) (A) (A) (A) (A) (A) (A) (A) (A) (A) (A)
                 (A) (A) (A) (A) (A) (A) (A) (A) (A) (A) (A) (A)
                 (A) (A) (A) (A) (A) (A) (A) (A) (A) (A) (A) (A)
                 (A) (A) (A) (A) (A) (A) (A) (A) (A) (A) (A)
     8 initial guesses have been made.
 Convergence on wavefunction:    0.000001000000000
 Iteration     1 Dimension     8 NMult     8
 CISAX will form     8 AO SS matrices at one time.
 FoFJK:  IHMeth= 1 ICntrl=     0 DoSepK=T KAlg= 1 I1Cent= 0 FoldK=F
 FoFJK:  IHMeth= 1 ICntrl=     0 DoSepK=T KAlg= 1 I1Cent= 0 FoldK=F
 Iteration     2 Dimension    12 NMult    12
 FoFJK:  IHMeth= 1 ICntrl=     0 DoSepK=T KAlg= 1 I1Cent= 0 FoldK=F
 FoFJK:  IHMeth= 1 ICntrl=     0 DoSepK=T KAlg= 1 I1Cent= 0 FoldK=F
 Iteration     3 Dimension    16 NMult    16
 FoFJK:  IHMeth= 1 ICntrl=     0 DoSepK=T KAlg= 1 I1Cent= 0 FoldK=F
 FoFJK:  IHMeth= 1 ICntrl=     0 DoSepK=T KAlg= 1 I1Cent= 0 FoldK=F
 Iteration     4 Dimension    20 NMult    20
 FoFJK:  IHMeth= 1 ICntrl=     0 DoSepK=T KAlg= 1 I1Cent= 0 FoldK=F
 FoFJK:  IHMeth= 1 ICntrl=     0 DoSepK=T KAlg= 1 I1Cent= 0 FoldK=F
 Iteration     5 Dimension    24 NMult    24
 FoFJK:  IHMeth= 1 ICntrl=     0 DoSepK=T KAlg= 1 I1Cent= 0 FoldK=F
 FoFJK:  IHMeth= 1 ICntrl=     0 DoSepK=T KAlg= 1 I1Cent= 0 FoldK=F
 Iteration     6 Dimension    28 NMult    28
 FoFJK:  IHMeth= 1 ICntrl=     0 DoSepK=T KAlg= 1 I1Cent= 0 FoldK=F
 FoFJK:  IHMeth= 1 ICntrl=     0 DoSepK=T KAlg= 1 I1Cent= 0 FoldK=F
 Iteration     7 Dimension    32 NMult    32
 FoFJK:  IHMeth= 1 ICntrl=     0 DoSepK=T KAlg= 1 I1Cent= 0 FoldK=F
 FoFJK:  IHMeth= 1 ICntrl=     0 DoSepK=T KAlg= 1 I1Cent= 0 FoldK=F
 Iteration     8 Dimension    36 NMult    36
 FoFJK:  IHMeth= 1 ICntrl=     0 DoSepK=T KAlg= 1 I1Cent= 0 FoldK=F
 FoFJK:  IHMeth= 1 ICntrl=     0 DoSepK=T KAlg= 1 I1Cent= 0 FoldK=F
 Iteration     9 Dimension    40 NMult    40
 FoFJK:  IHMeth= 1 ICntrl=     0 DoSepK=T KAlg= 1 I1Cent= 0 FoldK=F
 FoFJK:  IHMeth= 1 ICntrl=     0 DoSepK=T KAlg= 1 I1Cent= 0 FoldK=F
 Iteration    10 Dimension    44 NMult    44
 FoFJK:  IHMeth= 1 ICntrl=     0 DoSepK=T KAlg= 1 I1Cent= 0 FoldK=F
 FoFJK:  IHMeth= 1 ICntrl=     0 DoSepK=T KAlg= 1 I1Cent= 0 FoldK=F
 Iteration    11 Dimension    48 NMult    48
 FoFJK:  IHMeth= 1 ICntrl=     0 DoSepK=T KAlg= 1 I1Cent= 0 FoldK=F
 FoFJK:  IHMeth= 1 ICntrl=     0 DoSepK=T KAlg= 1 I1Cent= 0 FoldK=F
 Iteration    12 Dimension    52 NMult    52
 FoFJK:  IHMeth= 1 ICntrl=     0 DoSepK=T KAlg= 1 I1Cent= 0 FoldK=F
 FoFJK:  IHMeth= 1 ICntrl=     0 DoSepK=T KAlg= 1 I1Cent= 0 FoldK=F
 ***********************************************************************
 Excited states from <AA,BB:AA,BB> singles matrix:
 ***********************************************************************
 
 Ground to excited state transition densities written to RWF  633
 Ground to excited state transition electric dipole moments (Au):
       state          X           Y           Z        Dip. S.      Osc.
         1         0.0569      0.0193     -0.0137      0.0038      0.0000
 Ground to excited state transition velocity dipole moments (Au):
       state          X           Y           Z        Dip. S.      Osc.
         1         0.0004     -0.0016     -0.0031      0.0000      0.0013
 Ground to excited state transition magnetic dipole moments (Au):
       state          X           Y           Z
         1        -0.0643     -0.0235     -0.0210
 Ground to excited state transition velocity quadrupole moments (Au):
       state          XX          YY          ZZ          XY          XZ          YZ
         1        -0.0080      0.0036     -0.0004      0.0090      0.0158      0.0039
 <0|del|b> * <b|rxdel|0> + <0|del|b> * <b|delr+rdel|0>
 Rotatory Strengths (R) in cgs (10**-40 erg-esu-cm/Gauss)
       state          XX          YY          ZZ    R(velocity)
         1         5.6891      3.9354     -0.7318      2.9642
 1/2[<0|r|b>*<b|rxdel|0> + (<0|rxdel|b>*<b|r|0>)*]
 Rotatory Strengths (R) in cgs (10**-40 erg-esu-cm/Gauss)
       state          XX          YY          ZZ     R(length)
         1         2.5882      0.3196     -0.2030      0.9016
  1/2[<0|del|b>*<b|r|0> + (<0|r|b>*<b|del|0>)*] (Au)
       state          X           Y           Z        Dip. S.   Osc.(frdel)
         1         0.0000      0.0000      0.0000      0.0000      0.0000

 Excitation energies and oscillator strengths:
 
 Excited State   1:      Singlet-A      0.1703 eV 7282.17 nm  f=0.0000  <S**2>=0.000
      75 -> 76         0.68511
      75 -> 81         0.12788
 This state for optimization and/or second-order correction.
 Total Energy, E(TD-HF/TD-KS) =  -902.384505584    
 Copying the excited state density for this state as the 1-particle RhoCI density.
 SavETr:  write IOETrn=   770 NScale= 10 NData=  16 NLR=1 LETran=      28.
 FoFJK:  IHMeth= 1 ICntrl=     0 DoSepK=T KAlg= 1 I1Cent= 0 FoldK=F
 FoFJK:  IHMeth= 1 ICntrl=     0 DoSepK=T KAlg= 1 I1Cent= 0 FoldK=F
          IDoAtm=1111111111111111111111111111111111111111
          Differentiating once with respect to electric field.
                with respect to dipole field.
          Differentiating once with respect to nuclear coordinates.
          There are     1 degrees of freedom in the 1st order CPHF.  IDoFFX=0.
 FoFJK:  IHMeth= 1 ICntrl=     0 DoSepK=T KAlg= 1 I1Cent= 0 FoldK=F
 LinEq1:  Iter=  0 NonCon=     1 RMS=5.77D-03 Max=2.62D-01
 AX will form     1 AO Fock derivatives at one time.
 FoFJK:  IHMeth= 1 ICntrl=     0 DoSepK=T KAlg= 1 I1Cent= 0 FoldK=F
 LinEq1:  Iter=  1 NonCon=     1 RMS=2.07D-03 Max=1.23D-01
 FoFJK:  IHMeth= 1 ICntrl=     0 DoSepK=T KAlg= 1 I1Cent= 0 FoldK=F
 LinEq1:  Iter=  2 NonCon=     1 RMS=1.48D-03 Max=1.01D-01
 FoFJK:  IHMeth= 1 ICntrl=     0 DoSepK=T KAlg= 1 I1Cent= 0 FoldK=F
 LinEq1:  Iter=  3 NonCon=     1 RMS=8.52D-04 Max=1.03D-01
 FoFJK:  IHMeth= 1 ICntrl=     0 DoSepK=T KAlg= 1 I1Cent= 0 FoldK=F
 LinEq1:  Iter=  4 NonCon=     1 RMS=6.07D-04 Max=5.97D-02
 FoFJK:  IHMeth= 1 ICntrl=     0 DoSepK=T KAlg= 1 I1Cent= 0 FoldK=F
 LinEq1:  Iter=  5 NonCon=     1 RMS=3.66D-04 Max=2.22D-02
 FoFJK:  IHMeth= 1 ICntrl=     0 DoSepK=T KAlg= 1 I1Cent= 0 FoldK=F
 LinEq1:  Iter=  6 NonCon=     1 RMS=2.05D-04 Max=1.17D-02
 FoFJK:  IHMeth= 1 ICntrl=     0 DoSepK=T KAlg= 1 I1Cent= 0 FoldK=F
 LinEq1:  Iter=  7 NonCon=     1 RMS=1.12D-04 Max=1.04D-02
 FoFJK:  IHMeth= 1 ICntrl=     0 DoSepK=T KAlg= 1 I1Cent= 0 FoldK=F
 LinEq1:  Iter=  8 NonCon=     1 RMS=6.06D-05 Max=6.00D-03
 FoFJK:  IHMeth= 1 ICntrl=     0 DoSepK=T KAlg= 1 I1Cent= 0 FoldK=F
 LinEq1:  Iter=  9 NonCon=     1 RMS=3.84D-05 Max=3.08D-03
 FoFJK:  IHMeth= 1 ICntrl=     0 DoSepK=T KAlg= 1 I1Cent= 0 FoldK=F
 LinEq1:  Iter= 10 NonCon=     1 RMS=1.84D-05 Max=8.70D-04
 FoFJK:  IHMeth= 1 ICntrl=     0 DoSepK=T KAlg= 1 I1Cent= 0 FoldK=F
 LinEq1:  Iter= 11 NonCon=     1 RMS=1.01D-05 Max=4.49D-04
 FoFJK:  IHMeth= 1 ICntrl=     0 DoSepK=T KAlg= 1 I1Cent= 0 FoldK=F
 LinEq1:  Iter= 12 NonCon=     1 RMS=4.50D-06 Max=2.47D-04
 FoFJK:  IHMeth= 1 ICntrl=     0 DoSepK=T KAlg= 1 I1Cent= 0 FoldK=F
 LinEq1:  Iter= 13 NonCon=     1 RMS=2.40D-06 Max=9.08D-05
 FoFJK:  IHMeth= 1 ICntrl=     0 DoSepK=T KAlg= 1 I1Cent= 0 FoldK=F
 LinEq1:  Iter= 14 NonCon=     1 RMS=1.16D-06 Max=8.98D-05
 FoFJK:  IHMeth= 1 ICntrl=     0 DoSepK=T KAlg= 1 I1Cent= 0 FoldK=F
 LinEq1:  Iter= 15 NonCon=     1 RMS=5.74D-07 Max=2.20D-05
 FoFJK:  IHMeth= 1 ICntrl=     0 DoSepK=T KAlg= 1 I1Cent= 0 FoldK=F
 LinEq1:  Iter= 16 NonCon=     1 RMS=2.80D-07 Max=1.22D-05
 FoFJK:  IHMeth= 1 ICntrl=     0 DoSepK=T KAlg= 1 I1Cent= 0 FoldK=F
 LinEq1:  Iter= 17 NonCon=     1 RMS=1.49D-07 Max=5.03D-06
 FoFJK:  IHMeth= 1 ICntrl=     0 DoSepK=T KAlg= 1 I1Cent= 0 FoldK=F
 LinEq1:  Iter= 18 NonCon=     1 RMS=7.45D-08 Max=2.20D-06
 FoFJK:  IHMeth= 1 ICntrl=     0 DoSepK=T KAlg= 1 I1Cent= 0 FoldK=F
 LinEq1:  Iter= 19 NonCon=     1 RMS=3.54D-08 Max=1.31D-06
 FoFJK:  IHMeth= 1 ICntrl=     0 DoSepK=T KAlg= 1 I1Cent= 0 FoldK=F
 LinEq1:  Iter= 20 NonCon=     1 RMS=1.64D-08 Max=5.51D-07
 FoFJK:  IHMeth= 1 ICntrl=     0 DoSepK=T KAlg= 1 I1Cent= 0 FoldK=F
 LinEq1:  Iter= 21 NonCon=     1 RMS=6.51D-09 Max=2.55D-07
 FoFJK:  IHMeth= 1 ICntrl=     0 DoSepK=T KAlg= 1 I1Cent= 0 FoldK=F
 LinEq1:  Iter= 22 NonCon=     1 RMS=3.38D-09 Max=1.19D-07
 FoFJK:  IHMeth= 1 ICntrl=     0 DoSepK=T KAlg= 1 I1Cent= 0 FoldK=F
 LinEq1:  Iter= 23 NonCon=     1 RMS=1.23D-09 Max=3.79D-08
 FoFJK:  IHMeth= 1 ICntrl=     0 DoSepK=T KAlg= 1 I1Cent= 0 FoldK=F
 LinEq1:  Iter= 24 NonCon=     1 RMS=5.81D-10 Max=2.59D-08
 FoFJK:  IHMeth= 1 ICntrl=     0 DoSepK=T KAlg= 1 I1Cent= 0 FoldK=F
 LinEq1:  Iter= 25 NonCon=     1 RMS=2.96D-10 Max=1.26D-08
 FoFJK:  IHMeth= 1 ICntrl=     0 DoSepK=T KAlg= 1 I1Cent= 0 FoldK=F
 LinEq1:  Iter= 26 NonCon=     1 RMS=1.20D-10 Max=6.19D-09
 FoFJK:  IHMeth= 1 ICntrl=     0 DoSepK=T KAlg= 1 I1Cent= 0 FoldK=F
 LinEq1:  Iter= 27 NonCon=     1 RMS=6.47D-11 Max=2.11D-09
 FoFJK:  IHMeth= 1 ICntrl=     0 DoSepK=T KAlg= 1 I1Cent= 0 FoldK=F
 LinEq1:  Iter= 28 NonCon=     0 RMS=3.25D-11 Max=6.59D-10
 Linear equations converged to 1.000D-10 1.000D-09 after    28 iterations.
 FoFJK:  IHMeth= 1 ICntrl=     0 DoSepK=T KAlg= 1 I1Cent= 0 FoldK=F
 End of Minotr Frequency-dependent properties file   721 does not exist.
 End of Minotr Frequency-dependent properties file   722 does not exist.

 **********************************************************************

            Population analysis using the SCF density.

 **********************************************************************

 Orbital symmetries:
       Occupied  (A) (A) (A) (A) (A) (A) (A) (A) (A) (A) (A) (A)
                 (A) (A) (A) (A) (A) (A) (A) (A) (A) (A) (A) (A)
                 (A) (A) (A) (A) (A) (A) (A) (A) (A) (A) (A) (A)
                 (A) (A) (A) (A) (A) (A) (A) (A) (A) (A) (A) (A)
                 (A) (A) (A) (A) (A) (A) (A) (A) (A) (A) (A) (A)
                 (A) (A) (A) (A) (A) (A) (A) (A) (A) (A) (A) (A)
                 (A) (A) (A)
       Virtual   (A) (A) (A) (A) (A) (A) (A) (A) (A) (A) (A) (A)
                 (A) (A) (A) (A) (A) (A) (A) (A) (A) (A) (A) (A)
                 (A) (A) (A) (A) (A) (A) (A) (A) (A) (A) (A) (A)
                 (A) (A) (A) (A) (A) (A) (A) (A) (A) (A) (A) (A)
                 (A) (A) (A) (A) (A) (A) (A) (A) (A) (A) (A) (A)
                 (A) (A) (A) (A) (A) (A) (A) (A) (A) (A) (A) (A)
                 (A) (A) (A) (A) (A) (A) (A) (A) (A) (A) (A) (A)
                 (A) (A) (A) (A) (A) (A) (A) (A) (A) (A) (A) (A)
                 (A) (A) (A) (A) (A) (A) (A) (A) (A) (A) (A) (A)
                 (A) (A) (A) (A) (A) (A) (A) (A) (A) (A) (A) (A)
                 (A) (A) (A) (A) (A) (A) (A) (A) (A) (A) (A) (A)
                 (A) (A) (A) (A) (A) (A) (A) (A) (A) (A) (A) (A)
                 (A) (A) (A) (A) (A) (A) (A) (A) (A) (A) (A) (A)
                 (A) (A) (A) (A) (A) (A) (A) (A) (A) (A) (A) (A)
                 (A) (A) (A) (A) (A) (A) (A) (A) (A) (A) (A) (A)
                 (A) (A) (A) (A) (A) (A) (A) (A) (A) (A) (A) (A)
                 (A) (A) (A) (A) (A) (A) (A) (A) (A) (A) (A) (A)
                 (A) (A) (A) (A) (A) (A) (A) (A) (A) (A) (A) (A)
                 (A) (A) (A) (A) (A) (A) (A) (A) (A) (A) (A) (A)
                 (A) (A) (A) (A) (A) (A) (A) (A) (A) (A) (A) (A)
                 (A) (A) (A) (A) (A) (A) (A) (A) (A) (A) (A) (A)
                 (A) (A) (A) (A) (A) (A) (A) (A) (A) (A) (A) (A)
                 (A) (A) (A) (A) (A) (A) (A) (A) (A) (A) (A) (A)
                 (A) (A) (A) (A) (A) (A) (A) (A) (A) (A) (A) (A)
                 (A) (A) (A) (A) (A) (A) (A) (A) (A) (A) (A) (A)
                 (A) (A) (A) (A) (A) (A) (A) (A) (A) (A) (A) (A)
                 (A) (A) (A) (A) (A) (A) (A) (A) (A) (A) (A) (A)
                 (A) (A) (A) (A) (A) (A) (A) (A) (A) (A) (A) (A)
                 (A) (A) (A) (A) (A) (A) (A) (A) (A) (A) (A) (A)
                 (A) (A) (A) (A) (A) (A) (A) (A) (A) (A) (A) (A)
                 (A) (A) (A) (A) (A) (A) (A) (A) (A) (A) (A) (A)
                 (A) (A) (A) (A) (A) (A) (A) (A) (A) (A) (A) (A)
                 (A) (A) (A) (A) (A) (A) (A) (A) (A) (A) (A) (A)
                 (A) (A) (A) (A) (A) (A) (A) (A) (A) (A) (A) (A)
                 (A) (A) (A) (A) (A) (A) (A) (A) (A) (A) (A) (A)
                 (A) (A) (A) (A) (A) (A) (A) (A) (A) (A) (A) (A)
                 (A) (A) (A) (A) (A) (A) (A) (A) (A) (A) (A) (A)
                 (A) (A) (A) (A) (A) (A) (A) (A) (A) (A) (A) (A)
                 (A) (A) (A) (A) (A) (A) (A) (A) (A) (A) (A) (A)
                 (A) (A) (A) (A) (A) (A) (A) (A) (A) (A) (A) (A)
                 (A) (A) (A) (A) (A) (A) (A) (A) (A) (A) (A) (A)
                 (A) (A) (A) (A) (A) (A) (A) (A) (A) (A) (A) (A)
                 (A) (A) (A) (A) (A) (A) (A) (A) (A) (A) (A)
 The electronic state is 1-A.
 Alpha  occ. eigenvalues --  -19.32648 -19.12078 -14.50481 -10.42774 -10.38502
 Alpha  occ. eigenvalues --  -10.37232 -10.35302 -10.35243 -10.34016 -10.33924
 Alpha  occ. eigenvalues --  -10.33565 -10.32667 -10.32551 -10.32003 -10.29162
 Alpha  occ. eigenvalues --  -10.26067 -10.25231 -10.24647 -10.24515 -10.24071
 Alpha  occ. eigenvalues --  -10.22309  -1.20859  -1.10348  -1.03508  -1.00619
 Alpha  occ. eigenvalues --   -0.95400  -0.91560  -0.89895  -0.89646  -0.86491
 Alpha  occ. eigenvalues --   -0.85001  -0.81494  -0.80680  -0.77496  -0.75156
 Alpha  occ. eigenvalues --   -0.72517  -0.71804  -0.70258  -0.68256  -0.66231
 Alpha  occ. eigenvalues --   -0.64015  -0.63276  -0.60835  -0.59873  -0.59729
 Alpha  occ. eigenvalues --   -0.58264  -0.58078  -0.55440  -0.54927  -0.54236
 Alpha  occ. eigenvalues --   -0.53230  -0.52881  -0.52172  -0.51386  -0.51210
 Alpha  occ. eigenvalues --   -0.50592  -0.50139  -0.49466  -0.48717  -0.47419
 Alpha  occ. eigenvalues --   -0.46555  -0.45714  -0.44570  -0.44109  -0.42743
 Alpha  occ. eigenvalues --   -0.42513  -0.39928  -0.38852  -0.38376  -0.37625
 Alpha  occ. eigenvalues --   -0.34601  -0.30930  -0.30088  -0.25583  -0.20492
 Alpha virt. eigenvalues --   -0.07870   0.01536   0.01539   0.02979   0.03491
 Alpha virt. eigenvalues --    0.03871   0.04672   0.05072   0.05246   0.06305
 Alpha virt. eigenvalues --    0.06463   0.06812   0.06957   0.07304   0.07592
 Alpha virt. eigenvalues --    0.08171   0.08413   0.09206   0.09670   0.09804
 Alpha virt. eigenvalues --    0.10107   0.10522   0.10737   0.10943   0.11804
 Alpha virt. eigenvalues --    0.11948   0.12427   0.12794   0.12997   0.13466
 Alpha virt. eigenvalues --    0.13851   0.14065   0.14345   0.14556   0.14755
 Alpha virt. eigenvalues --    0.14958   0.15283   0.15643   0.16183   0.16431
 Alpha virt. eigenvalues --    0.16539   0.16905   0.17113   0.17287   0.18064
 Alpha virt. eigenvalues --    0.18287   0.18479   0.18936   0.19075   0.19335
 Alpha virt. eigenvalues --    0.19510   0.19773   0.19814   0.19950   0.20125
 Alpha virt. eigenvalues --    0.20727   0.20746   0.20805   0.21432   0.21696
 Alpha virt. eigenvalues --    0.21915   0.22131   0.22424   0.22635   0.22961
 Alpha virt. eigenvalues --    0.23398   0.23527   0.23768   0.23903   0.24524
 Alpha virt. eigenvalues --    0.24604   0.25092   0.25549   0.25808   0.26209
 Alpha virt. eigenvalues --    0.26425   0.26726   0.27081   0.27123   0.27376
 Alpha virt. eigenvalues --    0.27873   0.28183   0.28407   0.28962   0.29111
 Alpha virt. eigenvalues --    0.29521   0.29564   0.29957   0.30256   0.30865
 Alpha virt. eigenvalues --    0.31099   0.31204   0.31701   0.32195   0.32346
 Alpha virt. eigenvalues --    0.32705   0.32937   0.33046   0.33324   0.33747
 Alpha virt. eigenvalues --    0.34105   0.34244   0.35030   0.35653   0.35804
 Alpha virt. eigenvalues --    0.35971   0.36557   0.36705   0.37324   0.37851
 Alpha virt. eigenvalues --    0.37885   0.38117   0.38506   0.38779   0.38893
 Alpha virt. eigenvalues --    0.39472   0.39805   0.40293   0.41034   0.41363
 Alpha virt. eigenvalues --    0.41652   0.42430   0.42967   0.43253   0.43609
 Alpha virt. eigenvalues --    0.44361   0.44487   0.45019   0.46002   0.46833
 Alpha virt. eigenvalues --    0.47036   0.47221   0.48268   0.48562   0.49071
 Alpha virt. eigenvalues --    0.49965   0.50737   0.50895   0.51606   0.52574
 Alpha virt. eigenvalues --    0.52922   0.53582   0.54361   0.54729   0.56101
 Alpha virt. eigenvalues --    0.56701   0.57453   0.57978   0.59421   0.59843
 Alpha virt. eigenvalues --    0.60359   0.60841   0.61327   0.61705   0.63137
 Alpha virt. eigenvalues --    0.63420   0.63946   0.64965   0.65081   0.65717
 Alpha virt. eigenvalues --    0.66764   0.67219   0.68046   0.68074   0.68843
 Alpha virt. eigenvalues --    0.69567   0.69983   0.70543   0.70884   0.71271
 Alpha virt. eigenvalues --    0.71743   0.72203   0.72310   0.73286   0.73716
 Alpha virt. eigenvalues --    0.73829   0.74395   0.75141   0.75328   0.75716
 Alpha virt. eigenvalues --    0.75958   0.76304   0.76830   0.77431   0.78188
 Alpha virt. eigenvalues --    0.78794   0.79155   0.79794   0.79996   0.80470
 Alpha virt. eigenvalues --    0.80649   0.81207   0.81613   0.82569   0.82834
 Alpha virt. eigenvalues --    0.83827   0.84968   0.85165   0.85664   0.86461
 Alpha virt. eigenvalues --    0.87398   0.88541   0.89198   0.89624   0.90616
 Alpha virt. eigenvalues --    0.91218   0.92057   0.93221   0.93415   0.94340
 Alpha virt. eigenvalues --    0.94738   0.95583   0.95925   0.96388   0.97352
 Alpha virt. eigenvalues --    0.98486   0.98801   1.00111   1.01309   1.01652
 Alpha virt. eigenvalues --    1.02186   1.02198   1.02695   1.02990   1.03845
 Alpha virt. eigenvalues --    1.05060   1.05320   1.06225   1.07832   1.08019
 Alpha virt. eigenvalues --    1.08615   1.09526   1.09751   1.11113   1.12088
 Alpha virt. eigenvalues --    1.12310   1.12842   1.13127   1.14127   1.14504
 Alpha virt. eigenvalues --    1.15778   1.16135   1.17782   1.18363   1.18663
 Alpha virt. eigenvalues --    1.20675   1.21511   1.21949   1.23381   1.24160
 Alpha virt. eigenvalues --    1.26998   1.28861   1.31282   1.32967   1.33756
 Alpha virt. eigenvalues --    1.34422   1.36773   1.39629   1.40020   1.41951
 Alpha virt. eigenvalues --    1.42863   1.45493   1.45712   1.45895   1.47613
 Alpha virt. eigenvalues --    1.48820   1.49514   1.50054   1.50256   1.50368
 Alpha virt. eigenvalues --    1.51542   1.53778   1.54786   1.55645   1.57177
 Alpha virt. eigenvalues --    1.58476   1.58642   1.59186   1.59864   1.60093
 Alpha virt. eigenvalues --    1.61026   1.61065   1.62367   1.62686   1.62870
 Alpha virt. eigenvalues --    1.63379   1.64506   1.64980   1.66114   1.66424
 Alpha virt. eigenvalues --    1.66991   1.67848   1.69104   1.70356   1.71142
 Alpha virt. eigenvalues --    1.71558   1.73479   1.73807   1.74624   1.75155
 Alpha virt. eigenvalues --    1.76881   1.77455   1.78842   1.79186   1.79439
 Alpha virt. eigenvalues --    1.79658   1.79853   1.81617   1.82376   1.82589
 Alpha virt. eigenvalues --    1.83261   1.84493   1.85041   1.86696   1.88958
 Alpha virt. eigenvalues --    1.90731   1.90816   1.91582   1.91867   1.92547
 Alpha virt. eigenvalues --    1.92890   1.94688   1.95016   1.96444   1.97642
 Alpha virt. eigenvalues --    1.98132   1.98803   1.99444   2.00047   2.01603
 Alpha virt. eigenvalues --    2.03447   2.04815   2.05159   2.05662   2.06459
 Alpha virt. eigenvalues --    2.07980   2.09492   2.09954   2.10219   2.10751
 Alpha virt. eigenvalues --    2.12063   2.12416   2.13026   2.14317   2.16243
 Alpha virt. eigenvalues --    2.16768   2.18384   2.20042   2.21256   2.22513
 Alpha virt. eigenvalues --    2.23189   2.24049   2.25398   2.26387   2.27077
 Alpha virt. eigenvalues --    2.27595   2.30056   2.30857   2.31704   2.35302
 Alpha virt. eigenvalues --    2.36163   2.36882   2.38505   2.40131   2.41804
 Alpha virt. eigenvalues --    2.42694   2.43886   2.44993   2.48209   2.49334
 Alpha virt. eigenvalues --    2.50631   2.52913   2.53092   2.53428   2.53628
 Alpha virt. eigenvalues --    2.54607   2.55243   2.57748   2.59671   2.60270
 Alpha virt. eigenvalues --    2.61813   2.62349   2.67279   2.67315   2.67699
 Alpha virt. eigenvalues --    2.67988   2.69153   2.71170   2.71360   2.71885
 Alpha virt. eigenvalues --    2.72911   2.75022   2.75636   2.76281   2.76361
 Alpha virt. eigenvalues --    2.76701   2.77116   2.79239   2.80624   2.80884
 Alpha virt. eigenvalues --    2.81455   2.82229   2.83323   2.83688   2.84174
 Alpha virt. eigenvalues --    2.85823   2.88099   2.88344   2.89153   2.89854
 Alpha virt. eigenvalues --    2.89992   2.90192   2.92551   2.94074   2.94699
 Alpha virt. eigenvalues --    2.97277   2.98219   2.98673   2.99664   3.01460
 Alpha virt. eigenvalues --    3.01966   3.02765   3.03200   3.04453   3.06372
 Alpha virt. eigenvalues --    3.07255   3.08923   3.10104   3.12668   3.13931
 Alpha virt. eigenvalues --    3.15294   3.15509   3.16237   3.18090   3.22381
 Alpha virt. eigenvalues --    3.22517   3.25422   3.26162   3.28464   3.29971
 Alpha virt. eigenvalues --    3.32456   3.33945   3.36217   3.36749   3.41800
 Alpha virt. eigenvalues --    3.43764   3.44797   3.48113   3.51812   3.53796
 Alpha virt. eigenvalues --    3.54833   3.57226   3.57792   3.62523   3.64313
 Alpha virt. eigenvalues --    3.66445   3.67728   3.74540   3.74836   3.77317
 Alpha virt. eigenvalues --    3.77471   3.78449   3.80260   3.84639   3.85933
 Alpha virt. eigenvalues --    3.87728   3.91311   3.93395   3.97141   3.97509
 Alpha virt. eigenvalues --    3.99619   4.01854   4.05163   4.07122   4.10100
 Alpha virt. eigenvalues --    4.20921   4.23701   4.25516   4.29263   4.32030
 Alpha virt. eigenvalues --    4.35889   4.42412   4.49533   4.69823   4.90571
 Alpha virt. eigenvalues --    4.97467   5.00713   5.14080   5.14552   5.30405
 Alpha virt. eigenvalues --    5.45016   5.53180   5.81508   5.96579  23.71392
 Alpha virt. eigenvalues --   23.81021  23.87954  24.01405  24.03327  24.03851
 Alpha virt. eigenvalues --   24.06568  24.07880  24.09666  24.12016  24.12509
 Alpha virt. eigenvalues --   24.13820  24.19848  24.21482  24.24398  24.27881
 Alpha virt. eigenvalues --   24.31585  24.37511  35.70667  50.03500  50.27965
          Condensed to atoms (all electrons):
              1          2          3          4          5          6
     1  O    8.349414  -0.001540   0.159421   0.059824  -0.177603  -0.023003
     2  O   -0.001540   7.735510   0.029850   0.022186  -0.006610  -0.000244
     3  C    0.159421   0.029850  21.003380   6.008584  -7.102090  -0.226733
     4  C    0.059824   0.022186   6.008584  19.527833  -8.168934  -0.326816
     5  C   -0.177603  -0.006610  -7.102090  -8.168934  15.813379   0.694141
     6  H   -0.023003  -0.000244  -0.226733  -0.326816   0.694141   0.499679
     7  H    0.004347   0.000194   0.074784   0.438391  -0.086122  -0.018637
     8  C    0.268787   0.557685  -0.612017  -0.649524   0.973598  -0.000497
     9  C   -0.086356   0.322006   0.163508   2.788264  -3.122808  -0.053980
    10  C   -0.080157  -0.033582  -1.615005  -1.507229   1.324250   0.085058
    11  C    0.100170  -0.425118  -1.045865   0.037275   0.194418   0.000225
    12  C   -0.072779  -0.293946 -10.570518 -10.797562   5.463634   0.141767
    13  C   -0.010776  -0.007155  -0.122289  -0.875238   0.413075   0.012246
    14  H    0.002282   0.014050  -0.091887  -0.058669   0.102525   0.001056
    15  C   -0.030830  -0.004124   0.202419   0.207132  -0.214566  -0.004436
    16  H   -0.003175   0.001956   0.206148   0.165681  -0.089595  -0.000105
    17  H   -0.000096  -0.000714  -0.007891  -0.101921   0.023761   0.000574
    18  H   -0.000273   0.000046  -0.007185   0.088015   0.024628   0.000475
    19  H    0.000042   0.000321  -0.016158  -0.109662   0.003638   0.000244
    20  H    0.004369  -0.010510  -0.015008  -0.011219   0.016391   0.000251
    21  C    0.002287   0.004351   0.173101   0.057008  -0.103834  -0.001000
    22  C    0.002345  -0.017073   0.024427  -0.005823   0.017063  -0.000053
    23  C   -0.002753   0.002085  -0.022519   0.015971  -0.025600  -0.000276
    24  H    0.000387  -0.002283   0.025356   0.007176  -0.017228  -0.000219
    25  C    0.000697  -0.005662   0.063674   0.000975  -0.001178  -0.000213
    26  H   -0.000250   0.001401   0.001509   0.000759  -0.001392  -0.000023
    27  C   -0.000094   0.004034  -0.019153   0.001091  -0.002184  -0.000004
    28  H   -0.000025   0.000169  -0.001011  -0.000202   0.000498   0.000005
    29  C    0.000187  -0.001482   0.005799   0.000773  -0.001153  -0.000017
    30  H    0.000013   0.000004  -0.000040  -0.000047   0.000072   0.000002
    31  N    0.000000   0.000000  -0.000011   0.000001  -0.000002   0.000000
    32  C    0.000000  -0.000001   0.000090   0.000007  -0.000024  -0.000001
    33  C    0.000001   0.000002  -0.000047   0.000000  -0.000001   0.000000
    34  H    0.000000  -0.000001  -0.000032  -0.000004   0.000004   0.000000
    35  H    0.000000   0.000000   0.000008   0.000000  -0.000001   0.000000
    36  H    0.000000   0.000000   0.000020   0.000005  -0.000008   0.000000
    37  H    0.000000  -0.000002   0.000010   0.000001  -0.000001   0.000000
    38  H    0.000000  -0.000001   0.000001   0.000000  -0.000001   0.000000
    39  H    0.000000   0.000000  -0.000005   0.000000   0.000000   0.000000
    40  H   -0.010182   0.248773  -0.086092   0.010503  -0.024363  -0.000483
              7          8          9         10         11         12
     1  O    0.004347   0.268787  -0.086356  -0.080157   0.100170  -0.072779
     2  O    0.000194   0.557685   0.322006  -0.033582  -0.425118  -0.293946
     3  C    0.074784  -0.612017   0.163508  -1.615005  -1.045865 -10.570518
     4  C    0.438391  -0.649524   2.788264  -1.507229   0.037275 -10.797562
     5  C   -0.086122   0.973598  -3.122808   1.324250   0.194418   5.463634
     6  H   -0.018637  -0.000497  -0.053980   0.085058   0.000225   0.141767
     7  H    0.528909   0.003289   0.086284  -0.050986   0.000240  -0.140536
     8  C    0.003289  15.334420   1.045001   1.201495  -0.486524  -5.945220
     9  C    0.086284   1.045001  20.709013   0.268766  -4.133277 -11.004092
    10  C   -0.050986   1.201495   0.268766  11.816517   0.020360  -4.347569
    11  C    0.000240  -0.486524  -4.133277   0.020360  12.275647   1.905008
    12  C   -0.140536  -5.945220 -11.004092  -4.347569   1.905008  40.516817
    13  C    0.013400  -0.288577  -1.323152  -1.442381  -0.068288   2.029877
    14  H   -0.000332   0.170274   0.101980  -0.087547   0.470561   0.127311
    15  C    0.003512  -2.878863  -1.030338   0.043968   2.124468  -0.224872
    16  H   -0.002004   0.015843   0.282504   0.025328  -0.062140  -0.232130
    17  H   -0.000697  -0.003220   0.022085  -0.052926  -0.001157   0.075345
    18  H   -0.003550  -0.003356  -0.026693  -0.082326   0.002548  -0.048578
    19  H   -0.001129   0.010175  -0.007242  -0.006904   0.002579   0.071822
    20  H   -0.000041  -0.092616  -0.083210  -0.005577   0.077232  -0.024966
    21  C    0.000718  -0.613168   0.170035  -0.029094  -1.268124   0.013646
    22  C    0.000187  -1.217119  -0.316038   0.050315  -0.807472  -0.305870
    23  C    0.000134  -0.603911   0.032875  -0.018930  -1.119849   0.165386
    24  H    0.000110  -0.064911  -0.024553   0.016154  -0.135599  -0.044094
    25  C    0.000097   0.068451   0.034600   0.023069  -0.399891  -0.227618
    26  H    0.000005   0.023367   0.008525   0.000649   0.015393   0.000144
    27  C    0.000001  -0.066088  -0.021894  -0.003839  -0.029334   0.064140
    28  H   -0.000005   0.014839   0.002108  -0.000676   0.052503   0.002241
[...]
     7  H    0.013644  -0.000305   0.003398  -0.002244  -0.000438  -0.003799
     8  C   -0.302931   0.191849  -2.967170   0.017410  -0.003681  -0.003330
     9  C   -1.410702   0.103072  -1.061982   0.272096   0.018525  -0.029440
    10  C   -1.514001  -0.080267   0.026747   0.033869  -0.058972  -0.084863
    11  C   -0.080272   0.476399   2.380541  -0.053022  -0.001630   0.002492
    12  C    2.211317   0.121094  -0.222627  -0.220592   0.093211  -0.045614
    13  C    7.262448   0.004093  -0.037965  -0.045081   0.389981   0.406936
    14  H    0.004093   0.627169  -0.160119   0.003179  -0.000252  -0.000172
    15  C   -0.037965  -0.160119   9.552302  -0.015879  -0.001867   0.000092
    16  H   -0.045081   0.003179  -0.015879   0.549986  -0.000647   0.002638
    17  H    0.389981  -0.000252  -0.001867  -0.000647   0.594093  -0.023630
    18  H    0.406936  -0.000172   0.000092   0.002638  -0.023630   0.532679
    19  H    0.401939  -0.000623   0.001824  -0.007265  -0.070563  -0.017805
    20  H   -0.000704   0.001629   0.421829  -0.001670   0.000049  -0.000016
    21  C   -0.001253  -0.014901   0.243655   0.008157   0.000109  -0.000013
    22  C   -0.006321  -0.227708  -0.204883  -0.008838   0.000125  -0.000190
    23  C    0.000804   0.008586  -0.981606   0.003153  -0.000085   0.000025
    24  H   -0.000592  -0.070036  -0.121774  -0.001048   0.000123  -0.000061
    25  C   -0.002557  -0.141169  -0.716437  -0.002128   0.000086  -0.000127
    26  H    0.000011  -0.001730   0.016803   0.000157  -0.000001   0.000000
    27  C    0.000209   0.036485   0.592782   0.000809  -0.000010   0.000007
    28  H    0.000027   0.017785   0.068768   0.000099  -0.000005   0.000004
    29  C   -0.000221  -0.080681  -1.146083  -0.000265   0.000012  -0.000014
    30  H    0.000001   0.001078   0.028723  -0.000013   0.000000   0.000000
    31  N    0.000000  -0.000807  -0.005906   0.000005   0.000000   0.000000
    32  C   -0.000001  -0.001142  -0.021064  -0.000013   0.000000   0.000000
    33  C    0.000001   0.000065   0.022638   0.000003   0.000000   0.000000
    34  H    0.000001  -0.000251  -0.000028  -0.000002   0.000000   0.000000
    35  H    0.000000  -0.000019  -0.002378   0.000000   0.000000   0.000000
    36  H   -0.000001  -0.000725  -0.001974  -0.000001   0.000000   0.000000
    37  H    0.000000  -0.000057  -0.006100   0.000001   0.000000   0.000000
    38  H    0.000000  -0.000051  -0.003011   0.000000   0.000000   0.000000
    39  H    0.000000   0.000035   0.004171   0.000000   0.000000   0.000000
    40  H    0.001531   0.002630  -0.053948   0.001363   0.000138   0.000011
             19         20         21         22         23         24
     1  O    0.000048   0.004455   0.000007   0.003833  -0.002406   0.000642
     2  O    0.000375  -0.009724   0.000211  -0.018888   0.004587  -0.002612
     3  C   -0.015156  -0.017272   0.172541   0.048739  -0.031024   0.018509
     4  C   -0.103771  -0.011628   0.051502  -0.007861   0.013143   0.003200
     5  C    0.003130   0.015814  -0.095003   0.015992  -0.018964  -0.013863
     6  H    0.000211   0.000260  -0.000907  -0.000054  -0.000180  -0.000115
     7  H   -0.001237  -0.000042   0.000735   0.000234   0.000111   0.000109
     8  C    0.009822  -0.085592  -0.844483  -1.192905  -0.664846  -0.073548
     9  C   -0.006503  -0.082703   0.192706  -0.321212   0.049029  -0.024469
    10  C   -0.001413  -0.005073  -0.042081   0.057635  -0.026879   0.014977
    11  C    0.003744   0.066072  -1.350424  -1.020978  -1.303604  -0.174346
    12  C    0.061638  -0.025630  -0.001132  -0.410485   0.198378  -0.047219
    13  C    0.401939  -0.000704  -0.001253  -0.006321   0.000804  -0.000592
    14  H   -0.000623   0.001629  -0.014901  -0.227708   0.008586  -0.070036
    15  C    0.001824   0.421829   0.243655  -0.204883  -0.981606  -0.121774
    16  H   -0.007265  -0.001670   0.008157  -0.008838   0.003153  -0.001048
    17  H   -0.070563   0.000049   0.000109   0.000125  -0.000085   0.000123
    18  H   -0.017805  -0.000016  -0.000013  -0.000190   0.000025  -0.000061
    19  H    0.598255   0.000018  -0.000297   0.000306   0.000011  -0.000040
    20  H    0.000018   0.460634  -0.076922   0.090606   0.004884   0.004156
    21  C   -0.000297  -0.076922  12.388377   0.571159  -0.271483  -0.294489
    22  C    0.000306   0.090606   0.571159  11.894111  -1.138063   0.504313
    23  C    0.000011   0.004884  -0.271483  -1.138063  10.591594   0.060051
    24  H   -0.000040   0.004156  -0.294489   0.504313   0.060051   0.588438
    25  C    0.000006   0.024393  -1.215270   1.738649  -1.439244   0.281868
    26  H    0.000000  -0.008325  -0.063025  -0.028516   0.311170   0.000256
    27  C   -0.000008  -0.030377  -2.179423  -1.847058   1.699112  -0.053374
    28  H   -0.000004  -0.000255   0.231147   0.088313  -0.062828  -0.062340
    29  C    0.000003   0.010087  -2.265484  -1.381262  -0.821256   0.318452
    30  H    0.000000   0.002370  -0.022846  -0.026388   0.032933  -0.001790
    31  N    0.000000  -0.000718  -0.061323  -0.033563   0.038889   0.002142
    32  C    0.000000   0.000627  -0.055891  -0.107856   0.014979   0.011018
    33  C    0.000000  -0.001187  -0.162063  -0.033469  -0.061561   0.000182
    34  H    0.000000   0.000059  -0.008868  -0.005418  -0.001131   0.002111
    35  H    0.000000   0.000032  -0.000785  -0.013311   0.010673   0.000403
    36  H    0.000000  -0.000025  -0.015951   0.000616  -0.009485   0.004097
    37  H    0.000000  -0.000180   0.002560  -0.009326   0.014168   0.000368
    38  H    0.000000   0.000017  -0.001574  -0.005876   0.000417   0.000094
    39  H    0.000000  -0.000067  -0.003733   0.008872  -0.014840  -0.000464
    40  H   -0.000209  -0.000126  -0.010388  -0.008862  -0.002868  -0.000284
             25         26         27         28         29         30
     1  O    0.000813  -0.000246  -0.000113  -0.000036   0.000241   0.000012
     2  O   -0.006991   0.001388   0.004970   0.000195  -0.001830   0.000004
     3  C    0.065148   0.001477  -0.017188  -0.000589   0.002542   0.000053
     4  C   -0.000500   0.000710   0.001313   0.000032  -0.000237  -0.000041
     5  C   -0.001848  -0.001275  -0.001902   0.000279   0.000163   0.000066
     6  H   -0.000208  -0.000022  -0.000009   0.000000   0.000003   0.000001
     7  H    0.000114   0.000005   0.000001  -0.000005   0.000024   0.000000
     8  C    0.077977   0.021854  -0.069337   0.014993  -0.254258   0.002177
     9  C    0.049769   0.008961  -0.022266   0.002034   0.002936  -0.000417
    10  C    0.026498   0.000601  -0.004436  -0.000530  -0.000216  -0.000029
    11  C   -0.543466   0.010261   0.028736   0.068954  -0.940118  -0.008691
    12  C   -0.261691   0.000172   0.067947   0.002670  -0.018103  -0.000153
    13  C   -0.002557   0.000011   0.000209   0.000027  -0.000221   0.000001
    14  H   -0.141169  -0.001730   0.036485   0.017785  -0.080681   0.001078
    15  C   -0.716437   0.016803   0.592782   0.068768  -1.146083   0.028723
    16  H   -0.002128   0.000157   0.000809   0.000099  -0.000265  -0.000013
    17  H    0.000086  -0.000001  -0.000010  -0.000005   0.000012   0.000000
    18  H   -0.000127   0.000000   0.000007   0.000004  -0.000014   0.000000
    19  H    0.000006   0.000000  -0.000008  -0.000004   0.000003   0.000000
    20  H    0.024393  -0.008325  -0.030377  -0.000255   0.010087   0.002370
    21  C   -1.215270  -0.063025  -2.179423   0.231147  -2.265484  -0.022846
    22  C    1.738649  -0.028516  -1.847058   0.088313  -1.381262  -0.026388
    23  C   -1.439244   0.311170   1.699112  -0.062828  -0.821256   0.032933
    24  H    0.281868   0.000256  -0.053374  -0.062340   0.318452  -0.001790
    25  C   10.390213   0.007450  -2.270858   0.313524   0.439754  -0.023040
    26  H    0.007450   0.479969  -0.004291  -0.000459   0.036638  -0.014783
    27  C   -2.270858  -0.004291  10.174440   0.003840  -0.422946   0.502266
    28  H    0.313524  -0.000459   0.003840   0.544404  -0.421345   0.003144
    29  C    0.439754   0.036638  -0.422946  -0.421345  13.725969  -0.153775
    30  H   -0.023040  -0.014783   0.502266   0.003144  -0.153775   0.507210
    31  N   -0.292003   0.000542  -0.174690  -0.033614   0.317450  -0.028960
    32  C   -0.006598  -0.000578  -0.078492  -0.005222  -0.004634  -0.002580
    33  C   -0.110527   0.004491   0.167364  -0.003797  -0.128644   0.013694
    34  H    0.005048  -0.000277   0.005481  -0.016433  -0.005569   0.000116
    35  H   -0.002130  -0.000065   0.009979   0.002600   0.009648   0.000402
    36  H    0.065652   0.000169  -0.037099  -0.007419   0.000893  -0.001048
    37  H   -0.039592   0.001551   0.038829  -0.001245   0.006747  -0.005260
    38  H   -0.003346   0.000367   0.016519  -0.000865  -0.021096  -0.012045
    39  H    0.019833  -0.000020   0.010099   0.001792  -0.016368   0.005049
    40  H   -0.000308   0.000047  -0.000124   0.000019  -0.000511   0.000003
             31         32         33         34         35         36
     1  O    0.000000   0.000000   0.000000   0.000000   0.000000   0.000000
     2  O    0.000000  -0.000007   0.000006   0.000000  -0.000001   0.000000
     3  C    0.000016  -0.000053  -0.000057  -0.000017   0.000001   0.000034
     4  C    0.000002  -0.000006  -0.000002  -0.000003   0.000000   0.000008
     5  C   -0.000004  -0.000015   0.000004   0.000006  -0.000001  -0.000012
     6  H    0.000000   0.000000   0.000000   0.000000   0.000000   0.000000
     7  H    0.000000   0.000000   0.000000   0.000000   0.000000   0.000000
     8  C    0.001238   0.002102   0.000553  -0.000356   0.000139  -0.000475
     9  C    0.000036   0.000395  -0.000062  -0.000060   0.000028  -0.000136
    10  C    0.000006   0.000053  -0.000021  -0.000010   0.000003   0.000003
    11  C    0.001419   0.003816  -0.013088  -0.001265   0.000387  -0.001731
    12  C   -0.000017  -0.000327   0.000252   0.000060  -0.000028  -0.000010
    13  C    0.000000  -0.000001   0.000001   0.000001   0.000000  -0.000001
    14  H   -0.000807  -0.001142   0.000065  -0.000251  -0.000019  -0.000725
    15  C   -0.005906  -0.021064   0.022638  -0.000028  -0.002378  -0.001974
    16  H    0.000005  -0.000013   0.000003  -0.000002   0.000000  -0.000001
    17  H    0.000000   0.000000   0.000000   0.000000   0.000000   0.000000
    18  H    0.000000   0.000000   0.000000   0.000000   0.000000   0.000000
    19  H    0.000000   0.000000   0.000000   0.000000   0.000000   0.000000
    20  H   -0.000718   0.000627  -0.001187   0.000059   0.000032  -0.000025
    21  C   -0.061323  -0.055891  -0.162063  -0.008868  -0.000785  -0.015951
    22  C   -0.033563  -0.107856  -0.033469  -0.005418  -0.013311   0.000616
    23  C    0.038889   0.014979  -0.061561  -0.001131   0.010673  -0.009485
    24  H    0.002142   0.011018   0.000182   0.002111   0.000403   0.004097
    25  C   -0.292003  -0.006598  -0.110527   0.005048  -0.002130   0.065652
    26  H    0.000542  -0.000578   0.004491  -0.000277  -0.000065   0.000169
    27  C   -0.174690  -0.078492   0.167364   0.005481   0.009979  -0.037099
    28  H   -0.033614  -0.005222  -0.003797  -0.016433   0.002600  -0.007419
    29  C    0.317450  -0.004634  -0.128644  -0.005569   0.009648   0.000893
    30  H   -0.028960  -0.002580   0.013694   0.000116   0.000402  -0.001048
    31  N    6.878554   0.283097   0.290174  -0.054701  -0.047645  -0.034368
    32  C    0.283097   5.342425  -0.159667   0.436571   0.413961   0.378784
    33  C    0.290174  -0.159667   5.387889  -0.006248  -0.018237   0.014298
    34  H   -0.054701   0.436571  -0.006248   0.520771  -0.021689  -0.045602
    35  H   -0.047645   0.413961  -0.018237  -0.021689   0.510376  -0.028999
    36  H   -0.034368   0.378784   0.014298  -0.045602  -0.028999   0.553711
    37  H   -0.038265   0.014041   0.372442  -0.000172   0.004957  -0.004977
    38  H   -0.051599  -0.008913   0.442619   0.006562  -0.005183   0.000129
    39  H   -0.050310  -0.014245   0.416910  -0.005840   0.012536   0.004529
    40  H    0.000001   0.000004   0.000002  -0.000001   0.000000   0.000000
             37         38         39         40
     1  O    0.000000   0.000000   0.000000  -0.009969
     2  O   -0.000002  -0.000002   0.000001   0.245204
     3  C    0.000002   0.000002  -0.000005  -0.086823
     4  C    0.000000   0.000000   0.000000   0.009550
     5  C   -0.000001  -0.000001   0.000000  -0.021072
     6  H    0.000000   0.000000   0.000000  -0.000412
     7  H    0.000000   0.000000   0.000000  -0.000017
     8  C    0.000002  -0.000167   0.000047   0.146552
     9  C    0.000035   0.000015  -0.000013  -0.032519
    10  C    0.000001   0.000000  -0.000001   0.024842
    11  C   -0.000222  -0.000210  -0.000063   0.025339
    12  C   -0.000014  -0.000022   0.000021   0.028371
    13  C    0.000000   0.000000   0.000000   0.001531
    14  H   -0.000057  -0.000051   0.000035   0.002630
    15  C   -0.006100  -0.003011   0.004171  -0.053948
    16  H    0.000001   0.000000   0.000000   0.001363
    17  H    0.000000   0.000000   0.000000   0.000138
    18  H    0.000000   0.000000   0.000000   0.000011
    19  H    0.000000   0.000000   0.000000  -0.000209
    20  H   -0.000180   0.000017  -0.000067  -0.000126
    21  C    0.002560  -0.001574  -0.003733  -0.010388
    22  C   -0.009326  -0.005876   0.008872  -0.008862
    23  C    0.014168   0.000417  -0.014840  -0.002868
    24  H    0.000368   0.000094  -0.000464  -0.000284
    25  C   -0.039592  -0.003346   0.019833  -0.000308
    26  H    0.001551   0.000367  -0.000020   0.000047
    27  C    0.038829   0.016519   0.010099  -0.000124
    28  H   -0.001245  -0.000865   0.001792   0.000019
    29  C    0.006747  -0.021096  -0.016368  -0.000511
    30  H   -0.005260  -0.012045   0.005049   0.000003
    31  N   -0.038265  -0.051599  -0.050310   0.000001
    32  C    0.014041  -0.008913  -0.014245   0.000004
    33  C    0.372442   0.442619   0.416910   0.000002
    34  H   -0.000172   0.006562  -0.005840  -0.000001
    35  H    0.004957  -0.005183   0.012536   0.000000
    36  H   -0.004977   0.000129   0.004529   0.000000
    37  H    0.555827  -0.046793  -0.029467   0.000000
    38  H   -0.046793   0.519181  -0.020620   0.000000
    39  H   -0.029467  -0.020620   0.510851   0.000000
    40  H    0.000000   0.000000   0.000000   0.379865
 Mulliken atomic charges:
              1
     1  O   -0.447696
     2  O   -0.124087
     3  C   -0.538189
     4  C   -0.812845
     5  C    0.056273
     6  H    0.220601
     7  H    0.146971
     8  C   -0.027077
     9  C    1.170917
    10  C    0.446638
    11  C   -0.594747
    12  C   -0.276854
    13  C   -0.636128
    14  H    0.187958
    15  C    0.207695
    16  H    0.194557
    17  H    0.161894
    18  H    0.158001
    19  H    0.143564
    20  H    0.250244
    21  C    1.197142
    22  C   -0.964211
    23  C   -0.204345
    24  H    0.126957
    25  C   -0.426759
    26  H    0.218563
    27  C   -0.147189
    28  H    0.252366
    29  C   -0.786649
    30  H    0.202558
    31  N    0.094919
    32  C   -0.434569
    33  C   -0.434957
    34  H    0.197153
    35  H    0.164347
    36  H    0.167114
    37  H    0.170142
    38  H    0.195449
    39  H    0.161311
    40  H    0.362966
 Sum of Mulliken atomic charges =   0.00000
 Mulliken charges with hydrogens summed into heavy atoms:
              1
     1  O   -0.447696
     2  O    0.238880
     3  C   -0.538189
     4  C   -0.665874
     5  C    0.276874
     8  C   -0.027077
     9  C    1.170917
    10  C    0.446638
    11  C   -0.406789
    12  C   -0.082297
    13  C   -0.172670
    15  C    0.457939
    21  C    1.197142
    22  C   -0.837254
    23  C    0.014218
    25  C   -0.174393
    27  C    0.055369
    29  C   -0.786649
    31  N    0.094919
    32  C    0.094046
    33  C    0.091945
 Sum of Mulliken charges with hydrogens summed into heavy atoms =   0.00000
 Electronic spatial extent (au):  <R**2>=          11252.7329
 Charge=              0.0000 electrons
 Dipole moment (field-independent basis, Debye):
    X=             15.2707    Y=              1.5497    Z=             -4.9556  Tot=             16.1293
 Quadrupole moment (field-independent basis, Debye-Ang):
   XX=           -103.5357   YY=           -118.4791   ZZ=           -137.3945
   XY=              2.1456   XZ=             13.9858   YZ=             13.9676
 Traceless Quadrupole moment (field-independent basis, Debye-Ang):
   XX=             16.2674   YY=              1.3240   ZZ=            -17.5914
   XY=              2.1456   XZ=             13.9858   YZ=             13.9676
 Octapole moment (field-independent basis, Debye-Ang**2):
  XXX=            473.9872  YYY=            -21.4987  ZZZ=            -21.4663  XYY=             46.4460
  XXY=             51.7032  XXZ=            -44.2000  XZZ=             39.3371  YZZ=             15.3667
  YYZ=            -16.9283  XYZ=            -13.2813
 Hexadecapole moment (field-independent basis, Debye-Ang**3):
 XXXX=         -11493.9707 YYYY=          -1271.4657 ZZZZ=           -848.6948 XXXY=            220.6248
 XXXZ=             44.1532 YYYX=            128.0643 YYYZ=             71.4911 ZZZX=             68.4627
 ZZZY=             52.4408 XXYY=          -2303.3900 XXZZ=          -2495.6342 YYZZ=           -384.2578
 XXYZ=            213.5413 YYXZ=             67.7354 ZZXY=            -22.8653
 N-N= 1.477611482823D+03 E-N=-5.055243018540D+03  KE= 8.985963166599D+02
 1\1\GINC-DN38\FOpt\RwB97XD TD-FC\6-311++G(d,p)\C18H19N1O2\BTX008\31-Oc
 t-2015\0\\#wb97xd opt 6-311++g** td(nstates=1,root=1) geom=allcheck sc
 f(maxcycle=500,xqc)\\paramethyl substituent keto form S1 geometry opti
 mization\\0,1\O,-3.4167330953,-1.5124098968,2.0035934936\O,-2.12538059
 92,-2.1811018908,-1.0498611457\C,-3.8538951665,-0.6077839988,1.2675043
 443\C,-5.5329588878,1.0969788495,0.7567871463\C,-5.0377677113,0.150786
 8053,1.6068309577\H,-5.5102154931,-0.0672712665,2.55726293\H,-6.424433
 1385,1.6539241577,1.0267422757\C,-1.9719191535,-1.021805073,-0.3581046
 773\C,-3.2050570381,-0.2871853669,0.0091331464\C,-4.9058027776,1.37377
 60099,-0.4814113665\C,-0.7058761258,-0.533733212,-0.115336086\C,-3.750
 515157,0.6624151077,-0.8276596597\C,-5.464044032,2.408456028,-1.411509
 4064\H,-0.6734405314,0.421726895,0.3963911755\C,0.4672316093,-1.166263
 7028,-0.4702925003\H,-3.2581737328,0.8792542768,-1.7702337864\H,-5.867
 267539,1.9354616773,-2.3126793837\H,-6.2662052459,2.9806715279,-0.9437
 16247\H,-4.6857390923,3.1045959377,-1.7345289632\H,0.3854458216,-2.121
 6075892,-0.9781440845\C,1.8061333847,-0.6776190771,-0.234880673\C,2.10
 33819227,0.5297353046,0.4165890072\C,2.9068828425,-1.42831021,-0.67599
 1774\H,1.3016992316,1.1632412698,0.7786988491\C,3.4029445557,0.9553386
 413,0.6176747618\H,2.7282379637,-2.3667237137,-1.1917520237\C,4.212090
 6365,-1.0156443814,-0.4837824432\H,3.5601971704,1.8986299839,1.1229642
 303\C,4.5007956717,0.1891770774,0.1821920838\H,5.0101775882,-1.6439673
 403,-0.8556226148\N,5.8070500457,0.5975698304,0.4090163039\C,6.0451348
 219,1.9534943711,0.8552060117\C,6.8742727783,-0.0611762997,-0.31416239
 05\H,5.685899112,2.7080617903,0.139318755\H,7.1154565917,2.0987645055,
 0.9991693707\H,5.561602656,2.1372273251,1.8183087616\H,6.9310965334,-1
 .1211227768,-0.051375822\H,6.7573585513,0.0172509645,-1.4052570542\H,7
 .8257260606,0.3921544736,-0.0376479963\H,-2.9874612369,-2.5564312164,-
 0.8671780161\\Version=EM64L-G09RevC.01\State=1-A\HF=-902.3927676\RMSD=
 2.094e-09\RMSF=1.059e-05\Dipole=-0.5022507,1.6401844,-0.8847635\PG=C01
  [X(C18H19N1O2)]\\@


 MY DESCRIPTION OF EXPERIENCE IS NOT WHAT HAPPENS
 TO A MAN.  EXPERIENCE IS WHAT A MAN DOES WITH WHAT
 HAPPENS TO HIM.
                         - CHUCK KNOX, SEATTLE SEAHAWKS, 1985
 Job cpu time: 19 days 11 hours 38 minutes 37.4 seconds.
 File lengths (MBytes):  RWF=    330 Int=      0 D2E=      0 Chk=     50 Scr=      1
 Normal termination of Gaussian 09 at Sat Oct 31 15:21:21 2015.
