 Entering Gaussian System, Link 0=g09
 Input=paramethoxy_opt.com
 Output=paramethoxy_opt.out
 Initial command:
 /share/apps/gaussian/g09/l1.exe /tmp/3499183.1.serial.q/Gau-935.inp -scrdir=/tmp/3499183.1.serial.q/
 Entering Link 1 = /share/apps/gaussian/g09/l1.exe PID=       936.
  
 Copyright (c) 1988,1990,1992,1993,1995,1998,2003,2009,2011,
            Gaussian, Inc.  All Rights Reserved.
  
 This is part of the Gaussian(R) 09 program.  It is based on
 the Gaussian(R) 03 system (copyright 2003, Gaussian, Inc.),
 the Gaussian(R) 98 system (copyright 1998, Gaussian, Inc.),
 the Gaussian(R) 94 system (copyright 1995, Gaussian, Inc.),
 the Gaussian 92(TM) system (copyright 1992, Gaussian, Inc.),
 the Gaussian 90(TM) system (copyright 1990, Gaussian, Inc.),
 the Gaussian 88(TM) system (copyright 1988, Gaussian, Inc.),
 the Gaussian 86(TM) system (copyright 1986, Carnegie Mellon
 University), and the Gaussian 82(TM) system (copyright 1983,
 Carnegie Mellon University). Gaussian is a federally registered
 trademark of Gaussian, Inc.
  
 This software contains proprietary and confidential information,
 including trade secrets, belonging to Gaussian, Inc.
  
 This software is provided under written license and may be
 used, copied, transmitted, or stored only in accord with that
 written license.
  
 The following legend is applicable only to US Government
 contracts under FAR:
  
                    RESTRICTED RIGHTS LEGEND
  
 Use, reproduction and disclosure by the US Government is
 subject to restrictions as set forth in subparagraphs (a)
 and (c) of the Commercial Computer Software - Restricted
 Rights clause in FAR 52.227-19.
  
 Gaussian, Inc.
 340 Quinnipiac St., Bldg. 40, Wallingford CT 06492
  
  
 ---------------------------------------------------------------
 Warning -- This program may not be used in any manner that
 competes with the business of Gaussian, Inc. or will provide
 assistance to any competitor of Gaussian, Inc.  The licensee
 of this program is prohibited from giving any competitor of
 Gaussian, Inc. access to this program.  By using this program,
 the user acknowledges that Gaussian, Inc. is engaged in the
 business of creating and licensing software in the field of
 computational chemistry and represents and warrants to the
 licensee that it is not a competitor of Gaussian, Inc. and that
 it will not use this program in any manner prohibited above.
 ---------------------------------------------------------------
  

 Cite this work as:
 Gaussian 09, Revision C.01,
 M. J. Frisch, G. W. Trucks, H. B. Schlegel, G. E. Scuseria, 
 M. A. Robb, J. R. Cheeseman, G. Scalmani, V. Barone, B. Mennucci, 
 G. A. Petersson, H. Nakatsuji, M. Caricato, X. Li, H. P. Hratchian, 
 A. F. Izmaylov, J. Bloino, G. Zheng, J. L. Sonnenberg, M. Hada, 
 M. Ehara, K. Toyota, R. Fukuda, J. Hasegawa, M. Ishida, T. Nakajima, 
 Y. Honda, O. Kitao, H. Nakai, T. Vreven, J. A. Montgomery, Jr., 
 J. E. Peralta, F. Ogliaro, M. Bearpark, J. J. Heyd, E. Brothers, 
 K. N. Kudin, V. N. Staroverov, T. Keith, R. Kobayashi, J. Normand, 
 K. Raghavachari, A. Rendell, J. C. Burant, S. S. Iyengar, J. Tomasi, 
 M. Cossi, N. Rega, J. M. Millam, M. Klene, J. E. Knox, J. B. Cross, 
 V. Bakken, C. Adamo, J. Jaramillo, R. Gomperts, R. E. Stratmann, 
 O. Yazyev, A. J. Austin, R. Cammi, C. Pomelli, J. W. Ochterski, 
 R. L. Martin, K. Morokuma, V. G. Zakrzewski, G. A. Voth, 
 P. Salvador, J. J. Dannenberg, S. Dapprich, A. D. Daniels, 
 O. Farkas, J. B. Foresman, J. V. Ortiz, J. Cioslowski, 
 and D. J. Fox, Gaussian, Inc., Wallingford CT, 2010.
 
 ******************************************
 Gaussian 09:  EM64L-G09RevC.01 23-Sep-2011
                16-Oct-2015 
 ******************************************
 %chk=paramethoxy_opt
 %mem=2GB
 %nproc=4
 Will use up to    4 processors via shared memory.
 ---------------------------
 #wb97xd opt freq 6-311++g**
 ---------------------------
 1/14=-1,18=20,19=15,26=3,38=1/1,3;
 2/9=110,12=2,17=6,18=5,40=1/2;
 3/5=4,6=6,7=1111,11=2,16=1,25=1,30=1,71=1,74=-58/1,2,3;
 4//1;
 5/5=2,38=5/2;
 6/7=2,8=2,9=2,10=2,28=1/1;
 7//1,2,3,16;
 1/14=-1,18=20,19=15/3(2);
 2/9=110/2;
 99//99;
 2/9=110/2;
 3/5=4,6=6,7=1111,11=2,16=1,25=1,30=1,71=1,74=-58/1,2,3;
 4/5=5,16=3/1;
 5/5=2,38=5/2;
 7//1,2,3,16;
 1/14=-1,18=20,19=15/3(-5);
 2/9=110/2;
 6/7=2,8=2,9=2,10=2,19=2,28=1/1;
 99/9=1/99;
 ------------------------------------------------
 paramethoxy substituent S1 geometry optimization
 ------------------------------------------------
 Charge =  0 Multiplicity = 1
 Symbolic Z-Matrix:
 C                     13.12851   6.97704   17.19626 
 C                     12.5594   7.00705   15.96548 
 C                     11.23151   7.41074   15.77535 
 C                     10.49289   7.80689   16.90739 
 C                     11.08815   7.76947   18.16397 
 H                     10.60313   8.02939   18.91384 
 C                     12.38041   7.35386   18.30106 
 H                     12.76529   7.32326   19.14825 
 C                     10.582    7.4576    14.4546 
 C                     11.29324   7.07969   13.2475 
 H                     12.17926   6.80201   13.3022 
 C                     10.68413   7.12653   12.04728 
 H                     9.80683   7.43558   12.05911 
 C                     11.19194   6.76466   10.74144 
 C                     10.35513   6.90692   9.63427 
 H                     9.50429   7.26152   9.76 
 C                     10.73744   6.54502   8.37342 
 H                     10.15059   6.66241   7.66214 
 C                     12.00975   5.99585   8.14209 
 C                     11.54135   5.81233   5.74092 
 H                     11.40582   6.75444   5.62111 
 H                     10.69428   5.38188   5.88394 
 H                     9.01708   8.10411   15.992 
 O                     9.38663   7.82426   14.37528 
 O                     9.20534   8.24213   16.83114 
 O                     14.41902   6.59605   17.4953 
 H                     13.06514   6.75241   15.22721 
 C                     12.46218   6.24587   10.50561 
 N                     12.3991   5.5877    6.89569 
 C                     12.86329   5.86674   9.25519 
 H                     11.95789   5.44578   4.95814 
 C                     15.22108   6.12574   16.42388 
 H                     13.05373   6.15383   11.21855 
 C                     13.71571   5.0563    6.65962 
 H                     13.7164   5.51706   9.13727 
 H                     14.80569   5.35551   16.02752 
 H                     15.31012   6.81604   15.76232 
 H                     16.08899   5.88485   16.75443 
 H                     13.86197   4.29886   7.23121 
 H                     13.79067   4.7836    5.74187 
 H                     14.37254   5.73022   6.84763 
 

 GradGradGradGradGradGradGradGradGradGradGradGradGradGradGradGradGradGrad
 Berny optimization.
 Initialization pass.
                           ----------------------------
                           !    Initial Parameters    !
                           ! (Angstroms and Degrees)  !
 --------------------------                            --------------------------
 ! Name  Definition              Value          Derivative Info.                !
 --------------------------------------------------------------------------------
 ! R1    R(1,2)                  1.3563         estimate D2E/DX2                !
 ! R2    R(1,7)                  1.3864         estimate D2E/DX2                !
 ! R3    R(1,26)                 1.3784         estimate D2E/DX2                !
 ! R4    R(2,3)                  1.4009         estimate D2E/DX2                !
 ! R5    R(2,27)                 0.9304         estimate D2E/DX2                !
 ! R6    R(3,4)                  1.4085         estimate D2E/DX2                !
 ! R7    R(3,9)                  1.4726         estimate D2E/DX2                !
 ! R8    R(4,5)                  1.3909         estimate D2E/DX2                !
 ! R9    R(4,25)                 1.3613         estimate D2E/DX2                !
 ! R10   R(5,6)                  0.9301         estimate D2E/DX2                !
 ! R11   R(5,7)                  1.3644         estimate D2E/DX2                !
 ! R12   R(7,8)                  0.931          estimate D2E/DX2                !
 ! R13   R(9,10)                 1.4511         estimate D2E/DX2                !
 ! R14   R(9,24)                 1.2529         estimate D2E/DX2                !
 ! R15   R(10,11)                0.9301         estimate D2E/DX2                !
 ! R16   R(10,12)                1.3468         estimate D2E/DX2                !
 ! R17   R(12,13)                0.9302         estimate D2E/DX2                !
 ! R18   R(12,14)                1.4471         estimate D2E/DX2                !
 ! R19   R(14,15)                1.3951         estimate D2E/DX2                !
 ! R20   R(14,28)                1.3922         estimate D2E/DX2                !
 ! R21   R(15,16)                0.9303         estimate D2E/DX2                !
 ! R22   R(15,17)                1.3663         estimate D2E/DX2                !
 ! R23   R(17,18)                0.9296         estimate D2E/DX2                !
 ! R24   R(17,19)                1.4049         estimate D2E/DX2                !
 ! R25   R(19,29)                1.3681         estimate D2E/DX2                !
 ! R26   R(19,30)                1.4086         estimate D2E/DX2                !
 ! R27   R(20,21)                0.9593         estimate D2E/DX2                !
 ! R28   R(20,22)                0.9609         estimate D2E/DX2                !
 ! R29   R(20,29)                1.4559         estimate D2E/DX2                !
 ! R30   R(20,31)                0.9595         estimate D2E/DX2                !
 ! R31   R(23,25)                0.871          estimate D2E/DX2                !
 ! R32   R(26,32)                1.4186         estimate D2E/DX2                !
 ! R33   R(28,30)                1.3668         estimate D2E/DX2                !
 ! R34   R(28,33)                0.931          estimate D2E/DX2                !
 ! R35   R(29,34)                1.4393         estimate D2E/DX2                !
 ! R36   R(30,35)                0.9295         estimate D2E/DX2                !
 ! R37   R(32,36)                0.9607         estimate D2E/DX2                !
 ! R38   R(32,37)                0.9603         estimate D2E/DX2                !
 ! R39   R(32,38)                0.9595         estimate D2E/DX2                !
 ! R40   R(34,39)                0.9601         estimate D2E/DX2                !
 ! R41   R(34,40)                0.9603         estimate D2E/DX2                !
 ! R42   R(34,41)                0.9597         estimate D2E/DX2                !
 ! A1    A(2,1,7)              119.3853         estimate D2E/DX2                !
 ! A2    A(2,1,26)             126.5715         estimate D2E/DX2                !
 ! A3    A(7,1,26)             114.043          estimate D2E/DX2                !
 ! A4    A(1,2,3)              121.8218         estimate D2E/DX2                !
 ! A5    A(1,2,27)             119.0721         estimate D2E/DX2                !
 ! A6    A(3,2,27)             119.1061         estimate D2E/DX2                !
 ! A7    A(2,3,4)              117.9718         estimate D2E/DX2                !
 ! A8    A(2,3,9)              123.2985         estimate D2E/DX2                !
 ! A9    A(4,3,9)              118.7242         estimate D2E/DX2                !
 ! A10   A(3,4,5)              119.609          estimate D2E/DX2                !
 ! A11   A(3,4,25)             122.7445         estimate D2E/DX2                !
 ! A12   A(5,4,25)             117.6446         estimate D2E/DX2                !
 ! A13   A(4,5,6)              119.8449         estimate D2E/DX2                !
 ! A14   A(4,5,7)              120.2855         estimate D2E/DX2                !
 ! A15   A(6,5,7)              119.8696         estimate D2E/DX2                !
 ! A16   A(1,7,5)              120.9169         estimate D2E/DX2                !
 ! A17   A(1,7,8)              119.5455         estimate D2E/DX2                !
 ! A18   A(5,7,8)              119.5377         estimate D2E/DX2                !
 ! A19   A(3,9,10)             121.4402         estimate D2E/DX2                !
 ! A20   A(3,9,24)             119.1393         estimate D2E/DX2                !
 ! A21   A(10,9,24)            119.419          estimate D2E/DX2                !
 ! A22   A(9,10,11)            119.717          estimate D2E/DX2                !
 ! A23   A(9,10,12)            120.7035         estimate D2E/DX2                !
 ! A24   A(11,10,12)           119.5794         estimate D2E/DX2                !
 ! A25   A(10,12,13)           115.2629         estimate D2E/DX2                !
 ! A26   A(10,12,14)           129.5537         estimate D2E/DX2                !
 ! A27   A(13,12,14)           115.1833         estimate D2E/DX2                !
 ! A28   A(12,14,15)           118.6961         estimate D2E/DX2                !
 ! A29   A(12,14,28)           124.4869         estimate D2E/DX2                !
 ! A30   A(15,14,28)           116.7972         estimate D2E/DX2                !
 ! A31   A(14,15,16)           118.698          estimate D2E/DX2                !
 ! A32   A(14,15,17)           122.5136         estimate D2E/DX2                !
 ! A33   A(16,15,17)           118.7885         estimate D2E/DX2                !
 ! A34   A(15,17,18)           119.736          estimate D2E/DX2                !
 ! A35   A(15,17,19)           120.5883         estimate D2E/DX2                !
 ! A36   A(18,17,19)           119.6756         estimate D2E/DX2                !
 ! A37   A(17,19,29)           121.6242         estimate D2E/DX2                !
 ! A38   A(17,19,30)           117.0298         estimate D2E/DX2                !
 ! A39   A(29,19,30)           121.3407         estimate D2E/DX2                !
 ! A40   A(21,20,22)           109.511          estimate D2E/DX2                !
 ! A41   A(21,20,29)           109.5003         estimate D2E/DX2                !
 ! A42   A(21,20,31)           109.5493         estimate D2E/DX2                !
 ! A43   A(22,20,29)           109.4023         estimate D2E/DX2                !
 ! A44   A(22,20,31)           109.4513         estimate D2E/DX2                !
 ! A45   A(29,20,31)           109.4131         estimate D2E/DX2                !
 ! A46   A(4,25,23)            101.9898         estimate D2E/DX2                !
 ! A47   A(1,26,32)            117.2013         estimate D2E/DX2                !
 ! A48   A(14,28,30)           121.7411         estimate D2E/DX2                !
 ! A49   A(14,28,33)           119.1349         estimate D2E/DX2                !
 ! A50   A(30,28,33)           119.124          estimate D2E/DX2                !
 ! A51   A(19,29,20)           120.591          estimate D2E/DX2                !
 ! A52   A(19,29,34)           121.3261         estimate D2E/DX2                !
 ! A53   A(20,29,34)           117.7621         estimate D2E/DX2                !
 ! A54   A(19,30,28)           121.3102         estimate D2E/DX2                !
 ! A55   A(19,30,35)           119.3652         estimate D2E/DX2                !
 ! A56   A(28,30,35)           119.3245         estimate D2E/DX2                !
 ! A57   A(26,32,36)           109.4477         estimate D2E/DX2                !
 ! A58   A(26,32,37)           109.5378         estimate D2E/DX2                !
 ! A59   A(26,32,38)           109.5407         estimate D2E/DX2                !
 ! A60   A(36,32,37)           109.4026         estimate D2E/DX2                !
 ! A61   A(36,32,38)           109.3891         estimate D2E/DX2                !
 ! A62   A(37,32,38)           109.5092         estimate D2E/DX2                !
 ! A63   A(29,34,39)           109.4495         estimate D2E/DX2                !
 ! A64   A(29,34,40)           109.4502         estimate D2E/DX2                !
 ! A65   A(29,34,41)           109.5537         estimate D2E/DX2                !
 ! A66   A(39,34,40)           109.4524         estimate D2E/DX2                !
 ! A67   A(39,34,41)           109.4576         estimate D2E/DX2                !
 ! A68   A(40,34,41)           109.464          estimate D2E/DX2                !
 ! D1    D(7,1,2,3)              0.063          estimate D2E/DX2                !
 ! D2    D(7,1,2,27)          -179.9357         estimate D2E/DX2                !
 ! D3    D(26,1,2,3)           179.859          estimate D2E/DX2                !
 ! D4    D(26,1,2,27)           -0.1397         estimate D2E/DX2                !
 ! D5    D(2,1,7,5)             -0.8406         estimate D2E/DX2                !
 ! D6    D(2,1,7,8)            179.1877         estimate D2E/DX2                !
 ! D7    D(26,1,7,5)           179.3388         estimate D2E/DX2                !
 ! D8    D(26,1,7,8)            -0.633          estimate D2E/DX2                !
 ! D9    D(2,1,26,32)           -3.2455         estimate D2E/DX2                !
 ! D10   D(7,1,26,32)          176.5599         estimate D2E/DX2                !
 ! D11   D(1,2,3,4)              0.7657         estimate D2E/DX2                !
 ! D12   D(1,2,3,9)            179.9045         estimate D2E/DX2                !
 ! D13   D(27,2,3,4)          -179.2355         estimate D2E/DX2                !
 ! D14   D(27,2,3,9)            -0.0968         estimate D2E/DX2                !
 ! D15   D(2,3,4,5)             -0.8422         estimate D2E/DX2                !
 ! D16   D(2,3,4,25)           178.6393         estimate D2E/DX2                !
 ! D17   D(9,3,4,5)            179.9786         estimate D2E/DX2                !
 ! D18   D(9,3,4,25)            -0.5399         estimate D2E/DX2                !
 ! D19   D(2,3,9,10)             0.0495         estimate D2E/DX2                !
 ! D20   D(2,3,9,24)           179.6036         estimate D2E/DX2                !
 ! D21   D(4,3,9,10)           179.1822         estimate D2E/DX2                !
 ! D22   D(4,3,9,24)            -1.2638         estimate D2E/DX2                !
 ! D23   D(3,4,5,6)           -179.9292         estimate D2E/DX2                !
 ! D24   D(3,4,5,7)              0.105          estimate D2E/DX2                !
 ! D25   D(25,4,5,6)             0.5631         estimate D2E/DX2                !
 ! D26   D(25,4,5,7)          -179.4027         estimate D2E/DX2                !
 ! D27   D(3,4,25,23)            6.2312         estimate D2E/DX2                !
 ! D28   D(5,4,25,23)         -174.2776         estimate D2E/DX2                !
 ! D29   D(4,5,7,1)              0.7529         estimate D2E/DX2                !
 ! D30   D(4,5,7,8)           -179.2753         estimate D2E/DX2                !
 ! D31   D(6,5,7,1)           -179.2129         estimate D2E/DX2                !
 ! D32   D(6,5,7,8)              0.7589         estimate D2E/DX2                !
 ! D33   D(3,9,10,11)           -0.0855         estimate D2E/DX2                !
 ! D34   D(3,9,10,12)          179.9144         estimate D2E/DX2                !
 ! D35   D(24,9,10,11)        -179.6383         estimate D2E/DX2                !
 ! D36   D(24,9,10,12)           0.3616         estimate D2E/DX2                !
 ! D37   D(9,10,12,13)           1.67           estimate D2E/DX2                !
 ! D38   D(9,10,12,14)        -178.2013         estimate D2E/DX2                !
 ! D39   D(11,10,12,13)       -178.3301         estimate D2E/DX2                !
 ! D40   D(11,10,12,14)          1.7986         estimate D2E/DX2                !
 ! D41   D(10,12,14,15)       -179.9086         estimate D2E/DX2                !
 ! D42   D(10,12,14,28)          1.7639         estimate D2E/DX2                !
 ! D43   D(13,12,14,15)          0.22           estimate D2E/DX2                !
 ! D44   D(13,12,14,28)       -178.1074         estimate D2E/DX2                !
 ! D45   D(12,14,15,16)          2.3365         estimate D2E/DX2                !
 ! D46   D(12,14,15,17)       -177.64           estimate D2E/DX2                !
 ! D47   D(28,14,15,16)       -179.2079         estimate D2E/DX2                !
 ! D48   D(28,14,15,17)          0.8156         estimate D2E/DX2                !
 ! D49   D(12,14,28,30)        177.012          estimate D2E/DX2                !
 ! D50   D(12,14,28,33)         -2.9175         estimate D2E/DX2                !
 ! D51   D(15,14,28,30)         -1.3444         estimate D2E/DX2                !
 ! D52   D(15,14,28,33)        178.7261         estimate D2E/DX2                !
 ! D53   D(14,15,17,18)       -179.5645         estimate D2E/DX2                !
 ! D54   D(14,15,17,19)          0.4832         estimate D2E/DX2                !
 ! D55   D(16,15,17,18)          0.4591         estimate D2E/DX2                !
 ! D56   D(16,15,17,19)       -179.4932         estimate D2E/DX2                !
 ! D57   D(15,17,19,29)        177.9329         estimate D2E/DX2                !
 ! D58   D(15,17,19,30)         -1.2443         estimate D2E/DX2                !
 ! D59   D(18,17,19,29)         -2.0195         estimate D2E/DX2                !
 ! D60   D(18,17,19,30)        178.8034         estimate D2E/DX2                !
 ! D61   D(17,19,29,20)          5.1075         estimate D2E/DX2                !
 ! D62   D(17,19,29,34)        178.4575         estimate D2E/DX2                !
 ! D63   D(30,19,29,20)       -175.7507         estimate D2E/DX2                !
 ! D64   D(30,19,29,34)         -2.4007         estimate D2E/DX2                !
 ! D65   D(17,19,30,28)          0.7265         estimate D2E/DX2                !
 ! D66   D(17,19,30,35)       -179.2533         estimate D2E/DX2                !
 ! D67   D(29,19,30,28)       -178.4532         estimate D2E/DX2                !
 ! D68   D(29,19,30,35)          1.567          estimate D2E/DX2                !
 ! D69   D(21,20,29,19)         61.3313         estimate D2E/DX2                !
 ! D70   D(21,20,29,34)       -112.2502         estimate D2E/DX2                !
 ! D71   D(22,20,29,19)        -58.6929         estimate D2E/DX2                !
 ! D72   D(22,20,29,34)        127.7256         estimate D2E/DX2                !
 ! D73   D(31,20,29,19)       -178.5909         estimate D2E/DX2                !
 ! D74   D(31,20,29,34)          7.8276         estimate D2E/DX2                !
 ! D75   D(1,26,32,36)         -59.558          estimate D2E/DX2                !
 ! D76   D(1,26,32,37)          60.3844         estimate D2E/DX2                !
 ! D77   D(1,26,32,38)        -179.4855         estimate D2E/DX2                !
 ! D78   D(14,28,30,19)          0.5855         estimate D2E/DX2                !
 ! D79   D(14,28,30,35)       -179.4347         estimate D2E/DX2                !
 ! D80   D(33,28,30,19)       -179.4849         estimate D2E/DX2                !
 ! D81   D(33,28,30,35)          0.4949         estimate D2E/DX2                !
 ! D82   D(19,29,34,39)         57.162          estimate D2E/DX2                !
 ! D83   D(19,29,34,40)        177.1127         estimate D2E/DX2                !
 ! D84   D(19,29,34,41)        -62.8586         estimate D2E/DX2                !
 ! D85   D(20,29,34,39)       -129.3064         estimate D2E/DX2                !
 ! D86   D(20,29,34,40)         -9.3556         estimate D2E/DX2                !
 ! D87   D(20,29,34,41)        110.6731         estimate D2E/DX2                !
 --------------------------------------------------------------------------------
 Trust Radius=3.00D-01 FncErr=1.00D-07 GrdErr=1.00D-06
 Number of steps in this run=    207 maximum allowed number of steps=    246.
 GradGradGradGradGradGradGradGradGradGradGradGradGradGradGradGradGradGrad

                          Input orientation:                          
 ---------------------------------------------------------------------
 Center     Atomic      Atomic             Coordinates (Angstroms)
 Number     Number       Type             X           Y           Z
 ---------------------------------------------------------------------
      1          6           0       13.128510    6.977040   17.196260
      2          6           0       12.559400    7.007050   15.965480
      3          6           0       11.231510    7.410740   15.775350
      4          6           0       10.492890    7.806890   16.907390
      5          6           0       11.088150    7.769470   18.163970
      6          1           0       10.603130    8.029390   18.913840
      7          6           0       12.380410    7.353860   18.301060
      8          1           0       12.765290    7.323260   19.148250
      9          6           0       10.582000    7.457600   14.454600
     10          6           0       11.293240    7.079690   13.247500
     11          1           0       12.179260    6.802010   13.302200
     12          6           0       10.684130    7.126530   12.047280
     13          1           0        9.806830    7.435580   12.059110
     14          6           0       11.191940    6.764660   10.741440
     15          6           0       10.355130    6.906920    9.634270
     16          1           0        9.504290    7.261520    9.760000
     17          6           0       10.737440    6.545020    8.373420
     18          1           0       10.150590    6.662410    7.662140
     19          6           0       12.009750    5.995850    8.142090
     20          6           0       11.541350    5.812330    5.740920
     21          1           0       11.405820    6.754440    5.621110
     22          1           0       10.694280    5.381880    5.883940
     23          1           0        9.017080    8.104110   15.992000
     24          8           0        9.386630    7.824260   14.375280
     25          8           0        9.205340    8.242130   16.831140
     26          8           0       14.419020    6.596050   17.495300
     27          1           0       13.065140    6.752410   15.227210
     28          6           0       12.462180    6.245870   10.505610
     29          7           0       12.399100    5.587700    6.895690
     30          6           0       12.863290    5.866740    9.255190
     31          1           0       11.957890    5.445780    4.958140
     32          6           0       15.221080    6.125740   16.423880
     33          1           0       13.053730    6.153830   11.218550
     34          6           0       13.715710    5.056300    6.659620
     35          1           0       13.716400    5.517060    9.137270
     36          1           0       14.805690    5.355510   16.027520
     37          1           0       15.310120    6.816040   15.762320
     38          1           0       16.088990    5.884850   16.754430
     39          1           0       13.861970    4.298860    7.231210
     40          1           0       13.790670    4.783600    5.741870
     41          1           0       14.372540    5.730220    6.847630
 ---------------------------------------------------------------------
                    Distance matrix (angstroms):
                    1          2          3          4          5
     1  C    0.000000
     2  C    1.356321   0.000000
     3  C    2.409500   1.400859   0.000000
     4  C    2.778235   2.407779   1.408549   0.000000
     5  C    2.393215   2.753038   2.419658   1.390945   0.000000
     6  H    3.230335   3.683069   3.260017   2.021757   0.930112
     7  C    1.386445   2.367963   2.775323   2.389620   1.364354
     8  H    2.015456   3.205059   3.706290   3.227871   1.995171
     9  C    3.772579   2.529005   1.472562   2.479138   3.756711
    10  C    4.355624   2.999309   2.550182   3.816304   4.968857
    11  H    4.011909   2.698075   2.717582   4.105000   5.075757
    12  C    5.701696   4.345481   3.778744   4.911225   6.163643
    13  H    6.134666   4.797917   3.980046   4.910638   6.246806
    14  C    6.742411   5.405487   5.075356   6.292365   7.490952
    15  C    8.054828   6.704704   6.223724   7.329884   8.604481
    16  H    8.277310   6.921447   6.260191   7.236017   8.566991
    17  C    9.151304   7.821278   7.468744   8.630224   9.873051
    18  H    9.993320   8.652549   8.219037   9.322106  10.601558
    19  C    9.175639   7.907596   7.802194   9.078062  10.219254
    20  C   11.623272  10.344342  10.165663  11.391558  12.584433
    21  H   11.704756  10.411558  10.176920  11.371948  12.587873
    22  H   11.680693  10.380621  10.111621  11.288830  12.516184
    23  H    4.429942   3.708406   2.330536   1.761901   3.019730
    24  O    4.762077   3.641845   2.352611   2.763276   4.153594
    25  O    4.138240   3.677568   2.431310   1.361262   2.354743
    26  O    1.378403   2.442838   3.712434   4.150454   3.594263
    27  H    1.982834   0.930407   2.023871   3.248292   3.683403
    28  C    6.763387   5.513531   5.535488   6.877330   7.928417
    29  N   10.419407   9.181576   9.139754  10.430368  11.552179
    30  C    8.022699   6.813270   6.896313   8.242520   9.281049
    31  H   12.388975  11.133773  11.018200  12.268074  13.436887
    32  C    2.387495   2.841017   4.241283   5.041411   4.776073
    33  H    6.034591   4.848267   5.066037   6.453945   7.396800
    34  C   10.726361   9.578179   9.737103  11.089144  12.108486
    35  H    8.211241   7.084008   7.336539   8.718320   9.667593
    36  H    2.609261   2.788773   4.130656   5.038222   4.920541
    37  H    2.615631   2.764818   4.121759   5.049621   4.949948
    38  H    3.186304   3.786790   5.184790   5.918950   5.526934
    39  H   10.344701   9.236799   9.466015  10.829840  11.801036
    40  H   11.681296  10.534797  10.682785  12.028486  13.058622
    41  H   10.497443   9.383654   9.612201  10.980119  11.958483
                    6          7          8          9         10
     6  H    0.000000
     7  C    1.997640   0.000000
     8  H    2.286592   0.931021   0.000000
     9  C    4.495799   4.247387   5.178335   0.000000
    10  C    5.786674   5.176444   6.086469   1.451127   0.000000
    11  H    5.956606   5.033250   5.898426   2.075828   0.930123
    12  C    6.926136   6.483734   7.402277   2.432124   1.346751
    13  H    6.926329   6.752180   7.682513   2.517885   1.936064
    14  C    8.290619   7.675120   8.570993   3.826193   2.527814
    15  C    9.350501   8.911496   9.823341   4.856985   3.737022
    16  H    9.251479   9.012785   9.938670   4.820703   3.923781
    17  C   10.645273  10.095128  10.991578   6.151237   4.934718
    18  H   11.343464  10.892053  11.798479   6.852442   5.716294
    19  C   11.051899  10.256035  11.111634   6.634980   5.268141
    20  C   13.391095  12.682171  13.547599   8.919388   7.616857
    21  H   13.377835  12.731467  13.607176   8.899644   7.634153
    22  H   13.296462  12.685291  13.564658   8.819151   7.580457
    23  H    3.325400   4.148087   4.961927   2.287039   3.709801
    24  O    4.703241   4.959410   5.869207   1.252853   2.336971
    25  O    2.517283   3.609814   4.345868   2.856330   4.307327
    26  O    4.315986   2.319365   2.448653   4.971001   5.296056
    27  H    4.613395   3.206112   3.973705   2.694476   2.676937
    28  C    8.794052   7.874222   8.714808   4.538490   3.095099
    29  N   12.394486  11.541323  12.380286   7.995968   6.617738
    30  C   10.152581   9.180003  10.000185   5.896523   4.458121
    31  H   14.257348  13.485281  14.336528   9.804246   8.474958
    32  C    5.581151   3.619598   3.858387   5.212771   5.140753
    33  H    8.290998   7.214941   8.020655   4.275662   2.841334
    34  C   12.988199  11.940893  12.728248   8.737740   7.304973
    35  H   10.563407   9.441067  10.216980   6.470252   5.020708
    36  H    5.756908   3.878707   4.215949   4.973170   4.799856
    37  H    5.793104   3.913777   4.265906   4.947408   4.746489
    38  H    6.273497   4.278273   4.341242   6.171685   6.060150
    39  H   12.689395  11.578844  12.343644   8.538923   7.108244
    40  H   13.935435  12.896834  13.683285   9.662169   8.236727
    41  H   12.848660  11.738222  12.507049   8.672833   7.229211
                   11         12         13         14         15
    11  H    0.000000
    12  C    1.978775   0.000000
    13  H    2.752291   0.930219   0.000000
    14  C    2.744756   1.447079   2.026060   0.000000
    15  C    4.097825   2.445217   2.541646   1.395104   0.000000
    16  H    4.462488   2.577187   2.325454   2.014512   0.930311
    17  C    5.141766   3.719979   3.904285   2.421225   1.366336
    18  H    5.995437   4.441793   4.477645   3.252223   1.997728
    19  C    5.225453   4.276238   4.718975   2.831343   2.407160
    20  C    7.652408   6.498625   6.750039   5.102374   4.214667
    21  H    7.720079   6.477264   6.668475   5.124805   4.151223
    22  H    7.697566   6.405518   6.567951   5.074944   4.062726
    23  H    4.350847   4.392668   4.066726   5.838880   6.606389
    24  O    3.161531   2.754980   2.385851   4.193649   4.925107
    25  O    4.834414   5.129980   4.876944   6.573731   7.409436
    26  O    4.758259   6.626593   7.178389   7.487129   8.854809
    27  H    2.119648   3.990129   4.595668   4.861189   6.216832
    28  C    2.865354   2.512722   3.298432   1.392217   2.374001
    29  N    6.524281   5.643403   6.065924   4.199079   3.663055
    30  C    4.209622   3.759199   4.434543   2.410106   2.741631
    31  H    8.456459   7.396167   7.681806   5.981027   5.154606
    32  C    4.410770   6.382799   7.076793   6.995163   8.389667
    33  H    2.350837   2.692200   3.590513   2.016683   3.218622
    34  C    7.037901   6.519449   7.077769   5.094032   4.854568
    35  H    4.621746   4.500357   5.244293   3.240797   3.671084
    36  H    4.051897   5.997173   6.712941   6.556488   7.942796
    37  H    3.981793   5.941188   6.662116   6.493942   7.881192
    38  H    5.295759   7.274032   7.994769   7.804564   9.198829
    39  H    6.778952   6.425645   7.042144   5.052816   4.987444
    40  H    7.989319   7.409326   7.925371   5.972746   5.609118
    41  H    6.900774   6.526133   7.135369   5.133034   5.028873
                   16         17         18         19         20
    16  H    0.000000
    17  C    1.989129   0.000000
    18  H    2.275446   0.929566   0.000000
    19  C    3.239889   1.404946   2.032518   0.000000
    20  C    4.733156   2.848361   2.519511   2.453303   0.000000
    21  H    4.582942   2.840035   2.397890   2.701024   0.959320
    22  H    4.469112   2.748139   2.257731   2.684523   0.960869
    23  H    6.307548   7.964494   8.529356   8.661520  10.803186
    24  O    4.650949   6.283587   6.855638   7.005462   9.123752
    25  O    7.145067   8.761309   9.351982   9.402663  11.591111
    26  O    9.188704   9.836937  10.719838   9.677157  12.126857
    27  H    6.544405   7.241245   8.107588   7.203135   9.653776
    28  C    3.215057   2.758705   3.688126   2.419386   4.872182
    29  N    4.402939   2.421004   2.607344   1.368098   1.455915
    30  C    3.671938   2.399337   3.244941   1.408613   3.755074
    31  H    5.689897   3.789718   3.472483   3.231533   0.959484
    32  C    8.853190   9.224355  10.137355   8.883555  11.303286
    33  H    3.994104   3.689579   4.618975   3.252608   5.692833
    34  C    5.675510   3.744795   4.036671   2.447605   2.478595
    35  H    4.601392   3.242587   4.025275   2.032800   4.043911
    36  H    8.427308   8.749334   9.662170   8.390907  10.801793
    37  H    8.362653   8.693601   9.605065   8.344643  10.753582
    38  H    9.704409   9.965753  10.887559   9.530211  11.915691
    39  H    5.844785   4.014046   4.421132   2.672115   3.145923
    40  H    6.376403   4.398849   4.524107   3.225257   2.473404
    41  H    5.875937   4.025654   4.399689   2.707206   3.040919
                   21         22         23         24         25
    21  H    0.000000
    22  H    1.568212   0.000000
    23  H   10.727677  10.601717   0.000000
    24  O    9.047493   8.931854   1.681864   0.000000
    25  O   11.520421  11.412237   0.871004   2.497745   0.000000
    26  O   12.251565  12.254451   5.806472   6.047146   5.507554
    27  H    9.748359   9.736325   4.335757   3.925058   4.437332
    28  C    5.023234   5.023125   6.739603   5.188899   7.389478
    29  N    1.993098   1.993091  10.025629   8.367882  10.768439
    30  C    4.014818   4.037948   8.073646   6.491099   8.741744
    31  H    1.567451   1.567769  11.724383  10.047441  12.504569
    32  C   11.473941  11.495024   6.526108   6.412686   6.390156
    33  H    5.865806   5.883959   6.548585   5.118877   7.118446
    34  C    3.049225   3.136355  10.883914   9.270056  11.573797
    35  H    4.385575   4.442481   8.704238   7.176826   9.325841
    36  H   11.036734  10.945163   6.408125   6.179873   6.351559
    37  H   10.866991  10.997508   6.427615   6.166695   6.359595
    38  H   12.109463  12.145922   7.451062   7.371791   7.276489
    39  H    3.828181   3.608646  10.710011   9.137552  11.375071
    40  H    3.096176   3.156858  11.784656  10.157606  12.488338
    41  H    3.369689   3.818329  10.859825   9.268755  11.518686
                   26         27         28         29         30
    26  O    0.000000
    27  H    2.646067   0.000000
    28  C    7.266885   4.786820   0.000000
    29  N   10.837370   8.438862   3.669971   0.000000
    30  C    8.417339   6.040710   1.366813   2.420863   0.000000
    31  H   12.828120  10.410912   5.627511   1.992212   4.411530
    32  C    1.418602   2.544172   6.530841   9.951857   7.550919
    33  H    6.438724   4.053120   0.930960   4.408646   1.993357
    34  C   10.967107   8.758061   4.216403   1.439297   2.849634
    35  H    8.456628   6.248008   1.994138   2.600952   0.929504
    36  H    1.960314   2.370937   6.064344   9.446476   7.063903
    37  H    1.961039   2.308750   6.005735   9.412756   7.016473
    38  H    1.960483   3.496960   7.234075  10.530828   8.163582
    39  H   10.532755   8.401837   4.058566   1.978300   2.748109
    40  H   11.908943   9.714643   5.157164   1.978470   3.791654
    41  H   10.682916   8.542337   4.158869   1.979163   2.844788
                   31         32         33         34         35
    31  H    0.000000
    32  C   11.940433   0.000000
    33  H    6.394915   5.638586   0.000000
    34  C    2.477228   9.937334   4.735677   0.000000
    35  H    4.534597   7.465202   2.275156   2.520129   0.000000
    36  H   11.430192   0.960679   5.180045   9.435843   6.977693
    37  H   11.394971   0.960262   5.116216   9.407336   6.936756
    38  H   12.506447   0.959458   6.319108  10.403083   7.986587
    39  H    3.179276   9.470473   4.471358   0.960116   2.266774
    40  H    2.100428  10.860605   5.693385   0.960338   3.474510
    41  H    3.079223   9.621903   4.585155   0.959657   2.391319
                   36         37         38         39         40
    36  H    0.000000
    37  H    1.567778   0.000000
    38  H    1.566990   1.567812   0.000000
    39  H    8.909668   9.011835   9.907911   0.000000
    40  H   10.351422  10.336777  11.303606   1.567862   0.000000
    41  H    9.197739   9.029383  10.055585   1.567357   1.567599
                   41
    41  H    0.000000
 Stoichiometry    C18H19NO3
 Framework group  C1[X(C18H19NO3)]
 Deg. of freedom   117
 Full point group                 C1      NOp   1
 Largest Abelian subgroup         C1      NOp   1
 Largest concise Abelian subgroup C1      NOp   1
                         Standard orientation:                         
 ---------------------------------------------------------------------
 Center     Atomic      Atomic             Coordinates (Angstroms)
 Number     Number       Type             X           Y           Z
 ---------------------------------------------------------------------
      1          6           0        4.379644    1.416347    0.015547
      2          6           0        3.172366    0.798314    0.026618
      3          6           0        3.056621   -0.597263   -0.010473
      4          6           0        4.241713   -1.357829   -0.043739
      5          6           0        5.473154   -0.711210   -0.056653
      6          1           0        6.257753   -1.210194   -0.079606
      7          6           0        5.534972    0.651572   -0.035096
      8          1           0        6.364543    1.073763   -0.054267
      9          6           0        1.763633   -1.301862    0.002217
     10          6           0        0.507329   -0.577434    0.053898
     11          1           0        0.511969    0.352284    0.080953
     12          6           0       -0.666860   -1.236928    0.063144
     13          1           0       -0.601076   -2.164809    0.058966
     14          6           0       -2.016621   -0.715376    0.076121
     15          6           0       -3.082495   -1.615448    0.085913
     16          1           0       -2.897471   -2.526640    0.117113
     17          6           0       -4.386719   -1.209674    0.050971
     18          1           0       -5.067128   -1.842868    0.065187
     19          6           0       -4.709071    0.156550   -0.007287
     20          6           0       -7.106371   -0.364579    0.001283
     21          1           0       -7.081507   -0.807051    0.852102
     22          1           0       -7.022736   -1.014834   -0.701173
     23          1           0        3.394231   -2.900219   -0.128000
     24          8           0        1.750712   -2.553905   -0.040950
     25          8           0        4.242957   -2.719051   -0.053910
     26          8           0        4.606791    2.775559    0.046225
     27          1           0        2.399854    1.315792    0.059748
     28          6           0       -2.338820    0.638714    0.046150
     29          7           0       -6.006050    0.584908   -0.085065
     30          6           0       -3.635494    1.068455   -0.000090
     31          1           0       -7.939009    0.102717   -0.093369
     32          6           0        3.469894    3.623706    0.022870
     33          1           0       -1.652985    1.268159    0.056914
     34          6           0       -6.330783    1.986846   -0.111393
     35          1           0       -3.812074    1.980635   -0.027036
     36          1           0        2.965407    3.460395   -0.778208
     37          1           0        2.919327    3.443925    0.788807
     38          1           0        3.752922    4.540314    0.039749
     39          1           0       -5.881284    2.405319   -0.849400
     40          1           0       -7.279776    2.093425   -0.212899
     41          1           0       -6.048837    2.397306    0.708955
 ---------------------------------------------------------------------
 Rotational constants (GHZ):      0.5996469      0.0967837      0.0834593
 Standard basis: 6-311++G(d,p) (5D, 7F)
 There are   617 symmetry adapted basis functions of A   symmetry.
 Integral buffers will be    131072 words long.
 Raffenetti 2 integral format.
 Two-electron integral symmetry is turned on.
   617 basis functions,   963 primitive gaussians,   639 cartesian basis functions
    79 alpha electrons       79 beta electrons
       nuclear repulsion energy      1633.4127694306 Hartrees.
 NAtoms=   41 NActive=   41 NUniq=   41 SFac= 1.00D+00 NAtFMM=   60 NAOKFM=F Big=F
 Nuclear repulsion after empirical dispersion term =     1633.3867033868 Hartrees.
 One-electron integrals computed using PRISM.
 NBasis=   617 RedAO= T  NBF=   617
 NBsUse=   609 1.00D-06 NBFU=   609
 Harris functional with IExCor= 4639 diagonalized for initial guess.
 ExpMin= 3.60D-02 ExpMax= 8.59D+03 ExpMxC= 1.30D+03 IAcc=3 IRadAn=         5 AccDes= 0.00D+00
 HarFok:  IExCor= 4639 AccDes= 0.00D+00 IRadAn=         5 IDoV= 1
 ScaDFX=  1.000000  1.000000  1.000000  1.000000
 FoFCou: FMM=F IPFlag=           0 FMFlag=      100000 FMFlg1=           0
         NFxFlg=           0 DoJE=T BraDBF=F KetDBF=T FulRan=T
         Omega=  0.000000  0.000000  1.000000  0.000000  0.000000 ICntrl=     500 IOpCl=  0
         NMat0=    1 NMatS0=    1 NMatT0=    0 NMatD0=    1 NMtDS0=    0 NMtDT0=    0
         I1Cent=           4 NGrid=           0.
 Petite list used in FoFCou.
 Initial guess orbital symmetries:
       Occupied  (A) (A) (A) (A) (A) (A) (A) (A) (A) (A) (A) (A)
                 (A) (A) (A) (A) (A) (A) (A) (A) (A) (A) (A) (A)
                 (A) (A) (A) (A) (A) (A) (A) (A) (A) (A) (A) (A)
                 (A) (A) (A) (A) (A) (A) (A) (A) (A) (A) (A) (A)
                 (A) (A) (A) (A) (A) (A) (A) (A) (A) (A) (A) (A)
                 (A) (A) (A) (A) (A) (A) (A) (A) (A) (A) (A) (A)
                 (A) (A) (A) (A) (A) (A) (A)
       Virtual   (A) (A) (A) (A) (A) (A) (A) (A) (A) (A) (A) (A)
                 (A) (A) (A) (A) (A) (A) (A) (A) (A) (A) (A) (A)
                 (A) (A) (A) (A) (A) (A) (A) (A) (A) (A) (A) (A)
                 (A) (A) (A) (A) (A) (A) (A) (A) (A) (A) (A) (A)
                 (A) (A) (A) (A) (A) (A) (A) (A) (A) (A) (A) (A)
                 (A) (A) (A) (A) (A) (A) (A) (A) (A) (A) (A) (A)
                 (A) (A) (A) (A) (A) (A) (A) (A) (A) (A) (A) (A)
                 (A) (A) (A) (A) (A) (A) (A) (A) (A) (A) (A) (A)
                 (A) (A) (A) (A) (A) (A) (A) (A) (A) (A) (A) (A)
                 (A) (A) (A) (A) (A) (A) (A) (A) (A) (A) (A) (A)
                 (A) (A) (A) (A) (A) (A) (A) (A) (A) (A) (A) (A)
                 (A) (A) (A) (A) (A) (A) (A) (A) (A) (A) (A) (A)
                 (A) (A) (A) (A) (A) (A) (A) (A) (A) (A) (A) (A)
                 (A) (A) (A) (A) (A) (A) (A) (A) (A) (A) (A) (A)
                 (A) (A) (A) (A) (A) (A) (A) (A) (A) (A) (A) (A)
                 (A) (A) (A) (A) (A) (A) (A) (A) (A) (A) (A) (A)
                 (A) (A) (A) (A) (A) (A) (A) (A) (A) (A) (A) (A)
                 (A) (A) (A) (A) (A) (A) (A) (A) (A) (A) (A) (A)
                 (A) (A) (A) (A) (A) (A) (A) (A) (A) (A) (A) (A)
                 (A) (A) (A) (A) (A) (A) (A) (A) (A) (A) (A) (A)
                 (A) (A) (A) (A) (A) (A) (A) (A) (A) (A) (A) (A)
                 (A) (A) (A) (A) (A) (A) (A) (A) (A) (A) (A) (A)
                 (A) (A) (A) (A) (A) (A) (A) (A) (A) (A) (A) (A)
                 (A) (A) (A) (A) (A) (A) (A) (A) (A) (A) (A) (A)
                 (A) (A) (A) (A) (A) (A) (A) (A) (A) (A) (A) (A)
                 (A) (A) (A) (A) (A) (A) (A) (A) (A) (A) (A) (A)
                 (A) (A) (A) (A) (A) (A) (A) (A) (A) (A) (A) (A)
                 (A) (A) (A) (A) (A) (A) (A) (A) (A) (A) (A) (A)
                 (A) (A) (A) (A) (A) (A) (A) (A) (A) (A) (A) (A)
                 (A) (A) (A) (A) (A) (A) (A) (A) (A) (A) (A) (A)
                 (A) (A) (A) (A) (A) (A) (A) (A) (A) (A) (A) (A)
                 (A) (A) (A) (A) (A) (A) (A) (A) (A) (A) (A) (A)
                 (A) (A) (A) (A) (A) (A) (A) (A) (A) (A) (A) (A)
                 (A) (A) (A) (A) (A) (A) (A) (A) (A) (A) (A) (A)
                 (A) (A) (A) (A) (A) (A) (A) (A) (A) (A) (A) (A)
                 (A) (A) (A) (A) (A) (A) (A) (A) (A) (A) (A) (A)
                 (A) (A) (A) (A) (A) (A) (A) (A) (A) (A) (A) (A)
                 (A) (A) (A) (A) (A) (A) (A) (A) (A) (A) (A) (A)
                 (A) (A) (A) (A) (A) (A) (A) (A) (A) (A) (A) (A)
                 (A) (A) (A) (A) (A) (A) (A) (A) (A) (A) (A) (A)
                 (A) (A) (A) (A) (A) (A) (A) (A) (A) (A) (A) (A)
                 (A) (A) (A) (A) (A) (A) (A) (A) (A) (A) (A) (A)
                 (A) (A) (A) (A) (A) (A) (A) (A) (A) (A) (A) (A)
                 (A) (A) (A) (A) (A) (A) (A) (A) (A) (A) (A) (A)
                 (A) (A)
 The electronic state of the initial guess is 1-A.
 Requested convergence on RMS density matrix=1.00D-08 within 128 cycles.
 Requested convergence on MAX density matrix=1.00D-06.
 Requested convergence on             energy=1.00D-06.
 No special actions if energy rises.
 FoFJK:  IHMeth= 1 ICntrl=     0 DoSepK=T KAlg= 1 I1Cent= 0 FoldK=F
 FoFJK:  IHMeth= 1 ICntrl=     0 DoSepK=T KAlg= 1 I1Cent= 0 FoldK=F
 FoFJK:  IHMeth= 1 ICntrl=     0 DoSepK=T KAlg= 1 I1Cent= 0 FoldK=F
 FoFJK:  IHMeth= 1 ICntrl=     0 DoSepK=T KAlg= 1 I1Cent= 0 FoldK=F
 FoFJK:  IHMeth= 1 ICntrl=     0 DoSepK=T KAlg= 1 I1Cent= 0 FoldK=F
 FoFJK:  IHMeth= 1 ICntrl=     0 DoSepK=T KAlg= 1 I1Cent= 0 FoldK=F
 FoFJK:  IHMeth= 1 ICntrl=     0 DoSepK=T KAlg= 1 I1Cent= 0 FoldK=F
 FoFJK:  IHMeth= 1 ICntrl=     0 DoSepK=T KAlg= 1 I1Cent= 0 FoldK=F
 FoFJK:  IHMeth= 1 ICntrl=     0 DoSepK=T KAlg= 1 I1Cent= 0 FoldK=F
 FoFJK:  IHMeth= 1 ICntrl=     0 DoSepK=T KAlg= 1 I1Cent= 0 FoldK=F
 FoFJK:  IHMeth= 1 ICntrl=     0 DoSepK=T KAlg= 1 I1Cent= 0 FoldK=F
 FoFJK:  IHMeth= 1 ICntrl=     0 DoSepK=T KAlg= 1 I1Cent= 0 FoldK=F
 FoFJK:  IHMeth= 1 ICntrl=     0 DoSepK=T KAlg= 1 I1Cent= 0 FoldK=F
 FoFJK:  IHMeth= 1 ICntrl=     0 DoSepK=T KAlg= 1 I1Cent= 0 FoldK=F
 FoFJK:  IHMeth= 1 ICntrl=     0 DoSepK=T KAlg= 1 I1Cent= 0 FoldK=F
 FoFJK:  IHMeth= 1 ICntrl=     0 DoSepK=T KAlg= 1 I1Cent= 0 FoldK=F
 FoFJK:  IHMeth= 1 ICntrl=     0 DoSepK=T KAlg= 1 I1Cent= 0 FoldK=F
 SCF Done:  E(RwB97XD) =  -977.353469515     A.U. after   17 cycles
             Convg  =    0.3950D-08             -V/T =  1.9987

 **********************************************************************

            Population analysis using the SCF density.

 **********************************************************************

 Orbital symmetries:
       Occupied  (A) (A) (A) (A) (A) (A) (A) (A) (A) (A) (A) (A)
                 (A) (A) (A) (A) (A) (A) (A) (A) (A) (A) (A) (A)
                 (A) (A) (A) (A) (A) (A) (A) (A) (A) (A) (A) (A)
                 (A) (A) (A) (A) (A) (A) (A) (A) (A) (A) (A) (A)
                 (A) (A) (A) (A) (A) (A) (A) (A) (A) (A) (A) (A)
                 (A) (A) (A) (A) (A) (A) (A) (A) (A) (A) (A) (A)
                 (A) (A) (A) (A) (A) (A) (A)
       Virtual   (A) (A) (A) (A) (A) (A) (A) (A) (A) (A) (A) (A)
                 (A) (A) (A) (A) (A) (A) (A) (A) (A) (A) (A) (A)
                 (A) (A) (A) (A) (A) (A) (A) (A) (A) (A) (A) (A)
                 (A) (A) (A) (A) (A) (A) (A) (A) (A) (A) (A) (A)
                 (A) (A) (A) (A) (A) (A) (A) (A) (A) (A) (A) (A)
                 (A) (A) (A) (A) (A) (A) (A) (A) (A) (A) (A) (A)
                 (A) (A) (A) (A) (A) (A) (A) (A) (A) (A) (A) (A)
                 (A) (A) (A) (A) (A) (A) (A) (A) (A) (A) (A) (A)
                 (A) (A) (A) (A) (A) (A) (A) (A) (A) (A) (A) (A)
                 (A) (A) (A) (A) (A) (A) (A) (A) (A) (A) (A) (A)
                 (A) (A) (A) (A) (A) (A) (A) (A) (A) (A) (A) (A)
                 (A) (A) (A) (A) (A) (A) (A) (A) (A) (A) (A) (A)
                 (A) (A) (A) (A) (A) (A) (A) (A) (A) (A) (A) (A)
                 (A) (A) (A) (A) (A) (A) (A) (A) (A) (A) (A) (A)
                 (A) (A) (A) (A) (A) (A) (A) (A) (A) (A) (A) (A)
                 (A) (A) (A) (A) (A) (A) (A) (A) (A) (A) (A) (A)
                 (A) (A) (A) (A) (A) (A) (A) (A) (A) (A) (A) (A)
                 (A) (A) (A) (A) (A) (A) (A) (A) (A) (A) (A) (A)
                 (A) (A) (A) (A) (A) (A) (A) (A) (A) (A) (A) (A)
                 (A) (A) (A) (A) (A) (A) (A) (A) (A) (A) (A) (A)
                 (A) (A) (A) (A) (A) (A) (A) (A) (A) (A) (A) (A)
                 (A) (A) (A) (A) (A) (A) (A) (A) (A) (A) (A) (A)
                 (A) (A) (A) (A) (A) (A) (A) (A) (A) (A) (A) (A)
                 (A) (A) (A) (A) (A) (A) (A) (A) (A) (A) (A) (A)
                 (A) (A) (A) (A) (A) (A) (A) (A) (A) (A) (A) (A)
                 (A) (A) (A) (A) (A) (A) (A) (A) (A) (A) (A) (A)
                 (A) (A) (A) (A) (A) (A) (A) (A) (A) (A) (A) (A)
                 (A) (A) (A) (A) (A) (A) (A) (A) (A) (A) (A) (A)
                 (A) (A) (A) (A) (A) (A) (A) (A) (A) (A) (A) (A)
                 (A) (A) (A) (A) (A) (A) (A) (A) (A) (A) (A) (A)
                 (A) (A) (A) (A) (A) (A) (A) (A) (A) (A) (A) (A)
                 (A) (A) (A) (A) (A) (A) (A) (A) (A) (A) (A) (A)
                 (A) (A) (A) (A) (A) (A) (A) (A) (A) (A) (A) (A)
                 (A) (A) (A) (A) (A) (A) (A) (A) (A) (A) (A) (A)
                 (A) (A) (A) (A) (A) (A) (A) (A) (A) (A) (A) (A)
                 (A) (A) (A) (A) (A) (A) (A) (A) (A) (A) (A) (A)
                 (A) (A) (A) (A) (A) (A) (A) (A) (A) (A) (A) (A)
                 (A) (A) (A) (A) (A) (A) (A) (A) (A) (A) (A) (A)
                 (A) (A) (A) (A) (A) (A) (A) (A) (A) (A) (A) (A)
                 (A) (A) (A) (A) (A) (A) (A) (A) (A) (A) (A) (A)
                 (A) (A) (A) (A) (A) (A) (A) (A) (A) (A) (A) (A)
                 (A) (A) (A) (A) (A) (A) (A) (A) (A) (A) (A) (A)
                 (A) (A) (A) (A) (A) (A) (A) (A) (A) (A) (A) (A)
                 (A) (A) (A) (A) (A) (A) (A) (A) (A) (A) (A) (A)
                 (A) (A)
 The electronic state is 1-A.
 Alpha  occ. eigenvalues --  -19.27232 -19.24571 -19.22125 -14.46262 -10.37199
 Alpha  occ. eigenvalues --  -10.34816 -10.34120 -10.33924 -10.29604 -10.29506
 Alpha  occ. eigenvalues --  -10.28882 -10.28741 -10.28593 -10.28505 -10.27947
 Alpha  occ. eigenvalues --  -10.27785 -10.27669 -10.27195 -10.27176 -10.26920
 Alpha  occ. eigenvalues --  -10.26628 -10.26482  -1.17567  -1.16564  -1.12285
 Alpha  occ. eigenvalues --   -1.07643  -0.97563  -0.97013  -0.91613  -0.88894
 Alpha  occ. eigenvalues --   -0.88758  -0.86806  -0.86767  -0.86241  -0.82157
 Alpha  occ. eigenvalues --   -0.80389  -0.76579  -0.74638  -0.73569  -0.70958
 Alpha  occ. eigenvalues --   -0.69532  -0.66835  -0.65411  -0.63639  -0.63141
 Alpha  occ. eigenvalues --   -0.60324  -0.59900  -0.59742  -0.59524  -0.58220
 Alpha  occ. eigenvalues --   -0.58209  -0.56655  -0.54972  -0.54570  -0.54451
 Alpha  occ. eigenvalues --   -0.54206  -0.53968  -0.51758  -0.51684  -0.51431
 Alpha  occ. eigenvalues --   -0.50403  -0.49774  -0.48865  -0.48372  -0.47878
 Alpha  occ. eigenvalues --   -0.46964  -0.46068  -0.45521  -0.44079  -0.43583
 Alpha  occ. eigenvalues --   -0.42854  -0.41100  -0.38653  -0.34733  -0.34551
 Alpha  occ. eigenvalues --   -0.34000  -0.33896  -0.28267  -0.26555
 Alpha virt. eigenvalues --   -0.01882   0.02794   0.03592   0.03709   0.04450
 Alpha virt. eigenvalues --    0.05074   0.05077   0.05730   0.06117   0.06300
 Alpha virt. eigenvalues --    0.06717   0.07390   0.07986   0.08042   0.08149
 Alpha virt. eigenvalues --    0.08317   0.08583   0.09207   0.10235   0.10331
 Alpha virt. eigenvalues --    0.10501   0.10994   0.12083   0.12245   0.12474
 Alpha virt. eigenvalues --    0.12804   0.12898   0.13717   0.14130   0.14425
 Alpha virt. eigenvalues --    0.14783   0.14930   0.15451   0.15738   0.16090
 Alpha virt. eigenvalues --    0.16148   0.16675   0.17028   0.17109   0.17368
 Alpha virt. eigenvalues --    0.17683   0.17732   0.17976   0.18367   0.18542
 Alpha virt. eigenvalues --    0.18654   0.18952   0.19797   0.19983   0.20221
 Alpha virt. eigenvalues --    0.20498   0.20615   0.20841   0.21042   0.21317
 Alpha virt. eigenvalues --    0.21680   0.21903   0.21964   0.22326   0.22712
 Alpha virt. eigenvalues --    0.22876   0.22975   0.23160   0.24188   0.24251
 Alpha virt. eigenvalues --    0.24339   0.24669   0.24823   0.25010   0.25715
 Alpha virt. eigenvalues --    0.26038   0.26173   0.26685   0.26838   0.27158
 Alpha virt. eigenvalues --    0.27521   0.27926   0.27982   0.28311   0.28959
 Alpha virt. eigenvalues --    0.29016   0.29617   0.29919   0.30472   0.30654
 Alpha virt. eigenvalues --    0.31154   0.31390   0.31515   0.31856   0.32365
 Alpha virt. eigenvalues --    0.32666   0.32774   0.33229   0.33579   0.34026
 Alpha virt. eigenvalues --    0.34489   0.34695   0.35116   0.35242   0.35433
 Alpha virt. eigenvalues --    0.36256   0.36588   0.37182   0.37597   0.37680
 Alpha virt. eigenvalues --    0.37750   0.38070   0.38827   0.39068   0.39533
 Alpha virt. eigenvalues --    0.39696   0.40514   0.40825   0.41024   0.41175
 Alpha virt. eigenvalues --    0.41633   0.41775   0.42181   0.42536   0.42720
 Alpha virt. eigenvalues --    0.42764   0.43192   0.44077   0.44393   0.44497
 Alpha virt. eigenvalues --    0.45048   0.46058   0.46531   0.46735   0.47023
 Alpha virt. eigenvalues --    0.47395   0.47602   0.48552   0.48832   0.49365
 Alpha virt. eigenvalues --    0.49387   0.50389   0.51575   0.51854   0.52473
 Alpha virt. eigenvalues --    0.53263   0.53669   0.54252   0.55387   0.56704
 Alpha virt. eigenvalues --    0.57722   0.59019   0.61102   0.61692   0.61892
 Alpha virt. eigenvalues --    0.62354   0.62425   0.63980   0.64246   0.64898
 Alpha virt. eigenvalues --    0.65128   0.65837   0.66272   0.66794   0.67089
 Alpha virt. eigenvalues --    0.67570   0.68135   0.68627   0.68888   0.69175
 Alpha virt. eigenvalues --    0.69588   0.69918   0.70382   0.71405   0.71978
 Alpha virt. eigenvalues --    0.72964   0.73311   0.73753   0.74409   0.75299
 Alpha virt. eigenvalues --    0.75578   0.75865   0.76482   0.76631   0.76837
 Alpha virt. eigenvalues --    0.77699   0.78348   0.78533   0.78767   0.79411
 Alpha virt. eigenvalues --    0.79838   0.80146   0.81098   0.81533   0.81815
 Alpha virt. eigenvalues --    0.82711   0.83755   0.84805   0.85301   0.86147
 Alpha virt. eigenvalues --    0.86577   0.87144   0.88551   0.89103   0.89848
 Alpha virt. eigenvalues --    0.90820   0.91222   0.92238   0.92580   0.93329
 Alpha virt. eigenvalues --    0.94689   0.95200   0.95704   0.96791   0.97117
 Alpha virt. eigenvalues --    0.97303   0.97669   0.98212   0.99186   1.00338
 Alpha virt. eigenvalues --    1.00429   1.01336   1.01672   1.02318   1.02723
 Alpha virt. eigenvalues --    1.04165   1.04759   1.05249   1.05963   1.06725
 Alpha virt. eigenvalues --    1.06838   1.07563   1.08150   1.08271   1.09198
 Alpha virt. eigenvalues --    1.09507   1.09806   1.10313   1.10980   1.12244
 Alpha virt. eigenvalues --    1.12941   1.14067   1.14669   1.15134   1.15610
 Alpha virt. eigenvalues --    1.16695   1.17087   1.17956   1.18601   1.18767
 Alpha virt. eigenvalues --    1.19511   1.20558   1.21048   1.21702   1.22219
 Alpha virt. eigenvalues --    1.23007   1.23362   1.24207   1.25491   1.27235
 Alpha virt. eigenvalues --    1.30610   1.32093   1.32544   1.34280   1.34972
 Alpha virt. eigenvalues --    1.35139   1.37724   1.39354   1.39750   1.39851
 Alpha virt. eigenvalues --    1.40686   1.43999   1.46725   1.48645   1.49480
 Alpha virt. eigenvalues --    1.50468   1.51745   1.54491   1.55418   1.56479
 Alpha virt. eigenvalues --    1.58376   1.58910   1.60809   1.60941   1.61840
 Alpha virt. eigenvalues --    1.62432   1.62565   1.63104   1.63873   1.64057
 Alpha virt. eigenvalues --    1.64804   1.65359   1.65404   1.66533   1.66835
 Alpha virt. eigenvalues --    1.68252   1.69586   1.69795   1.69953   1.70344
 Alpha virt. eigenvalues --    1.71402   1.73240   1.73410   1.73760   1.74906
 Alpha virt. eigenvalues --    1.76192   1.76317   1.77928   1.78544   1.79334
 Alpha virt. eigenvalues --    1.80088   1.81333   1.81569   1.83221   1.83461
 Alpha virt. eigenvalues --    1.84308   1.84587   1.85814   1.86362   1.86909
 Alpha virt. eigenvalues --    1.88250   1.89368   1.89978   1.90568   1.91356
 Alpha virt. eigenvalues --    1.92671   1.93275   1.94636   1.94969   1.95689
 Alpha virt. eigenvalues --    1.96973   1.97845   1.99676   2.00330   2.00439
 Alpha virt. eigenvalues --    2.01628   2.02323   2.03309   2.04187   2.04551
 Alpha virt. eigenvalues --    2.04784   2.04997   2.07177   2.09277   2.09525
 Alpha virt. eigenvalues --    2.10830   2.11700   2.12631   2.12983   2.14079
 Alpha virt. eigenvalues --    2.15301   2.17639   2.18752   2.19399   2.21846
 Alpha virt. eigenvalues --    2.22058   2.23889   2.24556   2.25312   2.26633
 Alpha virt. eigenvalues --    2.26872   2.27180   2.28012   2.29132   2.29571
 Alpha virt. eigenvalues --    2.33299   2.34003   2.36348   2.36834   2.37602
 Alpha virt. eigenvalues --    2.39201   2.41157   2.43419   2.44492   2.44754
 Alpha virt. eigenvalues --    2.47180   2.48097   2.49098   2.51337   2.51944
 Alpha virt. eigenvalues --    2.53057   2.53396   2.54869   2.55302   2.58051
 Alpha virt. eigenvalues --    2.60466   2.62414   2.62568   2.64476   2.66253
 Alpha virt. eigenvalues --    2.67500   2.68198   2.69172   2.69593   2.71330
 Alpha virt. eigenvalues --    2.74247   2.75174   2.76631   2.78305   2.78730
 Alpha virt. eigenvalues --    2.78879   2.79923   2.81912   2.84286   2.86517
 Alpha virt. eigenvalues --    2.87720   2.87840   2.89520   2.90405   2.91088
 Alpha virt. eigenvalues --    2.91355   2.92468   2.92769   2.94065   2.95306
 Alpha virt. eigenvalues --    2.95663   2.95940   2.96026   2.97622   2.97847
 Alpha virt. eigenvalues --    2.98192   2.99763   3.00373   3.02346   3.03590
 Alpha virt. eigenvalues --    3.03900   3.04819   3.05043   3.05627   3.06195
 Alpha virt. eigenvalues --    3.07346   3.08136   3.09679   3.10456   3.11009
 Alpha virt. eigenvalues --    3.11558   3.11937   3.14370   3.16076   3.17871
 Alpha virt. eigenvalues --    3.18572   3.19764   3.20401   3.21106   3.21612
 Alpha virt. eigenvalues --    3.22347   3.25386   3.27665   3.28552   3.30969
 Alpha virt. eigenvalues --    3.33742   3.34367   3.34765   3.35664   3.37231
 Alpha virt. eigenvalues --    3.38387   3.40434   3.43499   3.44306   3.46322
 Alpha virt. eigenvalues --    3.51395   3.52726   3.53191   3.54014   3.58992
 Alpha virt. eigenvalues --    3.66382   3.68087   3.73209   3.74279   3.76342
 Alpha virt. eigenvalues --    3.78323   3.83989   3.84662   3.85197   3.87735
 Alpha virt. eigenvalues --    3.91398   3.92812   3.95027   3.98610   4.02861
 Alpha virt. eigenvalues --    4.14068   4.15818   4.21040   4.22622   4.23518
 Alpha virt. eigenvalues --    4.24130   4.26099   4.27794   4.29204   4.30603
 Alpha virt. eigenvalues --    4.35862   4.36179   4.44521   4.46493   4.47814
 Alpha virt. eigenvalues --    4.53111   4.56049   4.62014   4.70862   4.82188
 Alpha virt. eigenvalues --    4.97508   4.98522   5.12383   5.14534   5.17376
 Alpha virt. eigenvalues --    5.19717   5.25702   5.45097   5.55414   5.73547
 Alpha virt. eigenvalues --    5.92057   5.93055   6.10806  23.83110  23.95275
 Alpha virt. eigenvalues --   24.01983  24.10035  24.14161  24.15231  24.19590
 Alpha virt. eigenvalues --   24.25436  24.27039  24.27759  24.39060  24.40848
 Alpha virt. eigenvalues --   24.42278  24.42571  24.46371  24.47371  24.49595
 Alpha virt. eigenvalues --   24.50201  35.75976  50.12448  50.17565  50.22344
          Condensed to atoms (all electrons):
              1          2          3          4          5          6
     1  C   13.674775  -2.049526  -3.116258   3.841819  -0.442786   0.063988
     2  C   -2.049526  10.383277   1.968027  -0.784106   0.774999   0.122585
     3  C   -3.116258   1.968027  13.712861  -4.487678  -3.263061  -0.148755
     4  C    3.841819  -0.784106  -4.487678  15.739874   0.084369  -0.198859
     5  C   -0.442786   0.774999  -3.263061   0.084369   9.410056   0.759234
     6  H    0.063988   0.122585  -0.148755  -0.198859   0.759234   0.527635
     7  C   -0.994905  -5.561435   1.918817  -2.722555  -2.263065  -0.379449
     8  H   -0.203909  -0.234187   0.093207  -0.027656  -0.236454  -0.043038
     9  C   -2.133203   1.042143   0.434069  -3.704083   0.710857   0.085559
    10  C   -1.905629  -0.152871  -1.358882  -1.309866   0.662454   0.020417
    11  H    0.039166   0.047483  -0.138005   0.009959  -0.017490  -0.001102
    12  C   -0.267286  -0.235235  -0.327136   0.083005   0.207332   0.007727
    13  H   -0.037919  -0.024512  -0.080955  -0.043370   0.011649   0.000106
    14  C    0.069995   0.050790  -0.324755  -0.185558  -0.041318  -0.001564
    15  C    0.037746   0.098514   0.081113  -0.004129  -0.019745  -0.000384
    16  H    0.002173   0.002920   0.012212   0.004595  -0.000110   0.000016
    17  C    0.004223   0.028051  -0.019823  -0.009731  -0.003457  -0.000076
    18  H   -0.000143  -0.000197  -0.001875  -0.000576  -0.000037  -0.000001
    19  C   -0.005796  -0.019982   0.002697   0.011931   0.001578   0.000024
    20  C   -0.000002   0.000015  -0.000324   0.000016  -0.000001   0.000000
    21  H    0.000001  -0.000001   0.000041   0.000005   0.000000   0.000000
    22  H    0.000002  -0.000001   0.000042   0.000007   0.000001   0.000000
    23  H    0.028009  -0.012052  -0.180593   0.114183   0.068108  -0.000950
    24  O   -0.007726   0.016428  -0.051521  -0.233379  -0.023160   0.000562
    25  O   -0.032370   0.011485   0.337684   0.079902  -0.442917  -0.042479
    26  O    0.352638   0.366080   0.015225   0.042739   0.031927   0.001476
    27  H   -0.267496   0.629790   0.065153   0.116162   0.112838   0.008370
    28  C   -0.154262  -0.230543  -0.040487   0.187069   0.070498   0.001437
    29  N    0.000021   0.000090   0.000116  -0.000020  -0.000002   0.000000
    30  C   -0.031473  -0.063424   0.051106   0.022614   0.007462   0.000177
    31  H    0.000000   0.000004  -0.000028   0.000001   0.000000   0.000000
    32  C    0.262134  -0.295357  -0.182253   0.170501   0.002067  -0.000321
    33  H    0.005662  -0.023371   0.015373   0.006799   0.001648   0.000016
    34  C    0.000021  -0.000051   0.000335  -0.000074  -0.000004   0.000000
    35  H    0.000340   0.002735  -0.002640  -0.001453  -0.000246  -0.000005
    36  H   -0.028597   0.018655  -0.006998  -0.000511   0.003117  -0.000063
    37  H    0.001227   0.034264  -0.008076   0.011352  -0.005584  -0.000113
    38  H    0.060052  -0.048884  -0.009840   0.007376  -0.006330  -0.000326
    39  H   -0.000008  -0.000036  -0.000009   0.000022   0.000002   0.000000
    40  H    0.000002  -0.000002   0.000028  -0.000006   0.000000   0.000000
    41  H   -0.000010  -0.000026   0.000018   0.000016   0.000002   0.000000
              7          8          9         10         11         12
     1  C   -0.994905  -0.203909  -2.133203  -1.905629   0.039166  -0.267286
     2  C   -5.561435  -0.234187   1.042143  -0.152871   0.047483  -0.235235
     3  C    1.918817   0.093207   0.434069  -1.358882  -0.138005  -0.327136
     4  C   -2.722555  -0.027656  -3.704083  -1.309866   0.009959   0.083005
     5  C   -2.263065  -0.236454   0.710857   0.662454  -0.017490   0.207332
     6  H   -0.379449  -0.043038   0.085559   0.020417  -0.001102   0.007727
     7  C   17.791821   1.023351  -1.373612  -0.163421   0.028984  -0.176409
     8  H    1.023351   0.525030  -0.056505  -0.012201   0.001225  -0.004378
     9  C   -1.373612  -0.056505   9.415306   0.955639  -0.029321  -0.508718
    10  C   -0.163421  -0.012201   0.955639   9.614742   0.775187   0.879201
    11  H    0.028984   0.001225  -0.029321   0.775187   0.947724   0.034728
    12  C   -0.176409  -0.004378  -0.508718   0.879201   0.034728   6.590943
    13  H   -0.003522  -0.000081   0.001798   0.043542  -0.026405   0.381328
    14  C    0.065695   0.001185   0.295103  -0.310225   0.088175   0.177238
    15  C    0.008697   0.000244   0.105627   0.077545   0.072492  -0.784941
    16  H    0.000078  -0.000001   0.005308   0.032406   0.009428   0.021041
    17  C    0.001703   0.000041   0.033316   0.384071   0.053073   0.063205
    18  H    0.000002   0.000000  -0.000540  -0.013365  -0.003224  -0.005203
    19  C   -0.000470  -0.000024   0.053754  -0.254923  -0.056441  -0.259002
    20  C    0.000002   0.000000   0.000975  -0.005325   0.000217   0.011420
    21  H    0.000000   0.000000  -0.000040   0.000519   0.000117  -0.000072
    22  H    0.000000   0.000000  -0.000014   0.000411   0.000141  -0.000474
    23  H   -0.003488   0.000225   0.014552   0.007480  -0.001269  -0.010998
    24  O   -0.001566   0.000101   0.747345  -0.295520  -0.029930   0.003577
    25  O    0.050949   0.002804  -0.049114  -0.035332  -0.005831   0.028738
    26  O   -0.867862  -0.044714   0.031433   0.006022  -0.001753   0.001407
    27  H   -0.295961  -0.013283   0.021782  -0.087958  -0.197869   0.017461
    28  C   -0.037096  -0.001009  -0.211614  -0.950610  -0.207230   0.166150
    29  N    0.000001   0.000000   0.000495   0.002262  -0.000744  -0.003243
    30  C   -0.007477  -0.000220   0.043038  -0.510177  -0.199434  -0.122834
    31  H    0.000000   0.000000   0.000023  -0.000274   0.000020   0.001563
    32  C    0.016101   0.004702  -0.106981  -0.075192   0.031224  -0.008251
    33  H    0.003258  -0.000004   0.036025  -0.174982  -0.119417  -0.097068
    34  C    0.000001   0.000000  -0.000022   0.007765  -0.000881  -0.002930
    35  H    0.000055   0.000006  -0.009745   0.045623   0.024920   0.040160
    36  H   -0.016837  -0.001130   0.006292   0.003669   0.004731  -0.000028
    37  H   -0.058657  -0.000780   0.000225  -0.002185   0.006438   0.001331
    38  H    0.048737   0.002419  -0.010106  -0.004662   0.001906  -0.000995
    39  H    0.000001   0.000000   0.000176  -0.001160  -0.000692  -0.000536
    40  H    0.000000   0.000000  -0.000034   0.000719   0.000019  -0.000839
    41  H   -0.000001   0.000000   0.000107  -0.001181  -0.000501  -0.001015
             13         14         15         16         17         18
     1  C   -0.037919   0.069995   0.037746   0.002173   0.004223  -0.000143
     2  C   -0.024512   0.050790   0.098514   0.002920   0.028051  -0.000197
     3  C   -0.080955  -0.324755   0.081113   0.012212  -0.019823  -0.001875
     4  C   -0.043370  -0.185558  -0.004129   0.004595  -0.009731  -0.000576
     5  C    0.011649  -0.041318  -0.019745  -0.000110  -0.003457  -0.000037
     6  H    0.000106  -0.001564  -0.000384   0.000016  -0.000076  -0.000001
     7  C   -0.003522   0.065695   0.008697   0.000078   0.001703   0.000002
     8  H   -0.000081   0.001185   0.000244  -0.000001   0.000041   0.000000
     9  C    0.001798   0.295103   0.105627   0.005308   0.033316  -0.000540
    10  C    0.043542  -0.310225   0.077545   0.032406   0.384071  -0.013365
    11  H   -0.026405   0.088175   0.072492   0.009428   0.053073  -0.003224
    12  C    0.381328   0.177238  -0.784941   0.021041   0.063205  -0.005203
    13  H    0.521645  -0.102324   0.036197  -0.024323   0.013239   0.005150
    14  C   -0.102324   9.977764   0.164746  -0.040008  -2.042826  -0.068456
    15  C    0.036197   0.164746   9.642145   0.316633   1.190982   0.003454
    16  H   -0.024323  -0.040008   0.316633   0.530776  -0.018957  -0.032144
    17  C    0.013239  -2.042826   1.190982  -0.018957   9.608235   0.533400
    18  H    0.005150  -0.068456   0.003454  -0.032144   0.533400   0.561557
    19  C    0.004175  -1.692328  -1.789644   0.047929   0.365603  -0.094987
    20  C   -0.001778  -0.137428  -0.075098   0.006006   0.171005   0.021467
    21  H   -0.000120   0.007902  -0.006117   0.001399   0.006493  -0.017273
    22  H   -0.000199   0.009298  -0.009903   0.001724   0.009811  -0.016521
    23  H   -0.000168  -0.004157   0.003523  -0.000029   0.000466   0.000011
    24  O    0.006339   0.026782  -0.007442  -0.000312  -0.000175   0.000155
    25  O   -0.000178   0.001122  -0.001369  -0.000002  -0.000258   0.000005
    26  O    0.000136  -0.000588  -0.000035  -0.000006  -0.000001   0.000000
    27  H    0.015750  -0.060881   0.000440  -0.001204  -0.001901   0.000300
    28  C    0.048249   0.797021  -1.302201  -0.044747  -1.886506  -0.008520
    29  N   -0.000453  -0.027644   0.030032  -0.002344  -0.251876  -0.034257
    30  C    0.028949  -1.415633  -1.656937  -0.006367  -1.744536  -0.013069
    31  H   -0.000084  -0.008368  -0.004985   0.000009   0.047320   0.010493
    32  C   -0.002065  -0.000372   0.001387   0.000145   0.000110  -0.000014
    33  H    0.008097  -0.158127   0.038725  -0.011310  -0.016237   0.007361
    34  C    0.000916  -0.039472  -0.071373  -0.000378  -0.205663  -0.006247
    35  H   -0.000225   0.145517  -0.064567   0.003700  -0.038081  -0.005711
    36  H    0.000011   0.001071  -0.000165  -0.000005   0.000014  -0.000002
    37  H   -0.000147   0.000338  -0.000229   0.000006  -0.000051  -0.000004
    38  H   -0.000168   0.000204   0.000110   0.000013   0.000006  -0.000002
    39  H    0.000043  -0.008744  -0.003433  -0.000224  -0.018839   0.000249
    40  H    0.000067   0.003859   0.002576  -0.000259  -0.011742   0.001422
    41  H    0.000054  -0.008618   0.006417  -0.000411   0.019266   0.000874
             19         20         21         22         23         24
     1  C   -0.005796  -0.000002   0.000001   0.000002   0.028009  -0.007726
     2  C   -0.019982   0.000015  -0.000001  -0.000001  -0.012052   0.016428
     3  C    0.002697  -0.000324   0.000041   0.000042  -0.180593  -0.051521
     4  C    0.011931   0.000016   0.000005   0.000007   0.114183  -0.233379
     5  C    0.001578  -0.000001   0.000000   0.000001   0.068108  -0.023160
     6  H    0.000024   0.000000   0.000000   0.000000  -0.000950   0.000562
     7  C   -0.000470   0.000002   0.000000   0.000000  -0.003488  -0.001566
     8  H   -0.000024   0.000000   0.000000   0.000000   0.000225   0.000101
     9  C    0.053754   0.000975  -0.000040  -0.000014   0.014552   0.747345
    10  C   -0.254923  -0.005325   0.000519   0.000411   0.007480  -0.295520
    11  H   -0.056441   0.000217   0.000117   0.000141  -0.001269  -0.029930
    12  C   -0.259002   0.011420  -0.000072  -0.000474  -0.010998   0.003577
    13  H    0.004175  -0.001778  -0.000120  -0.000199  -0.000168   0.006339
    14  C   -1.692328  -0.137428   0.007902   0.009298  -0.004157   0.026782
    15  C   -1.789644  -0.075098  -0.006117  -0.009903   0.003523  -0.007442
    16  H    0.047929   0.006006   0.001399   0.001724  -0.000029  -0.000312
    17  C    0.365603   0.171005   0.006493   0.009811   0.000466  -0.000175
    18  H   -0.094987   0.021467  -0.017273  -0.016521   0.000011   0.000155
    19  C   10.903155  -0.062317  -0.013018   0.011180  -0.000213  -0.000538
    20  C   -0.062317   4.996299   0.456681   0.417036   0.000000   0.000000
    21  H   -0.013018   0.456681   0.537559  -0.058407   0.000000  -0.000001
    22  H    0.011180   0.417036  -0.058407   0.569295   0.000000  -0.000002
    23  H   -0.000213   0.000000   0.000000   0.000000   0.343008   0.073211
    24  O   -0.000538   0.000000  -0.000001  -0.000002   0.073211   8.086283
    25  O   -0.000057   0.000000   0.000000   0.000000   0.234745   0.011130
    26  O    0.000003   0.000000   0.000000   0.000000   0.000546  -0.000033
    27  H    0.004745  -0.000032  -0.000005  -0.000009   0.001190   0.007102
    28  C   -1.638157  -0.052701  -0.003548  -0.002914  -0.004591   0.007685
    29  N    0.310628   0.327480  -0.058083  -0.052306   0.000001  -0.000002
    30  C    0.902543  -0.121795   0.002106  -0.002395  -0.000245  -0.000302
    31  H   -0.024547   0.424022  -0.017437  -0.026939   0.000000   0.000000
    32  C    0.000221   0.000000   0.000000   0.000000   0.000275  -0.000425
    33  H    0.207945   0.001514  -0.000768  -0.000643   0.000214   0.004619
    34  C   -0.077000  -0.094158  -0.003622   0.006484   0.000000   0.000010
    35  H   -0.309241  -0.007686   0.001051   0.001005  -0.000022  -0.000062
    36  H   -0.000219   0.000001   0.000000   0.000000   0.000040   0.000039
    37  H   -0.000454  -0.000001   0.000000   0.000000   0.000073   0.000052
    38  H    0.000054   0.000000   0.000000   0.000000   0.000005  -0.000006
    39  H    0.000307   0.004229   0.002552  -0.006895   0.000000   0.000000
    40  H   -0.022445  -0.018302  -0.003974   0.001470   0.000000   0.000000
    41  H    0.038408   0.000670  -0.000408   0.002366   0.000000  -0.000001
             25         26         27         28         29         30
     1  C   -0.032370   0.352638  -0.267496  -0.154262   0.000021  -0.031473
     2  C    0.011485   0.366080   0.629790  -0.230543   0.000090  -0.063424
     3  C    0.337684   0.015225   0.065153  -0.040487   0.000116   0.051106
     4  C    0.079902   0.042739   0.116162   0.187069  -0.000020   0.022614
     5  C   -0.442917   0.031927   0.112838   0.070498  -0.000002   0.007462
     6  H   -0.042479   0.001476   0.008370   0.001437   0.000000   0.000177
     7  C    0.050949  -0.867862  -0.295961  -0.037096   0.000001  -0.007477
     8  H    0.002804  -0.044714  -0.013283  -0.001009   0.000000  -0.000220
     9  C   -0.049114   0.031433   0.021782  -0.211614   0.000495   0.043038
    10  C   -0.035332   0.006022  -0.087958  -0.950610   0.002262  -0.510177
    11  H   -0.005831  -0.001753  -0.197869  -0.207230  -0.000744  -0.199434
    12  C    0.028738   0.001407   0.017461   0.166150  -0.003243  -0.122834
    13  H   -0.000178   0.000136   0.015750   0.048249  -0.000453   0.028949
    14  C    0.001122  -0.000588  -0.060881   0.797021  -0.027644  -1.415633
    15  C   -0.001369  -0.000035   0.000440  -1.302201   0.030032  -1.656937
    16  H   -0.000002  -0.000006  -0.001204  -0.044747  -0.002344  -0.006367
    17  C   -0.000258  -0.000001  -0.001901  -1.886506  -0.251876  -1.744536
    18  H    0.000005   0.000000   0.000300  -0.008520  -0.034257  -0.013069
    19  C   -0.000057   0.000003   0.004745  -1.638157   0.310628   0.902543
    20  C    0.000000   0.000000  -0.000032  -0.052701   0.327480  -0.121795
    21  H    0.000000   0.000000  -0.000005  -0.003548  -0.058083   0.002106
    22  H    0.000000   0.000000  -0.000009  -0.002914  -0.052306  -0.002395
    23  H    0.234745   0.000546   0.001190  -0.004591   0.000001  -0.000245
    24  O    0.011130  -0.000033   0.007102   0.007685  -0.000002  -0.000302
    25  O    8.113748   0.000382   0.003403   0.000565   0.000000   0.000152
    26  O    0.000382   8.219231  -0.014957   0.000139   0.000000   0.000157
    27  H    0.003403  -0.014957   0.881344   0.042239   0.000033   0.034577
    28  C    0.000565   0.000139   0.042239   9.605543  -0.020268   1.821104
    29  N    0.000000   0.000000   0.000033  -0.020268   7.093378  -0.286057
    30  C    0.000152   0.000157   0.034577   1.821104  -0.286057   8.965205
    31  H    0.000000   0.000000  -0.000001   0.001104  -0.031168  -0.004480
    32  C   -0.001405   0.226738  -0.044241  -0.006830  -0.000003   0.000408
    33  H    0.000327   0.000085   0.035707   0.388158  -0.000915   0.128981
    34  C    0.000000   0.000000   0.000106   0.008685   0.318102   0.135312
    35  H   -0.000005  -0.000005  -0.003968   0.112663  -0.037547   0.371219
    36  H    0.000104  -0.034340  -0.019681   0.000535   0.000001  -0.001471
    37  H    0.000064  -0.040417  -0.018833   0.000655   0.000002  -0.001878
    38  H   -0.000081  -0.060796  -0.006564  -0.000510   0.000000   0.000093
    39  H    0.000000   0.000000   0.000064  -0.006537  -0.049475   0.045402
    40  H    0.000000   0.000000   0.000001   0.007590  -0.035034   0.037565
    41  H    0.000000   0.000000   0.000047  -0.029549  -0.063612  -0.020265
             31         32         33         34         35         36
     1  C    0.000000   0.262134   0.005662   0.000021   0.000340  -0.028597
     2  C    0.000004  -0.295357  -0.023371  -0.000051   0.002735   0.018655
     3  C   -0.000028  -0.182253   0.015373   0.000335  -0.002640  -0.006998
     4  C    0.000001   0.170501   0.006799  -0.000074  -0.001453  -0.000511
     5  C    0.000000   0.002067   0.001648  -0.000004  -0.000246   0.003117
     6  H    0.000000  -0.000321   0.000016   0.000000  -0.000005  -0.000063
     7  C    0.000000   0.016101   0.003258   0.000001   0.000055  -0.016837
     8  H    0.000000   0.004702  -0.000004   0.000000   0.000006  -0.001130
     9  C    0.000023  -0.106981   0.036025  -0.000022  -0.009745   0.006292
    10  C   -0.000274  -0.075192  -0.174982   0.007765   0.045623   0.003669
    11  H    0.000020   0.031224  -0.119417  -0.000881   0.024920   0.004731
    12  C    0.001563  -0.008251  -0.097068  -0.002930   0.040160  -0.000028
    13  H   -0.000084  -0.002065   0.008097   0.000916  -0.000225   0.000011
    14  C   -0.008368  -0.000372  -0.158127  -0.039472   0.145517   0.001071
    15  C   -0.004985   0.001387   0.038725  -0.071373  -0.064567  -0.000165
    16  H    0.000009   0.000145  -0.011310  -0.000378   0.003700  -0.000005
    17  C    0.047320   0.000110  -0.016237  -0.205663  -0.038081   0.000014
    18  H    0.010493  -0.000014   0.007361  -0.006247  -0.005711  -0.000002
[...]
 0031792,0.00054865,-0.00010240,0.00023884,-0.00031103,0.00020441,0.000
 34043,-0.00028575,-0.00012123,0.00005355,0.00006146,0.00001970,-0.0000
 2049,0.00091118,-0.00059703,-0.00038012,-0.00005375,0.00017702,0.00013
 413,-0.00005143,-0.00007197,-0.00061019,0.00003826,0.00002793,0.000285
 20,0.00001342,-0.00001160,-0.00000479,-0.00001713,-0.00001743,-0.00018
 669,0.00000043,-0.00000302,-0.00001054,-0.00003519,0.00003848,0.000092
 95,-0.00002638,0.00000399,-0.00005123,-0.00000066,0.00000120,-0.000005
 79,-0.00005110,0.00002449,0.00003267,0.00000153,0.00000094,0.00000443,
 0.00002871,-0.00003118,-0.00009387,-0.00001907,0.00000677,-0.00001991,
 0.00000523,-0.00000596,0.00000189,0.00000412,-0.00000172,0.00000032,-0
 .00003118,0.00001503,-0.00013491,0.00014346,-0.00003195,0.00021512,0.0
 0056691,-0.00018487,0.00010606,0.01596896,0.01520618,-0.03112458,-0.00
 022585,-0.00000817,0.00032816,0.00004931,-0.00003003,-0.00002070,-0.00
 003993,0.00004554,0.00010728,0.00001487,-0.00000299,0.00006891,-0.0000
 0117,0.00000153,0.00000424,0.00971517,0.11787246,-0.13854140,0.0000082
 5,-0.00000248,-0.00000822,0.00004065,-0.00001421,0.00000206,-0.0000042
 3,0.00000497,0.00000500,-0.00203515,-0.01118375,0.01114193,-0.01954506
 ,-0.13230834,0.16338031,0.00140058,0.00009051,0.00311803,0.00035437,0.
 00001422,0.00024758,-0.00014530,0.00004476,-0.00020923,0.00026215,-0.0
 0005950,0.00005849,-0.00013647,0.00004192,0.00025477,-0.00009270,0.000
 01695,-0.00001238,-0.00084122,0.00030401,-0.00043226,0.00001565,0.0000
 0189,0.00003516,0.00008885,0.00005785,0.00049154,-0.00001484,-0.000023
 95,-0.00027628,-0.00000347,-0.00000080,0.00003266,0.00000470,0.0000270
 7,0.00020170,-0.00000228,0.00000125,0.00000459,0.00003978,-0.00003409,
 -0.00009680,0.00002736,-0.00000485,0.00005637,0.00000118,-0.00000002,0
 .00000584,0.00005304,-0.00002977,-0.00003601,-0.00000144,0.00000009,-0
 .00000501,-0.00003141,0.00003675,0.00010842,0.00002275,-0.00000593,0.0
 0002309,-0.00000568,0.00000600,-0.00000195,-0.00000552,0.00000172,0.00
 000007,0.00003763,-0.00000255,0.00007660,-0.00012555,0.00001721,-0.000
 16676,-0.00033993,0.00008841,-0.00007577,-0.02456986,0.00755353,0.0004
 0640,0.00011136,-0.00018435,0.00009829,-0.00004520,0.00003001,0.000027
 54,0.00004272,-0.00005204,-0.00012080,-0.00002308,-0.00000028,-0.00007
 260,0.00000195,-0.00000156,-0.00000514,-0.26649883,0.05705442,-0.09339
 973,-0.00001230,0.00000156,0.00001080,-0.00004217,0.00001942,-0.000001
 66,0.00000541,-0.00000317,-0.00000474,-0.00911916,0.00294643,-0.005244
 56,0.00475577,-0.00112997,0.00057990,0.29481657,-0.00006574,0.00059285
 ,-0.00139126,-0.00006638,0.00032491,-0.00023134,0.00011455,0.00010977,
 0.00011010,-0.00008898,0.00006138,-0.00000027,0.00000093,-0.00008589,-
 0.00011884,0.00002437,-0.00005033,0.00000980,0.00048151,0.00015734,0.0
 0014450,-0.00000276,0.00001287,-0.00001403,-0.00001598,0.00001221,-0.0
 0016902,0.00003560,0.00001817,0.00007659,-0.00000340,-0.00003396,0.000
 00991,-0.00001195,0.00000425,-0.00005254,-0.00000296,-0.00000330,-0.00
 000465,-0.00001222,0.00000595,0.00002450,-0.00000557,0.00000724,-0.000
 01479,-0.00000059,-0.00000002,-0.00000186,-0.00001486,0.00000261,0.000
 00943,0.00000044,0.00000052,0.00000111,0.00000861,-0.00000710,-0.00002
 545,-0.00000533,0.00000209,-0.00000635,0.00000152,-0.00000200,0.000000
 60,0.00000113,-0.00000040,0.00000013,-0.00000715,0.00000847,-0.0000269
 0,0.00003143,-0.00000894,0.00005853,0.00009303,-0.00006680,0.00003365,
 0.01111627,-0.00310128,0.00035775,-0.00021615,-0.00045135,0.00009528,0
 .00002220,0.00000039,-0.00000184,-0.00001003,0.00001076,0.00002828,0.0
 0000162,0.00000020,0.00001631,-0.00000039,0.00000066,0.00000102,0.0557
 8988,-0.06504033,0.02482623,-0.00000254,-0.00001444,0.00000256,0.00000
 963,-0.00000247,-0.00000024,-0.00000050,0.00000221,0.00000106,-0.02313
 630,0.00779259,-0.00944423,0.02276190,-0.00465371,0.00968186,-0.066820
 99,0.06439510,0.00175720,-0.00099450,-0.00408809,-0.00056653,0.0000484
 8,-0.00133114,0.00033401,-0.00006299,0.00053777,-0.00015893,0.00005791
 ,0.00022317,-0.00018913,0.00001909,-0.00050255,0.00010691,-0.00003018,
 0.00001809,0.00146316,-0.00043168,0.00041021,-0.00002320,0.00000430,-0
 .00002397,0.00005033,-0.00000981,-0.00009038,0.00003814,-0.00006500,-0
 .00008280,0.00000917,0.00002827,0.00005505,-0.00004017,0.00003315,0.00
 010577,-0.00000453,0.00000321,-0.00001552,0.00001790,-0.00001529,-0.00
 004361,0.00001240,-0.00000092,0.00002807,0.,0.00000056,0.00000177,0.00
 002567,-0.00001508,-0.00002066,-0.00000104,-0.00000019,-0.00000266,-0.
 00001510,0.00001917,0.00006621,0.00001264,-0.00000322,0.00001092,-0.00
 000317,0.00000304,-0.00000087,-0.00000235,0.00000113,0.00000009,0.0000
 1333,-0.00000608,-0.00000783,0.00000023,0.00000196,0.00002832,0.000004
 34,0.00000922,0.00004917,0.03808005,-0.01108237,0.00566887,-0.00032318
 ,0.00020275,0.00080199,-0.00000313,0.00000709,0.00003324,0.00002749,-0
 .00003046,-0.00007057,-0.00002380,0.00000704,-0.00004329,0.00000087,-0
 .00000114,-0.00000340,-0.10655692,0.02881012,-0.08926112,-0.00001179,0
 .00000912,0.00001084,-0.00003005,0.00001149,-0.00000209,0.00000260,-0.
 00000280,-0.00000262,-0.01147017,0.00495323,-0.00414837,-0.01685973,0.
 00250625,-0.00557921,0.09431830,-0.02398467,0.09726744,-0.00004952,0.0
 0001715,0.00003220,-0.00003372,0.00001264,-0.00000293,0.00002718,0.000
 00295,0.00009666,0.00005453,-0.00001816,-0.00001446,-0.00001290,0.0000
 0207,-0.00001261,-0.00000049,0.00000080,0.00000304,0.00003143,-0.00001
 011,-0.00000614,0.00000117,0.00000024,0.00000201,0.00015029,-0.0001247
 8,-0.00031097,0.00000100,0.00005075,0.00039534,0.00000308,0.00000566,-
 0.00000103,0.00010794,-0.00004402,-0.00041320,-0.00001159,-0.00000089,
 -0.00000022,0.00020306,0.00006381,0.00069270,-0.00003919,-0.00037553,-
 0.00081613,0.00000290,0.00006163,-0.00000930,-0.00136804,0.00014952,0.
 00071584,0.00013872,0.00010959,-0.00005511,0.00175503,-0.00052862,-0.0
 0424428,-0.00144628,0.00382643,0.00191673,-0.00102771,0.00057261,-0.00
 114808,-0.00016473,0.00021673,-0.00009833,0.00001117,-0.00000695,-0.00
 004263,-0.00012079,0.00006652,0.00007626,-0.00003710,0.00001338,0.0000
 3267,0.00004943,-0.00001519,0.00000021,-0.00001010,0.00000271,-0.00000
 565,-0.00035915,-0.00014437,0.00017051,-0.01608248,0.02934012,-0.01800
 147,0.00086567,-0.00061879,0.00094716,-0.00004580,-0.00019489,-0.00002
 021,-0.00001121,0.00000402,0.00001092,0.00000506,-0.00000265,0.0000192
 3,-0.05073141,0.01931625,-0.01224415,0.00027940,0.00070539,0.00065278,
 0.00000029,0.00000236,-0.00000411,-0.00000148,-0.00000240,-0.00000357,
 0.00000352,-0.00000111,0.00000139,0.06410162,0.00006318,-0.00002012,-0
 .00001972,0.00002958,-0.00000815,-0.00000616,-0.00002497,-0.00000260,-
 0.00008073,-0.00002979,0.00001362,0.00001879,0.00000328,-0.00000109,0.
 00000633,-0.00000031,-0.00000079,-0.00000193,-0.00002427,0.00000906,0.
 00000289,-0.00000047,-0.00000122,-0.00000162,-0.00013928,0.00010323,0.
 00027492,0.00000646,-0.00005458,-0.00037779,-0.00000848,-0.00000303,-0
 .00001241,-0.00016254,0.00014490,0.00040817,-0.00000551,0.00000193,0.0
 0002033,0.00012081,-0.00016663,-0.00052176,-0.00011765,0.00024843,0.00
 061535,-0.00000352,-0.00002070,-0.00000921,0.00082908,-0.00048741,-0.0
 0073851,-0.00014297,-0.00002069,0.00002247,-0.00061204,0.00110568,0.00
 408030,-0.00119985,-0.00201093,-0.00158160,0.00032872,-0.00029560,0.00
 054607,-0.00006005,-0.00003802,-0.00006008,-0.00000584,0.00000257,0.00
 003396,0.00009323,-0.00004917,-0.00005334,0.00001362,-0.00000417,-0.00
 002694,-0.00007224,0.00002855,0.00001817,0.00000843,-0.00000713,0.0000
 0561,-0.00066039,0.00035392,0.00007350,0.01272139,-0.00480544,0.001185
 74,0.00067967,-0.00057154,-0.00024569,-0.00005536,0.00006419,0.0000546
 3,0.00001804,-0.00001943,-0.00003300,0.00002021,-0.00001271,-0.0000391
 3,0.02156996,-0.22580613,0.11718611,-0.00064055,-0.00032540,-0.0013345
 7,0.00000619,0.00000556,0.00000411,0.00000123,-0.00000127,0.00000371,-
 0.00000446,0.00000038,-0.00000327,-0.03157329,0.24312279,-0.00007384,0
 .00002701,0.00003926,-0.00004281,0.00001629,-0.00000412,0.00003398,-0.
 00000075,0.00012431,0.00006574,-0.00002459,-0.00001858,-0.00001614,0.0
 0000398,-0.00001474,-0.00000077,0.00000095,0.00000378,0.00004115,-0.00
 001409,-0.00000933,0.00000138,0.00000040,0.00000289,0.00017230,-0.0001
 0605,-0.00038236,0.00001531,0.00003753,0.00042251,-0.00000672,-0.00001
 017,-0.00000449,-0.00001358,-0.00022849,-0.00044938,0.00000674,0.00001
 744,-0.00001192,-0.00106608,0.00051255,0.00003187,0.00024224,0.0001542
 3,0.00083182,-0.00002527,-0.00001792,0.00003017,0.00050569,0.00008348,
 -0.00047172,0.00000874,-0.00004637,-0.00000524,-0.00050782,-0.00063331
 ,0.00040760,-0.00010706,0.00009663,-0.00053736,-0.00028042,0.00021708,
 0.00025711,-0.00012641,0.00008515,0.00000817,0.00001333,-0.00000846,-0
 .00005432,-0.00012934,0.00006893,0.00009965,-0.00004295,0.00001601,0.0
 0004199,0.00007493,-0.00002457,-0.00000065,-0.00001364,0.00000376,-0.0
 0000931,0.00126240,-0.00004555,-0.00091676,-0.00078154,-0.00582835,0.0
 0459075,-0.00081844,-0.00002380,0.00015654,-0.00013918,0.00030517,0.00
 050825,-0.00001870,0.00000916,0.00001583,0.00001291,-0.00000479,0.0000
 2524,-0.01490657,0.11820818,-0.12825909,0.00065561,-0.00227697,-0.0020
 4742,-0.00000174,0.00000268,-0.00000621,-0.00000243,-0.00000334,-0.000
 00462,0.00000610,-0.00000071,0.00000406,0.01812334,-0.12831955,0.13558
 686,-0.00002018,0.00000593,0.00000976,-0.00001208,0.00000389,0.0000015
 8,0.00000951,0.00000430,0.00003271,0.00001631,-0.00000671,-0.00000640,
 -0.00000251,0.00000067,-0.00000337,0.00000008,0.00000017,0.00000093,0.
 00000997,-0.00000298,-0.00000118,0.00000026,0.00000010,0.00000055,0.00
 005779,-0.00005028,-0.00010953,-0.00000099,0.00002964,0.00015061,0.000
 00194,-0.00000060,0.00000477,0.00006769,-0.00006410,-0.00013184,0.0000
 0570,-0.00000378,-0.00001115,0.00007756,-0.00003856,0.00013662,-0.0004
 3727,0.00013799,-0.00045001,-0.00004412,0.00003016,0.00013047,-0.00023
 043,0.00048033,0.00193204,-0.00002542,0.00001015,-0.00002060,-0.005091
 81,0.00183729,-0.00255080,0.00025175,0.00074374,0.00333984,0.00003265,
 -0.00006312,-0.00039919,0.00012068,-0.00005615,-0.00002250,0.00000394,
 -0.00000189,-0.00001435,-0.00004265,0.00002487,0.00002373,-0.00001028,
 0.00000342,0.00001113,0.00002250,-0.00000755,-0.00000605,-0.00000369,0
 .00000126,-0.00000196,0.00030393,-0.00006047,0.00020989,-0.01035476,0.
 00943537,0.03528003,-0.00054484,0.00037145,-0.00091092,-0.00064886,0.0
 0039917,-0.00122787,-0.00000552,0.00000293,0.00001103,-0.00001090,0.00
 002074,0.00004245,-0.05229301,0.00618112,0.02236064,0.00057341,-0.0004
 3046,-0.00005548,-0.00000135,-0.00000106,-0.00000120,-0.00000028,0.000
 00119,-0.00000141,0.00000125,-0.00000020,0.00000056,0.00029679,-0.0018
 5885,-0.00285788,0.06392530,0.00001361,-0.00000563,-0.00000800,0.00000
 947,-0.00000320,0.00000113,-0.00000626,0.00000065,-0.00002578,-0.00001
 496,0.00000745,0.00000303,0.00000298,-0.00000247,0.00000385,0.00000033
 ,0.00000022,-0.00000092,-0.00000860,0.00000353,0.00000158,-0.00000030,
 0.00000024,-0.00000051,-0.00004075,0.00002752,0.00008207,-0.00000015,-
 0.00001191,-0.00009865,-0.00000116,-0.00000240,0.00000063,-0.00004582,
 0.00000077,0.00009541,0.00000035,0.00000608,0.00000438,-0.00000902,-0.
 00002699,-0.00004385,0.00018353,-0.00008784,0.00016791,-0.00000205,-0.
 00005562,-0.00004667,0.00021975,0.00024268,-0.00078322,0.00002960,-0.0
 0001766,0.00001656,0.00202146,-0.00062258,0.00125696,-0.00008221,0.000
 54383,-0.00163554,-0.00003753,-0.00003171,-0.00001383,-0.00008840,0.00
 000050,0.00033516,-0.00000291,0.00000403,0.00001156,0.00003174,-0.0000
 1730,-0.00002063,0.00001046,-0.00000622,-0.00000862,-0.00001347,0.0000
 0336,-0.00000040,0.00000273,-0.00000062,0.00000156,-0.00011458,0.00021
 583,-0.00006211,0.00352254,-0.00561327,-0.01307439,0.00035934,0.000271
 07,0.00040482,0.00054989,0.00054849,0.00062567,0.00000330,-0.00000097,
 -0.00000251,0.00001278,0.00001131,-0.00001936,0.00815557,-0.06187146,-
 0.05977871,-0.00044273,-0.00020992,0.00012876,-0.00000015,-0.00000064,
 0.00000074,0.00000056,0.00000052,0.00000099,-0.00000092,0.00000057,-0.
 00000053,-0.00343817,0.00825826,0.02618126,-0.01385406,0.06278349,0.00
 006168,-0.00002228,-0.00004135,0.00003902,-0.00001608,0.00000968,-0.00
 003406,-0.00000336,-0.00011594,-0.00006916,0.00002647,0.00001219,0.000
 02010,-0.00000559,0.00001688,0.00000110,-0.00000091,-0.00000389,-0.000
 04100,0.00001424,0.00001113,-0.00000153,-0.00000010,-0.00000299,-0.000
 13325,0.00011057,0.00034101,-0.00001438,-0.00004012,-0.00034363,0.0000
 0439,-0.00000302,0.00001673,0.00001803,0.00005174,0.00034545,0.0000060
 8,-0.00000491,-0.00000737,0.00028169,-0.00015848,-0.00019042,0.0001464
 7,-0.00008180,-0.00007167,0.00002188,-0.00000940,-0.00003663,-0.000294
 94,0.00006856,0.00001106,0.00011017,-0.00004500,0.00004476,0.00006417,
 -0.00001193,0.00101565,-0.00302266,0.00128474,-0.00005101,-0.00006737,
 0.00007737,0.00018062,-0.00028477,0.00019973,0.00040107,-0.00001446,0.
 00000960,0.00005356,0.00011825,-0.00006813,-0.00010214,0.00004913,-0.0
 0001879,-0.00004041,-0.00005744,0.00001682,-0.00000940,0.00001344,-0.0
 0000259,0.00000830,0.00000951,0.00002936,0.00031945,0.00041434,-0.0004
 2173,-0.00501659,-0.00035553,0.00006233,-0.00038432,-0.00088117,0.0004
 7750,0.00128919,0.00001325,-0.00000302,-0.00000172,-0.00001419,0.00000
 077,-0.00002176,0.03529557,-0.06443235,-0.30696819,0.00053966,-0.00018
 608,0.00011510,-0.00000081,-0.00000581,0.00000518,0.00000242,0.0000053
 6,0.00000378,-0.00000529,0.00000108,-0.00000353,0.00123060,-0.00466909
 ,-0.01472746,-0.03378458,0.06829313,0.32995688,-0.00013638,0.00004359,
 0.00006604,-0.00007432,0.00003561,-0.00000115,0.00006236,0.00000487,0.
 00021764,0.00010829,-0.00004514,-0.00003624,-0.00002275,0.00000733,-0.
 00002512,-0.00000105,0.00000048,0.00000649,0.00007097,-0.00002254,-0.0
 0001307,0.00000176,-0.00000012,0.00000472,0.00033654,-0.00025904,-0.00
 070513,0.00001199,0.00013340,0.00087691,0.00000147,-0.00000127,0.00000
 283,0.00019169,-0.00027212,-0.00091931,-0.00001180,0.00000013,-0.00000
 901,-0.00015402,0.00017476,0.00127841,0.00029527,-0.00008474,-0.001315
 38,-0.00005528,-0.00004190,0.00001152,-0.00168029,0.00156971,0.0010541
 9,0.00002460,-0.00018428,-0.00001065,0.00208220,-0.00284274,-0.0076452
 4,-0.00214183,-0.00295028,0.00262661,-0.00011450,0.00018656,-0.0000215
 1,-0.00118965,0.00040180,-0.00119126,0.00002055,-0.00001881,-0.0000950
 4,-0.00025332,0.00014778,0.00016707,-0.00006688,0.00002979,0.00007329,
 0.00014515,-0.00004320,-0.00001552,-0.00002523,0.00000301,-0.00001383,
 0.00033376,0.00007635,-0.00015867,-0.03522493,-0.00777304,-0.00316372,
 0.00056488,0.00009120,0.00135378,-0.00006030,0.00011744,-0.00017235,-0
 .00003922,0.00001002,0.00004621,-0.00000147,-0.00000072,0.00005782,-0.
 15672256,-0.11616382,-0.04359934,-0.00002536,-0.00058234,0.00081091,-0
 .00000304,0.00000206,-0.00000908,-0.00000418,0.00000164,-0.00000986,0.
 00000980,-0.00000257,0.00000623,0.00346439,0.00088961,0.00073746,0.004
 00193,0.00307421,0.00061568,0.18628075,-0.00004701,0.00001571,0.000009
 38,-0.00001575,0.00000829,0.00000534,0.00001630,0.00000365,0.00004728,
 0.00001180,-0.00000793,-0.00001226,-0.00000004,0.00000222,-0.00000259,
 0.,-0.00000055,0.00000105,0.00001469,-0.00000532,-0.00000225,-0.000000
 36,-0.00000034,0.00000126,0.00005584,-0.00006588,-0.00015272,-0.000000
 24,0.00002675,0.00018291,0.00000377,-0.00000015,0.00000584,0.00010518,
 0.00000987,-0.00021433,-0.00000086,-0.00001533,-0.00001124,-0.00054241
 ,0.00026540,0.00000773,0.00007859,-0.00015478,0.00038811,0.00001635,0.
 00003515,0.00001484,-0.00001508,-0.00058097,0.00006324,0.00009057,0.00
 005116,-0.00000767,-0.00000757,0.00133466,0.00000430,0.00072609,-0.000
 11272,-0.00037585,-0.00008260,-0.00007567,-0.00011222,0.00022193,-0.00
 015866,0.00038614,0.00000144,-0.00000331,-0.00001960,-0.00003802,0.000
 02820,0.00003280,-0.00000090,0.00000320,0.00001608,0.00005712,-0.00001
 591,-0.00001621,-0.00000743,-0.00000025,-0.00000337,0.00063571,-0.0006
 9423,-0.00037427,0.01256642,0.01564717,0.00513487,-0.00121633,0.000272
 66,0.00014494,-0.00000341,-0.00009872,0.00012696,-0.00001919,0.0000017
 4,0.00002699,-0.00000676,0.00001038,0.00002201,-0.11676014,-0.17329344
 ,-0.04658930,0.00054487,-0.00009451,-0.00002461,-0.00000255,-0.0000019
 3,-0.00000210,-0.00000207,0.00000605,-0.00000388,0.00000323,-0.0000011
 5,0.00000360,-0.01744343,-0.01872911,-0.00843006,-0.00322506,-0.004341
 98,-0.00051883,0.12428731,0.18073060,-0.00005955,0.00001931,0.00003631
 ,-0.00003627,0.00001430,-0.00000601,0.00003239,0.00000775,0.00010742,0
 .00005914,-0.00002383,-0.00001452,-0.00001524,0.00000561,-0.00001429,-
 0.00000089,0.00000043,0.00000344,0.00003592,-0.00001267,-0.00000853,0.
 00000117,0.00000009,0.00000258,0.00013012,-0.00013126,-0.00032341,0.00
 003074,0.00004497,0.00034923,0.00000206,0.00000821,-0.00000909,0.00004
 545,0.00003530,-0.00042152,-0.00001078,-0.00001164,-0.00000100,-0.0011
 5726,0.00057722,-0.00004456,0.00011947,-0.00007863,0.00114904,-0.00000
 276,0.00003048,0.00002122,0.00050095,-0.00063463,-0.00060840,0.0000391
 6,0.00005819,-0.00001969,0.00026596,0.00146835,0.00127283,-0.00017912,
 0.00018766,-0.00030866,-0.00010907,0.00003959,-0.00005365,-0.00026932,
 0.00021293,0.00028331,0.00001220,-0.00000904,-0.00004675,-0.00011271,0
 .00006853,0.00008804,-0.00004095,0.00001670,0.00003587,0.00005763,-0.0
 0001671,0.00000367,-0.00001209,0.00000321,-0.00000781,0.00062891,-0.00
 096781,-0.00094468,0.00377972,0.00244068,0.00167738,-0.00056739,0.0003
 0047,0.00107309,0.00002513,-0.00011938,0.00035578,-0.00001391,0.000004
 35,0.00000760,0.00002953,0.00000777,0.00000164,-0.04438642,-0.04629527
 ,-0.06836393,0.00083482,0.00092005,-0.00140828,0.,0.00000425,-0.000004
 65,-0.00000207,-0.00000395,-0.00000428,0.00000473,-0.00000128,0.000003
 24,0.01233498,0.01357495,0.00474643,-0.02111108,-0.02199295,-0.0060172
 5,0.04911668,0.05024770,0.06741283\\-0.00000411,-0.00000836,-0.0000125
 1,0.00000597,-0.00000217,0.00001151,-0.00000269,0.00000393,-0.00000206
 ,-0.00000925,-0.00000839,-0.00000279,0.00000593,-0.00000321,0.00000203
 ,-0.00000628,-0.00000333,0.00000219,-0.00001224,0.00000345,0.00000008,
 -0.00000155,-0.00000248,0.00000250,0.00002328,-0.00001783,-0.00000405,
 -0.00001427,0.00000383,0.00001078,0.00000163,-0.00000406,0.00000154,-0
 .00000161,-0.00000321,-0.00000841,0.00000357,-0.00000102,-0.00000129,-
 0.00000198,-0.00000248,0.00000940,0.00000295,-0.00000227,-0.00000910,-
 0.00000168,-0.00000414,-0.00000004,-0.00000062,0.00000053,0.00000882,-
 0.00000041,-0.00000308,-0.00000617,0.00000988,-0.00000305,-0.00002136,
 -0.00000926,-0.00000099,-0.00001248,0.00000281,-0.00001161,0.00000617,
 0.00000720,0.00000102,0.00000320,-0.00001941,-0.00000380,-0.00006939,-
 0.00001738,0.00000606,-0.00000422,0.00001374,0.00000038,0.00006777,-0.
 00000738,0.00001440,0.00001239,0.00000240,0.00000405,-0.00000572,0.000
 00271,0.00000636,-0.00000540,0.00000250,0.00002473,0.00001473,-0.00000
 256,0.00000209,0.00001298,0.00000602,0.00000533,0.00000307,0.00000185,
 -0.00000533,-0.00002028,0.00000244,0.00000076,0.00000157,0.00001584,-0
 .00001235,-0.00000323,0.00000508,0.00000219,0.00000129,0.00000115,0.00
 001164,0.00000646,-0.00000284,-0.00000274,0.00000800,-0.00000257,0.000
 00388,0.00000163,0.00000187,0.00000397,-0.00000307,0.00000375,0.000009
 24,0.00000289,-0.00000446,-0.00000196,0.00000056\\\@


 ADAM SMITH SAID, "THE REAL PRICE OF ANYTHING IS THE TOIL AND TROUBLE
 OF ACQUIRING IT."  BUT IN ALL UNDERTAKINGS WITH NATURE WE SHOULD FIRST
 READ CAREFULLY THE SMALL PRINT IN THE CONTRACT. THIS MIGHT DISCLOSE
 THAT THE REAL PRICE IS TO BE PAID BY THOSE WHO INHERIT THE DEPLETION
 AND DESPOILATION THAT FOLLOWS.
                               -- E. R. HARRISON IN "COSMOLOGY" (1980)
 Job cpu time:  1 days 12 hours 24 minutes 29.5 seconds.
 File lengths (MBytes):  RWF=   2397 Int=      0 D2E=      0 Chk=     29 Scr=      1
 Normal termination of Gaussian 09 at Sat Oct 17 12:28:20 2015.
