 Entering Gaussian System, Link 0=g09
 Input=paramethoxyketoform_optS1.com
 Output=paramethoxyketoform_optS1.out
 Initial command:
 /share/apps/gaussian/g09/l1.exe /tmp/3520800.1.serial.q/Gau-26758.inp -scrdir=/tmp/3520800.1.serial.q/
 Entering Link 1 = /share/apps/gaussian/g09/l1.exe PID=     26759.
  
 Copyright (c) 1988,1990,1992,1993,1995,1998,2003,2009,2011,
            Gaussian, Inc.  All Rights Reserved.
  
 This is part of the Gaussian(R) 09 program.  It is based on
 the Gaussian(R) 03 system (copyright 2003, Gaussian, Inc.),
 the Gaussian(R) 98 system (copyright 1998, Gaussian, Inc.),
 the Gaussian(R) 94 system (copyright 1995, Gaussian, Inc.),
 the Gaussian 92(TM) system (copyright 1992, Gaussian, Inc.),
 the Gaussian 90(TM) system (copyright 1990, Gaussian, Inc.),
 the Gaussian 88(TM) system (copyright 1988, Gaussian, Inc.),
 the Gaussian 86(TM) system (copyright 1986, Carnegie Mellon
 University), and the Gaussian 82(TM) system (copyright 1983,
 Carnegie Mellon University). Gaussian is a federally registered
 trademark of Gaussian, Inc.
  
 This software contains proprietary and confidential information,
 including trade secrets, belonging to Gaussian, Inc.
  
 This software is provided under written license and may be
 used, copied, transmitted, or stored only in accord with that
 written license.
  
 The following legend is applicable only to US Government
 contracts under FAR:
  
                    RESTRICTED RIGHTS LEGEND
  
 Use, reproduction and disclosure by the US Government is
 subject to restrictions as set forth in subparagraphs (a)
 and (c) of the Commercial Computer Software - Restricted
 Rights clause in FAR 52.227-19.
  
 Gaussian, Inc.
 340 Quinnipiac St., Bldg. 40, Wallingford CT 06492
  
  
 ---------------------------------------------------------------
 Warning -- This program may not be used in any manner that
 competes with the business of Gaussian, Inc. or will provide
 assistance to any competitor of Gaussian, Inc.  The licensee
 of this program is prohibited from giving any competitor of
 Gaussian, Inc. access to this program.  By using this program,
 the user acknowledges that Gaussian, Inc. is engaged in the
 business of creating and licensing software in the field of
 computational chemistry and represents and warrants to the
 licensee that it is not a competitor of Gaussian, Inc. and that
 it will not use this program in any manner prohibited above.
 ---------------------------------------------------------------
  

 Cite this work as:
 Gaussian 09, Revision C.01,
 M. J. Frisch, G. W. Trucks, H. B. Schlegel, G. E. Scuseria, 
 M. A. Robb, J. R. Cheeseman, G. Scalmani, V. Barone, B. Mennucci, 
 G. A. Petersson, H. Nakatsuji, M. Caricato, X. Li, H. P. Hratchian, 
 A. F. Izmaylov, J. Bloino, G. Zheng, J. L. Sonnenberg, M. Hada, 
 M. Ehara, K. Toyota, R. Fukuda, J. Hasegawa, M. Ishida, T. Nakajima, 
 Y. Honda, O. Kitao, H. Nakai, T. Vreven, J. A. Montgomery, Jr., 
 J. E. Peralta, F. Ogliaro, M. Bearpark, J. J. Heyd, E. Brothers, 
 K. N. Kudin, V. N. Staroverov, T. Keith, R. Kobayashi, J. Normand, 
 K. Raghavachari, A. Rendell, J. C. Burant, S. S. Iyengar, J. Tomasi, 
 M. Cossi, N. Rega, J. M. Millam, M. Klene, J. E. Knox, J. B. Cross, 
 V. Bakken, C. Adamo, J. Jaramillo, R. Gomperts, R. E. Stratmann, 
 O. Yazyev, A. J. Austin, R. Cammi, C. Pomelli, J. W. Ochterski, 
 R. L. Martin, K. Morokuma, V. G. Zakrzewski, G. A. Voth, 
 P. Salvador, J. J. Dannenberg, S. Dapprich, A. D. Daniels, 
 O. Farkas, J. B. Foresman, J. V. Ortiz, J. Cioslowski, 
 and D. J. Fox, Gaussian, Inc., Wallingford CT, 2010.
 
 ******************************************
 Gaussian 09:  EM64L-G09RevC.01 23-Sep-2011
                26-Oct-2015 
 ******************************************
 %chk=paramethoxyketoform_optS1
 %mem=2GB
 %nproc=4
 Will use up to    4 processors via shared memory.
 -------------------------------------------
 #wb97xd opt 6-311++g** td(nstates=1,root=1)
 -------------------------------------------
 1/14=-1,18=20,19=15,26=3,38=1/1,3;
 2/9=110,12=2,17=6,18=5,40=1/2;
 3/5=4,6=6,7=1111,11=2,16=1,25=1,30=1,71=1,74=-58/1,2,8,3;
 4//1;
 5/5=2,38=5/2;
 8/6=1,10=2,107=1,108=1/1;
 9/8=1,15=2,41=1,42=1/14;
 10/5=4/2;
 6/7=2,8=2,9=2,10=2/1;
 7/12=6,13=5,14=1/1,2,3,16;
 1/14=-1,18=20,19=15/3(2);
 2/9=110/2;
 99//99;
 2/9=110/2;
 3/5=4,6=6,7=1111,11=2,16=1,25=1,30=1,71=1,74=-58/1,2,8,3;
 4/5=5,16=3/1;
 5/5=2,38=5/2;
 8/6=1,10=2,107=1,108=1/1;
 9/8=1,15=2,41=1,42=1,49=4/14;
 10/5=4/2;
 7/12=6,13=5,14=1/1,2,3,16;
 1/14=-1,18=20,19=15/3(-8);
 2/9=110/2;
 6/7=2,8=2,9=2,10=2/1;
 99//99;
 ----------------------------------------------------------
 paramethoxy substituent keto form S1 geometry optimization
 ----------------------------------------------------------
 Charge =  0 Multiplicity = 1
 Symbolic Z-Matrix:
 C                     13.12851   6.97704   17.19626 
 C                     12.5594   7.00705   15.96548 
 C                     11.23151   7.41074   15.77535 
 C                     10.49289   7.80689   16.90739 
 C                     11.08815   7.76947   18.16397 
 H                     10.60313   8.02939   18.91384 
 C                     12.38041   7.35386   18.30106 
 H                     12.76529   7.32326   19.14825 
 C                     10.582    7.4576    14.4546 
 C                     11.29324   7.07969   13.2475 
 H                     12.17926   6.80201   13.3022 
 C                     10.68413   7.12653   12.04728 
 H                     9.80683   7.43558   12.05911 
 C                     11.19194   6.76466   10.74144 
 C                     10.35513   6.90692   9.63427 
 H                     9.50429   7.26152   9.76 
 C                     10.73744   6.54502   8.37342 
 H                     10.15059   6.66241   7.66214 
 C                     12.00975   5.99585   8.14209 
 C                     11.54135   5.81233   5.74092 
 H                     11.40582   6.75444   5.62111 
 H                     10.69428   5.38188   5.88394 
 O                     9.38663   7.82426   14.37528 
 O                     9.20534   8.24213   16.83114 
 O                     14.41902   6.59605   17.4953 
 H                     13.06514   6.75241   15.22721 
 C                     12.46218   6.24587   10.50561 
 N                     12.3991   5.5877    6.89569 
 C                     12.86329   5.86674   9.25519 
 H                     11.95789   5.44578   4.95814 
 C                     15.22108   6.12574   16.42388 
 H                     13.05373   6.15383   11.21855 
 C                     13.71571   5.0563    6.65962 
 H                     13.7164   5.51706   9.13727 
 H                     14.80569   5.35551   16.02752 
 H                     15.31012   6.81604   15.76232 
 H                     16.08899   5.88485   16.75443 
 H                     13.86197   4.29886   7.23121 
 H                     13.79067   4.7836    5.74187 
 H                     14.37254   5.73022   6.84763 
 H                     8.89501   8.00115   15.13832 
 

 GradGradGradGradGradGradGradGradGradGradGradGradGradGradGradGradGradGrad
 Berny optimization.
 Initialization pass.
                           ----------------------------
                           !    Initial Parameters    !
                           ! (Angstroms and Degrees)  !
 --------------------------                            --------------------------
 ! Name  Definition              Value          Derivative Info.                !
 --------------------------------------------------------------------------------
 ! R1    R(1,2)                  1.3563         estimate D2E/DX2                !
 ! R2    R(1,7)                  1.3864         estimate D2E/DX2                !
 ! R3    R(1,25)                 1.3784         estimate D2E/DX2                !
 ! R4    R(2,3)                  1.4009         estimate D2E/DX2                !
 ! R5    R(2,26)                 0.9304         estimate D2E/DX2                !
 ! R6    R(3,4)                  1.4085         estimate D2E/DX2                !
 ! R7    R(3,9)                  1.4726         estimate D2E/DX2                !
 ! R8    R(4,5)                  1.3909         estimate D2E/DX2                !
 ! R9    R(4,24)                 1.3613         estimate D2E/DX2                !
 ! R10   R(5,6)                  0.9301         estimate D2E/DX2                !
 ! R11   R(5,7)                  1.3644         estimate D2E/DX2                !
 ! R12   R(7,8)                  0.931          estimate D2E/DX2                !
 ! R13   R(9,10)                 1.4511         estimate D2E/DX2                !
 ! R14   R(9,23)                 1.2529         estimate D2E/DX2                !
 ! R15   R(10,11)                0.9301         estimate D2E/DX2                !
 ! R16   R(10,12)                1.3468         estimate D2E/DX2                !
 ! R17   R(12,13)                0.9302         estimate D2E/DX2                !
 ! R18   R(12,14)                1.4471         estimate D2E/DX2                !
 ! R19   R(14,15)                1.3951         estimate D2E/DX2                !
 ! R20   R(14,27)                1.3922         estimate D2E/DX2                !
 ! R21   R(15,16)                0.9303         estimate D2E/DX2                !
 ! R22   R(15,17)                1.3663         estimate D2E/DX2                !
 ! R23   R(17,18)                0.9296         estimate D2E/DX2                !
 ! R24   R(17,19)                1.4049         estimate D2E/DX2                !
 ! R25   R(19,28)                1.3681         estimate D2E/DX2                !
 ! R26   R(19,29)                1.4086         estimate D2E/DX2                !
 ! R27   R(20,21)                0.9593         estimate D2E/DX2                !
 ! R28   R(20,22)                0.9609         estimate D2E/DX2                !
 ! R29   R(20,28)                1.4559         estimate D2E/DX2                !
 ! R30   R(20,30)                0.9595         estimate D2E/DX2                !
 ! R31   R(23,41)                0.9248         estimate D2E/DX2                !
 ! R32   R(25,31)                1.4186         estimate D2E/DX2                !
 ! R33   R(27,29)                1.3668         estimate D2E/DX2                !
 ! R34   R(27,32)                0.931          estimate D2E/DX2                !
 ! R35   R(28,33)                1.4393         estimate D2E/DX2                !
 ! R36   R(29,34)                0.9295         estimate D2E/DX2                !
 ! R37   R(31,35)                0.9607         estimate D2E/DX2                !
 ! R38   R(31,36)                0.9603         estimate D2E/DX2                !
 ! R39   R(31,37)                0.9595         estimate D2E/DX2                !
 ! R40   R(33,38)                0.9601         estimate D2E/DX2                !
 ! R41   R(33,39)                0.9603         estimate D2E/DX2                !
 ! R42   R(33,40)                0.9597         estimate D2E/DX2                !
 ! A1    A(2,1,7)              119.3853         estimate D2E/DX2                !
 ! A2    A(2,1,25)             126.5715         estimate D2E/DX2                !
 ! A3    A(7,1,25)             114.043          estimate D2E/DX2                !
 ! A4    A(1,2,3)              121.8218         estimate D2E/DX2                !
 ! A5    A(1,2,26)             119.0721         estimate D2E/DX2                !
 ! A6    A(3,2,26)             119.1061         estimate D2E/DX2                !
 ! A7    A(2,3,4)              117.9718         estimate D2E/DX2                !
 ! A8    A(2,3,9)              123.2985         estimate D2E/DX2                !
 ! A9    A(4,3,9)              118.7242         estimate D2E/DX2                !
 ! A10   A(3,4,5)              119.609          estimate D2E/DX2                !
 ! A11   A(3,4,24)             122.7445         estimate D2E/DX2                !
 ! A12   A(5,4,24)             117.6446         estimate D2E/DX2                !
 ! A13   A(4,5,6)              119.8449         estimate D2E/DX2                !
 ! A14   A(4,5,7)              120.2855         estimate D2E/DX2                !
 ! A15   A(6,5,7)              119.8696         estimate D2E/DX2                !
 ! A16   A(1,7,5)              120.9169         estimate D2E/DX2                !
 ! A17   A(1,7,8)              119.5455         estimate D2E/DX2                !
 ! A18   A(5,7,8)              119.5377         estimate D2E/DX2                !
 ! A19   A(3,9,10)             121.4402         estimate D2E/DX2                !
 ! A20   A(3,9,23)             119.1393         estimate D2E/DX2                !
 ! A21   A(10,9,23)            119.419          estimate D2E/DX2                !
 ! A22   A(9,10,11)            119.717          estimate D2E/DX2                !
 ! A23   A(9,10,12)            120.7035         estimate D2E/DX2                !
 ! A24   A(11,10,12)           119.5794         estimate D2E/DX2                !
 ! A25   A(10,12,13)           115.2629         estimate D2E/DX2                !
 ! A26   A(10,12,14)           129.5537         estimate D2E/DX2                !
 ! A27   A(13,12,14)           115.1833         estimate D2E/DX2                !
 ! A28   A(12,14,15)           118.6961         estimate D2E/DX2                !
 ! A29   A(12,14,27)           124.4869         estimate D2E/DX2                !
 ! A30   A(15,14,27)           116.7972         estimate D2E/DX2                !
 ! A31   A(14,15,16)           118.698          estimate D2E/DX2                !
 ! A32   A(14,15,17)           122.5136         estimate D2E/DX2                !
 ! A33   A(16,15,17)           118.7885         estimate D2E/DX2                !
 ! A34   A(15,17,18)           119.736          estimate D2E/DX2                !
 ! A35   A(15,17,19)           120.5883         estimate D2E/DX2                !
 ! A36   A(18,17,19)           119.6756         estimate D2E/DX2                !
 ! A37   A(17,19,28)           121.6242         estimate D2E/DX2                !
 ! A38   A(17,19,29)           117.0298         estimate D2E/DX2                !
 ! A39   A(28,19,29)           121.3407         estimate D2E/DX2                !
 ! A40   A(21,20,22)           109.511          estimate D2E/DX2                !
 ! A41   A(21,20,28)           109.5003         estimate D2E/DX2                !
 ! A42   A(21,20,30)           109.5493         estimate D2E/DX2                !
 ! A43   A(22,20,28)           109.4023         estimate D2E/DX2                !
 ! A44   A(22,20,30)           109.4513         estimate D2E/DX2                !
 ! A45   A(28,20,30)           109.4131         estimate D2E/DX2                !
 ! A46   A(9,23,41)            120.7278         estimate D2E/DX2                !
 ! A47   A(1,25,31)            117.2013         estimate D2E/DX2                !
 ! A48   A(14,27,29)           121.7411         estimate D2E/DX2                !
 ! A49   A(14,27,32)           119.1349         estimate D2E/DX2                !
 ! A50   A(29,27,32)           119.124          estimate D2E/DX2                !
 ! A51   A(19,28,20)           120.591          estimate D2E/DX2                !
 ! A52   A(19,28,33)           121.3261         estimate D2E/DX2                !
 ! A53   A(20,28,33)           117.7621         estimate D2E/DX2                !
 ! A54   A(19,29,27)           121.3102         estimate D2E/DX2                !
 ! A55   A(19,29,34)           119.3652         estimate D2E/DX2                !
 ! A56   A(27,29,34)           119.3245         estimate D2E/DX2                !
 ! A57   A(25,31,35)           109.4477         estimate D2E/DX2                !
 ! A58   A(25,31,36)           109.5378         estimate D2E/DX2                !
 ! A59   A(25,31,37)           109.5407         estimate D2E/DX2                !
 ! A60   A(35,31,36)           109.4026         estimate D2E/DX2                !
 ! A61   A(35,31,37)           109.3891         estimate D2E/DX2                !
 ! A62   A(36,31,37)           109.5092         estimate D2E/DX2                !
 ! A63   A(28,33,38)           109.4495         estimate D2E/DX2                !
 ! A64   A(28,33,39)           109.4502         estimate D2E/DX2                !
 ! A65   A(28,33,40)           109.5537         estimate D2E/DX2                !
 ! A66   A(38,33,39)           109.4524         estimate D2E/DX2                !
 ! A67   A(38,33,40)           109.4576         estimate D2E/DX2                !
 ! A68   A(39,33,40)           109.464          estimate D2E/DX2                !
 ! D1    D(7,1,2,3)              0.063          estimate D2E/DX2                !
 ! D2    D(7,1,2,26)          -179.9357         estimate D2E/DX2                !
 ! D3    D(25,1,2,3)           179.859          estimate D2E/DX2                !
 ! D4    D(25,1,2,26)           -0.1397         estimate D2E/DX2                !
 ! D5    D(2,1,7,5)             -0.8406         estimate D2E/DX2                !
 ! D6    D(2,1,7,8)            179.1877         estimate D2E/DX2                !
 ! D7    D(25,1,7,5)           179.3388         estimate D2E/DX2                !
 ! D8    D(25,1,7,8)            -0.633          estimate D2E/DX2                !
 ! D9    D(2,1,25,31)           -3.2455         estimate D2E/DX2                !
 ! D10   D(7,1,25,31)          176.5599         estimate D2E/DX2                !
 ! D11   D(1,2,3,4)              0.7657         estimate D2E/DX2                !
 ! D12   D(1,2,3,9)            179.9045         estimate D2E/DX2                !
 ! D13   D(26,2,3,4)          -179.2355         estimate D2E/DX2                !
 ! D14   D(26,2,3,9)            -0.0968         estimate D2E/DX2                !
 ! D15   D(2,3,4,5)             -0.8422         estimate D2E/DX2                !
 ! D16   D(2,3,4,24)           178.6393         estimate D2E/DX2                !
 ! D17   D(9,3,4,5)            179.9786         estimate D2E/DX2                !
 ! D18   D(9,3,4,24)            -0.5399         estimate D2E/DX2                !
 ! D19   D(2,3,9,10)             0.0495         estimate D2E/DX2                !
 ! D20   D(2,3,9,23)           179.6036         estimate D2E/DX2                !
 ! D21   D(4,3,9,10)           179.1822         estimate D2E/DX2                !
 ! D22   D(4,3,9,23)            -1.2638         estimate D2E/DX2                !
 ! D23   D(3,4,5,6)           -179.9292         estimate D2E/DX2                !
 ! D24   D(3,4,5,7)              0.105          estimate D2E/DX2                !
 ! D25   D(24,4,5,6)             0.5631         estimate D2E/DX2                !
 ! D26   D(24,4,5,7)          -179.4027         estimate D2E/DX2                !
 ! D27   D(4,5,7,1)              0.7529         estimate D2E/DX2                !
 ! D28   D(4,5,7,8)           -179.2753         estimate D2E/DX2                !
 ! D29   D(6,5,7,1)           -179.2129         estimate D2E/DX2                !
 ! D30   D(6,5,7,8)              0.7589         estimate D2E/DX2                !
 ! D31   D(3,9,10,11)           -0.0855         estimate D2E/DX2                !
 ! D32   D(3,9,10,12)          179.9144         estimate D2E/DX2                !
 ! D33   D(23,9,10,11)        -179.6383         estimate D2E/DX2                !
 ! D34   D(23,9,10,12)           0.3616         estimate D2E/DX2                !
 ! D35   D(3,9,23,41)           -4.7047         estimate D2E/DX2                !
 ! D36   D(10,9,23,41)         174.8585         estimate D2E/DX2                !
 ! D37   D(9,10,12,13)           1.67           estimate D2E/DX2                !
 ! D38   D(9,10,12,14)        -178.2013         estimate D2E/DX2                !
 ! D39   D(11,10,12,13)       -178.3301         estimate D2E/DX2                !
 ! D40   D(11,10,12,14)          1.7986         estimate D2E/DX2                !
 ! D41   D(10,12,14,15)       -179.9086         estimate D2E/DX2                !
 ! D42   D(10,12,14,27)          1.7639         estimate D2E/DX2                !
 ! D43   D(13,12,14,15)          0.22           estimate D2E/DX2                !
 ! D44   D(13,12,14,27)       -178.1074         estimate D2E/DX2                !
 ! D45   D(12,14,15,16)          2.3365         estimate D2E/DX2                !
 ! D46   D(12,14,15,17)       -177.64           estimate D2E/DX2                !
 ! D47   D(27,14,15,16)       -179.2079         estimate D2E/DX2                !
 ! D48   D(27,14,15,17)          0.8156         estimate D2E/DX2                !
 ! D49   D(12,14,27,29)        177.012          estimate D2E/DX2                !
 ! D50   D(12,14,27,32)         -2.9175         estimate D2E/DX2                !
 ! D51   D(15,14,27,29)         -1.3444         estimate D2E/DX2                !
 ! D52   D(15,14,27,32)        178.7261         estimate D2E/DX2                !
 ! D53   D(14,15,17,18)       -179.5645         estimate D2E/DX2                !
 ! D54   D(14,15,17,19)          0.4832         estimate D2E/DX2                !
 ! D55   D(16,15,17,18)          0.4591         estimate D2E/DX2                !
 ! D56   D(16,15,17,19)       -179.4932         estimate D2E/DX2                !
 ! D57   D(15,17,19,28)        177.9329         estimate D2E/DX2                !
 ! D58   D(15,17,19,29)         -1.2443         estimate D2E/DX2                !
 ! D59   D(18,17,19,28)         -2.0195         estimate D2E/DX2                !
 ! D60   D(18,17,19,29)        178.8034         estimate D2E/DX2                !
 ! D61   D(17,19,28,20)          5.1075         estimate D2E/DX2                !
 ! D62   D(17,19,28,33)        178.4575         estimate D2E/DX2                !
 ! D63   D(29,19,28,20)       -175.7507         estimate D2E/DX2                !
 ! D64   D(29,19,28,33)         -2.4007         estimate D2E/DX2                !
 ! D65   D(17,19,29,27)          0.7265         estimate D2E/DX2                !
 ! D66   D(17,19,29,34)       -179.2533         estimate D2E/DX2                !
 ! D67   D(28,19,29,27)       -178.4532         estimate D2E/DX2                !
 ! D68   D(28,19,29,34)          1.567          estimate D2E/DX2                !
 ! D69   D(21,20,28,19)         61.3313         estimate D2E/DX2                !
 ! D70   D(21,20,28,33)       -112.2502         estimate D2E/DX2                !
 ! D71   D(22,20,28,19)        -58.6929         estimate D2E/DX2                !
 ! D72   D(22,20,28,33)        127.7256         estimate D2E/DX2                !
 ! D73   D(30,20,28,19)       -178.5909         estimate D2E/DX2                !
 ! D74   D(30,20,28,33)          7.8276         estimate D2E/DX2                !
 ! D75   D(1,25,31,35)         -59.558          estimate D2E/DX2                !
 ! D76   D(1,25,31,36)          60.3844         estimate D2E/DX2                !
 ! D77   D(1,25,31,37)        -179.4855         estimate D2E/DX2                !
 ! D78   D(14,27,29,19)          0.5855         estimate D2E/DX2                !
 ! D79   D(14,27,29,34)       -179.4347         estimate D2E/DX2                !
 ! D80   D(32,27,29,19)       -179.4849         estimate D2E/DX2                !
 ! D81   D(32,27,29,34)          0.4949         estimate D2E/DX2                !
 ! D82   D(19,28,33,38)         57.162          estimate D2E/DX2                !
 ! D83   D(19,28,33,39)        177.1127         estimate D2E/DX2                !
 ! D84   D(19,28,33,40)        -62.8586         estimate D2E/DX2                !
 ! D85   D(20,28,33,38)       -129.3064         estimate D2E/DX2                !
 ! D86   D(20,28,33,39)         -9.3556         estimate D2E/DX2                !
 ! D87   D(20,28,33,40)        110.6731         estimate D2E/DX2                !
 --------------------------------------------------------------------------------
 Trust Radius=3.00D-01 FncErr=1.00D-07 GrdErr=1.00D-06
 Number of steps in this run=    207 maximum allowed number of steps=    246.
 GradGradGradGradGradGradGradGradGradGradGradGradGradGradGradGradGradGrad

                          Input orientation:                          
 ---------------------------------------------------------------------
 Center     Atomic      Atomic             Coordinates (Angstroms)
 Number     Number       Type             X           Y           Z
 ---------------------------------------------------------------------
      1          6           0       13.128510    6.977040   17.196260
      2          6           0       12.559400    7.007050   15.965480
      3          6           0       11.231510    7.410740   15.775350
      4          6           0       10.492890    7.806890   16.907390
      5          6           0       11.088150    7.769470   18.163970
      6          1           0       10.603130    8.029390   18.913840
      7          6           0       12.380410    7.353860   18.301060
      8          1           0       12.765290    7.323260   19.148250
      9          6           0       10.582000    7.457600   14.454600
     10          6           0       11.293240    7.079690   13.247500
     11          1           0       12.179260    6.802010   13.302200
     12          6           0       10.684130    7.126530   12.047280
     13          1           0        9.806830    7.435580   12.059110
     14          6           0       11.191940    6.764660   10.741440
     15          6           0       10.355130    6.906920    9.634270
     16          1           0        9.504290    7.261520    9.760000
     17          6           0       10.737440    6.545020    8.373420
     18          1           0       10.150590    6.662410    7.662140
     19          6           0       12.009750    5.995850    8.142090
     20          6           0       11.541350    5.812330    5.740920
     21          1           0       11.405820    6.754440    5.621110
     22          1           0       10.694280    5.381880    5.883940
     23          8           0        9.386630    7.824260   14.375280
     24          8           0        9.205340    8.242130   16.831140
     25          8           0       14.419020    6.596050   17.495300
     26          1           0       13.065140    6.752410   15.227210
     27          6           0       12.462180    6.245870   10.505610
     28          7           0       12.399100    5.587700    6.895690
     29          6           0       12.863290    5.866740    9.255190
     30          1           0       11.957890    5.445780    4.958140
     31          6           0       15.221080    6.125740   16.423880
     32          1           0       13.053730    6.153830   11.218550
     33          6           0       13.715710    5.056300    6.659620
     34          1           0       13.716400    5.517060    9.137270
     35          1           0       14.805690    5.355510   16.027520
     36          1           0       15.310120    6.816040   15.762320
     37          1           0       16.088990    5.884850   16.754430
     38          1           0       13.861970    4.298860    7.231210
     39          1           0       13.790670    4.783600    5.741870
     40          1           0       14.372540    5.730220    6.847630
     41          1           0        8.895010    8.001150   15.138320
 ---------------------------------------------------------------------
                    Distance matrix (angstroms):
                    1          2          3          4          5
     1  C    0.000000
     2  C    1.356321   0.000000
     3  C    2.409500   1.400859   0.000000
     4  C    2.778235   2.407779   1.408549   0.000000
     5  C    2.393215   2.753038   2.419658   1.390945   0.000000
     6  H    3.230335   3.683069   3.260017   2.021757   0.930112
     7  C    1.386445   2.367963   2.775323   2.389620   1.364354
     8  H    2.015456   3.205059   3.706290   3.227871   1.995171
     9  C    3.772579   2.529005   1.472562   2.479138   3.756711
    10  C    4.355624   2.999309   2.550182   3.816304   4.968857
    11  H    4.011909   2.698075   2.717582   4.105000   5.075757
    12  C    5.701696   4.345481   3.778744   4.911225   6.163643
    13  H    6.134666   4.797917   3.980046   4.910638   6.246806
    14  C    6.742411   5.405487   5.075356   6.292365   7.490952
    15  C    8.054828   6.704704   6.223724   7.329884   8.604481
    16  H    8.277310   6.921447   6.260191   7.236017   8.566991
    17  C    9.151304   7.821278   7.468744   8.630224   9.873051
    18  H    9.993320   8.652549   8.219037   9.322106  10.601558
    19  C    9.175639   7.907596   7.802194   9.078062  10.219254
    20  C   11.623272  10.344342  10.165663  11.391558  12.584433
    21  H   11.704756  10.411558  10.176920  11.371948  12.587873
    22  H   11.680693  10.380621  10.111621  11.288830  12.516184
    23  O    4.762077   3.641845   2.352611   2.763276   4.153594
    24  O    4.138240   3.677568   2.431310   1.361262   2.354743
    25  O    1.378403   2.442838   3.712434   4.150454   3.594263
    26  H    1.982834   0.930407   2.023871   3.248292   3.683403
    27  C    6.763387   5.513531   5.535488   6.877330   7.928417
    28  N   10.419407   9.181576   9.139754  10.430368  11.552179
    29  C    8.022699   6.813270   6.896313   8.242520   9.281049
    30  H   12.388975  11.133773  11.018200  12.268074  13.436887
    31  C    2.387495   2.841017   4.241283   5.041411   4.776073
    32  H    6.034591   4.848267   5.066037   6.453945   7.396800
    33  C   10.726361   9.578179   9.737103  11.089144  12.108486
    34  H    8.211241   7.084008   7.336539   8.718320   9.667593
    35  H    2.609261   2.788773   4.130656   5.038222   4.920541
    36  H    2.615631   2.764818   4.121759   5.049621   4.949948
    37  H    3.186304   3.786790   5.184790   5.918950   5.526934
    38  H   10.344701   9.236799   9.466015  10.829840  11.801036
    39  H   11.681296  10.534797  10.682785  12.028486  13.058622
    40  H   10.497443   9.383654   9.612201  10.980119  11.958483
    41  H    4.817306   3.885895   2.492714   2.391770   3.744075
                    6          7          8          9         10
     6  H    0.000000
     7  C    1.997640   0.000000
     8  H    2.286592   0.931021   0.000000
     9  C    4.495799   4.247387   5.178335   0.000000
    10  C    5.786674   5.176444   6.086469   1.451127   0.000000
    11  H    5.956606   5.033250   5.898426   2.075828   0.930123
    12  C    6.926136   6.483734   7.402277   2.432124   1.346751
    13  H    6.926329   6.752180   7.682513   2.517885   1.936064
    14  C    8.290619   7.675120   8.570993   3.826193   2.527814
    15  C    9.350501   8.911496   9.823341   4.856985   3.737022
    16  H    9.251479   9.012785   9.938670   4.820703   3.923781
    17  C   10.645273  10.095128  10.991578   6.151237   4.934718
    18  H   11.343464  10.892053  11.798479   6.852442   5.716294
    19  C   11.051899  10.256035  11.111634   6.634980   5.268141
    20  C   13.391095  12.682171  13.547599   8.919388   7.616857
    21  H   13.377835  12.731467  13.607176   8.899644   7.634153
    22  H   13.296462  12.685291  13.564658   8.819151   7.580457
    23  O    4.703241   4.959410   5.869207   1.252853   2.336971
    24  O    2.517283   3.609814   4.345868   2.856330   4.307327
    25  O    4.315986   2.319365   2.448653   4.971001   5.296056
    26  H    4.613395   3.206112   3.973705   2.694476   2.676937
    27  C    8.794052   7.874222   8.714808   4.538490   3.095099
    28  N   12.394486  11.541323  12.380286   7.995968   6.617738
    29  C   10.152581   9.180003  10.000185   5.896523   4.458121
    30  H   14.257348  13.485281  14.336528   9.804246   8.474958
    31  C    5.581151   3.619598   3.858387   5.212771   5.140753
    32  H    8.290998   7.214941   8.020655   4.275662   2.841334
    33  C   12.988199  11.940893  12.728248   8.737740   7.304973
    34  H   10.563407   9.441067  10.216980   6.470252   5.020708
    35  H    5.756908   3.878707   4.215949   4.973170   4.799856
    36  H    5.793104   3.913777   4.265906   4.947408   4.746489
    37  H    6.273497   4.278273   4.341242   6.171685   6.060150
    38  H   12.689395  11.578844  12.343644   8.538923   7.108244
    39  H   13.935435  12.896834  13.683285   9.662169   8.236727
    40  H   12.848660  11.738222  12.507049   8.672833   7.229211
    41  H    4.144035   4.750781   5.614102   1.899699   3.189952
                   11         12         13         14         15
    11  H    0.000000
    12  C    1.978775   0.000000
    13  H    2.752291   0.930219   0.000000
    14  C    2.744756   1.447079   2.026060   0.000000
    15  C    4.097825   2.445217   2.541646   1.395104   0.000000
    16  H    4.462488   2.577187   2.325454   2.014512   0.930311
    17  C    5.141766   3.719979   3.904285   2.421225   1.366336
    18  H    5.995437   4.441793   4.477645   3.252223   1.997728
    19  C    5.225453   4.276238   4.718975   2.831343   2.407160
    20  C    7.652408   6.498625   6.750039   5.102374   4.214667
    21  H    7.720079   6.477264   6.668475   5.124805   4.151223
    22  H    7.697566   6.405518   6.567951   5.074944   4.062726
    23  O    3.161531   2.754980   2.385851   4.193649   4.925107
    24  O    4.834414   5.129980   4.876944   6.573731   7.409436
    25  O    4.758259   6.626593   7.178389   7.487129   8.854809
    26  H    2.119648   3.990129   4.595668   4.861189   6.216832
    27  C    2.865354   2.512722   3.298432   1.392217   2.374001
    28  N    6.524281   5.643403   6.065924   4.199079   3.663055
    29  C    4.209622   3.759199   4.434543   2.410106   2.741631
    30  H    8.456459   7.396167   7.681806   5.981027   5.154606
    31  C    4.410770   6.382799   7.076793   6.995163   8.389667
    32  H    2.350837   2.692200   3.590513   2.016683   3.218622
    33  C    7.037901   6.519449   7.077769   5.094032   4.854568
    34  H    4.621746   4.500357   5.244293   3.240797   3.671084
    35  H    4.051897   5.997173   6.712941   6.556488   7.942796
    36  H    3.981793   5.941188   6.662116   6.493942   7.881192
    37  H    5.295759   7.274032   7.994769   7.804564   9.198829
    38  H    6.778952   6.425645   7.042144   5.052816   4.987444
    39  H    7.989319   7.409326   7.925371   5.972746   5.609118
    40  H    6.900774   6.526133   7.135369   5.133034   5.028873
    41  H    3.949123   3.677015   3.260800   5.112470   5.798608
                   16         17         18         19         20
    16  H    0.000000
    17  C    1.989129   0.000000
    18  H    2.275446   0.929566   0.000000
    19  C    3.239889   1.404946   2.032518   0.000000
    20  C    4.733156   2.848361   2.519511   2.453303   0.000000
    21  H    4.582942   2.840035   2.397890   2.701024   0.959320
    22  H    4.469112   2.748139   2.257731   2.684523   0.960869
    23  O    4.650949   6.283587   6.855638   7.005462   9.123752
    24  O    7.145067   8.761309   9.351982   9.402663  11.591111
    25  O    9.188704   9.836937  10.719838   9.677157  12.126857
    26  H    6.544405   7.241245   8.107588   7.203135   9.653776
    27  C    3.215057   2.758705   3.688126   2.419386   4.872182
    28  N    4.402939   2.421004   2.607344   1.368098   1.455915
    29  C    3.671938   2.399337   3.244941   1.408613   3.755074
    30  H    5.689897   3.789718   3.472483   3.231533   0.959484
    31  C    8.853190   9.224355  10.137355   8.883555  11.303286
    32  H    3.994104   3.689579   4.618975   3.252608   5.692833
    33  C    5.675510   3.744795   4.036671   2.447605   2.478595
    34  H    4.601392   3.242587   4.025275   2.032800   4.043911
    35  H    8.427308   8.749334   9.662170   8.390907  10.801793
    36  H    8.362653   8.693601   9.605065   8.344643  10.753582
    37  H    9.704409   9.965753  10.887559   9.530211  11.915691
    38  H    5.844785   4.014046   4.421132   2.672115   3.145923
    39  H    6.376403   4.398849   4.524107   3.225257   2.473404
    40  H    5.875937   4.025654   4.399689   2.707206   3.040919
    41  H    5.463021   7.160917   7.698180   7.916443  10.005257
                   21         22         23         24         25
    21  H    0.000000
    22  H    1.568212   0.000000
    23  O    9.047493   8.931854   0.000000
    24  O   11.520421  11.412237   2.497745   0.000000
    25  O   12.251565  12.254451   6.047146   5.507554   0.000000
    26  H    9.748359   9.736325   3.925058   4.437332   2.646067
    27  C    5.023234   5.023125   5.188899   7.389478   7.266885
    28  N    1.993098   1.993091   8.367882  10.768439  10.837370
    29  C    4.014818   4.037948   6.491099   8.741744   8.417339
    30  H    1.567451   1.567769  10.047441  12.504569  12.828120
    31  C   11.473941  11.495024   6.412686   6.390156   1.418602
    32  H    5.865806   5.883959   5.118877   7.118446   6.438724
    33  C    3.049225   3.136355   9.270056  11.573797  10.967107
    34  H    4.385575   4.442481   7.176826   9.325841   8.456628
    35  H   11.036734  10.945163   6.179873   6.351559   1.960314
    36  H   10.866991  10.997508   6.166695   6.359595   1.961039
    37  H   12.109463  12.145922   7.371791   7.276489   1.960483
    38  H    3.828181   3.608646   9.137552  11.375071  10.532755
    39  H    3.096176   3.156858  10.157606  12.488338  11.908943
    40  H    3.369689   3.818329   9.268755  11.518686  10.682916
    41  H    9.921479   9.784758   0.924776   1.737819   6.168010
                   26         27         28         29         30
    26  H    0.000000
    27  C    4.786820   0.000000
    28  N    8.438862   3.669971   0.000000
    29  C    6.040710   1.366813   2.420863   0.000000
    30  H   10.410912   5.627511   1.992212   4.411530   0.000000
    31  C    2.544172   6.530841   9.951857   7.550919  11.940433
    32  H    4.053120   0.930960   4.408646   1.993357   6.394915
    33  C    8.758061   4.216403   1.439297   2.849634   2.477228
    34  H    6.248008   1.994138   2.600952   0.929504   4.534597
    35  H    2.370937   6.064344   9.446476   7.063903  11.430192
    36  H    2.308750   6.005735   9.412756   7.016473  11.394971
    37  H    3.496960   7.234075  10.530828   8.163582  12.506447
    38  H    8.401837   4.058566   1.978300   2.748109   3.179276
    39  H    9.714643   5.157164   1.978470   3.791654   2.100428
    40  H    8.542337   4.158869   1.979163   2.844788   3.079223
    41  H    4.353991   6.104729   9.276009   7.410410  10.933765
                   31         32         33         34         35
    31  C    0.000000
    32  H    5.638586   0.000000
    33  C    9.937334   4.735677   0.000000
    34  H    7.465202   2.275156   2.520129   0.000000
    35  H    0.960679   5.180045   9.435843   6.977693   0.000000
    36  H    0.960262   5.116216   9.407336   6.936756   1.567778
    37  H    0.959458   6.319108  10.403083   7.986587   1.566990
    38  H    9.470473   4.471358   0.960116   2.266774   8.909668
    39  H   10.860605   5.693385   0.960338   3.474510  10.351422
    40  H    9.621903   4.585155   0.959657   2.391319   9.197739
    41  H    6.722276   6.006009  10.188211   8.088826   6.536530
                   36         37         38         39         40
    36  H    0.000000
    37  H    1.567812   0.000000
    38  H    9.011835   9.907911   0.000000
    39  H   10.336777  11.303606   1.567862   0.000000
    40  H    9.029383  10.055585   1.567357   1.567599   0.000000
    41  H    6.553434   7.670977  10.044901  11.073093  10.192939
                   41
    41  H    0.000000
 Stoichiometry    C18H19NO3
 Framework group  C1[X(C18H19NO3)]
 Deg. of freedom   117
 Full point group                 C1      NOp   1
 Largest Abelian subgroup         C1      NOp   1
 Largest concise Abelian subgroup C1      NOp   1
                         Standard orientation:                         
 ---------------------------------------------------------------------
 Center     Atomic      Atomic             Coordinates (Angstroms)
 Number     Number       Type             X           Y           Z
 ---------------------------------------------------------------------
      1          6           0        4.386365    1.413186    0.015344
      2          6           0        3.178526    0.796254    0.026535
      3          6           0        3.061510   -0.599222   -0.010344
      4          6           0        4.245908   -1.360871   -0.043523
      5          6           0        5.477936   -0.715376   -0.056563
      6          1           0        6.262081   -1.215077   -0.079459
      7          6           0        5.540996    0.647352   -0.035211
      8          1           0        6.370950    1.068785   -0.054465
      9          6           0        1.767881   -1.302643    0.002481
     10          6           0        0.512238   -0.577063    0.054083
     11          1           0        0.517725    0.352654    0.080998
     12          6           0       -0.662551   -1.235487    0.063455
     13          1           0       -0.597611   -2.163427    0.059414
     14          6           0       -2.011836   -0.712704    0.076385
     15          6           0       -3.078529   -1.611805    0.086337
     16          1           0       -2.894334   -2.523160    0.117668
     17          6           0       -4.382384   -1.204849    0.051364
     18          1           0       -5.063369   -1.837421    0.065690
     19          6           0       -4.703494    0.161660   -0.007092
     20          6           0       -7.101267   -0.357285    0.001611
     21          1           0       -7.076786   -0.799653    0.852496
     22          1           0       -7.018240   -1.007721   -0.700748
     23          8           0        1.753819   -2.554679   -0.040498
     24          8           0        4.245913   -2.722096   -0.053490
     25          8           0        4.614750    2.772196    0.045812
     26          1           0        2.406486    1.314441    0.059605
     27          6           0       -2.332803    0.641674    0.046218
     28          7           0       -6.000084    0.591186   -0.084905
     29          6           0       -3.629086    1.072588   -0.000057
     30          1           0       -7.933481    0.110753   -0.093091
     31          6           0        3.478625    3.621374    0.022357
     32          1           0       -1.646395    1.270496    0.056872
     33          6           0       -6.323541    1.993416   -0.111435
     34          1           0       -3.804837    1.984924   -0.027136
     35          1           0        2.973971    3.458402   -0.778685
     36          1           0        2.927912    3.442209    0.788333
     37          1           0        3.762487    4.537726    0.039091
     38          1           0       -5.873678    2.411369   -0.849515
     39          1           0       -7.272439    2.100843   -0.212935
     40          1           0       -6.041203    2.403742    0.708845
     41          1           0        2.538528   -3.032740   -0.144895
 ---------------------------------------------------------------------
 Rotational constants (GHZ):      0.5990912      0.0968760      0.0835173
 Standard basis: 6-311++G(d,p) (5D, 7F)
 There are   617 symmetry adapted basis functions of A   symmetry.
 Integral buffers will be    131072 words long.
 Raffenetti 2 integral format.
 Two-electron integral symmetry is turned on.
   617 basis functions,   963 primitive gaussians,   639 cartesian basis functions
    79 alpha electrons       79 beta electrons
       nuclear repulsion energy      1633.0231238585 Hartrees.
 NAtoms=   41 NActive=   41 NUniq=   41 SFac= 1.00D+00 NAtFMM=   60 NAOKFM=F Big=F
 Nuclear repulsion after empirical dispersion term =     1632.9969932068 Hartrees.
 One-electron integrals computed using PRISM.
 NBasis=   617 RedAO= T  NBF=   617
 NBsUse=   609 1.00D-06 NBFU=   609
 Harris functional with IExCor= 4639 diagonalized for initial guess.
 ExpMin= 3.60D-02 ExpMax= 8.59D+03 ExpMxC= 1.30D+03 IAcc=3 IRadAn=         5 AccDes= 0.00D+00
 HarFok:  IExCor= 4639 AccDes= 0.00D+00 IRadAn=         5 IDoV= 1
 ScaDFX=  1.000000  1.000000  1.000000  1.000000
 FoFCou: FMM=F IPFlag=           0 FMFlag=      100000 FMFlg1=           0
         NFxFlg=           0 DoJE=T BraDBF=F KetDBF=T FulRan=T
         Omega=  0.000000  0.000000  1.000000  0.000000  0.000000 ICntrl=     500 IOpCl=  0
         NMat0=    1 NMatS0=    1 NMatT0=    0 NMatD0=    1 NMtDS0=    0 NMtDT0=    0
         I1Cent=           4 NGrid=           0.
 Petite list used in FoFCou.
 Initial guess orbital symmetries:
       Occupied  (A) (A) (A) (A) (A) (A) (A) (A) (A) (A) (A) (A)
                 (A) (A) (A) (A) (A) (A) (A) (A) (A) (A) (A) (A)
                 (A) (A) (A) (A) (A) (A) (A) (A) (A) (A) (A) (A)
                 (A) (A) (A) (A) (A) (A) (A) (A) (A) (A) (A) (A)
                 (A) (A) (A) (A) (A) (A) (A) (A) (A) (A) (A) (A)
                 (A) (A) (A) (A) (A) (A) (A) (A) (A) (A) (A) (A)
                 (A) (A) (A) (A) (A) (A) (A)
       Virtual   (A) (A) (A) (A) (A) (A) (A) (A) (A) (A) (A) (A)
                 (A) (A) (A) (A) (A) (A) (A) (A) (A) (A) (A) (A)
                 (A) (A) (A) (A) (A) (A) (A) (A) (A) (A) (A) (A)
                 (A) (A) (A) (A) (A) (A) (A) (A) (A) (A) (A) (A)
                 (A) (A) (A) (A) (A) (A) (A) (A) (A) (A) (A) (A)
                 (A) (A) (A) (A) (A) (A) (A) (A) (A) (A) (A) (A)
                 (A) (A) (A) (A) (A) (A) (A) (A) (A) (A) (A) (A)
                 (A) (A) (A) (A) (A) (A) (A) (A) (A) (A) (A) (A)
                 (A) (A) (A) (A) (A) (A) (A) (A) (A) (A) (A) (A)
                 (A) (A) (A) (A) (A) (A) (A) (A) (A) (A) (A) (A)
                 (A) (A) (A) (A) (A) (A) (A) (A) (A) (A) (A) (A)
                 (A) (A) (A) (A) (A) (A) (A) (A) (A) (A) (A) (A)
                 (A) (A) (A) (A) (A) (A) (A) (A) (A) (A) (A) (A)
                 (A) (A) (A) (A) (A) (A) (A) (A) (A) (A) (A) (A)
                 (A) (A) (A) (A) (A) (A) (A) (A) (A) (A) (A) (A)
                 (A) (A) (A) (A) (A) (A) (A) (A) (A) (A) (A) (A)
                 (A) (A) (A) (A) (A) (A) (A) (A) (A) (A) (A) (A)
                 (A) (A) (A) (A) (A) (A) (A) (A) (A) (A) (A) (A)
                 (A) (A) (A) (A) (A) (A) (A) (A) (A) (A) (A) (A)
                 (A) (A) (A) (A) (A) (A) (A) (A) (A) (A) (A) (A)
                 (A) (A) (A) (A) (A) (A) (A) (A) (A) (A) (A) (A)
                 (A) (A) (A) (A) (A) (A) (A) (A) (A) (A) (A) (A)
                 (A) (A) (A) (A) (A) (A) (A) (A) (A) (A) (A) (A)
                 (A) (A) (A) (A) (A) (A) (A) (A) (A) (A) (A) (A)
                 (A) (A) (A) (A) (A) (A) (A) (A) (A) (A) (A) (A)
                 (A) (A) (A) (A) (A) (A) (A) (A) (A) (A) (A) (A)
                 (A) (A) (A) (A) (A) (A) (A) (A) (A) (A) (A) (A)
                 (A) (A) (A) (A) (A) (A) (A) (A) (A) (A) (A) (A)
                 (A) (A) (A) (A) (A) (A) (A) (A) (A) (A) (A) (A)
                 (A) (A) (A) (A) (A) (A) (A) (A) (A) (A) (A) (A)
                 (A) (A) (A) (A) (A) (A) (A) (A) (A) (A) (A) (A)
                 (A) (A) (A) (A) (A) (A) (A) (A) (A) (A) (A) (A)
                 (A) (A) (A) (A) (A) (A) (A) (A) (A) (A) (A) (A)
                 (A) (A) (A) (A) (A) (A) (A) (A) (A) (A) (A) (A)
                 (A) (A) (A) (A) (A) (A) (A) (A) (A) (A) (A) (A)
                 (A) (A) (A) (A) (A) (A) (A) (A) (A) (A) (A) (A)
                 (A) (A) (A) (A) (A) (A) (A) (A) (A) (A) (A) (A)
                 (A) (A) (A) (A) (A) (A) (A) (A) (A) (A) (A) (A)
                 (A) (A) (A) (A) (A) (A) (A) (A) (A) (A) (A) (A)
                 (A) (A) (A) (A) (A) (A) (A) (A) (A) (A) (A) (A)
                 (A) (A) (A) (A) (A) (A) (A) (A) (A) (A) (A) (A)
                 (A) (A) (A) (A) (A) (A) (A) (A) (A) (A) (A) (A)
                 (A) (A) (A) (A) (A) (A) (A) (A) (A) (A) (A) (A)
                 (A) (A) (A) (A) (A) (A) (A) (A) (A) (A) (A) (A)
                 (A) (A)
 The electronic state of the initial guess is 1-A.
 Requested convergence on RMS density matrix=1.00D-08 within 128 cycles.
 Requested convergence on MAX density matrix=1.00D-06.
 Requested convergence on             energy=1.00D-06.
 No special actions if energy rises.
 FoFJK:  IHMeth= 1 ICntrl=     0 DoSepK=T KAlg= 1 I1Cent= 0 FoldK=F
 FoFJK:  IHMeth= 1 ICntrl=     0 DoSepK=T KAlg= 1 I1Cent= 0 FoldK=F
 FoFJK:  IHMeth= 1 ICntrl=     0 DoSepK=T KAlg= 1 I1Cent= 0 FoldK=F
 FoFJK:  IHMeth= 1 ICntrl=     0 DoSepK=T KAlg= 1 I1Cent= 0 FoldK=F
 FoFJK:  IHMeth= 1 ICntrl=     0 DoSepK=T KAlg= 1 I1Cent= 0 FoldK=F
 FoFJK:  IHMeth= 1 ICntrl=     0 DoSepK=T KAlg= 1 I1Cent= 0 FoldK=F
 FoFJK:  IHMeth= 1 ICntrl=     0 DoSepK=T KAlg= 1 I1Cent= 0 FoldK=F
 FoFJK:  IHMeth= 1 ICntrl=     0 DoSepK=T KAlg= 1 I1Cent= 0 FoldK=F
 FoFJK:  IHMeth= 1 ICntrl=     0 DoSepK=T KAlg= 1 I1Cent= 0 FoldK=F
 FoFJK:  IHMeth= 1 ICntrl=     0 DoSepK=T KAlg= 1 I1Cent= 0 FoldK=F
 FoFJK:  IHMeth= 1 ICntrl=     0 DoSepK=T KAlg= 1 I1Cent= 0 FoldK=F
 FoFJK:  IHMeth= 1 ICntrl=     0 DoSepK=T KAlg= 1 I1Cent= 0 FoldK=F
 FoFJK:  IHMeth= 1 ICntrl=     0 DoSepK=T KAlg= 1 I1Cent= 0 FoldK=F
 FoFJK:  IHMeth= 1 ICntrl=     0 DoSepK=T KAlg= 1 I1Cent= 0 FoldK=F
 FoFJK:  IHMeth= 1 ICntrl=     0 DoSepK=T KAlg= 1 I1Cent= 0 FoldK=F
 FoFJK:  IHMeth= 1 ICntrl=     0 DoSepK=T KAlg= 1 I1Cent= 0 FoldK=F
 FoFJK:  IHMeth= 1 ICntrl=     0 DoSepK=T KAlg= 1 I1Cent= 0 FoldK=F
 SCF Done:  E(RwB97XD) =  -977.324349638     A.U. after   17 cycles
             Convg  =    0.5714D-08             -V/T =  1.9989
 ExpMin= 3.60D-02 ExpMax= 8.59D+03 ExpMxC= 1.30D+03 IAcc=3 IRadAn=         5 AccDes= 0.00D+00
 HarFok:  IExCor=  205 AccDes= 0.00D+00 IRadAn=         5 IDoV=-2
 ScaDFX=  1.000000  1.000000  1.000000  1.000000
 Range of M.O.s used for correlation:    23   609
 NBasis=   617 NAE=    79 NBE=    79 NFC=    22 NFV=     0
 NROrb=    587 NOA=    57 NOB=    57 NVA=   530 NVB=   530

 **** Warning!!: The largest alpha MO coefficient is  0.12702809D+03

 Would need an additional 62646500000 words for in-memory AO integral storage.
 Orbital symmetries:
       Occupied  (A) (A) (A) (A) (A) (A) (A) (A) (A) (A) (A) (A)
                 (A) (A) (A) (A) (A) (A) (A) (A) (A) (A) (A) (A)
                 (A) (A) (A) (A) (A) (A) (A) (A) (A) (A) (A) (A)
                 (A) (A) (A) (A) (A) (A) (A) (A) (A) (A) (A) (A)
                 (A) (A) (A) (A) (A) (A) (A) (A) (A) (A) (A) (A)
                 (A) (A) (A) (A) (A) (A) (A) (A) (A) (A) (A) (A)
                 (A) (A) (A) (A) (A) (A) (A)
       Virtual   (A) (A) (A) (A) (A) (A) (A) (A) (A) (A) (A) (A)
                 (A) (A) (A) (A) (A) (A) (A) (A) (A) (A) (A) (A)
                 (A) (A) (A) (A) (A) (A) (A) (A) (A) (A) (A) (A)
                 (A) (A) (A) (A) (A) (A) (A) (A) (A) (A) (A) (A)
                 (A) (A) (A) (A) (A) (A) (A) (A) (A) (A) (A) (A)
                 (A) (A) (A) (A) (A) (A) (A) (A) (A) (A) (A) (A)
                 (A) (A) (A) (A) (A) (A) (A) (A) (A) (A) (A) (A)
                 (A) (A) (A) (A) (A) (A) (A) (A) (A) (A) (A) (A)
                 (A) (A) (A) (A) (A) (A) (A) (A) (A) (A) (A) (A)
                 (A) (A) (A) (A) (A) (A) (A) (A) (A) (A) (A) (A)
                 (A) (A) (A) (A) (A) (A) (A) (A) (A) (A) (A) (A)
                 (A) (A) (A) (A) (A) (A) (A) (A) (A) (A) (A) (A)
                 (A) (A) (A) (A) (A) (A) (A) (A) (A) (A) (A) (A)
                 (A) (A) (A) (A) (A) (A) (A) (A) (A) (A) (A) (A)
                 (A) (A) (A) (A) (A) (A) (A) (A) (A) (A) (A) (A)
                 (A) (A) (A) (A) (A) (A) (A) (A) (A) (A) (A) (A)
                 (A) (A) (A) (A) (A) (A) (A) (A) (A) (A) (A) (A)
                 (A) (A) (A) (A) (A) (A) (A) (A) (A) (A) (A) (A)
                 (A) (A) (A) (A) (A) (A) (A) (A) (A) (A) (A) (A)
                 (A) (A) (A) (A) (A) (A) (A) (A) (A) (A) (A) (A)
                 (A) (A) (A) (A) (A) (A) (A) (A) (A) (A) (A) (A)
                 (A) (A) (A) (A) (A) (A) (A) (A) (A) (A) (A) (A)
                 (A) (A) (A) (A) (A) (A) (A) (A) (A) (A) (A) (A)
                 (A) (A) (A) (A) (A) (A) (A) (A) (A) (A) (A) (A)
                 (A) (A) (A) (A) (A) (A) (A) (A) (A) (A) (A) (A)
                 (A) (A) (A) (A) (A) (A) (A) (A) (A) (A) (A) (A)
                 (A) (A) (A) (A) (A) (A) (A) (A) (A) (A) (A) (A)
                 (A) (A) (A) (A) (A) (A) (A) (A) (A) (A) (A) (A)
                 (A) (A) (A) (A) (A) (A) (A) (A) (A) (A) (A) (A)
                 (A) (A) (A) (A) (A) (A) (A) (A) (A) (A) (A) (A)
                 (A) (A) (A) (A) (A) (A) (A) (A) (A) (A) (A) (A)
                 (A) (A) (A) (A) (A) (A) (A) (A) (A) (A) (A) (A)
                 (A) (A) (A) (A) (A) (A) (A) (A) (A) (A) (A) (A)
                 (A) (A) (A) (A) (A) (A) (A) (A) (A) (A) (A) (A)
                 (A) (A) (A) (A) (A) (A) (A) (A) (A) (A) (A) (A)
                 (A) (A) (A) (A) (A) (A) (A) (A) (A) (A) (A) (A)
                 (A) (A) (A) (A) (A) (A) (A) (A) (A) (A) (A) (A)
                 (A) (A) (A) (A) (A) (A) (A) (A) (A) (A) (A) (A)
                 (A) (A) (A) (A) (A) (A) (A) (A) (A) (A) (A) (A)
                 (A) (A) (A) (A) (A) (A) (A) (A) (A) (A) (A) (A)
                 (A) (A) (A) (A) (A) (A) (A) (A) (A) (A) (A) (A)
                 (A) (A) (A) (A) (A) (A) (A) (A) (A) (A) (A) (A)
                 (A) (A) (A) (A) (A) (A) (A) (A) (A) (A) (A) (A)
                 (A) (A) (A) (A) (A) (A) (A) (A) (A) (A) (A) (A)
                 (A) (A)
     8 initial guesses have been made.
 Convergence on wavefunction:    0.000001000000000
 Iteration     1 Dimension     8 NMult     8
 CISAX will form     8 AO SS matrices at one time.
 FoFJK:  IHMeth= 1 ICntrl=     0 DoSepK=T KAlg= 1 I1Cent= 0 FoldK=F
 FoFJK:  IHMeth= 1 ICntrl=     0 DoSepK=T KAlg= 1 I1Cent= 0 FoldK=F
 Iteration     2 Dimension    12 NMult    12
 FoFJK:  IHMeth= 1 ICntrl=     0 DoSepK=T KAlg= 1 I1Cent= 0 FoldK=F
 FoFJK:  IHMeth= 1 ICntrl=     0 DoSepK=T KAlg= 1 I1Cent= 0 FoldK=F
 Iteration     3 Dimension    16 NMult    16
 FoFJK:  IHMeth= 1 ICntrl=     0 DoSepK=T KAlg= 1 I1Cent= 0 FoldK=F
 FoFJK:  IHMeth= 1 ICntrl=     0 DoSepK=T KAlg= 1 I1Cent= 0 FoldK=F
 Iteration     4 Dimension    20 NMult    20
 FoFJK:  IHMeth= 1 ICntrl=     0 DoSepK=T KAlg= 1 I1Cent= 0 FoldK=F
 FoFJK:  IHMeth= 1 ICntrl=     0 DoSepK=T KAlg= 1 I1Cent= 0 FoldK=F
 Iteration     5 Dimension    24 NMult    24
 FoFJK:  IHMeth= 1 ICntrl=     0 DoSepK=T KAlg= 1 I1Cent= 0 FoldK=F
 FoFJK:  IHMeth= 1 ICntrl=     0 DoSepK=T KAlg= 1 I1Cent= 0 FoldK=F
 Iteration     6 Dimension    28 NMult    28
 FoFJK:  IHMeth= 1 ICntrl=     0 DoSepK=T KAlg= 1 I1Cent= 0 FoldK=F
 FoFJK:  IHMeth= 1 ICntrl=     0 DoSepK=T KAlg= 1 I1Cent= 0 FoldK=F
 Iteration     7 Dimension    32 NMult    32
 FoFJK:  IHMeth= 1 ICntrl=     0 DoSepK=T KAlg= 1 I1Cent= 0 FoldK=F
 FoFJK:  IHMeth= 1 ICntrl=     0 DoSepK=T KAlg= 1 I1Cent= 0 FoldK=F
 Iteration     8 Dimension    36 NMult    36
 FoFJK:  IHMeth= 1 ICntrl=     0 DoSepK=T KAlg= 1 I1Cent= 0 FoldK=F
 FoFJK:  IHMeth= 1 ICntrl=     0 DoSepK=T KAlg= 1 I1Cent= 0 FoldK=F
 Iteration     9 Dimension    40 NMult    40
 FoFJK:  IHMeth= 1 ICntrl=     0 DoSepK=T KAlg= 1 I1Cent= 0 FoldK=F
 FoFJK:  IHMeth= 1 ICntrl=     0 DoSepK=T KAlg= 1 I1Cent= 0 FoldK=F
 Iteration    10 Dimension    44 NMult    44
 FoFJK:  IHMeth= 1 ICntrl=     0 DoSepK=T KAlg= 1 I1Cent= 0 FoldK=F
 FoFJK:  IHMeth= 1 ICntrl=     0 DoSepK=T KAlg= 1 I1Cent= 0 FoldK=F
 Iteration    11 Dimension    48 NMult    48
 FoFJK:  IHMeth= 1 ICntrl=     0 DoSepK=T KAlg= 1 I1Cent= 0 FoldK=F
 FoFJK:  IHMeth= 1 ICntrl=     0 DoSepK=T KAlg= 1 I1Cent= 0 FoldK=F
 Iteration    12 Dimension    52 NMult    52
 FoFJK:  IHMeth= 1 ICntrl=     0 DoSepK=T KAlg= 1 I1Cent= 0 FoldK=F
 FoFJK:  IHMeth= 1 ICntrl=     0 DoSepK=T KAlg= 1 I1Cent= 0 FoldK=F
 Iteration    13 Dimension    56 NMult    56
 FoFJK:  IHMeth= 1 ICntrl=     0 DoSepK=T KAlg= 1 I1Cent= 0 FoldK=F
 FoFJK:  IHMeth= 1 ICntrl=     0 DoSepK=T KAlg= 1 I1Cent= 0 FoldK=F
 ***********************************************************************
 Excited states from <AA,BB:AA,BB> singles matrix:
 ***********************************************************************
 
 Ground to excited state transition densities written to RWF  633
 Ground to excited state transition electric dipole moments (Au):
       state          X           Y           Z        Dip. S.      Osc.
         1        -3.1128      0.2063      0.0287      9.7328      0.6321
 Ground to excited state transition velocity dipole moments (Au):
       state          X           Y           Z        Dip. S.      Osc.
         1         0.3023     -0.0251     -0.0028      0.0920      0.6297
 Ground to excited state transition magnetic dipole moments (Au):
       state          X           Y           Z
         1        -0.0067      0.0535      0.0960
 Ground to excited state transition velocity quadrupole moments (Au):
       state          XX          YY          ZZ          XY          XZ          YZ
         1         0.6873      0.2728     -0.0106     -0.3288     -0.0209      0.0128
 <0|del|b> * <b|rxdel|0> + <0|del|b> * <b|delr+rdel|0>
 Rotatory Strengths (R) in cgs (10**-40 erg-esu-cm/Gauss)
       state          XX          YY          ZZ    R(velocity)
         1        -4.3807      2.3258    -24.3706     -8.8085
 1/2[<0|r|b>*<b|rxdel|0> + (<0|rxdel|b>*<b|r|0>)*]
 Rotatory Strengths (R) in cgs (10**-40 erg-esu-cm/Gauss)
       state          XX          YY          ZZ     R(length)
         1       -14.7392     -7.8023     -1.9455     -8.1623
  1/2[<0|del|b>*<b|r|0> + (<0|r|b>*<b|del|0>)*] (Au)
       state          X           Y           Z        Dip. S.   Osc.(frdel)
         1        -0.9410     -0.0052     -0.0001      0.9462      0.6308

 Excitation energies and oscillator strengths:
 
 Excited State   1:      Singlet-A      2.6510 eV  467.69 nm  f=0.6321  <S**2>=0.000
      79 -> 80         0.68901
 This state for optimization and/or second-order correction.
 Total Energy, E(TD-HF/TD-KS) =  -977.226927494    
 Copying the excited state density for this state as the 1-particle RhoCI density.
 SavETr:  write IOETrn=   770 NScale= 10 NData=  16 NLR=1 LETran=      28.
 FoFJK:  IHMeth= 1 ICntrl=     0 DoSepK=T KAlg= 1 I1Cent= 0 FoldK=F
 FoFJK:  IHMeth= 1 ICntrl=     0 DoSepK=T KAlg= 1 I1Cent= 0 FoldK=F
          IDoAtm=11111111111111111111111111111111111111111
          Differentiating once with respect to electric field.
                with respect to dipole field.
          Differentiating once with respect to nuclear coordinates.
          There are     1 degrees of freedom in the 1st order CPHF.  IDoFFX=0.
 FoFJK:  IHMeth= 1 ICntrl=     0 DoSepK=T KAlg= 1 I1Cent= 0 FoldK=F
 LinEq1:  Iter=  0 NonCon=     1 RMS=4.88D-03 Max=6.83D-01
 AX will form     1 AO Fock derivatives at one time.
 FoFJK:  IHMeth= 1 ICntrl=     0 DoSepK=T KAlg= 1 I1Cent= 0 FoldK=F
 LinEq1:  Iter=  1 NonCon=     1 RMS=2.28D-03 Max=2.09D-01
 FoFJK:  IHMeth= 1 ICntrl=     0 DoSepK=T KAlg= 1 I1Cent= 0 FoldK=F
 LinEq1:  Iter=  2 NonCon=     1 RMS=1.65D-03 Max=1.19D-01
 FoFJK:  IHMeth= 1 ICntrl=     0 DoSepK=T KAlg= 1 I1Cent= 0 FoldK=F
 LinEq1:  Iter=  3 NonCon=     1 RMS=7.12D-04 Max=3.06D-02
 FoFJK:  IHMeth= 1 ICntrl=     0 DoSepK=T KAlg= 1 I1Cent= 0 FoldK=F
 LinEq1:  Iter=  4 NonCon=     1 RMS=3.90D-04 Max=1.90D-02
 FoFJK:  IHMeth= 1 ICntrl=     0 DoSepK=T KAlg= 1 I1Cent= 0 FoldK=F
 LinEq1:  Iter=  5 NonCon=     1 RMS=1.89D-04 Max=1.12D-02
 FoFJK:  IHMeth= 1 ICntrl=     0 DoSepK=T KAlg= 1 I1Cent= 0 FoldK=F
 LinEq1:  Iter=  6 NonCon=     1 RMS=9.00D-05 Max=3.59D-03
 FoFJK:  IHMeth= 1 ICntrl=     0 DoSepK=T KAlg= 1 I1Cent= 0 FoldK=F
 LinEq1:  Iter=  7 NonCon=     1 RMS=4.24D-05 Max=2.07D-03
 FoFJK:  IHMeth= 1 ICntrl=     0 DoSepK=T KAlg= 1 I1Cent= 0 FoldK=F
 LinEq1:  Iter=  8 NonCon=     1 RMS=2.31D-05 Max=1.41D-03
 FoFJK:  IHMeth= 1 ICntrl=     0 DoSepK=T KAlg= 1 I1Cent= 0 FoldK=F
 LinEq1:  Iter=  9 NonCon=     1 RMS=1.06D-05 Max=3.64D-04
 FoFJK:  IHMeth= 1 ICntrl=     0 DoSepK=T KAlg= 1 I1Cent= 0 FoldK=F
 LinEq1:  Iter= 10 NonCon=     1 RMS=4.40D-06 Max=1.62D-04
 FoFJK:  IHMeth= 1 ICntrl=     0 DoSepK=T KAlg= 1 I1Cent= 0 FoldK=F
 LinEq1:  Iter= 11 NonCon=     1 RMS=2.16D-06 Max=8.54D-05
 FoFJK:  IHMeth= 1 ICntrl=     0 DoSepK=T KAlg= 1 I1Cent= 0 FoldK=F
 LinEq1:  Iter= 12 NonCon=     1 RMS=9.32D-07 Max=4.90D-05
 FoFJK:  IHMeth= 1 ICntrl=     0 DoSepK=T KAlg= 1 I1Cent= 0 FoldK=F
 LinEq1:  Iter= 13 NonCon=     1 RMS=4.61D-07 Max=3.09D-05
 FoFJK:  IHMeth= 1 ICntrl=     0 DoSepK=T KAlg= 1 I1Cent= 0 FoldK=F
 LinEq1:  Iter= 14 NonCon=     1 RMS=1.92D-07 Max=6.43D-06
 FoFJK:  IHMeth= 1 ICntrl=     0 DoSepK=T KAlg= 1 I1Cent= 0 FoldK=F
 LinEq1:  Iter= 15 NonCon=     1 RMS=1.05D-07 Max=4.16D-06
 FoFJK:  IHMeth= 1 ICntrl=     0 DoSepK=T KAlg= 1 I1Cent= 0 FoldK=F
 LinEq1:  Iter= 16 NonCon=     1 RMS=5.04D-08 Max=2.18D-06
 FoFJK:  IHMeth= 1 ICntrl=     0 DoSepK=T KAlg= 1 I1Cent= 0 FoldK=F
 LinEq1:  Iter= 17 NonCon=     1 RMS=2.67D-08 Max=1.06D-06
 FoFJK:  IHMeth= 1 ICntrl=     0 DoSepK=T KAlg= 1 I1Cent= 0 FoldK=F
 LinEq1:  Iter= 18 NonCon=     1 RMS=1.11D-08 Max=4.70D-07
 FoFJK:  IHMeth= 1 ICntrl=     0 DoSepK=T KAlg= 1 I1Cent= 0 FoldK=F
 LinEq1:  Iter= 19 NonCon=     1 RMS=5.48D-09 Max=2.98D-07
 FoFJK:  IHMeth= 1 ICntrl=     0 DoSepK=T KAlg= 1 I1Cent= 0 FoldK=F
 LinEq1:  Iter= 20 NonCon=     1 RMS=2.56D-09 Max=1.77D-07
 FoFJK:  IHMeth= 1 ICntrl=     0 DoSepK=T KAlg= 1 I1Cent= 0 FoldK=F
 LinEq1:  Iter= 21 NonCon=     1 RMS=1.30D-09 Max=8.96D-08
 FoFJK:  IHMeth= 1 ICntrl=     0 DoSepK=T KAlg= 1 I1Cent= 0 FoldK=F
 LinEq1:  Iter= 22 NonCon=     1 RMS=5.98D-10 Max=4.20D-08
 FoFJK:  IHMeth= 1 ICntrl=     0 DoSepK=T KAlg= 1 I1Cent= 0 FoldK=F
 LinEq1:  Iter= 23 NonCon=     1 RMS=2.75D-10 Max=1.57D-08
 FoFJK:  IHMeth= 1 ICntrl=     0 DoSepK=T KAlg= 1 I1Cent= 0 FoldK=F
 LinEq1:  Iter= 24 NonCon=     1 RMS=1.41D-10 Max=7.43D-09
 FoFJK:  IHMeth= 1 ICntrl=     0 DoSepK=T KAlg= 1 I1Cent= 0 FoldK=F
 LinEq1:  Iter= 25 NonCon=     1 RMS=5.17D-11 Max=2.25D-09
 FoFJK:  IHMeth= 1 ICntrl=     0 DoSepK=T KAlg= 1 I1Cent= 0 FoldK=F
 LinEq1:  Iter= 26 NonCon=     0 RMS=2.59D-11 Max=7.54D-10
 Linear equations converged to 1.000D-10 1.000D-09 after    26 iterations.
 FoFJK:  IHMeth= 1 ICntrl=     0 DoSepK=T KAlg= 1 I1Cent= 0 FoldK=F
 End of Minotr Frequency-dependent properties file   721 does not exist.
 End of Minotr Frequency-dependent properties file   722 does not exist.

 **********************************************************************

            Population analysis using the SCF density.

 **********************************************************************

 Orbital symmetries:
       Occupied  (A) (A) (A) (A) (A) (A) (A) (A) (A) (A) (A) (A)
                 (A) (A) (A) (A) (A) (A) (A) (A) (A) (A) (A) (A)
                 (A) (A) (A) (A) (A) (A) (A) (A) (A) (A) (A) (A)
                 (A) (A) (A) (A) (A) (A) (A) (A) (A) (A) (A) (A)
                 (A) (A) (A) (A) (A) (A) (A) (A) (A) (A) (A) (A)
                 (A) (A) (A) (A) (A) (A) (A) (A) (A) (A) (A) (A)
                 (A) (A) (A) (A) (A) (A) (A)
       Virtual   (A) (A) (A) (A) (A) (A) (A) (A) (A) (A) (A) (A)
                 (A) (A) (A) (A) (A) (A) (A) (A) (A) (A) (A) (A)
                 (A) (A) (A) (A) (A) (A) (A) (A) (A) (A) (A) (A)
                 (A) (A) (A) (A) (A) (A) (A) (A) (A) (A) (A) (A)
                 (A) (A) (A) (A) (A) (A) (A) (A) (A) (A) (A) (A)
                 (A) (A) (A) (A) (A) (A) (A) (A) (A) (A) (A) (A)
                 (A) (A) (A) (A) (A) (A) (A) (A) (A) (A) (A) (A)
                 (A) (A) (A) (A) (A) (A) (A) (A) (A) (A) (A) (A)
                 (A) (A) (A) (A) (A) (A) (A) (A) (A) (A) (A) (A)
                 (A) (A) (A) (A) (A) (A) (A) (A) (A) (A) (A) (A)
                 (A) (A) (A) (A) (A) (A) (A) (A) (A) (A) (A) (A)
                 (A) (A) (A) (A) (A) (A) (A) (A) (A) (A) (A) (A)
                 (A) (A) (A) (A) (A) (A) (A) (A) (A) (A) (A) (A)
                 (A) (A) (A) (A) (A) (A) (A) (A) (A) (A) (A) (A)
                 (A) (A) (A) (A) (A) (A) (A) (A) (A) (A) (A) (A)
                 (A) (A) (A) (A) (A) (A) (A) (A) (A) (A) (A) (A)
                 (A) (A) (A) (A) (A) (A) (A) (A) (A) (A) (A) (A)
                 (A) (A) (A) (A) (A) (A) (A) (A) (A) (A) (A) (A)
                 (A) (A) (A) (A) (A) (A) (A) (A) (A) (A) (A) (A)
                 (A) (A) (A) (A) (A) (A) (A) (A) (A) (A) (A) (A)
                 (A) (A) (A) (A) (A) (A) (A) (A) (A) (A) (A) (A)
                 (A) (A) (A) (A) (A) (A) (A) (A) (A) (A) (A) (A)
                 (A) (A) (A) (A) (A) (A) (A) (A) (A) (A) (A) (A)
                 (A) (A) (A) (A) (A) (A) (A) (A) (A) (A) (A) (A)
                 (A) (A) (A) (A) (A) (A) (A) (A) (A) (A) (A) (A)
                 (A) (A) (A) (A) (A) (A) (A) (A) (A) (A) (A) (A)
                 (A) (A) (A) (A) (A) (A) (A) (A) (A) (A) (A) (A)
                 (A) (A) (A) (A) (A) (A) (A) (A) (A) (A) (A) (A)
                 (A) (A) (A) (A) (A) (A) (A) (A) (A) (A) (A) (A)
                 (A) (A) (A) (A) (A) (A) (A) (A) (A) (A) (A) (A)
                 (A) (A) (A) (A) (A) (A) (A) (A) (A) (A) (A) (A)
                 (A) (A) (A) (A) (A) (A) (A) (A) (A) (A) (A) (A)
                 (A) (A) (A) (A) (A) (A) (A) (A) (A) (A) (A) (A)
                 (A) (A) (A) (A) (A) (A) (A) (A) (A) (A) (A) (A)
                 (A) (A) (A) (A) (A) (A) (A) (A) (A) (A) (A) (A)
                 (A) (A) (A) (A) (A) (A) (A) (A) (A) (A) (A) (A)
                 (A) (A) (A) (A) (A) (A) (A) (A) (A) (A) (A) (A)
                 (A) (A) (A) (A) (A) (A) (A) (A) (A) (A) (A) (A)
                 (A) (A) (A) (A) (A) (A) (A) (A) (A) (A) (A) (A)
                 (A) (A) (A) (A) (A) (A) (A) (A) (A) (A) (A) (A)
                 (A) (A) (A) (A) (A) (A) (A) (A) (A) (A) (A) (A)
                 (A) (A) (A) (A) (A) (A) (A) (A) (A) (A) (A) (A)
                 (A) (A) (A) (A) (A) (A) (A) (A) (A) (A) (A) (A)
                 (A) (A) (A) (A) (A) (A) (A) (A) (A) (A) (A) (A)
                 (A) (A)
 The electronic state is 1-A.
 Alpha  occ. eigenvalues --  -19.29515 -19.26730 -19.17288 -14.46998 -10.40042
 Alpha  occ. eigenvalues --  -10.34922 -10.33031 -10.32666 -10.30329 -10.29712
 Alpha  occ. eigenvalues --  -10.29151 -10.29118 -10.29047 -10.28811 -10.28733
 Alpha  occ. eigenvalues --  -10.28675 -10.28448 -10.27949 -10.27708 -10.26675
 Alpha  occ. eigenvalues --  -10.26574 -10.25026  -1.22983  -1.16010  -1.08323
 Alpha  occ. eigenvalues --   -1.03875  -0.98504  -0.95579  -0.93344  -0.89578
 Alpha  occ. eigenvalues --   -0.89194  -0.87446  -0.86898  -0.85205  -0.82601
 Alpha  occ. eigenvalues --   -0.80290  -0.77262  -0.75524  -0.73805  -0.73256
 Alpha  occ. eigenvalues --   -0.70962  -0.68884  -0.66137  -0.64212  -0.62626
 Alpha  occ. eigenvalues --   -0.60780  -0.60329  -0.59985  -0.59784  -0.58724
 Alpha  occ. eigenvalues --   -0.57774  -0.56961  -0.55383  -0.55102  -0.54991
 Alpha  occ. eigenvalues --   -0.54485  -0.54050  -0.53696  -0.52489  -0.51510
 Alpha  occ. eigenvalues --   -0.51219  -0.50122  -0.49062  -0.47681  -0.47551
 Alpha  occ. eigenvalues --   -0.47168  -0.45181  -0.44449  -0.43090  -0.42615
 Alpha  occ. eigenvalues --   -0.42403  -0.41666  -0.37368  -0.35347  -0.35197
 Alpha  occ. eigenvalues --   -0.33476  -0.30225  -0.28178  -0.24778
 Alpha virt. eigenvalues --   -0.03600   0.02467   0.03410   0.03450   0.04108
 Alpha virt. eigenvalues --    0.04444   0.04872   0.05716   0.05851   0.06304
 Alpha virt. eigenvalues --    0.06540   0.07312   0.07842   0.07987   0.08284
 Alpha virt. eigenvalues --    0.08565   0.08809   0.08955   0.10026   0.10270
 Alpha virt. eigenvalues --    0.10564   0.10949   0.11791   0.11853   0.12351
 Alpha virt. eigenvalues --    0.12689   0.12936   0.13438   0.14054   0.14101
 Alpha virt. eigenvalues --    0.14455   0.14748   0.15121   0.15586   0.15710
 Alpha virt. eigenvalues --    0.15872   0.16483   0.16753   0.16952   0.17270
 Alpha virt. eigenvalues --    0.17468   0.17715   0.18051   0.18195   0.18629
 Alpha virt. eigenvalues --    0.18710   0.19089   0.19726   0.19801   0.20094
 Alpha virt. eigenvalues --    0.20138   0.20249   0.20480   0.20935   0.21366
 Alpha virt. eigenvalues --    0.21501   0.21825   0.21985   0.22221   0.22672
 Alpha virt. eigenvalues --    0.22794   0.22906   0.23058   0.23726   0.23856
 Alpha virt. eigenvalues --    0.23974   0.24592   0.24770   0.25163   0.25594
 Alpha virt. eigenvalues --    0.25779   0.25957   0.26440   0.26687   0.27028
 Alpha virt. eigenvalues --    0.27362   0.27701   0.27914   0.28152   0.28697
 Alpha virt. eigenvalues --    0.29011   0.29504   0.29652   0.30281   0.30370
 Alpha virt. eigenvalues --    0.30580   0.31095   0.31221   0.31633   0.31950
 Alpha virt. eigenvalues --    0.32617   0.32877   0.32942   0.33246   0.33818
 Alpha virt. eigenvalues --    0.33957   0.34583   0.34725   0.34978   0.35212
 Alpha virt. eigenvalues --    0.35692   0.36132   0.36593   0.37075   0.37233
 Alpha virt. eigenvalues --    0.37777   0.38011   0.38549   0.39005   0.39521
 Alpha virt. eigenvalues --    0.39820   0.40467   0.40548   0.40892   0.40960
 Alpha virt. eigenvalues --    0.41221   0.41874   0.41970   0.42509   0.42708
 Alpha virt. eigenvalues --    0.42861   0.43324   0.43960   0.44082   0.44597
 Alpha virt. eigenvalues --    0.44965   0.45442   0.46317   0.46426   0.47094
 Alpha virt. eigenvalues --    0.47670   0.47962   0.48533   0.48749   0.49097
 Alpha virt. eigenvalues --    0.50077   0.50158   0.51665   0.51900   0.52669
 Alpha virt. eigenvalues --    0.52783   0.53589   0.54771   0.55299   0.56806
 Alpha virt. eigenvalues --    0.57175   0.57903   0.60261   0.60608   0.61046
 Alpha virt. eigenvalues --    0.62577   0.62824   0.63392   0.63659   0.64429
 Alpha virt. eigenvalues --    0.64523   0.64693   0.65847   0.66311   0.67050
 Alpha virt. eigenvalues --    0.67326   0.68106   0.68327   0.68683   0.68993
 Alpha virt. eigenvalues --    0.69943   0.70288   0.70766   0.71242   0.71353
 Alpha virt. eigenvalues --    0.73089   0.73193   0.73769   0.74493   0.75075
 Alpha virt. eigenvalues --    0.75211   0.75687   0.76101   0.76287   0.76872
 Alpha virt. eigenvalues --    0.77627   0.77861   0.78277   0.78610   0.79187
 Alpha virt. eigenvalues --    0.79512   0.80111   0.80517   0.81692   0.82015
 Alpha virt. eigenvalues --    0.82519   0.82975   0.84252   0.84809   0.85728
 Alpha virt. eigenvalues --    0.85897   0.86134   0.87601   0.88392   0.89014
 Alpha virt. eigenvalues --    0.89648   0.90477   0.91666   0.91770   0.93471
 Alpha virt. eigenvalues --    0.94613   0.95089   0.96182   0.96519   0.96708
 Alpha virt. eigenvalues --    0.96850   0.97045   0.97807   0.98963   0.99964
 Alpha virt. eigenvalues --    1.00284   1.00771   1.01680   1.02141   1.02404
 Alpha virt. eigenvalues --    1.03527   1.04310   1.04616   1.06053   1.06499
 Alpha virt. eigenvalues --    1.06764   1.07343   1.08045   1.08408   1.09025
 Alpha virt. eigenvalues --    1.09252   1.09683   1.10599   1.11471   1.11971
 Alpha virt. eigenvalues --    1.12777   1.13452   1.14285   1.14775   1.15852
 Alpha virt. eigenvalues --    1.16034   1.16876   1.17155   1.18215   1.18795
 Alpha virt. eigenvalues --    1.19395   1.20119   1.21045   1.21506   1.22165
 Alpha virt. eigenvalues --    1.22868   1.23178   1.23973   1.24848   1.26606
 Alpha virt. eigenvalues --    1.28570   1.29441   1.31457   1.34465   1.37427
 Alpha virt. eigenvalues --    1.37581   1.38277   1.39287   1.39867   1.40381
 Alpha virt. eigenvalues --    1.42921   1.43785   1.46221   1.48595   1.49309
 Alpha virt. eigenvalues --    1.50406   1.51247   1.54059   1.54767   1.56127
 Alpha virt. eigenvalues --    1.57825   1.59544   1.60535   1.61237   1.61383
 Alpha virt. eigenvalues --    1.62045   1.62701   1.63407   1.63596   1.64268
 Alpha virt. eigenvalues --    1.65011   1.65320   1.65748   1.66194   1.66766
 Alpha virt. eigenvalues --    1.67648   1.68920   1.69123   1.69559   1.69821
 Alpha virt. eigenvalues --    1.71615   1.72520   1.73284   1.74263   1.75447
 Alpha virt. eigenvalues --    1.75603   1.75866   1.77325   1.78172   1.79343
 Alpha virt. eigenvalues --    1.79903   1.80754   1.82399   1.82684   1.83112
 Alpha virt. eigenvalues --    1.84454   1.84602   1.85115   1.85772   1.86799
 Alpha virt. eigenvalues --    1.88375   1.88816   1.90101   1.90766   1.91913
 Alpha virt. eigenvalues --    1.92572   1.92953   1.94703   1.95272   1.95498
 Alpha virt. eigenvalues --    1.97175   1.98787   1.99275   1.99825   2.00296
 Alpha virt. eigenvalues --    2.01277   2.01675   2.02564   2.04446   2.04770
 Alpha virt. eigenvalues --    2.05268   2.06597   2.07266   2.08942   2.09075
 Alpha virt. eigenvalues --    2.10082   2.11560   2.12297   2.13459   2.14113
 Alpha virt. eigenvalues --    2.16285   2.17810   2.18222   2.19251   2.21143
 Alpha virt. eigenvalues --    2.21445   2.23261   2.24367   2.24596   2.26027
 Alpha virt. eigenvalues --    2.26986   2.27360   2.27521   2.28521   2.28836
 Alpha virt. eigenvalues --    2.33076   2.33498   2.35413   2.36542   2.37581
 Alpha virt. eigenvalues --    2.37743   2.40232   2.43415   2.44149   2.44652
 Alpha virt. eigenvalues --    2.46218   2.47188   2.48092   2.49977   2.50718
 Alpha virt. eigenvalues --    2.52225   2.53339   2.55219   2.55636   2.57380
 Alpha virt. eigenvalues --    2.58324   2.60529   2.62103   2.63939   2.65570
 Alpha virt. eigenvalues --    2.67389   2.67645   2.68669   2.70331   2.71699
 Alpha virt. eigenvalues --    2.75455   2.76017   2.76922   2.77422   2.77933
 Alpha virt. eigenvalues --    2.78862   2.79133   2.80151   2.82287   2.85367
 Alpha virt. eigenvalues --    2.87184   2.87867   2.89023   2.90143   2.90972
 Alpha virt. eigenvalues --    2.91275   2.92012   2.92304   2.93850   2.95115
 Alpha virt. eigenvalues --    2.95129   2.96403   2.96800   2.97299   2.97415
 Alpha virt. eigenvalues --    2.99799   2.99955   3.00731   3.01690   3.02364
 Alpha virt. eigenvalues --    3.02639   3.03954   3.04380   3.05100   3.05805
 Alpha virt. eigenvalues --    3.06845   3.08381   3.08470   3.09304   3.10319
 Alpha virt. eigenvalues --    3.10868   3.11147   3.15098   3.15536   3.18193
 Alpha virt. eigenvalues --    3.18544   3.19210   3.19866   3.20168   3.21299
 Alpha virt. eigenvalues --    3.21910   3.22789   3.25104   3.27963   3.29685
 Alpha virt. eigenvalues --    3.33298   3.33756   3.35765   3.36218   3.37252
 Alpha virt. eigenvalues --    3.37898   3.39788   3.39994   3.43786   3.45055
 Alpha virt. eigenvalues --    3.50618   3.51828   3.52291   3.54308   3.58967
 Alpha virt. eigenvalues --    3.60207   3.66085   3.68736   3.74085   3.75579
 Alpha virt. eigenvalues --    3.79010   3.83518   3.83837   3.85199   3.86451
 Alpha virt. eigenvalues --    3.90500   3.92457   3.93831   3.99019   4.02216
 Alpha virt. eigenvalues --    4.13391   4.16145   4.21423   4.22788   4.23025
 Alpha virt. eigenvalues --    4.23584   4.25504   4.28299   4.28826   4.30455
 Alpha virt. eigenvalues --    4.35116   4.37975   4.43111   4.45825   4.48144
 Alpha virt. eigenvalues --    4.52836   4.56213   4.61331   4.70300   4.81631
 Alpha virt. eigenvalues --    4.96680   4.99385   5.11070   5.11729   5.17660
 Alpha virt. eigenvalues --    5.23244   5.25031   5.44086   5.56222   5.57814
 Alpha virt. eigenvalues --    5.86148   5.94599   6.08947  23.82882  23.94528
 Alpha virt. eigenvalues --   24.00264  24.10975  24.13340  24.16217  24.18213
 Alpha virt. eigenvalues --   24.24620  24.26183  24.28827  24.38509  24.41507
 Alpha virt. eigenvalues --   24.41687  24.42919  24.45510  24.46330  24.49350
 Alpha virt. eigenvalues --   24.50689  35.75258  50.12627  50.15670  50.19873
          Condensed to atoms (all electrons):
              1          2          3          4          5          6
     1  C   12.092885  -1.023623  -2.320306   3.057381  -0.970366   0.029297
     2  C   -1.023623   9.608955   1.068337  -0.083014   0.939713   0.110972
     3  C   -2.320306   1.068337  15.702296  -4.997561  -5.580718  -0.203942
     4  C    3.057381  -0.083014  -4.997561  15.863707  -0.530111  -0.229713
     5  C   -0.970366   0.939713  -5.580718  -0.530111  13.078451   0.913659
     6  H    0.029297   0.110972  -0.203942  -0.229713   0.913659   0.521023
     7  C   -0.941625  -5.348217   2.007383  -2.333830  -2.463661  -0.380051
     8  H   -0.179486  -0.228092   0.115594  -0.002708  -0.297209  -0.043486
     9  C   -1.529689   0.831226   1.634074  -3.862264  -0.001555   0.056963
    10  C   -1.431555  -0.221132  -1.313630  -0.785822   0.794626   0.023802
    11  H    0.046497   0.050746  -0.132816  -0.015248  -0.014250  -0.001325
    12  C   -0.260950  -0.241104  -0.531436   0.233548   0.287536   0.009169
    13  H   -0.034517  -0.032788  -0.108748  -0.000031   0.023034   0.000433
    14  C    0.062261   0.017001  -0.320283  -0.175300  -0.042952  -0.001461
    15  C    0.031363   0.096087   0.087643  -0.037683  -0.027576  -0.000570
    16  H    0.002224   0.004262   0.014989   0.000843  -0.000839  -0.000001
    17  C    0.004272   0.030382  -0.009451  -0.022028  -0.005488  -0.000119
    18  H   -0.000204  -0.000539  -0.002367  -0.000225   0.000014   0.000000
    19  C   -0.007122  -0.024084   0.011808   0.012344   0.002060   0.000037
    20  C   -0.000008  -0.000020  -0.000320   0.000018   0.000000   0.000000
    21  H    0.000001   0.000002   0.000039   0.000005   0.000000   0.000000
    22  H    0.000004   0.000006   0.000053   0.000003   0.000000   0.000000
    23  O    0.015312   0.023029   0.133157  -0.132164  -0.087320  -0.002787
    24  O   -0.079256  -0.031041  -0.060652   0.388198  -0.234246  -0.034006
    25  O    0.350407   0.347556   0.008632   0.043463   0.035117   0.001649
    26  H   -0.279796   0.632115   0.063185   0.107494   0.118129   0.009639
    27  C   -0.120549  -0.219728  -0.028777   0.214748   0.082890   0.001827
    28  N    0.000022   0.000103   0.000094  -0.000018  -0.000002   0.000000
    29  C   -0.037008  -0.072054   0.050720   0.026590   0.010589   0.000239
    30  H   -0.000001   0.000002  -0.000028   0.000000   0.000000   0.000000
    31  C    0.198997  -0.241668  -0.187138   0.163704   0.003998  -0.000180
    32  H   -0.003418  -0.027073   0.010472   0.013670   0.004571   0.000091
    33  C    0.000030   0.000060   0.000355  -0.000092  -0.000009   0.000000
    34  H    0.001239   0.003596  -0.002568  -0.002077  -0.000465  -0.000009
    35  H   -0.017920   0.016877  -0.008814   0.001142  -0.003450  -0.000350
    36  H   -0.005049   0.040294  -0.008214   0.009341  -0.009331  -0.000336
    37  H    0.052367  -0.042666  -0.010221   0.006628  -0.000885  -0.000034
    38  H   -0.000008  -0.000041   0.000014   0.000025   0.000003   0.000000
    39  H    0.000002   0.000003   0.000025  -0.000007   0.000000   0.000000
    40  H   -0.000014  -0.000040   0.000016   0.000020   0.000003   0.000000
    41  H   -0.009240  -0.020949  -0.270342   0.067438   0.108890   0.002244
              7          8          9         10         11         12
     1  C   -0.941625  -0.179486  -1.529689  -1.431555   0.046497  -0.260950
     2  C   -5.348217  -0.228092   0.831226  -0.221132   0.050746  -0.241104
     3  C    2.007383   0.115594   1.634074  -1.313630  -0.132816  -0.531436
     4  C   -2.333830  -0.002708  -3.862264  -0.785822  -0.015248   0.233548
     5  C   -2.463661  -0.297209  -0.001555   0.794626  -0.014250   0.287536
     6  H   -0.380051  -0.043486   0.056963   0.023802  -0.001325   0.009169
     7  C   17.169824   0.993733  -1.247208  -0.208946   0.038913  -0.177868
     8  H    0.993733   0.529856  -0.046248  -0.016286   0.001323  -0.004979
     9  C   -1.247208  -0.046248   9.399406   0.647037  -0.057856  -0.716936
    10  C   -0.208946  -0.016286   0.647037   8.576655   0.795529   0.849907
    11  H    0.038913   0.001323  -0.057856   0.795529   0.909382   0.064112
    12  C   -0.177868  -0.004979  -0.716936   0.849907   0.064112   6.710536
    13  H   -0.007900  -0.000237  -0.053494   0.068231  -0.016518   0.401802
    14  C    0.058070   0.001196   0.225119  -0.221015   0.143184   0.285766
    15  C    0.010519   0.000302   0.138118   0.016860   0.041268  -0.784668
    16  H    0.000276   0.000004   0.015959   0.030648   0.006173   0.006116
[...]
    19  C    0.018259  -1.765617  -2.368827   0.059121  -0.720589  -0.218874
    20  C   -0.001393  -0.152281  -0.000591   0.003860   0.228328   0.021566
    21  H   -0.000036   0.004272  -0.016928   0.000841   0.004015  -0.014701
    22  H   -0.000107   0.004340  -0.006716   0.000760   0.021068  -0.005678
    23  O   -0.022314   0.035332   0.009432   0.001903   0.000626   0.000045
    24  O   -0.001550   0.001661  -0.002763  -0.000015  -0.000025   0.000005
    25  O    0.000010  -0.000628  -0.000029  -0.000003  -0.000012   0.000000
    26  H   -0.003554   0.007104  -0.003273   0.000449  -0.000201  -0.000045
    27  C    0.128741  -0.647624  -0.865631  -0.058142  -1.772611  -0.050270
    28  N   -0.000676  -0.039122   0.048215  -0.001084  -0.224124  -0.031255
    29  C    0.018746  -1.190277  -1.398134   0.006369  -1.650299  -0.031933
    30  H   -0.000091  -0.007322  -0.006072   0.000123   0.028758   0.006382
    31  C   -0.000459  -0.002878   0.000164   0.000022   0.000140  -0.000002
    32  H    0.010368  -0.302336  -0.008365  -0.006084  -0.058319   0.001099
    33  C    0.000378  -0.004796  -0.009197  -0.001023  -0.094410  -0.000781
    34  H   -0.001916   0.186228  -0.015477   0.001749   0.046582   0.002128
    35  H    0.000215  -0.005022  -0.000824  -0.000018  -0.000181   0.000002
    36  H    0.000061   0.000527  -0.000310  -0.000013  -0.000004   0.000004
    37  H   -0.000055   0.000106   0.000087   0.000004   0.000021  -0.000001
    38  H    0.000053  -0.013083  -0.007991  -0.000009  -0.023433  -0.000794
    39  H    0.000025   0.006506   0.011943  -0.000279   0.014225   0.002204
    40  H    0.000100  -0.007761  -0.005772  -0.000168  -0.014842  -0.000827
    41  H   -0.000866   0.003115  -0.000396   0.000199  -0.000512  -0.000015
             19         20         21         22         23         24
     1  C    0.000584   0.000005   0.000002   0.000000  -0.048576  -0.092135
     2  C   -0.019949   0.000039  -0.000001  -0.000021  -0.171750   0.081269
     3  C   -0.027246  -0.000609   0.000041   0.000084   0.281606   0.222022
     4  C   -0.002283  -0.000007   0.000002   0.000000   0.033882   0.303873
     5  C   -0.000494   0.000002   0.000000  -0.000001  -0.159266  -0.206168
     6  H   -0.000002   0.000000   0.000000   0.000000  -0.002140  -0.017916
     7  C   -0.000286  -0.000001   0.000000   0.000000   0.037126   0.088856
     8  H    0.000000   0.000000   0.000000   0.000000   0.000694   0.003063
     9  C   -0.565422   0.002323  -0.000385  -0.000425   0.279796  -0.073287
    10  C   -0.638870  -0.006665   0.000086  -0.000195  -0.347025  -0.165813
    11  H   -0.079768  -0.000363  -0.000027   0.000078   0.013416  -0.005998
    12  C   -0.998713   0.036975  -0.003884  -0.004588   0.134552  -0.094868
    13  H    0.018259  -0.001393  -0.000036  -0.000107  -0.022314  -0.001550
    14  C   -1.765617  -0.152281   0.004272   0.004340   0.035332   0.001661
    15  C   -2.368827  -0.000591  -0.016928  -0.006716   0.009432  -0.002763
    16  H    0.059121   0.003860   0.000841   0.000760   0.001903  -0.000015
    17  C   -0.720589   0.228328   0.004015   0.021068   0.000626  -0.000025
    18  H   -0.218874   0.021566  -0.014701  -0.005678   0.000045   0.000005
    19  C   13.490279  -0.256130   0.006598   0.006901  -0.000804  -0.000061
    20  C   -0.256130   5.306800   0.435001   0.393966   0.000010   0.000000
    21  H    0.006598   0.435001   0.540555  -0.057915  -0.000001   0.000000
    22  H    0.006901   0.393966  -0.057915   0.566240  -0.000001   0.000000
    23  O   -0.000804   0.000010  -0.000001  -0.000001   7.986883  -0.021463
    24  O   -0.000061   0.000000   0.000000   0.000000  -0.021463   8.276157
    25  O    0.000005   0.000000   0.000000   0.000000   0.000101   0.000399
    26  H   -0.001393   0.000045   0.000001   0.000000  -0.007521   0.000418
    27  C    0.320260  -0.058924  -0.001876  -0.000199  -0.007758  -0.002261
    28  N    0.300052   0.308805  -0.055117  -0.051659   0.000000   0.000000
    29  C    0.490963  -0.129909   0.002616  -0.015052  -0.000667   0.000214
    30  H   -0.020766   0.408554  -0.019313  -0.026717   0.000000   0.000000
    31  C   -0.000422  -0.000001   0.000000   0.000000  -0.000346  -0.000959
    32  H    0.258134   0.000387  -0.000068  -0.000126   0.000491   0.000175
    33  C   -0.177063  -0.122551  -0.007827   0.007876   0.000000   0.000000
    34  H   -0.314878  -0.000754  -0.000825  -0.000502   0.000059   0.000006
    35  H   -0.000073  -0.000002   0.000000   0.000000  -0.000114   0.000018
    36  H    0.000304   0.000001   0.000000   0.000000   0.000206   0.000076
    37  H   -0.000067   0.000000   0.000000   0.000000  -0.000015  -0.000030
    38  H    0.020109   0.007487   0.001465  -0.004887   0.000000   0.000000
    39  H   -0.027067  -0.015163  -0.004985   0.001484   0.000000   0.000000
    40  H   -0.008476  -0.008212   0.002513   0.001414   0.000000   0.000000
    41  H   -0.000604  -0.000003   0.000001   0.000001   0.208104   0.119173
             25         26         27         28         29         30
     1  C    0.237252  -0.123308   0.103796   0.000006  -0.007460   0.000001
     2  C    0.396068   0.520505  -0.098974   0.000038   0.075361   0.000005
     3  C    0.015238   0.019898  -0.841222   0.000188  -0.080330  -0.000036
     4  C    0.037614   0.039522  -0.091745   0.000008  -0.016722  -0.000001
     5  C    0.020400   0.038571   0.028309   0.000000   0.014757   0.000000
     6  H    0.000439   0.002442   0.000231   0.000000   0.000105   0.000000
     7  C   -0.821992  -0.019787  -0.023558   0.000001  -0.010562   0.000000
     8  H   -0.024053  -0.003331  -0.000275   0.000000  -0.000143   0.000000
     9  C    0.018185   0.106806  -2.808494   0.003123   0.485622   0.000047
    10  C   -0.014512  -0.096299  -0.602406   0.003732  -0.230619  -0.000123
    11  H    0.000211  -0.069091  -0.277996  -0.000837  -0.201830   0.000034
    12  C    0.000576  -0.087256   0.819112   0.003911  -0.077325   0.003301
    13  H    0.000010  -0.003554   0.128741  -0.000676   0.018746  -0.000091
    14  C   -0.000628   0.007104  -0.647624  -0.039122  -1.190277  -0.007322
    15  C   -0.000029  -0.003273  -0.865631   0.048215  -1.398134  -0.006072
    16  H   -0.000003   0.000449  -0.058142  -0.001084   0.006369   0.000123
    17  C   -0.000012  -0.000201  -1.772611  -0.224124  -1.650299   0.028758
    18  H    0.000000  -0.000045  -0.050270  -0.031255  -0.031933   0.006382
    19  C    0.000005  -0.001393   0.320260   0.300052   0.490963  -0.020766
    20  C    0.000000   0.000045  -0.058924   0.308805  -0.129909   0.408554
    21  H    0.000000   0.000001  -0.001876  -0.055117   0.002616  -0.019313
    22  H    0.000000   0.000000  -0.000199  -0.051659  -0.015052  -0.026717
    23  O    0.000101  -0.007521  -0.007758   0.000000  -0.000667   0.000000
    24  O    0.000399   0.000418  -0.002261   0.000000   0.000214   0.000000
    25  O    8.205862  -0.024534  -0.000204   0.000000   0.000233   0.000000
    26  H   -0.024534   0.671530  -0.025426   0.000029   0.000395   0.000003
    27  C   -0.000204  -0.025426  12.002034  -0.047799   1.286426   0.002762
    28  N    0.000000   0.000029  -0.047799   6.962236  -0.303484  -0.046505
    29  C    0.000233   0.000395   1.286426  -0.303484   8.700624   0.009623
    30  H    0.000000   0.000003   0.002762  -0.046505   0.009623   0.510952
    31  C    0.222504  -0.040393  -0.003699  -0.000001  -0.001462   0.000000
    32  H    0.000010   0.005243   0.586840  -0.000290   0.166118  -0.000406
    33  C    0.000000   0.000175  -0.072957   0.298271   0.055689  -0.012946
    34  H   -0.000002  -0.000656  -0.054827  -0.036336   0.320117   0.002324
    35  H   -0.035048  -0.004971   0.002890   0.000002   0.001293   0.000000
    36  H   -0.036736  -0.019480   0.000069   0.000000   0.000881   0.000000
    37  H   -0.073070  -0.001170  -0.000021   0.000000  -0.000502   0.000000
    38  H    0.000000  -0.000010  -0.002815  -0.050246   0.035587   0.001517
    39  H    0.000000   0.000005  -0.005949  -0.047104   0.012414   0.014928
    40  H    0.000000   0.000021   0.002718  -0.054554   0.035985  -0.005233
    41  H    0.000319   0.002138  -0.009188   0.000002   0.000257   0.000000
             31         32         33         34         35         36
     1  C    0.251419   0.030671  -0.000046  -0.001454  -0.038704  -0.003522
     2  C   -0.317550  -0.008935   0.000258   0.002083   0.070362  -0.004055
     3  C   -0.198140  -0.101303   0.000179   0.006593  -0.023334  -0.005498
     4  C    0.093084  -0.024708  -0.000041   0.000608  -0.002117   0.002520
     5  C    0.007586   0.006678   0.000013  -0.000140   0.011984  -0.003583
     6  H   -0.000352  -0.000009   0.000000  -0.000001   0.000203  -0.000218
     7  C    0.001962   0.004815  -0.000004  -0.000056  -0.066141  -0.014839
     8  H    0.001153   0.000037   0.000000   0.000000  -0.001821  -0.000208
     9  C   -0.035411  -0.080469   0.008229   0.032561   0.014896  -0.001229
    10  C   -0.031364  -0.077469   0.013779   0.049526   0.002764   0.002919
    11  H    0.020429  -0.128462  -0.001944   0.023922  -0.000476   0.003061
    12  C   -0.009287   0.018460   0.007153   0.030339   0.000752   0.000494
    13  H   -0.000459   0.010368   0.000378  -0.001916   0.000215   0.000061
    14  C   -0.002878  -0.302336  -0.004796   0.186228  -0.005022   0.000527
    15  C    0.000164  -0.008365  -0.009197  -0.015477  -0.000824  -0.000310
    16  H    0.000022  -0.006084  -0.001023   0.001749  -0.000018  -0.000013
    17  C    0.000140  -0.058319  -0.094410   0.046582  -0.000181  -0.000004
    18  H   -0.000002   0.001099  -0.000781   0.002128   0.000002   0.000004
    19  C   -0.000422   0.258134  -0.177063  -0.314878  -0.000073   0.000304
    20  C   -0.000001   0.000387  -0.122551  -0.000754  -0.000002   0.000001
    21  H    0.000000  -0.000068  -0.007827  -0.000825   0.000000   0.000000
    22  H    0.000000  -0.000126   0.007876  -0.000502   0.000000   0.000000
    23  O   -0.000346   0.000491   0.000000   0.000059  -0.000114   0.000206
    24  O   -0.000959   0.000175   0.000000   0.000006   0.000018   0.000076
    25  O    0.222504   0.000010   0.000000  -0.000002  -0.035048  -0.036736
    26  H   -0.040393   0.005243   0.000175  -0.000656  -0.004971  -0.019480
    27  C   -0.003699   0.586840  -0.072957  -0.054827   0.002890   0.000069
    28  N   -0.000001  -0.000290   0.298271  -0.036336   0.000002   0.000000
    29  C   -0.001462   0.166118   0.055689   0.320117   0.001293   0.000881
    30  H    0.000000  -0.000406  -0.012946   0.002324   0.000000   0.000000
    31  C    5.240094  -0.003298  -0.000012   0.000309   0.399154   0.413575
    32  H   -0.003298   0.656603   0.005531  -0.065627  -0.002199   0.000273
    33  C   -0.000012   0.005531   5.259083   0.011665   0.000005  -0.000001
    34  H    0.000309  -0.065627   0.011665   0.554808  -0.000022  -0.000005
    35  H    0.399154  -0.002199   0.000005  -0.000022   0.611485  -0.076890
    36  H    0.413575   0.000273  -0.000001  -0.000005  -0.076890   0.593421
    37  H    0.401631  -0.000347  -0.000003   0.000045  -0.022325  -0.017896
    38  H   -0.000003   0.003634   0.398519  -0.011125   0.000004   0.000000
    39  H    0.000000  -0.000329   0.405462   0.007294   0.000000   0.000000
    40  H   -0.000003   0.002667   0.432447  -0.016221   0.000002  -0.000002
    41  H   -0.000249  -0.000550   0.000004   0.000047  -0.000105   0.000032
             37         38         39         40         41
     1  C    0.079794   0.000031  -0.000005   0.000018  -0.021561
     2  C   -0.051438  -0.000018   0.000013  -0.000046   0.012583
     3  C   -0.011930  -0.000088   0.000020  -0.000066  -0.111040
     4  C    0.003333   0.000002  -0.000001  -0.000002  -0.001448
     5  C   -0.004262  -0.000002   0.000001  -0.000001   0.099017
     6  H   -0.000080   0.000000   0.000000   0.000000   0.000000
     7  C    0.032274   0.000001   0.000000   0.000001   0.014502
     8  H    0.001340   0.000000   0.000000   0.000000   0.000307
     9  C   -0.004612  -0.001173   0.000583  -0.001139   0.036537
    10  C   -0.001899  -0.001588   0.001227  -0.001707  -0.018537
    11  H    0.001477  -0.000544  -0.000054  -0.000471   0.001203
    12  C   -0.001031  -0.002068   0.000891  -0.002402  -0.028624
    13  H   -0.000055   0.000053   0.000025   0.000100  -0.000866
    14  C    0.000106  -0.013083   0.006506  -0.007761   0.003115
    15  C    0.000087  -0.007991   0.011943  -0.005772  -0.000396
    16  H    0.000004  -0.000009  -0.000279  -0.000168   0.000199
    17  C    0.000021  -0.023433   0.014225  -0.014842  -0.000512
    18  H   -0.000001  -0.000794   0.002204  -0.000827  -0.000015
    19  C   -0.000067   0.020109  -0.027067  -0.008476  -0.000604
    20  C    0.000000   0.007487  -0.015163  -0.008212  -0.000003
    21  H    0.000000   0.001465  -0.004985   0.002513   0.000001
    22  H    0.000000  -0.004887   0.001484   0.001414   0.000001
    23  O   -0.000015   0.000000   0.000000   0.000000   0.208104
    24  O   -0.000030   0.000000   0.000000   0.000000   0.119173
    25  O   -0.073070   0.000000   0.000000   0.000000   0.000319
    26  H   -0.001170  -0.000010   0.000005   0.000021   0.002138
    27  C   -0.000021  -0.002815  -0.005949   0.002718  -0.009188
    28  N    0.000000  -0.050246  -0.047104  -0.054554   0.000002
    29  C   -0.000502   0.035587   0.012414   0.035985   0.000257
    30  H    0.000000   0.001517   0.014928  -0.005233   0.000000
    31  C    0.401631  -0.000003   0.000000  -0.000003  -0.000249
    32  H   -0.000347   0.003634  -0.000329   0.002667  -0.000550
    33  C   -0.000003   0.398519   0.405462   0.432447   0.000004
    34  H    0.000045  -0.011125   0.007294  -0.016221   0.000047
    35  H   -0.022325   0.000004   0.000000   0.000002  -0.000105
    36  H   -0.017896   0.000000   0.000000  -0.000002   0.000032
    37  H    0.466931   0.000000   0.000000   0.000000  -0.000022
    38  H    0.000000   0.569175  -0.025936  -0.058589  -0.000001
    39  H    0.000000  -0.025936   0.508420  -0.020715   0.000000
    40  H    0.000000  -0.058589  -0.020715   0.543744  -0.000001
    41  H   -0.000022  -0.000001   0.000000  -0.000001   0.309272
 Mulliken atomic charges:
              1
     1  C   -0.794325
     2  C    0.175991
     3  C    1.570767
     4  C   -0.978766
     5  C   -0.072971
     6  H    0.232543
     7  C   -0.261399
     8  H    0.238752
     9  C   -0.451878
    10  C    0.057212
    11  H   -0.025496
    12  C    0.350271
    13  H    0.230070
    14  C    1.194022
    15  C   -0.163290
    16  H    0.217269
    17  C   -0.230995
    18  H    0.194549
    19  C   -0.756827
    20  C   -0.400593
    21  H    0.185881
    22  H    0.170578
    23  O   -0.234503
    24  O   -0.412073
    25  O   -0.124603
    26  H    0.116398
    27  C   -0.851338
    28  N    0.061575
    29  C   -0.373688
    30  H    0.156217
    31  C   -0.406934
    32  H    0.111467
    33  C   -0.399115
    34  H    0.241828
    35  H    0.164354
    36  H    0.166067
    37  H    0.203732
    38  H    0.166818
    39  H    0.159941
    40  H    0.185581
    41  H    0.386906
 Sum of Mulliken atomic charges =   0.00000
 Mulliken charges with hydrogens summed into heavy atoms:
              1
     1  C   -0.794325
     2  C    0.292388
     3  C    1.570767
     4  C   -0.978766
     5  C    0.159573
     7  C   -0.022647
     9  C   -0.451878
    10  C    0.031717
    12  C    0.580341
    14  C    1.194022
    15  C    0.053980
    17  C   -0.036446
    19  C   -0.756827
    20  C    0.112082
    23  O    0.152403
    24  O   -0.412073
    25  O   -0.124603
    27  C   -0.739871
    28  N    0.061575
    29  C   -0.131859
    31  C    0.127220
    33  C    0.113226
 Sum of Mulliken charges with hydrogens summed into heavy atoms =   0.00000
 Electronic spatial extent (au):  <R**2>=          12021.3817
 Charge=              0.0000 electrons
 Dipole moment (field-independent basis, Debye):
    X=            -11.2092    Y=              5.0809    Z=              0.8336  Tot=             12.3352
 Quadrupole moment (field-independent basis, Debye-Ang):
   XX=           -107.6633   YY=           -129.3543   ZZ=           -135.7206
   XY=              9.9226   XZ=              2.3786   YZ=             -3.2005
 Traceless Quadrupole moment (field-independent basis, Debye-Ang):
   XX=             16.5827   YY=             -5.1082   ZZ=            -11.4745
   XY=              9.9226   XZ=              2.3786   YZ=             -3.2005
 Octapole moment (field-independent basis, Debye-Ang**2):
  XXX=           -389.3646  YYY=             57.4667  ZZZ=              3.3422  XYY=            -71.6991
  XXY=             75.5923  XXZ=              0.7997  XZZ=              2.0315  YZZ=              5.5150
  YYZ=             14.1857  XYZ=              9.5109
 Hexadecapole moment (field-independent basis, Debye-Ang**3):
 XXXX=         -11476.3171 YYYY=          -2200.7572 ZZZZ=           -277.2137 XXXY=            -89.9991
 XXXZ=            -42.4461 YYYX=            181.0398 YYYZ=             -8.6097 ZZZX=             18.3215
 ZZZY=              2.2937 XXYY=          -2734.8755 XXZZ=          -2422.3589 YYZZ=           -428.7359
 XXYZ=            -86.1654 YYXZ=             62.3510 ZZXY=              1.2793
 N-N= 1.617908607643D+03 E-N=-5.513844303591D+03  KE= 9.736597854041D+02
 1\1\GINC-DN117\FOpt\RwB97XD TD-FC\6-311++G(d,p)\C18H19N1O3\BTX008\30-O
 ct-2015\0\\#wb97xd opt 6-311++g** td(nstates=1,root=1)\\paramethoxy su
 bstituent keto form S1 geometry optimization\\0,1\C,13.163685346,6.973
 4389103,17.1836812125\C,12.6020746342,7.1889007444,15.9046402441\C,11.
 2436077215,7.3715872381,15.7504408897\C,10.3832192546,7.4466310215,16.
 9148596587\C,10.9944171407,7.2316864706,18.1864405561\H,10.3439705457,
 7.2486685501,19.0532512055\C,12.3440535277,6.9884147648,18.3194057559\
 H,12.796237591,6.8190083479,19.2890619712\C,10.6320663885,7.5777872868
 ,14.4256616089\C,11.173986162,7.0684639278,13.2408479285\H,12.07387812
 41,6.4725110288,13.332736197\C,10.608898075,7.2896094577,12.0046280478
 \H,9.7034847285,7.8894092251,11.981132599\C,11.0898170949,6.8110461799
 ,10.7426197839\C,10.4061180417,7.1580145582,9.5607035444\H,9.523721930
 6,7.786106265,9.6332902352\C,10.8163753215,6.7298763914,8.3172263488\H
 ,10.2475517136,7.0360845642,7.4496981785\C,11.9540935823,5.9063921828,
 8.173146015\C,11.7034159711,5.9414112634,5.7453799688\H,11.8011198045,
 7.0296209587,5.6355932946\H,10.637598001,5.6902999612,5.7450689494\O,9
 .5120662783,8.2714012814,14.3891279801\O,9.1454643457,7.7046989411,16.
 7890097098\O,14.4735681076,6.7538832823,17.3950392582\H,13.2442638079,
 7.2251404296,15.0341683415\C,12.2311771877,5.9989569529,10.5872330661\
 N,12.3584326644,5.4543394106,6.9410778221\C,12.654235709,5.5611573985,
 9.3512199514\H,12.1530086821,5.4705491071,4.872556421\C,15.3598760912,
 6.7197358299,16.2929322664\H,12.8034742337,5.6976869705,11.4576086819\
 C,13.5849109389,4.6966990823,6.8150315433\H,13.5403649687,4.9430235735
 ,9.2969027283\H,15.1014689342,5.9094173366,15.6033026554\H,15.36531380
 56,7.6742229713,15.7564663253\H,16.3468986925,6.5368022175,16.71265090
 14\H,13.5516864724,3.7874841107,7.4239660026\H,13.7124142426,4.3920945
 363,5.7773921606\H,14.4676117108,5.278890513,7.112478214\H,9.126212426
 2,8.2170867562,15.3301217774\\Version=EM64L-G09RevC.01\State=1-A\HF=-9
 77.6543528\RMSD=6.419e-09\RMSF=6.499e-06\Dipole=2.5577578,-0.9168424,-
 2.5166625\PG=C01 [X(C18H19N1O3)]\\@


 THE ONLY EXISTING THINGS ARE ATOMS AND EMPTY SPACE;
 ALL ELSE IS MERE OPINION. -- DEMOCRITUS OF ABDERA D. 370 B.C.
 EXPERIMENTS ARE THE ONLY MEANS OF KNOWLEDGE AT OUR DISPOSAL
 THE REST IS POETRY, IMAGINATION. -- MAX PLANCK
 Job cpu time: 15 days  2 hours 31 minutes 29.6 seconds.
 File lengths (MBytes):  RWF=    364 Int=      0 D2E=      0 Chk=     52 Scr=      1
 Normal termination of Gaussian 09 at Fri Oct 30 13:40:10 2015.
