 Entering Gaussian System, Link 0=g09
 Input=1_scan_solvated.com
 Output=1_scan_solvated.out
 Initial command:
 /share/apps/gaussian/g09_D01/g09/l1.exe "/tmp/3865418.1.smserial.q/Gau-15305.inp" -scrdir="/tmp/3865418.1.smserial.q/"
 Entering Link 1 = /share/apps/gaussian/g09_D01/g09/l1.exe PID=     15306.
  
 Copyright (c) 1988,1990,1992,1993,1995,1998,2003,2009,2013,
            Gaussian, Inc.  All Rights Reserved.
  
 This is part of the Gaussian(R) 09 program.  It is based on
 the Gaussian(R) 03 system (copyright 2003, Gaussian, Inc.),
 the Gaussian(R) 98 system (copyright 1998, Gaussian, Inc.),
 the Gaussian(R) 94 system (copyright 1995, Gaussian, Inc.),
 the Gaussian 92(TM) system (copyright 1992, Gaussian, Inc.),
 the Gaussian 90(TM) system (copyright 1990, Gaussian, Inc.),
 the Gaussian 88(TM) system (copyright 1988, Gaussian, Inc.),
 the Gaussian 86(TM) system (copyright 1986, Carnegie Mellon
 University), and the Gaussian 82(TM) system (copyright 1983,
 Carnegie Mellon University). Gaussian is a federally registered
 trademark of Gaussian, Inc.
  
 This software contains proprietary and confidential information,
 including trade secrets, belonging to Gaussian, Inc.
  
 This software is provided under written license and may be
 used, copied, transmitted, or stored only in accord with that
 written license.
  
 The following legend is applicable only to US Government
 contracts under FAR:
  
                    RESTRICTED RIGHTS LEGEND
  
 Use, reproduction and disclosure by the US Government is
 subject to restrictions as set forth in subparagraphs (a)
 and (c) of the Commercial Computer Software - Restricted
 Rights clause in FAR 52.227-19.
  
 Gaussian, Inc.
 340 Quinnipiac St., Bldg. 40, Wallingford CT 06492
  
  
 ---------------------------------------------------------------
 Warning -- This program may not be used in any manner that
 competes with the business of Gaussian, Inc. or will provide
 assistance to any competitor of Gaussian, Inc.  The licensee
 of this program is prohibited from giving any competitor of
 Gaussian, Inc. access to this program.  By using this program,
 the user acknowledges that Gaussian, Inc. is engaged in the
 business of creating and licensing software in the field of
 computational chemistry and represents and warrants to the
 licensee that it is not a competitor of Gaussian, Inc. and that
 it will not use this program in any manner prohibited above.
 ---------------------------------------------------------------
  

 Cite this work as:
 Gaussian 09, Revision D.01,
 M. J. Frisch, G. W. Trucks, H. B. Schlegel, G. E. Scuseria, 
 M. A. Robb, J. R. Cheeseman, G. Scalmani, V. Barone, B. Mennucci, 
 G. A. Petersson, H. Nakatsuji, M. Caricato, X. Li, H. P. Hratchian, 
 A. F. Izmaylov, J. Bloino, G. Zheng, J. L. Sonnenberg, M. Hada, 
 M. Ehara, K. Toyota, R. Fukuda, J. Hasegawa, M. Ishida, T. Nakajima, 
 Y. Honda, O. Kitao, H. Nakai, T. Vreven, J. A. Montgomery, Jr., 
 J. E. Peralta, F. Ogliaro, M. Bearpark, J. J. Heyd, E. Brothers, 
 K. N. Kudin, V. N. Staroverov, T. Keith, R. Kobayashi, J. Normand, 
 K. Raghavachari, A. Rendell, J. C. Burant, S. S. Iyengar, J. Tomasi, 
 M. Cossi, N. Rega, J. M. Millam, M. Klene, J. E. Knox, J. B. Cross, 
 V. Bakken, C. Adamo, J. Jaramillo, R. Gomperts, R. E. Stratmann, 
 O. Yazyev, A. J. Austin, R. Cammi, C. Pomelli, J. W. Ochterski, 
 R. L. Martin, K. Morokuma, V. G. Zakrzewski, G. A. Voth, 
 P. Salvador, J. J. Dannenberg, S. Dapprich, A. D. Daniels, 
 O. Farkas, J. B. Foresman, J. V. Ortiz, J. Cioslowski, 
 and D. J. Fox, Gaussian, Inc., Wallingford CT, 2013.
 
 ******************************************
 Gaussian 09:  ES64L-G09RevD.01 24-Apr-2013
                18-Nov-2016 
 ******************************************
 %chk=1_scan_solvated.chk
 %mem=16GB
 %nproc=4
 Will use up to    4 processors via shared memory.
 ----------------------------------------------------------------------
 # wb97xd 6-311++g** opt=modredundant td=(nstates=1,root=1) SCRF=(PCM,s
 olvent=dichloromethane)
 ----------------------------------------------------------------------
 1/14=-1,18=120,19=15,26=3,38=1/1,3;
 2/9=110,12=2,17=6,18=5,40=1/2;
 3/5=4,6=6,7=1111,11=9,16=1,25=1,30=1,70=2201,71=1,72=9,74=-58/1,2,8,3;
 4//1;
 5/5=2,38=5,53=9/2;
 8/6=1,10=2,107=1,108=1/1;
 9/8=1,15=2,41=1,42=1,70=2/14;
 10/5=4/2;
 6/7=2,8=2,9=2,10=2/1;
 7/12=6,13=5,14=1/1,2,3,16;
 1/14=-1,18=20,19=15,26=3/3(2);
 2/9=110/2;
 99//99;
 2/9=110/2;
 3/5=4,6=6,7=1111,11=9,16=1,25=1,30=1,70=2205,71=1,72=9,74=-58/1,2,8,3;
 4/5=5,16=3,69=1/1;
 5/5=2,38=5,53=9/2;
 8/6=1,10=2,107=1,108=1/1;
 9/8=1,15=2,41=1,42=1,49=4,70=2/14;
 10/5=4/2;
 7/12=6,13=5,14=1/1,2,3,16;
 1/14=-1,18=20,19=15,26=3/3(-8);
 2/9=110/2;
 6/7=2,8=2,9=2,10=2/1;
 99//99;
 -----
 title
 -----
 Symbolic Z-matrix:
 Charge =  0 Multiplicity = 1
 C                    -0.06545   0.25403   8.56511 
 H                     0.85661   0.76812   8.83022 
 H                    -0.89078   0.97433   8.59558 
 C                     1.28447  -0.01448   6.49921 
 H                     1.35163   1.05981   6.29823 
 N                     0.07488  -0.31883   7.24116 
 H                    -0.25574  -0.5283    9.30686 
 H                     1.27958  -0.54978   5.55082 
 H                     2.16539  -0.31874   7.07119 
 C                    -0.90908  -1.04213   6.69201 
 H                    -0.71179  -1.41831   5.69491 
 C                    -2.12251  -1.33571   7.29363 
 C                    -3.10389  -2.11755   6.64642 
 H                    -2.3329   -0.95758   8.28313 
 O                    -2.79698  -2.56437   5.41333 
 C                    -4.37525  -2.43722   7.24254 
 C                    -5.34967  -3.2639    6.4904 
 C                    -4.75529  -2.00401   8.51957 
 O                    -5.05943  -3.67457   5.32578 
 C                    -6.60144  -3.56806   7.09373 
 C                    -5.99924  -2.33125   9.06836 
 H                    -4.08373  -1.39904   9.11502 
 H                    -3.58452  -3.08407   5.10545 
 H                    -7.28952  -4.17406   6.51486 
 C                    -6.92452  -3.11119   8.3615 
 H                    -6.24576  -1.97108   10.06073 
 H                    -7.88287  -3.35267   8.80576 
 
 The following ModRedundant input section has been read:
 D      15      13      16      17 S   9 20.000                                
 

 GradGradGradGradGradGradGradGradGradGradGradGradGradGradGradGradGradGrad
 Berny optimization.
 Initialization pass.
                           ----------------------------
                           !    Initial Parameters    !
                           ! (Angstroms and Degrees)  !
 --------------------------                            --------------------------
 ! Name  Definition              Value          Derivative Info.                !
 --------------------------------------------------------------------------------
 ! R1    R(1,2)                  1.0885         estimate D2E/DX2                !
 ! R2    R(1,3)                  1.0959         estimate D2E/DX2                !
 ! R3    R(1,6)                  1.4494         estimate D2E/DX2                !
 ! R4    R(1,7)                  1.0947         estimate D2E/DX2                !
 ! R5    R(4,5)                  1.095          estimate D2E/DX2                !
 ! R6    R(4,6)                  1.4513         estimate D2E/DX2                !
 ! R7    R(4,8)                  1.089          estimate D2E/DX2                !
 ! R8    R(4,9)                  1.0935         estimate D2E/DX2                !
 ! R9    R(6,10)                 1.339          estimate D2E/DX2                !
 ! R10   R(10,11)                1.0838         estimate D2E/DX2                !
 ! R11   R(10,12)                1.3858         estimate D2E/DX2                !
 ! R12   R(12,13)                1.4118         estimate D2E/DX2                !
 ! R13   R(12,14)                1.08           estimate D2E/DX2                !
 ! R14   R(13,15)                1.347          estimate D2E/DX2                !
 ! R15   R(13,16)                1.4401         estimate D2E/DX2                !
 ! R16   R(15,23)                0.9925         estimate D2E/DX2                !
 ! R17   R(16,17)                1.4828         estimate D2E/DX2                !
 ! R18   R(16,18)                1.401          estimate D2E/DX2                !
 ! R19   R(17,19)                1.2686         estimate D2E/DX2                !
 ! R20   R(17,20)                1.4225         estimate D2E/DX2                !
 ! R21   R(18,21)                1.3985         estimate D2E/DX2                !
 ! R22   R(18,22)                1.0824         estimate D2E/DX2                !
 ! R23   R(20,24)                1.0843         estimate D2E/DX2                !
 ! R24   R(20,25)                1.3858         estimate D2E/DX2                !
 ! R25   R(21,25)                1.4015         estimate D2E/DX2                !
 ! R26   R(21,26)                1.0841         estimate D2E/DX2                !
 ! R27   R(25,27)                1.0836         estimate D2E/DX2                !
 ! A1    A(2,1,3)              108.7091         estimate D2E/DX2                !
 ! A2    A(2,1,6)              109.0955         estimate D2E/DX2                !
 ! A3    A(2,1,7)              108.6471         estimate D2E/DX2                !
 ! A4    A(3,1,6)              110.9843         estimate D2E/DX2                !
 ! A5    A(3,1,7)              108.6606         estimate D2E/DX2                !
 ! A6    A(6,1,7)              110.69           estimate D2E/DX2                !
 ! A7    A(5,4,6)              110.53           estimate D2E/DX2                !
 ! A8    A(5,4,8)              108.825          estimate D2E/DX2                !
 ! A9    A(5,4,9)              108.6379         estimate D2E/DX2                !
 ! A10   A(6,4,8)              109.7783         estimate D2E/DX2                !
 ! A11   A(6,4,9)              110.2228         estimate D2E/DX2                !
 ! A12   A(8,4,9)              108.8059         estimate D2E/DX2                !
 ! A13   A(1,6,4)              117.6975         estimate D2E/DX2                !
 ! A14   A(1,6,10)             121.1299         estimate D2E/DX2                !
 ! A15   A(4,6,10)             121.0701         estimate D2E/DX2                !
 ! A16   A(6,10,11)            115.5333         estimate D2E/DX2                !
 ! A17   A(6,10,12)            125.4379         estimate D2E/DX2                !
 ! A18   A(11,10,12)           119.0286         estimate D2E/DX2                !
 ! A19   A(10,12,13)           121.7989         estimate D2E/DX2                !
 ! A20   A(10,12,14)           119.6144         estimate D2E/DX2                !
 ! A21   A(13,12,14)           118.5864         estimate D2E/DX2                !
 ! A22   A(12,13,15)           116.4218         estimate D2E/DX2                !
 ! A23   A(12,13,16)           123.1495         estimate D2E/DX2                !
 ! A24   A(15,13,16)           120.4287         estimate D2E/DX2                !
 ! A25   A(13,15,23)           106.0735         estimate D2E/DX2                !
 ! A26   A(13,16,17)           119.5997         estimate D2E/DX2                !
 ! A27   A(13,16,18)           123.2397         estimate D2E/DX2                !
 ! A28   A(17,16,18)           117.1606         estimate D2E/DX2                !
 ! A29   A(16,17,19)           119.7243         estimate D2E/DX2                !
 ! A30   A(16,17,20)           118.8401         estimate D2E/DX2                !
 ! A31   A(19,17,20)           121.433          estimate D2E/DX2                !
 ! A32   A(16,18,21)           121.7779         estimate D2E/DX2                !
 ! A33   A(16,18,22)           120.3954         estimate D2E/DX2                !
 ! A34   A(21,18,22)           117.8267         estimate D2E/DX2                !
 ! A35   A(17,20,24)           116.8394         estimate D2E/DX2                !
 ! A36   A(17,20,25)           121.5125         estimate D2E/DX2                !
 ! A37   A(24,20,25)           121.648          estimate D2E/DX2                !
 ! A38   A(18,21,25)           121.3036         estimate D2E/DX2                !
 ! A39   A(18,21,26)           118.9307         estimate D2E/DX2                !
 ! A40   A(25,21,26)           119.7657         estimate D2E/DX2                !
 ! A41   A(20,25,21)           119.4052         estimate D2E/DX2                !
 ! A42   A(20,25,27)           120.5181         estimate D2E/DX2                !
 ! A43   A(21,25,27)           120.0767         estimate D2E/DX2                !
 ! D1    D(2,1,6,4)             -5.6529         estimate D2E/DX2                !
 ! D2    D(2,1,6,10)           177.9903         estimate D2E/DX2                !
 ! D3    D(3,1,6,4)            114.1049         estimate D2E/DX2                !
 ! D4    D(3,1,6,10)           -62.2519         estimate D2E/DX2                !
 ! D5    D(7,1,6,4)           -125.1533         estimate D2E/DX2                !
 ! D6    D(7,1,6,10)            58.4899         estimate D2E/DX2                !
 ! D7    D(5,4,6,1)            -62.9429         estimate D2E/DX2                !
 ! D8    D(5,4,6,10)           113.4161         estimate D2E/DX2                !
 ! D9    D(8,4,6,1)            177.0025         estimate D2E/DX2                !
 ! D10   D(8,4,6,10)            -6.6384         estimate D2E/DX2                !
 ! D11   D(9,4,6,1)             57.1649         estimate D2E/DX2                !
 ! D12   D(9,4,6,10)          -126.476          estimate D2E/DX2                !
 ! D13   D(1,6,10,11)          179.3889         estimate D2E/DX2                !
 ! D14   D(1,6,10,12)           -0.763          estimate D2E/DX2                !
 ! D15   D(4,6,10,11)            3.1552         estimate D2E/DX2                !
 ! D16   D(4,6,10,12)         -176.9968         estimate D2E/DX2                !
 ! D17   D(6,10,12,13)        -179.4487         estimate D2E/DX2                !
 ! D18   D(6,10,12,14)           0.7531         estimate D2E/DX2                !
 ! D19   D(11,10,12,13)          0.3945         estimate D2E/DX2                !
 ! D20   D(11,10,12,14)       -179.4037         estimate D2E/DX2                !
 ! D21   D(10,12,13,15)          0.0812         estimate D2E/DX2                !
 ! D22   D(10,12,13,16)       -179.829          estimate D2E/DX2                !
 ! D23   D(14,12,13,15)        179.8813         estimate D2E/DX2                !
 ! D24   D(14,12,13,16)         -0.0289         estimate D2E/DX2                !
 ! D25   D(12,13,15,23)       -179.7089         estimate D2E/DX2                !
 ! D26   D(16,13,15,23)          0.2039         estimate D2E/DX2                !
 ! D27   D(12,13,16,17)        179.9068         estimate D2E/DX2                !
 ! D28   D(12,13,16,18)         -0.0879         estimate D2E/DX2                !
 ! D29   D(15,13,16,17)          0.0            Scan                            !
 ! D30   D(15,13,16,18)       -179.9946         estimate D2E/DX2                !
 ! D31   D(13,16,17,19)         -0.4806         estimate D2E/DX2                !
 ! D32   D(13,16,17,20)       -179.8972         estimate D2E/DX2                !
 ! D33   D(18,16,17,19)        179.5143         estimate D2E/DX2                !
 ! D34   D(18,16,17,20)          0.0977         estimate D2E/DX2                !
 ! D35   D(13,16,18,21)        179.9148         estimate D2E/DX2                !
 ! D36   D(13,16,18,22)         -0.0998         estimate D2E/DX2                !
 ! D37   D(17,16,18,21)         -0.08           estimate D2E/DX2                !
 ! D38   D(17,16,18,22)        179.9054         estimate D2E/DX2                !
 ! D39   D(16,17,20,24)        179.9604         estimate D2E/DX2                !
 ! D40   D(16,17,20,25)         -0.0619         estimate D2E/DX2                !
 ! D41   D(19,17,20,24)          0.5542         estimate D2E/DX2                !
 ! D42   D(19,17,20,25)       -179.4681         estimate D2E/DX2                !
 ! D43   D(16,18,21,25)          0.024          estimate D2E/DX2                !
 ! D44   D(16,18,21,26)       -179.9833         estimate D2E/DX2                !
 ! D45   D(22,18,21,25)       -179.9618         estimate D2E/DX2                !
 ! D46   D(22,18,21,26)          0.0309         estimate D2E/DX2                !
 ! D47   D(17,20,25,21)          0.0042         estimate D2E/DX2                !
 ! D48   D(17,20,25,27)       -179.9945         estimate D2E/DX2                !
 ! D49   D(24,20,25,21)        179.9808         estimate D2E/DX2                !
 ! D50   D(24,20,25,27)         -0.0179         estimate D2E/DX2                !
 ! D51   D(18,21,25,20)          0.0169         estimate D2E/DX2                !
 ! D52   D(18,21,25,27)       -179.9844         estimate D2E/DX2                !
 ! D53   D(26,21,25,20)       -179.9757         estimate D2E/DX2                !
 ! D54   D(26,21,25,27)          0.023          estimate D2E/DX2                !
 --------------------------------------------------------------------------------
 Trust Radius=3.00D-01 FncErr=1.00D-07 GrdErr=1.00D-06
 Number of optimizations in scan=  10
 Number of steps in this run=    134 maximum allowed number of steps=    162.
 GradGradGradGradGradGradGradGradGradGradGradGradGradGradGradGradGradGrad

                          Input orientation:                          
 ---------------------------------------------------------------------
 Center     Atomic      Atomic             Coordinates (Angstroms)
 Number     Number       Type             X           Y           Z
 ---------------------------------------------------------------------
      1          6           0       -0.065451    0.254027    8.565106
      2          1           0        0.856610    0.768124    8.830221
      3          1           0       -0.890779    0.974332    8.595585
      4          6           0        1.284472   -0.014476    6.499212
      5          1           0        1.351628    1.059810    6.298234
      6          7           0        0.074881   -0.318826    7.241156
      7          1           0       -0.255739   -0.528298    9.306861
      8          1           0        1.279580   -0.549777    5.550824
      9          1           0        2.165393   -0.318741    7.071190
     10          6           0       -0.909080   -1.042127    6.692008
     11          1           0       -0.711792   -1.418310    5.694907
     12          6           0       -2.122506   -1.335706    7.293629
     13          6           0       -3.103893   -2.117546    6.646415
     14          1           0       -2.332903   -0.957582    8.283127
     15          8           0       -2.796979   -2.564372    5.413326
     16          6           0       -4.375250   -2.437220    7.242545
     17          6           0       -5.349673   -3.263896    6.490400
     18          6           0       -4.755291   -2.004009    8.519566
     19          8           0       -5.059431   -3.674574    5.325778
     20          6           0       -6.601441   -3.568065    7.093726
     21          6           0       -5.999245   -2.331251    9.068362
     22          1           0       -4.083730   -1.399042    9.115024
     23          1           0       -3.584521   -3.084068    5.105445
     24          1           0       -7.289520   -4.174058    6.514861
     25          6           0       -6.924518   -3.111193    8.361501
     26          1           0       -6.245764   -1.971082   10.060730
     27          1           0       -7.882875   -3.352670    8.805759
 ---------------------------------------------------------------------
                    Distance matrix (angstroms):
                    1          2          3          4          5
     1  C    0.000000
     2  H    1.088475   0.000000
     3  H    1.095872   1.775090   0.000000
     4  C    2.482399   2.495823   3.178716   0.000000
     5  H    2.792151   2.596359   3.211467   1.094985   0.000000
     6  N    1.449378   2.077905   2.106949   1.451282   2.102337
     7  H    1.094734   1.773476   1.779631   3.243325   3.762652
     8  H    3.397220   3.559524   4.037813   1.089041   1.776115
     9  H    2.745271   2.447116   3.651850   1.093507   1.777661
    10  C    2.429037   3.311589   2.773093   2.430001   3.111912
    11  H    3.384156   4.131655   3.764400   2.569577   3.280668
    12  C    2.894025   3.957568   2.923785   3.739552   4.335772
    13  C    4.305562   5.364856   4.272803   4.868503   5.483474
    14  H    2.586281   3.667474   2.430976   4.142125   4.646013
    15  O    5.033720   6.010775   5.126675   4.933494   5.579310
    16  C    5.250366   6.337768   5.060725   6.201184   6.776288
    17  C    6.678562   7.762081   6.502009   7.387198   7.977393
    18  C    5.205325   6.266950   4.879626   6.672242   7.184412
    19  O    7.132110   8.186466   7.048519   7.417437   8.028807
    20  C    7.713139   8.800027   7.449873   8.670010   9.235873
    21  C    6.492060   7.527655   6.103018   8.063530   8.556181
    22  H    4.379682   5.402285   4.012189   6.130016   6.597225
    23  H    5.957851   6.959668   5.992323   5.922168   6.554391
    24  H    8.717719   9.805381   8.472262   9.529728  10.104937
    25  C    7.642837   8.707167   7.290563   8.969130   9.494679
    26  H    6.736785   7.711104   6.284742   8.556704   9.003502
    27  H    8.612682   9.662305   8.225358  10.025165  10.537253
                    6          7          8          9         10
     6  N    0.000000
     7  H    2.102457   0.000000
     8  H    2.088507   4.057768   0.000000
     9  H    2.097410   3.302123   1.774699   0.000000
    10  C    1.338995   2.743780   2.516931   3.181108   0.000000
    11  H    2.053924   3.747842   2.177308   3.373633   1.083811
    12  C    2.421840   2.861788   3.902466   4.412457   1.385835
    13  C    3.700502   4.208998   4.782578   5.584040   2.444547
    14  H    2.700210   2.355191   4.547727   4.702295   2.136839
    15  O    4.078115   5.075738   4.549267   5.693550   2.741609
    16  C    4.928617   4.987560   6.196891   6.877305   3.776733
    17  C    6.217947   6.431494   7.224697   8.092433   4.969484
    18  C    5.273020   4.800368   6.880981   7.268686   4.365607
    19  O    6.425798   6.987384   7.070931   8.155131   5.101154
    20  C    7.426478   7.376048   8.579109   9.349652   6.240570
    21  C    6.654588   6.024565   8.278165   8.642928   5.763565
    22  H    4.687461   3.930460   6.495373   6.663021   4.009588
    23  H    5.059550   5.938404   5.502769   6.676279   3.720845
    24  H    8.344143   8.400054   9.353836  10.225867   7.109880
    25  C    7.618666   7.213714   9.042565   9.596310   6.576757
    26  H    7.115512   6.207282   8.887641   9.078279   6.378985
    27  H    8.658988   8.148704  10.119357  10.638662   7.644630
                   11         12         13         14         15
    11  H    0.000000
    12  C    2.133741   0.000000
    13  C    2.667667   1.411836   0.000000
    14  H    3.088552   1.079977   2.149132   0.000000
    15  O    2.395986   2.345224   1.346981   3.321581   0.000000
    16  C    4.105397   2.508146   1.440108   2.728245   2.419328
    17  C    5.054596   3.844178   2.526260   4.199269   2.857564
    18  C    4.967054   2.980119   2.499740   2.649317   3.714528
    19  O    4.912123   4.238900   2.827109   4.854062   2.521686
    20  C    6.423870   5.008418   3.812733   5.142929   4.278443
    21  C    6.338046   4.378344   3.780815   3.993197   4.864992
    22  H    4.802868   2.677292   2.751429   1.988048   4.088556
    23  H    3.372653   3.159495   1.881424   4.023202   0.992521
    24  H    7.178647   5.946491   4.665407   6.167701   4.897693
    25  C    6.969544   5.229916   4.304187   5.072190   5.101698
    26  H    7.070419   5.006177   4.642236   4.415602   5.817601
    27  H    8.052551   6.287808   5.387668   6.067271   6.164118
                   16         17         18         19         20
    16  C    0.000000
    17  C    1.482773   0.000000
    18  C    1.401030   2.461325   0.000000
    19  O    2.381836   1.268559   3.617122   0.000000
    20  C    2.501377   1.422478   2.808480   2.348357   0.000000
    21  C    2.445853   2.817385   1.398458   4.085915   2.406561
    22  H    2.160781   3.459616   1.082382   4.526414   3.889624
    23  H    2.368726   2.250822   3.767420   1.603934   3.645452
    24  H    3.469741   2.142895   3.892335   2.576179   1.084327
    25  C    2.864449   2.450402   2.440570   3.607154   1.385772
    26  H    3.414422   3.901487   2.144244   5.170014   3.388211
    27  H    3.947799   3.433056   3.417977   4.492852   2.149307
                   21         22         23         24         25
    21  C    0.000000
    22  H    2.130819   0.000000
    23  H    4.701312   4.377813   0.000000
    24  H    3.403104   4.973797   4.111149   0.000000
    25  C    1.401461   3.401372   4.664570   2.161709   0.000000
    26  H    1.084107   2.428164   5.733743   4.302990   2.155908
    27  H    2.158777   4.283200   5.678055   2.504987   1.083570
                   26         27
    26  H    0.000000
    27  H    2.482714   0.000000
 Stoichiometry    C11H13NO2
 Framework group  C1[X(C11H13NO2)]
 Deg. of freedom    75
 Full point group                 C1      NOp   1
 Largest Abelian subgroup         C1      NOp   1
 Largest concise Abelian subgroup C1      NOp   1
                         Standard orientation:                         
 ---------------------------------------------------------------------
 Center     Atomic      Atomic             Coordinates (Angstroms)
 Number     Number       Type             X           Y           Z
 ---------------------------------------------------------------------
      1          6           0       -3.670874    1.654985   -0.015608
      2          1           0       -4.714112    1.962011   -0.062174
      3          1           0       -3.224165    2.065093    0.897188
      4          6           0       -4.851646   -0.527861    0.041540
      5          1           0       -5.370777   -0.321985    0.983406
      6          7           0       -3.601937    0.207262   -0.022042
      7          1           0       -3.144588    2.071114   -0.880652
      8          1           0       -4.654165   -1.596809   -0.024500
      9          1           0       -5.503333   -0.237918   -0.787311
     10          6           0       -2.424209   -0.429729   -0.011647
     11          1           0       -2.478570   -1.512167   -0.007248
     12          6           0       -1.180272    0.181133   -0.009295
     13          6           0        0.016423   -0.568001   -0.009593
     14          1           0       -1.115095    1.259128   -0.003861
     15          8           0       -0.115599   -1.908489   -0.013996
     16          6           0        1.323673    0.036128   -0.003596
     17          6           0        2.529364   -0.826961   -0.002280
     18          6           0        1.529206    1.421992    0.001288
     19          8           0        2.399573   -2.088853    0.002799
     20          6           0        3.812578   -0.213170    0.005904
     21          6           0        2.813195    1.976068    0.008827
     22          1           0        0.686046    2.100686   -0.000946
     23          1           0        0.806573   -2.275461   -0.008724
     24          1           0        4.671705   -0.874730    0.007304
     25          6           0        3.956201    1.165129    0.011340
     26          1           0        2.918769    3.055016    0.012652
     27          1           0        4.941654    1.615648    0.017463
 ---------------------------------------------------------------------
 Rotational constants (GHZ):      1.6193245      0.3201850      0.2682459
 Standard basis: 6-311++G(d,p) (5D, 7F)
 There are   413 symmetry adapted cartesian basis functions of A   symmetry.
 There are   399 symmetry adapted basis functions of A   symmetry.
   399 basis functions,   621 primitive gaussians,   413 cartesian basis functions
    51 alpha electrons       51 beta electrons
       nuclear repulsion energy       835.4574457341 Hartrees.
 NAtoms=   27 NActive=   27 NUniq=   27 SFac= 1.00D+00 NAtFMM=   60 NAOKFM=F Big=F
 Integral buffers will be    131072 words long.
 Raffenetti 1 integral format.
 Two-electron integral symmetry is turned on.
 Nuclear repulsion after empirical dispersion term =      835.4424496749 Hartrees.
 ------------------------------------------------------------------------------
 Polarizable Continuum Model (PCM)
 =================================
 Model                : PCM (using non-symmetric T matrix).
 Atomic radii         : UFF (Universal Force Field).
 Polarization charges : Total charges.
 Charge compensation  : None.
 Solution method      : On-the-fly selection.
 Cavity type          : Scaled VdW (van der Waals Surface) (Alpha=1.100).
 Cavity algorithm     : GePol (No added spheres)
                        Default sphere list used, NSphG=   27.
                        Lebedev-Laikov grids with approx.  5.0 points / Ang**2.
                        Smoothing algorithm: Karplus/York (Gamma=1.0000).
                        Polarization charges: spherical gaussians, with
                                              point-specific exponents (IZeta= 3).
                        Self-potential: point-specific (ISelfS= 7).
                        Self-field    : sphere-specific E.n sum rule (ISelfD= 2).
 1st derivatives      : Analytical E(r).r(x)/FMM algorithm (CHGder, D1EAlg=3).
                        Cavity 1st derivative terms included.
 Solvent              : Dichloromethane, Eps=   8.930000 Eps(inf)=   2.028346
 ------------------------------------------------------------------------------
 One-electron integrals computed using PRISM.
 NBasis=   399 RedAO= T EigKep=  1.51D-06  NBF=   399
 NBsUse=   396 1.00D-06 EigRej=  7.71D-07 NBFU=   396
 ExpMin= 3.60D-02 ExpMax= 8.59D+03 ExpMxC= 1.30D+03 IAcc=3 IRadAn=         5 AccDes= 0.00D+00
 Harris functional with IExCor= 4639 and IRadAn=       5 diagonalized for initial guess.
 HarFok:  IExCor= 4639 AccDes= 0.00D+00 IRadAn=         5 IDoV= 1 UseB2=F ITyADJ=14
 ICtDFT=  3500011 ScaDFX=  1.000000  1.000000  1.000000  1.000000
 FoFCou: FMM=F IPFlag=           0 FMFlag=      100000 FMFlg1=           0
         NFxFlg=           0 DoJE=T BraDBF=F KetDBF=T FulRan=T
         wScrn=  0.000000 ICntrl=     500 IOpCl=  0 I1Cent=   200000004 NGrid=           0
         NMat0=    1 NMatS0=      1 NMatT0=    0 NMatD0=    1 NMtDS0=    0 NMtDT0=    0
 Petite list used in FoFCou.
 Requested convergence on RMS density matrix=1.00D-08 within 128 cycles.
 Requested convergence on MAX density matrix=1.00D-06.
 Requested convergence on             energy=1.00D-06.
 No special actions if energy rises.
 Inv3:  Mode=1 IEnd=    13154508.
 Iteration    1 A*A^-1 deviation from unit magnitude is 4.66D-15 for   2070.
 Iteration    1 A*A^-1 deviation from orthogonality  is 3.12D-15 for   2066    128.
 Iteration    1 A^-1*A deviation from unit magnitude is 5.00D-15 for   2091.
 Iteration    1 A^-1*A deviation from orthogonality  is 8.32D-13 for   1999   1912.
 Error on total polarization charges =  0.01460
 SCF Done:  E(RwB97XD) =  -632.146285928     A.U. after   17 cycles
            NFock= 17  Conv=0.45D-08     -V/T= 2.0044
 DoSCS=F DFT=T ScalE2(SS,OS)=  1.000000  1.000000
 ExpMin= 3.60D-02 ExpMax= 8.59D+03 ExpMxC= 1.30D+03 IAcc=3 IRadAn=         5 AccDes= 0.00D+00
 HarFok:  IExCor=  205 AccDes= 0.00D+00 IRadAn=         5 IDoV=-2 UseB2=F ITyADJ=14
 ICtDFT= 12500011 ScaDFX=  1.000000  1.000000  1.000000  1.000000
 Range of M.O.s used for correlation:    15   396
 NBasis=   399 NAE=    51 NBE=    51 NFC=    14 NFV=     0
 NROrb=    382 NOA=    37 NOB=    37 NVA=   345 NVB=   345

 **** Warning!!: The largest alpha MO coefficient is  0.19258898D+03

 Would need an additional         16992400000 words for in-memory AO integral storage.
 NEqPCM:  Using equilibrium solvation (IEInf=0, Eps=   8.9300, EpsInf=   2.0283)
 Orbital symmetries:
       Occupied  (A) (A) (A) (A) (A) (A) (A) (A) (A) (A) (A) (A)
                 (A) (A) (A) (A) (A) (A) (A) (A) (A) (A) (A) (A)
                 (A) (A) (A) (A) (A) (A) (A) (A) (A) (A) (A) (A)
                 (A) (A) (A) (A) (A) (A) (A) (A) (A) (A) (A) (A)
                 (A) (A) (A)
       Virtual   (A) (A) (A) (A) (A) (A) (A) (A) (A) (A) (A) (A)
                 (A) (A) (A) (A) (A) (A) (A) (A) (A) (A) (A) (A)
                 (A) (A) (A) (A) (A) (A) (A) (A) (A) (A) (A) (A)
                 (A) (A) (A) (A) (A) (A) (A) (A) (A) (A) (A) (A)
                 (A) (A) (A) (A) (A) (A) (A) (A) (A) (A) (A) (A)
                 (A) (A) (A) (A) (A) (A) (A) (A) (A) (A) (A) (A)
                 (A) (A) (A) (A) (A) (A) (A) (A) (A) (A) (A) (A)
                 (A) (A) (A) (A) (A) (A) (A) (A) (A) (A) (A) (A)
                 (A) (A) (A) (A) (A) (A) (A) (A) (A) (A) (A) (A)
                 (A) (A) (A) (A) (A) (A) (A) (A) (A) (A) (A) (A)
                 (A) (A) (A) (A) (A) (A) (A) (A) (A) (A) (A) (A)
                 (A) (A) (A) (A) (A) (A) (A) (A) (A) (A) (A) (A)
                 (A) (A) (A) (A) (A) (A) (A) (A) (A) (A) (A) (A)
                 (A) (A) (A) (A) (A) (A) (A) (A) (A) (A) (A) (A)
                 (A) (A) (A) (A) (A) (A) (A) (A) (A) (A) (A) (A)
                 (A) (A) (A) (A) (A) (A) (A) (A) (A) (A) (A) (A)
                 (A) (A) (A) (A) (A) (A) (A) (A) (A) (A) (A) (A)
                 (A) (A) (A) (A) (A) (A) (A) (A) (A) (A) (A) (A)
                 (A) (A) (A) (A) (A) (A) (A) (A) (A) (A) (A) (A)
                 (A) (A) (A) (A) (A) (A) (A) (A) (A) (A) (A) (A)
                 (A) (A) (A) (A) (A) (A) (A) (A) (A) (A) (A) (A)
                 (A) (A) (A) (A) (A) (A) (A) (A) (A) (A) (A) (A)
                 (A) (A) (A) (A) (A) (A) (A) (A) (A) (A) (A) (A)
                 (A) (A) (A) (A) (A) (A) (A) (A) (A) (A) (A) (A)
                 (A) (A) (A) (A) (A) (A) (A) (A) (A) (A) (A) (A)
                 (A) (A) (A) (A) (A) (A) (A) (A) (A) (A) (A) (A)
                 (A) (A) (A) (A) (A) (A) (A) (A) (A) (A) (A) (A)
                 (A) (A) (A) (A) (A) (A) (A) (A) (A) (A) (A) (A)
                 (A) (A) (A) (A) (A) (A) (A) (A) (A)
     8 initial guesses have been made.
 Convergence on wavefunction:    0.000001000000000
 Iteration     1 Dimension     8 NMult     0 NNew      8
 CISAX will form     8 AO SS matrices at one time.
 Iteration     2 Dimension    12 NMult     8 NNew      4
 Iteration     3 Dimension    16 NMult    12 NNew      4
 Iteration     4 Dimension    20 NMult    16 NNew      4
 Iteration     5 Dimension    24 NMult    20 NNew      4
 Iteration     6 Dimension    28 NMult    24 NNew      4
 Iteration     7 Dimension    32 NMult    28 NNew      4
 Iteration     8 Dimension    36 NMult    32 NNew      4
 Iteration     9 Dimension    40 NMult    36 NNew      4
 Iteration    10 Dimension    44 NMult    40 NNew      4
 Iteration    11 Dimension    48 NMult    44 NNew      4
 Iteration    12 Dimension    52 NMult    48 NNew      4
 ***********************************************************************
 Excited states from <AA,BB:AA,BB> singles matrix:
 ***********************************************************************
 
 Ground to excited state transition densities written to RWF  633
 Ground to excited state transition electric dipole moments (Au):
       state          X           Y           Z        Dip. S.      Osc.
         1        -3.2370      0.3311      0.0018     10.5876      0.7382
 Ground to excited state transition velocity dipole moments (Au):
       state          X           Y           Z        Dip. S.      Osc.
         1         0.3381     -0.0397     -0.0003      0.1159      0.7390
 Ground to excited state transition magnetic dipole moments (Au):
       state          X           Y           Z
         1        -0.0017     -0.0123     -0.6357
 Ground to excited state transition velocity quadrupole moments (Au):
       state          XX          YY          ZZ          XY          XZ          YZ
         1         0.2366      0.1909     -0.0180     -0.0682      0.0091      0.0007
 <0|del|b> * <b|rxdel|0> + <0|del|b> * <b|delr+rdel|0>
 Rotatory Strengths (R) in cgs (10**-40 erg-esu-cm/Gauss)
       state          XX          YY          ZZ    R(velocity)    E-M Angle
         1         3.5064     -0.6850     -2.2642      0.1857       90.00
 1/2[<0|r|b>*<b|rxdel|0> + (<0|rxdel|b>*<b|r|0>)*]
 Rotatory Strengths (R) in cgs (10**-40 erg-esu-cm/Gauss)
       state          XX          YY          ZZ     R(length)
         1        -3.9025      2.8806      0.8153     -0.0689
  1/2[<0|del|b>*<b|r|0> + (<0|r|b>*<b|del|0>)*] (Au)
       state          X           Y           Z        Dip. S.   Osc.(frdel)
         1        -1.0946     -0.0132      0.0000      1.1077      0.7385

 Excitation energies and oscillator strengths:
 
 Excited State   1:      Singlet-A      2.8458 eV  435.68 nm  f=0.7382  <S**2>=0.000
      51 -> 52         0.69184
 This state for optimization and/or second-order correction.
 Total Energy, E(TD-HF/TD-KS) =  -632.041705823    
 Copying the excited state density for this state as the 1-particle RhoCI density.
 SavETr:  write IOETrn=   770 NScale= 10 NData=  16 NLR=1 NState=    1 LETran=      28.
          IDoAtm=111111111111111111111111111
 NEqPCM:  Using equilibrium solvation (IEInf=0, Eps=   8.9300, EpsInf=   2.0283)
          Differentiating once with respect to electric field.
                with respect to dipole field.
          Differentiating once with respect to nuclear coordinates.
          There are     1 degrees of freedom in the 1st order CPHF.  IDoFFX=0 NUNeed=     1.
 LinEq1:  Iter=  0 NonCon=     1 RMS=4.36D-03 Max=2.71D-01 NDo=     1
 AX will form     1 AO Fock derivatives at one time.
 LinEq1:  Iter=  1 NonCon=     1 RMS=1.62D-03 Max=8.31D-02 NDo=     1
 LinEq1:  Iter=  2 NonCon=     1 RMS=1.21D-03 Max=4.90D-02 NDo=     1
 LinEq1:  Iter=  3 NonCon=     1 RMS=3.93D-04 Max=1.85D-02 NDo=     1
 LinEq1:  Iter=  4 NonCon=     1 RMS=2.23D-04 Max=8.83D-03 NDo=     1
 LinEq1:  Iter=  5 NonCon=     1 RMS=1.00D-04 Max=3.93D-03 NDo=     1
 LinEq1:  Iter=  6 NonCon=     1 RMS=5.40D-05 Max=3.36D-03 NDo=     1
 LinEq1:  Iter=  7 NonCon=     1 RMS=2.47D-05 Max=8.25D-04 NDo=     1
 LinEq1:  Iter=  8 NonCon=     1 RMS=1.20D-05 Max=3.90D-04 NDo=     1
 LinEq1:  Iter=  9 NonCon=     1 RMS=5.74D-06 Max=2.29D-04 NDo=     1
 LinEq1:  Iter= 10 NonCon=     1 RMS=2.21D-06 Max=5.02D-05 NDo=     1
 LinEq1:  Iter= 11 NonCon=     1 RMS=1.05D-06 Max=3.05D-05 NDo=     1
 LinEq1:  Iter= 12 NonCon=     1 RMS=3.63D-07 Max=1.14D-05 NDo=     1
 LinEq1:  Iter= 13 NonCon=     1 RMS=2.05D-07 Max=5.52D-06 NDo=     1
 LinEq1:  Iter= 14 NonCon=     1 RMS=8.70D-08 Max=4.33D-06 NDo=     1
 LinEq1:  Iter= 15 NonCon=     1 RMS=5.00D-08 Max=1.45D-06 NDo=     1
 LinEq1:  Iter= 16 NonCon=     1 RMS=1.71D-08 Max=5.36D-07 NDo=     1
 LinEq1:  Iter= 17 NonCon=     1 RMS=7.01D-09 Max=2.00D-07 NDo=     1
 LinEq1:  Iter= 18 NonCon=     1 RMS=2.80D-09 Max=1.10D-07 NDo=     1
 LinEq1:  Iter= 19 NonCon=     1 RMS=9.76D-10 Max=3.40D-08 NDo=     1
 LinEq1:  Iter= 20 NonCon=     1 RMS=4.46D-10 Max=1.73D-08 NDo=     1
 LinEq1:  Iter= 21 NonCon=     1 RMS=1.43D-10 Max=4.01D-09 NDo=     1
 LinEq1:  Iter= 22 NonCon=     1 RMS=6.27D-11 Max=1.92D-09 NDo=     1
 LinEq1:  Iter= 23 NonCon=     1 RMS=2.70D-11 Max=1.11D-09 NDo=     1
 LinEq1:  Iter= 24 NonCon=     0 RMS=1.21D-11 Max=3.73D-10 NDo=     1
 Linear equations converged to 1.000D-10 1.000D-09 after    24 iterations.
 End of Minotr F.D. properties file   721 does not exist.
 End of Minotr F.D. properties file   722 does not exist.
 End of Minotr F.D. properties file   788 does not exist.

 **********************************************************************

            Population analysis using the SCF density.

 **********************************************************************

 Orbital symmetries:
       Occupied  (A) (A) (A) (A) (A) (A) (A) (A) (A) (A) (A) (A)
                 (A) (A) (A) (A) (A) (A) (A) (A) (A) (A) (A) (A)
                 (A) (A) (A) (A) (A) (A) (A) (A) (A) (A) (A) (A)
                 (A) (A) (A) (A) (A) (A) (A) (A) (A) (A) (A) (A)
                 (A) (A) (A)
       Virtual   (A) (A) (A) (A) (A) (A) (A) (A) (A) (A) (A) (A)
                 (A) (A) (A) (A) (A) (A) (A) (A) (A) (A) (A) (A)
                 (A) (A) (A) (A) (A) (A) (A) (A) (A) (A) (A) (A)
                 (A) (A) (A) (A) (A) (A) (A) (A) (A) (A) (A) (A)
                 (A) (A) (A) (A) (A) (A) (A) (A) (A) (A) (A) (A)
                 (A) (A) (A) (A) (A) (A) (A) (A) (A) (A) (A) (A)
                 (A) (A) (A) (A) (A) (A) (A) (A) (A) (A) (A) (A)
                 (A) (A) (A) (A) (A) (A) (A) (A) (A) (A) (A) (A)
                 (A) (A) (A) (A) (A) (A) (A) (A) (A) (A) (A) (A)
                 (A) (A) (A) (A) (A) (A) (A) (A) (A) (A) (A) (A)
                 (A) (A) (A) (A) (A) (A) (A) (A) (A) (A) (A) (A)
                 (A) (A) (A) (A) (A) (A) (A) (A) (A) (A) (A) (A)
                 (A) (A) (A) (A) (A) (A) (A) (A) (A) (A) (A) (A)
                 (A) (A) (A) (A) (A) (A) (A) (A) (A) (A) (A) (A)
                 (A) (A) (A) (A) (A) (A) (A) (A) (A) (A) (A) (A)
                 (A) (A) (A) (A) (A) (A) (A) (A) (A) (A) (A) (A)
                 (A) (A) (A) (A) (A) (A) (A) (A) (A) (A) (A) (A)
                 (A) (A) (A) (A) (A) (A) (A) (A) (A) (A) (A) (A)
                 (A) (A) (A) (A) (A) (A) (A) (A) (A) (A) (A) (A)
                 (A) (A) (A) (A) (A) (A) (A) (A) (A) (A) (A) (A)
                 (A) (A) (A) (A) (A) (A) (A) (A) (A) (A) (A) (A)
                 (A) (A) (A) (A) (A) (A) (A) (A) (A) (A) (A) (A)
                 (A) (A) (A) (A) (A) (A) (A) (A) (A) (A) (A) (A)
                 (A) (A) (A) (A) (A) (A) (A) (A) (A) (A) (A) (A)
                 (A) (A) (A) (A) (A) (A) (A) (A) (A) (A) (A) (A)
                 (A) (A) (A) (A) (A) (A) (A) (A) (A) (A) (A) (A)
                 (A) (A) (A) (A) (A) (A) (A) (A) (A) (A) (A) (A)
                 (A) (A) (A) (A) (A) (A) (A) (A) (A) (A) (A) (A)
                 (A) (A) (A) (A) (A) (A) (A) (A) (A)
 The electronic state is 1-A.
 Alpha  occ. eigenvalues --  -19.28777 -19.20393 -14.50349 -10.39972 -10.36490
 Alpha  occ. eigenvalues --  -10.35316 -10.32952 -10.32877 -10.30230 -10.29913
 Alpha  occ. eigenvalues --  -10.29635 -10.29053 -10.28047 -10.27634  -1.18548
 Alpha  occ. eigenvalues --   -1.10639  -1.09442  -0.95251  -0.91347  -0.87105
 Alpha  occ. eigenvalues --   -0.84800  -0.82799  -0.80798  -0.74335  -0.70279
 Alpha  occ. eigenvalues --   -0.69459  -0.66655  -0.63268  -0.61381  -0.59687
 Alpha  occ. eigenvalues --   -0.58173  -0.57829  -0.56225  -0.53100  -0.52613
 Alpha  occ. eigenvalues --   -0.52371  -0.50785  -0.50614  -0.50107  -0.49448
 Alpha  occ. eigenvalues --   -0.48396  -0.47547  -0.47412  -0.45084  -0.43479
 Alpha  occ. eigenvalues --   -0.42668  -0.41411  -0.35791  -0.33183  -0.31301
 Alpha  occ. eigenvalues --   -0.26849
 Alpha virt. eigenvalues --   -0.02636   0.03781   0.04672   0.05299   0.05567
 Alpha virt. eigenvalues --    0.06097   0.06326   0.06868   0.07857   0.08131
 Alpha virt. eigenvalues --    0.08200   0.08759   0.09326   0.09860   0.10731
 Alpha virt. eigenvalues --    0.11241   0.11860   0.12654   0.13238   0.13686
 Alpha virt. eigenvalues --    0.13841   0.14710   0.15067   0.15645   0.16063
 Alpha virt. eigenvalues --    0.16078   0.16383   0.16704   0.17141   0.17238
 Alpha virt. eigenvalues --    0.17888   0.18211   0.18790   0.18959   0.19078
 Alpha virt. eigenvalues --    0.19679   0.19904   0.20546   0.20876   0.21512
 Alpha virt. eigenvalues --    0.21615   0.21771   0.21901   0.22911   0.23152
 Alpha virt. eigenvalues --    0.24195   0.24450   0.24499   0.25172   0.25900
 Alpha virt. eigenvalues --    0.26085   0.26539   0.26795   0.27177   0.27488
 Alpha virt. eigenvalues --    0.27807   0.28257   0.28539   0.29384   0.29663
 Alpha virt. eigenvalues --    0.29855   0.30676   0.32022   0.32736   0.32906
 Alpha virt. eigenvalues --    0.33260   0.33878   0.34460   0.35093   0.35494
 Alpha virt. eigenvalues --    0.36003   0.36195   0.36937   0.37390   0.37746
 Alpha virt. eigenvalues --    0.38318   0.38596   0.39044   0.39494   0.39727
 Alpha virt. eigenvalues --    0.40788   0.41110   0.42436   0.42977   0.43369
 Alpha virt. eigenvalues --    0.44441   0.44597   0.46183   0.47276   0.48460
 Alpha virt. eigenvalues --    0.50127   0.51095   0.51767   0.52597   0.53024
 Alpha virt. eigenvalues --    0.54484   0.55986   0.57180   0.58527   0.59856
 Alpha virt. eigenvalues --    0.61477   0.61893   0.62425   0.63600   0.64313
 Alpha virt. eigenvalues --    0.64877   0.65711   0.65788   0.67093   0.67468
 Alpha virt. eigenvalues --    0.68525   0.69276   0.69801   0.69895   0.70802
 Alpha virt. eigenvalues --    0.71128   0.71611   0.72096   0.72919   0.74147
 Alpha virt. eigenvalues --    0.75117   0.76036   0.76655   0.77919   0.78562
 Alpha virt. eigenvalues --    0.78971   0.79958   0.80595   0.82928   0.83615
 Alpha virt. eigenvalues --    0.85530   0.86170   0.87122   0.88368   0.89377
 Alpha virt. eigenvalues --    0.91592   0.93809   0.94065   0.94872   0.95420
 Alpha virt. eigenvalues --    0.96470   0.97304   0.97787   0.99230   1.00449
 Alpha virt. eigenvalues --    1.01701   1.03408   1.04115   1.04832   1.06077
 Alpha virt. eigenvalues --    1.07297   1.07611   1.09290   1.11144   1.11315
 Alpha virt. eigenvalues --    1.12555   1.13324   1.14468   1.15179   1.15672
 Alpha virt. eigenvalues --    1.18250   1.18647   1.19095   1.20927   1.21112
 Alpha virt. eigenvalues --    1.21807   1.29427   1.30261   1.30859   1.33176
 Alpha virt. eigenvalues --    1.33546   1.37042   1.37682   1.39839   1.43104
 Alpha virt. eigenvalues --    1.44668   1.46876   1.51179   1.52080   1.52630
 Alpha virt. eigenvalues --    1.53785   1.55032   1.56779   1.57951   1.58386
 Alpha virt. eigenvalues --    1.59386   1.61243   1.63147   1.63491   1.64764
 Alpha virt. eigenvalues --    1.65121   1.65372   1.66842   1.67608   1.68623
 Alpha virt. eigenvalues --    1.69544   1.71496   1.74238   1.75006   1.76211
 Alpha virt. eigenvalues --    1.77086   1.78648   1.80765   1.81376   1.82515
 Alpha virt. eigenvalues --    1.82965   1.83663   1.83830   1.85239   1.87724
 Alpha virt. eigenvalues --    1.88252   1.89629   1.93277   1.95297   1.96731
 Alpha virt. eigenvalues --    1.97639   1.99280   2.00161   2.00929   2.02277
 Alpha virt. eigenvalues --    2.04152   2.05963   2.06892   2.07488   2.08029
 Alpha virt. eigenvalues --    2.09631   2.10466   2.12524   2.13921   2.15488
 Alpha virt. eigenvalues --    2.17379   2.20642   2.21209   2.24697   2.25184
 Alpha virt. eigenvalues --    2.25579   2.31105   2.33487   2.35673   2.38256
 Alpha virt. eigenvalues --    2.39933   2.40661   2.42426   2.45850   2.47392
 Alpha virt. eigenvalues --    2.51058   2.53697   2.55173   2.55686   2.57671
 Alpha virt. eigenvalues --    2.58954   2.59545   2.61314   2.63293   2.64246
 Alpha virt. eigenvalues --    2.66864   2.70413   2.71126   2.71408   2.73350
 Alpha virt. eigenvalues --    2.77040   2.77598   2.80109   2.80330   2.80917
 Alpha virt. eigenvalues --    2.82555   2.83532   2.84107   2.85501   2.85988
 Alpha virt. eigenvalues --    2.86222   2.88138   2.89864   2.90961   2.92345
 Alpha virt. eigenvalues --    2.93062   2.95490   2.96327   2.96741   2.99582
 Alpha virt. eigenvalues --    3.01930   3.04432   3.06519   3.10716   3.13052
 Alpha virt. eigenvalues --    3.16337   3.17364   3.19731   3.19882   3.23932
 Alpha virt. eigenvalues --    3.26950   3.29059   3.31621   3.34456   3.39714
 Alpha virt. eigenvalues --    3.42024   3.44053   3.50631   3.52098   3.57999
 Alpha virt. eigenvalues --    3.60349   3.63649   3.65944   3.68708   3.71501
 Alpha virt. eigenvalues --    3.75859   3.78433   3.80800   3.82925   3.86016
 Alpha virt. eigenvalues --    3.87841   3.94182   3.95370   4.01344   4.08264
 Alpha virt. eigenvalues --    4.10920   4.14414   4.17580   4.28988   4.32337
 Alpha virt. eigenvalues --    4.37102   4.66391   4.90840   4.98032   5.11040
 Alpha virt. eigenvalues --    5.17319   5.19960   5.39758   5.61583   5.87979
 Alpha virt. eigenvalues --    5.92372  23.74674  23.91740  24.01024  24.04716
 Alpha virt. eigenvalues --   24.06226  24.08347  24.09488  24.14610  24.21833
 Alpha virt. eigenvalues --   24.23409  24.30746  35.69211  50.09804  50.21033
          Condensed to atoms (all electrons):
               1          2          3          4          5          6
     1  C    5.242436   0.385120   0.414694  -0.067625   0.007177   0.240328
     2  H    0.385120   0.444200  -0.014351   0.003423  -0.005338  -0.043880
     3  H    0.414694  -0.014351   0.510981  -0.004950  -0.000912  -0.040929
     4  C   -0.067625   0.003423  -0.004950   5.187013   0.401798   0.254451
     5  H    0.007177  -0.005338  -0.000912   0.401798   0.526768  -0.040116
     6  N    0.240328  -0.043880  -0.040929   0.254451  -0.040116   6.747091
     7  H    0.412168  -0.018278  -0.053790   0.005724   0.001891  -0.031685
     8  H   -0.003106   0.003153  -0.000908   0.401124  -0.028672  -0.098665
     9  H   -0.007352  -0.004496   0.002799   0.404761  -0.057603  -0.038883
    10  C   -0.018998   0.025022   0.000874  -0.178213  -0.033385   0.238153
    11  H    0.005833  -0.000628  -0.001309  -0.037099   0.004246  -0.049111
    12  C    0.088973   0.019914  -0.015060  -0.029766   0.010945  -0.183697
    13  C   -0.106663  -0.014848   0.006385  -0.030992   0.002072  -0.022323
    14  H    0.012282   0.001369  -0.005370  -0.006931   0.001156  -0.035709
    15  O    0.001585   0.000186   0.000318  -0.000193   0.000051   0.000818
    16  C   -0.117393  -0.001581  -0.006059   0.024883   0.000150  -0.036279
    17  C    0.001890   0.001293  -0.002417   0.006606  -0.000061  -0.001633
    18  C   -0.016819  -0.007027   0.003392  -0.011565   0.000571   0.003295
    19  O    0.000028  -0.000003   0.000029   0.000344   0.000010  -0.000125
    20  C    0.006984   0.000341  -0.000973  -0.000200   0.000017   0.001434
    21  C   -0.002103  -0.000369   0.001901  -0.000038   0.000023  -0.000264
    22  H    0.001009  -0.000084  -0.001259  -0.001552  -0.000075  -0.004036
    23  H   -0.000690  -0.000123   0.000022   0.000110   0.000013  -0.000129
    24  H    0.000028   0.000002  -0.000015   0.000013   0.000000   0.000004
    25  C   -0.003711  -0.000249   0.000480  -0.000046   0.000008  -0.000174
    26  H   -0.000184  -0.000004  -0.000021   0.000050   0.000002   0.000077
    27  H   -0.000090  -0.000006   0.000017   0.000003   0.000000  -0.000013
               7          8          9         10         11         12
     1  C    0.412168  -0.003106  -0.007352  -0.018998   0.005833   0.088973
     2  H   -0.018278   0.003153  -0.004496   0.025022  -0.000628   0.019914
     3  H   -0.053790  -0.000908   0.002799   0.000874  -0.001309  -0.015060
     4  C    0.005724   0.401124   0.404761  -0.178213  -0.037099  -0.029766
     5  H    0.001891  -0.028672  -0.057603  -0.033385   0.004246   0.010945
     6  N   -0.031685  -0.098665  -0.038883   0.238153  -0.049111  -0.183697
     7  H    0.519038  -0.002401  -0.001173   0.025550   0.001579  -0.037114
     8  H   -0.002401   0.526940  -0.025429   0.050264  -0.013144   0.015134
     9  H   -0.001173  -0.025429   0.527347  -0.018717   0.001685   0.013163
    10  C    0.025550   0.050264  -0.018717  10.816381   0.331168   0.612624
    11  H    0.001579  -0.013144   0.001685   0.331168   0.439772   0.077767
    12  C   -0.037114   0.015134   0.013163   0.612624   0.077767   9.334199
    13  C   -0.014284   0.014300   0.002222  -2.479795   0.036989   1.456833
    14  H    0.005228  -0.003351   0.000367   0.109156   0.007137   0.582507
    15  O    0.000523  -0.000333   0.000082  -0.117593  -0.003346  -0.374320
    16  C   -0.008533   0.003855   0.000805  -1.543358  -0.065414  -2.228601
    17  C   -0.002180   0.001293  -0.000141  -0.204893  -0.021785  -1.522133
    18  C   -0.002276  -0.002975   0.000505  -1.957660   0.016382  -1.129060
    19  O    0.000013  -0.000158   0.000006   0.008885   0.001384   0.005943
    20  C   -0.000823  -0.000199  -0.000006   0.016130   0.008141   0.535953
    21  C    0.002002  -0.000234   0.000013  -0.015641  -0.000049  -0.369037
    22  H   -0.003711   0.000467  -0.000070  -0.156190   0.000162  -0.088060
    23  H   -0.000104   0.000072   0.000063  -0.028348   0.002398   0.048693
    24  H   -0.000016  -0.000001   0.000000  -0.000371  -0.000103  -0.001196
    25  C    0.000305   0.000005   0.000007  -0.116727  -0.000932  -0.343141
    26  H    0.000048  -0.000004   0.000003   0.005011  -0.000131   0.003203
    27  H    0.000012   0.000000   0.000000  -0.001706  -0.000008  -0.008284
              13         14         15         16         17         18
     1  C   -0.106663   0.012282   0.001585  -0.117393   0.001890  -0.016819
     2  H   -0.014848   0.001369   0.000186  -0.001581   0.001293  -0.007027
     3  H    0.006385  -0.005370   0.000318  -0.006059  -0.002417   0.003392
     4  C   -0.030992  -0.006931  -0.000193   0.024883   0.006606  -0.011565
     5  H    0.002072   0.001156   0.000051   0.000150  -0.000061   0.000571
     6  N   -0.022323  -0.035709   0.000818  -0.036279  -0.001633   0.003295
     7  H   -0.014284   0.005228   0.000523  -0.008533  -0.002180  -0.002276
     8  H    0.014300  -0.003351  -0.000333   0.003855   0.001293  -0.002975
     9  H    0.002222   0.000367   0.000082   0.000805  -0.000141   0.000505
    10  C   -2.479795   0.109156  -0.117593  -1.543358  -0.204893  -1.957660
    11  H    0.036989   0.007137  -0.003346  -0.065414  -0.021785   0.016382
    12  C    1.456833   0.582507  -0.374320  -2.228601  -1.522133  -1.129060
    13  C    8.509074  -0.068116   0.564698   0.948067  -2.227649   0.101197
    14  H   -0.068116   0.564634  -0.019517  -0.218468  -0.029503  -0.012198
    15  O    0.564698  -0.019517   8.120193   0.090121  -0.083145  -0.014975
    16  C    0.948067  -0.218468   0.090121  14.740536  -0.392148  -2.406225
    17  C   -2.227649  -0.029503  -0.083145  -0.392148  14.830799  -3.591835
    18  C    0.101197  -0.012198  -0.014975  -2.406225  -3.591835  13.604922
    19  O   -0.067749   0.000802   0.002896  -0.091120   0.427953   0.018213
    20  C   -0.016530   0.041878  -0.062616  -2.600005  -1.204157   0.873911
    21  C   -0.254208  -0.065755   0.013795  -1.265700   0.051638   1.276823
    22  H    0.009964  -0.011012   0.002176  -0.039814   0.045566   0.627755
    23  H    0.026906   0.000499   0.209975  -0.136373  -0.038946   0.066130
    24  H   -0.005446   0.000929  -0.000409  -0.063340  -0.077972  -0.001663
    25  C   -0.290055  -0.022770  -0.007033  -0.335283  -0.029626   0.205540
    26  H    0.003155   0.003412   0.000416   0.040908   0.017288  -0.059111
    27  H   -0.001011  -0.001416  -0.000103   0.047209   0.019294  -0.034501
              19         20         21         22         23         24
     1  C    0.000028   0.006984  -0.002103   0.001009  -0.000690   0.000028
     2  H   -0.000003   0.000341  -0.000369  -0.000084  -0.000123   0.000002
     3  H    0.000029  -0.000973   0.001901  -0.001259   0.000022  -0.000015
     4  C    0.000344  -0.000200  -0.000038  -0.001552   0.000110   0.000013
     5  H    0.000010   0.000017   0.000023  -0.000075   0.000013   0.000000
     6  N   -0.000125   0.001434  -0.000264  -0.004036  -0.000129   0.000004
     7  H    0.000013  -0.000823   0.002002  -0.003711  -0.000104  -0.000016
     8  H   -0.000158  -0.000199  -0.000234   0.000467   0.000072  -0.000001
     9  H    0.000006  -0.000006   0.000013  -0.000070   0.000063   0.000000
    10  C    0.008885   0.016130  -0.015641  -0.156190  -0.028348  -0.000371
    11  H    0.001384   0.008141  -0.000049   0.000162   0.002398  -0.000103
    12  C    0.005943   0.535953  -0.369037  -0.088060   0.048693  -0.001196
    13  C   -0.067749  -0.016530  -0.254208   0.009964   0.026906  -0.005446
    14  H    0.000802   0.041878  -0.065755  -0.011012   0.000499   0.000929
    15  O    0.002896  -0.062616   0.013795   0.002176   0.209975  -0.000409
    16  C   -0.091120  -2.600005  -1.265700  -0.039814  -0.136373  -0.063340
    17  C    0.427953  -1.204157   0.051638   0.045566  -0.038946  -0.077972
    18  C    0.018213   0.873911   1.276823   0.627755   0.066130  -0.001663
    19  O    8.455587  -0.299473  -0.023800  -0.002023   0.072700  -0.015004
    20  C   -0.299473   8.600069  -0.374151  -0.003444   0.058212   0.505223
    21  C   -0.023800  -0.374151   6.901832  -0.043472   0.005582  -0.000211
    22  H   -0.002023  -0.003444  -0.043472   0.523738   0.002096  -0.000876
    23  H    0.072700   0.058212   0.005582   0.002096   0.301282  -0.000060
    24  H   -0.015004   0.505223  -0.000211  -0.000876  -0.000060   0.454236
    25  C    0.022842   0.428831   0.478364   0.044661   0.001953  -0.014849
    26  H   -0.000455   0.006559   0.375732  -0.016162   0.000022   0.001218
    27  H    0.001828  -0.027342  -0.035913   0.002489   0.000091  -0.008247
              25         26         27
     1  C   -0.003711  -0.000184  -0.000090
     2  H   -0.000249  -0.000004  -0.000006
     3  H    0.000480  -0.000021   0.000017
     4  C   -0.000046   0.000050   0.000003
     5  H    0.000008   0.000002   0.000000
     6  N   -0.000174   0.000077  -0.000013
     7  H    0.000305   0.000048   0.000012
     8  H    0.000005  -0.000004   0.000000
     9  H    0.000007   0.000003   0.000000
    10  C   -0.116727   0.005011  -0.001706
    11  H   -0.000932  -0.000131  -0.000008
    12  C   -0.343141   0.003203  -0.008284
    13  C   -0.290055   0.003155  -0.001011
    14  H   -0.022770   0.003412  -0.001416
    15  O   -0.007033   0.000416  -0.000103
    16  C   -0.335283   0.040908   0.047209
    17  C   -0.029626   0.017288   0.019294
    18  C    0.205540  -0.059111  -0.034501
    19  O    0.022842  -0.000455   0.001828
    20  C    0.428831   0.006559  -0.027342
    21  C    0.478364   0.375732  -0.035913
    22  H    0.044661  -0.016162   0.002489
    23  H    0.001953   0.000022   0.000091
    24  H   -0.014849   0.001218  -0.008247
    25  C    6.085179  -0.068978   0.378966
    26  H   -0.068978   0.457593  -0.007301
    27  H    0.378966  -0.007301   0.442935
 Mulliken charges:
               1
     1  C   -0.475802
     2  H    0.227240
     3  H    0.206430
     4  C   -0.321132
     5  H    0.209266
     6  N    0.142002
     7  H    0.202288
     8  H    0.162974
     9  H    0.200043
    10  C    0.632379
    11  H    0.258414
    12  C   -0.476382
    13  C   -0.082193
    14  H    0.168761
    15  O   -0.324251
    16  C    1.659162
    17  C    0.026607
    18  C   -1.550747
    19  O   -0.519552
    20  C   -0.493764
    21  C   -0.656760
    22  H    0.111757
    23  H    0.407953
    24  H    0.228124
    25  C   -0.413565
    26  H    0.237655
    27  H    0.233095
 Sum of Mulliken charges =   0.00000
 Mulliken charges with hydrogens summed into heavy atoms:
               1
     1  C    0.160156
     4  C    0.251150
     6  N    0.142002
    10  C    0.890793
    12  C   -0.307621
    13  C   -0.082193
    15  O    0.083702
    16  C    1.659162
    17  C    0.026607
    18  C   -1.438990
    19  O   -0.519552
    20  C   -0.265640
    21  C   -0.419106
    25  C   -0.180470
 Electronic spatial extent (au):  <R**2>=           3951.6231
 Charge=              0.0000 electrons
 Dipole moment (field-independent basis, Debye):
    X=            -11.8645    Y=              5.4693    Z=              0.0567  Tot=             13.0645
 Quadrupole moment (field-independent basis, Debye-Ang):
   XX=            -54.2465   YY=            -86.0065   ZZ=            -87.9293
   XY=              8.3732   XZ=             -0.2315   YZ=             -0.0420
 Traceless Quadrupole moment (field-independent basis, Debye-Ang):
   XX=             21.8142   YY=             -9.9457   ZZ=            -11.8685
   XY=              8.3732   XZ=             -0.2315   YZ=             -0.0420
 Octapole moment (field-independent basis, Debye-Ang**2):
  XXX=           -180.1209  YYY=             25.6709  ZZZ=              0.2952  XYY=            -43.5531
  XXY=             36.1959  XXZ=              0.9451  XZZ=            -18.0369  YZZ=             -6.3326
  YYZ=             -0.1680  XYZ=              0.4991
 Hexadecapole moment (field-independent basis, Debye-Ang**3):
 XXXX=          -3400.2144 YYYY=           -902.8979 ZZZZ=           -110.5004 XXXY=             79.3154
 XXXZ=             -0.0792 YYYX=             52.4079 YYYZ=              0.1914 ZZZX=             -2.0971
 ZZZY=             -0.0452 XXYY=           -844.2570 XXZZ=           -773.8770 YYZZ=           -177.5613
 XXYZ=             -1.2876 YYXZ=              0.8653 ZZXY=            -18.1639
 N-N= 8.354424496749D+02 E-N=-3.144697785294D+03  KE= 6.293869103790D+02
 D1PCM: PCM CHGder 1st derivatives, ID1Alg=3 FixD1E=F DoIter=F DoCFld=F I1PDM=6.
 Calling FoFJK, ICntrl=  10005127 FMM=F ISym2X=0 I1Cent= 0 IOpClX= 0 NMat=1 NMatS=1 NMatT=0.
 ***** Axes restored to original set *****
 -------------------------------------------------------------------
 Center     Atomic                   Forces (Hartrees/Bohr)
 Number     Number              X              Y              Z
 -------------------------------------------------------------------
      1        6          -0.000001141    0.000004480   -0.000001507
      2        1          -0.000001793    0.000005086   -0.000002410
      3        1          -0.000001280    0.000003264   -0.000006241
      4        6          -0.000001583    0.000000397    0.000000026
      5        1           0.000001960   -0.000002672   -0.000003555
      6        7           0.000004188   -0.000004752   -0.000000584
      7        1          -0.000002820    0.000005203   -0.000000521
      8        1           0.000000942   -0.000003674    0.000000034
      9        1          -0.000000451   -0.000000797    0.000002224
     10        6           0.000002140   -0.000008567    0.000002909
     11        1           0.000000545   -0.000001221   -0.000000502
     12        6          -0.000011358    0.000024975   -0.000011781
     13        6          -0.000011929    0.000031824   -0.000017540
     14        1           0.000005908   -0.000011542    0.000006440
     15        8           0.000024718   -0.000044821    0.000023132
     16        6           0.000116603   -0.000239213    0.000120804
     17        6          -0.000432103    0.000904399   -0.000450397
     18        6           0.000032618   -0.000069992    0.000034248
     19        8           0.000182439   -0.000388632    0.000200967
     20        6           0.000121273   -0.000258513    0.000124908
     21        6           0.000005473   -0.000008235    0.000006538
     22        1          -0.000026279    0.000056084   -0.000026792
     23        1          -0.000007963    0.000007883   -0.000006113
     24        1          -0.000022462    0.000047897   -0.000020855
     25        6           0.000032551   -0.000070888    0.000035012
     26        1          -0.000002672    0.000007047   -0.000002718
     27        1          -0.000007524    0.000014977   -0.000005727
 -------------------------------------------------------------------
 Cartesian Forces:  Max     0.000904399 RMS     0.000142453

 GradGradGradGradGradGradGradGradGradGradGradGradGradGradGradGradGradGrad
 Berny optimization.
 FormGI is forming the generalized inverse of G from B-inverse, IUseBI=4.
 Internal  Forces:  Max     0.000262672 RMS     0.000051211
 Search for a local minimum.
 Step number   1 out of a maximum of  134 on scan point     1 out of    10
 All quantities printed in internal units (Hartrees-Bohrs-Radians)
 Mixed Optimization -- En-DIIS/RFO-DIIS
 Second derivative matrix not updated -- first step.
 ITU=  0
     Eigenvalues ---    0.01013   0.01039   0.01337   0.01419   0.01521
     Eigenvalues ---    0.01587   0.01788   0.01932   0.02008   0.02060
     Eigenvalues ---    0.02084   0.02094   0.02106   0.02126   0.02188
     Eigenvalues ---    0.02276   0.02384   0.02393   0.02499   0.07431
     Eigenvalues ---    0.07503   0.07573   0.07639   0.16000   0.16000
     Eigenvalues ---    0.16000   0.16000   0.16000   0.16000   0.16000
     Eigenvalues ---    0.16000   0.16000   0.16000   0.16000   0.16000
     Eigenvalues ---    0.16000   0.22000   0.22000   0.22000   0.22473
     Eigenvalues ---    0.24439   0.24947   0.24967   0.24999   0.25000
     Eigenvalues ---    0.25000   0.25000   0.33469   0.34143   0.34243
     Eigenvalues ---    0.34271   0.34410   0.34924   0.34989   0.35477
     Eigenvalues ---    0.35503   0.35538   0.35566   0.35708   0.35997
     Eigenvalues ---    0.38077   0.38327   0.39571   0.40141   0.43172
     Eigenvalues ---    0.43714   0.44271   0.45608   0.47374   0.48051
     Eigenvalues ---    0.49028   0.55669   0.57431   0.767401000.00000
     Eigenvalues --- 1000.000001000.000001000.000001000.000001000.00000
     Eigenvalues --- 1000.000001000.000001000.000001000.000001000.00000
     Eigenvalues --- 1000.000001000.000001000.000001000.000001000.00000
     Eigenvalues --- 1000.000001000.000001000.000001000.000001000.00000
     Eigenvalues --- 1000.000001000.000001000.000001000.000001000.00000
     Eigenvalues --- 1000.000001000.000001000.000001000.000001000.00000
     Eigenvalues --- 1000.000001000.000001000.000001000.000001000.00000
     Eigenvalues --- 1000.000001000.000001000.000001000.000001000.00000
     Eigenvalues --- 1000.000001000.000001000.000001000.000001000.00000
     Eigenvalues --- 1000.000001000.000001000.000001000.00000
 RFO step:  Lambda=-2.21420295D-05 EMin= 1.01341427D-02
 Linear search not attempted -- first point.
 Iteration  1 RMS(Cart)=  0.00397839 RMS(Int)=  0.00002859
 Iteration  2 RMS(Cart)=  0.00002608 RMS(Int)=  0.00001536
 Iteration  3 RMS(Cart)=  0.00000000 RMS(Int)=  0.00001536
 Iteration  1 RMS(Cart)=  0.00000000 RMS(Int)=  0.00000000
 Variable       Old X    -DE/DX   Delta X   Delta X   Delta X     New X
                                 (Linear)    (Quad)   (Total)
    R1        2.05692   0.00000   0.00000   0.00000   0.00000   2.05692
    R2        2.07090   0.00000   0.00000   0.00000   0.00000   2.07090
    R3        2.73893   0.00000   0.00000   0.00000   0.00000   2.73893
    R4        2.06875   0.00000   0.00000   0.00000   0.00000   2.06875
    R5        2.06922   0.00000   0.00000   0.00000   0.00000   2.06922
    R6        2.74253   0.00000   0.00000   0.00000   0.00000   2.74252
    R7        2.05799   0.00000   0.00000   0.00000   0.00000   2.05799
    R8        2.06643   0.00000   0.00000   0.00000   0.00000   2.06643
    R9        2.53033   0.00000   0.00000   0.00000   0.00000   2.53033
   R10        2.04811   0.00000   0.00000   0.00000   0.00000   2.04811
   R11        2.61885   0.00000   0.00000   0.00000   0.00000   2.61885
   R12        2.66798   0.00000   0.00000   0.00000   0.00000   2.66798
   R13        2.04086   0.00000   0.00000   0.00000   0.00000   2.04086
   R14        2.54543   0.00000   0.00000   0.00000   0.00000   2.54543
   R15        2.72141   0.00000   0.00000   0.00001   0.00001   2.72142
   R16        1.87559   0.00000   0.00000   0.00001   0.00001   1.87560
   R17        2.80203   0.00000   0.00000   0.00001   0.00002   2.80205
   R18        2.64756   0.00000   0.00000   0.00000   0.00000   2.64756
   R19        2.39723  -0.00002   0.00000  -0.00002  -0.00002   2.39721
   R20        2.68809   0.00000   0.00000   0.00000   0.00001   2.68810
   R21        2.64270   0.00000   0.00000   0.00001   0.00000   2.64270
   R22        2.04540   0.00000   0.00000   0.00000   0.00000   2.04540
   R23        2.04908   0.00000   0.00000   0.00000   0.00000   2.04908
   R24        2.61873   0.00000   0.00000   0.00000   0.00000   2.61873
   R25        2.64838   0.00000   0.00000   0.00001   0.00000   2.64837
   R26        2.04867   0.00000   0.00000   0.00000   0.00000   2.04866
   R27        2.04765   0.00000   0.00000   0.00000   0.00000   2.04765
    A1        1.89733   0.00000   0.00000  -0.00001  -0.00001   1.89732
    A2        1.90408   0.00000   0.00000   0.00001   0.00001   1.90409
    A3        1.89625   0.00000   0.00000   0.00001   0.00001   1.89626
    A4        1.93704   0.00000   0.00000  -0.00003  -0.00003   1.93702
    A5        1.89649   0.00000   0.00000   0.00000   0.00000   1.89648
    A6        1.93190   0.00000   0.00000   0.00001   0.00001   1.93192
    A7        1.92911   0.00000   0.00000   0.00002   0.00002   1.92913
    A8        1.89936   0.00000   0.00000   0.00000   0.00000   1.89935
    A9        1.89609   0.00000   0.00000   0.00000   0.00000   1.89609
   A10        1.91599   0.00000   0.00000   0.00000   0.00000   1.91599
   A11        1.92375   0.00000   0.00000  -0.00002  -0.00002   1.92373
   A12        1.89902   0.00000   0.00000   0.00000   0.00000   1.89902
   A13        2.05421   0.00000   0.00000   0.00000   0.00000   2.05421
   A14        2.11412   0.00000   0.00000  -0.00001  -0.00001   2.11410
   A15        2.11307   0.00000   0.00000   0.00001   0.00001   2.11308
   A16        2.01644   0.00000   0.00000   0.00001   0.00001   2.01644
   A17        2.18931   0.00000   0.00000  -0.00002  -0.00002   2.18929
   A18        2.07744   0.00000   0.00000   0.00001   0.00001   2.07745
   A19        2.12579   0.00000   0.00000   0.00001   0.00001   2.12580
   A20        2.08766   0.00000   0.00000  -0.00001  -0.00001   2.08766
   A21        2.06972   0.00000   0.00000   0.00000   0.00000   2.06972
   A22        2.03194   0.00000   0.00000   0.00000   0.00000   2.03195
   A23        2.14936   0.00000   0.00000  -0.00001  -0.00001   2.14935
   A24        2.10188   0.00000   0.00000   0.00001   0.00001   2.10189
   A25        1.85133   0.00000   0.00000   0.00001   0.00001   1.85134
   A26        2.08741   0.00000   0.00000   0.00002   0.00001   2.08742
   A27        2.15094   0.00000   0.00000   0.00001   0.00000   2.15094
   A28        2.04484   0.00000   0.00000  -0.00003  -0.00001   2.04483
   A29        2.08958   0.00000   0.00000   0.00009  -0.00002   2.08957
   A30        2.07415   0.00000   0.00000   0.00004  -0.00002   2.07413
   A31        2.11941   0.00000   0.00000   0.00009  -0.00002   2.11939
   A32        2.12543   0.00000   0.00000   0.00001   0.00000   2.12543
   A33        2.10130   0.00000   0.00000   0.00000   0.00000   2.10129
   A34        2.05646   0.00000   0.00000   0.00000   0.00000   2.05646
   A35        2.03923   0.00000   0.00000   0.00001   0.00000   2.03923
   A36        2.12079   0.00000   0.00000  -0.00002   0.00000   2.12080
   A37        2.12316   0.00000   0.00000   0.00001   0.00000   2.12316
   A38        2.11715   0.00000   0.00000   0.00001   0.00000   2.11715
   A39        2.07573   0.00000   0.00000  -0.00001   0.00000   2.07573
   A40        2.09031   0.00000   0.00000  -0.00001   0.00000   2.09030
   A41        2.08401   0.00000   0.00000   0.00000   0.00000   2.08401
   A42        2.10344   0.00000   0.00000   0.00000   0.00000   2.10344
   A43        2.09573   0.00000   0.00000   0.00000   0.00000   2.09574
    D1       -0.09866   0.00000   0.00000  -0.00006  -0.00006  -0.09872
    D2        3.10652   0.00000   0.00000   0.00005   0.00005   3.10657
    D3        1.99151   0.00000   0.00000  -0.00008  -0.00008   1.99143
    D4       -1.08650   0.00000   0.00000   0.00003   0.00003  -1.08647
    D5       -2.18434   0.00000   0.00000  -0.00009  -0.00009  -2.18443
    D6        1.02084   0.00000   0.00000   0.00002   0.00002   1.02086
    D7       -1.09856   0.00000   0.00000   0.00008   0.00008  -1.09848
    D8        1.97948   0.00000   0.00000  -0.00003  -0.00003   1.97945
    D9        3.08928   0.00000   0.00000   0.00007   0.00007   3.08934
   D10       -0.11586   0.00000   0.00000  -0.00004  -0.00004  -0.11590
   D11        0.99772   0.00000   0.00000   0.00008   0.00008   0.99779
   D12       -2.20742   0.00000   0.00000  -0.00003  -0.00003  -2.20746
   D13        3.13093  -0.00001   0.00000  -0.00023  -0.00023   3.13069
   D14       -0.01332   0.00000   0.00000  -0.00020  -0.00020  -0.01352
   D15        0.05507   0.00000   0.00000  -0.00012  -0.00012   0.05495
   D16       -3.08918   0.00000   0.00000  -0.00009  -0.00009  -3.08926
   D17       -3.13197   0.00000   0.00000   0.00015   0.00015  -3.13183
   D18        0.01314  -0.00001   0.00000  -0.00036  -0.00036   0.01278
   D19        0.00688   0.00000   0.00000   0.00018   0.00018   0.00707
   D20       -3.13118  -0.00001   0.00000  -0.00033  -0.00033  -3.13151
   D21        0.00142   0.00000   0.00000  -0.00009  -0.00009   0.00133
   D22       -3.13861  -0.00001   0.00000  -0.00018  -0.00018  -3.13879
   D23        3.13952   0.00001   0.00000   0.00042   0.00042   3.13994
   D24       -0.00050   0.00000   0.00000   0.00033   0.00033  -0.00018
   D25       -3.13651   0.00001   0.00000   0.00065   0.00065  -3.13586
   D26        0.00356   0.00002   0.00000   0.00074   0.00074   0.00429
   D27        3.13997  -0.00001   0.00000   0.00009   0.00009   3.14006
   D28       -0.00153   0.00000   0.00000   0.00066   0.00066  -0.00087
   D29        0.00000  -0.00002   0.00000   0.00000   0.00000   0.00000
   D30       -3.14150  -0.00001   0.00000   0.00057   0.00057  -3.14093
   D31       -0.00839   0.00023   0.00000   0.01689   0.01689   0.00850
   D32       -3.13980  -0.00013   0.00000  -0.00809  -0.00809   3.13530
   D33        3.13312   0.00022   0.00000   0.01636   0.01636  -3.13371
   D34        0.00171  -0.00014   0.00000  -0.00863  -0.00863  -0.00692
   D35        3.14011   0.00006   0.00000   0.00337   0.00337  -3.13971
   D36       -0.00174   0.00006   0.00000   0.00313   0.00313   0.00139
   D37       -0.00140   0.00007   0.00000   0.00393   0.00393   0.00253
   D38        3.13994   0.00007   0.00000   0.00369   0.00369  -3.13956
   D39        3.14090   0.00011   0.00000   0.00735   0.00735  -3.13493
   D40       -0.00108   0.00013   0.00000   0.00832   0.00832   0.00724
   D41        0.00967  -0.00026   0.00000  -0.01808  -0.01808  -0.00840
   D42       -3.13231  -0.00024   0.00000  -0.01710  -0.01710   3.13377
   D43        0.00042   0.00002   0.00000   0.00144   0.00144   0.00186
   D44       -3.14130  -0.00001   0.00000  -0.00045  -0.00045   3.14144
   D45       -3.14093   0.00002   0.00000   0.00167   0.00167  -3.13925
   D46        0.00054  -0.00001   0.00000  -0.00021  -0.00021   0.00033
   D47        0.00007  -0.00004   0.00000  -0.00296  -0.00296  -0.00289
   D48       -3.14150  -0.00004   0.00000  -0.00253  -0.00252   3.13916
   D49        3.14126  -0.00002   0.00000  -0.00194  -0.00194   3.13932
   D50       -0.00031  -0.00002   0.00000  -0.00150  -0.00150  -0.00181
   D51        0.00030  -0.00004   0.00000  -0.00210  -0.00210  -0.00180
   D52       -3.14132  -0.00003   0.00000  -0.00253  -0.00253   3.13934
   D53       -3.14117  -0.00001   0.00000  -0.00019  -0.00019  -3.14136
   D54        0.00040  -0.00001   0.00000  -0.00063  -0.00063  -0.00022
         Item               Value     Threshold  Converged?
 Maximum Force            0.000263     0.000450     YES
 RMS     Force            0.000051     0.000300     YES
 Maximum Displacement     0.017451     0.001800     NO 
 RMS     Displacement     0.003978     0.001200     NO 
 Predicted change in Energy=-1.108998D-05
 GradGradGradGradGradGradGradGradGradGradGradGradGradGradGradGradGradGrad

                          Input orientation:                          
 ---------------------------------------------------------------------
 Center     Atomic      Atomic             Coordinates (Angstroms)
 Number     Number       Type             X           Y           Z
 ---------------------------------------------------------------------
      1          6           0       -0.064846    0.252578    8.565764
      2          1           0        0.857739    0.765412    8.831502
      3          1           0       -0.889330    0.973840    8.596471
      4          6           0        1.285308   -0.016039    6.500037
      5          1           0        1.353779    1.058313    6.299864
      6          7           0        0.075186   -0.319534    7.241460
      7          1           0       -0.256294   -0.530019    9.306933
      8          1           0        1.280029   -0.550637    5.551254
      9          1           0        2.165724   -0.321758    7.072019
     10          6           0       -0.909504   -1.041252    6.691534
     11          1           0       -0.712484   -1.416808    5.694142
     12          6           0       -2.123369   -1.333926    7.292709
     13          6           0       -3.105488   -2.114245    6.644770
     14          1           0       -2.333356   -0.956653    8.282621
     15          8           0       -2.798874   -2.560468    5.411387
     16          6           0       -4.377224   -2.433108    7.240541
     17          6           0       -5.352393   -3.258285    6.487700
     18          6           0       -4.757232   -1.999901    8.517574
     19          8           0       -5.055095   -3.683808    5.330222
     20          6           0       -6.600527   -3.570002    7.094702
     21          6           0       -5.999969   -2.329655    9.067616
     22          1           0       -4.086505   -1.393146    9.112154
     23          1           0       -3.587163   -3.078591    5.102753
     24          1           0       -7.286447   -4.180527    6.518042
     25          6           0       -6.923319   -3.113660    8.362741
     26          1           0       -6.246345   -1.969725   10.060105
     27          1           0       -7.879821   -3.358993    8.808881
 ---------------------------------------------------------------------
                    Distance matrix (angstroms):
                    1          2          3          4          5
     1  C    0.000000
     2  H    1.088476   0.000000
     3  H    1.095872   1.775086   0.000000
     4  C    2.482398   2.495839   3.178671   0.000000
     5  H    2.792133   2.596351   3.211398   1.094985   0.000000
     6  N    1.449380   2.077915   2.106932   1.451280   2.102348
     7  H    1.094734   1.773484   1.779630   3.243359   3.762658
     8  H    3.397221   3.559543   4.037759   1.089042   1.776113
     9  H    2.745284   2.447151   3.651833   1.093508   1.777660
    10  C    2.429029   3.311593   2.773047   2.430006   3.111917
    11  H    3.384153   4.131672   3.764304   2.569590   3.280635
    12  C    2.893990   3.957538   2.923770   3.739550   4.335794
    13  C    4.305528   5.364829   4.272794   4.868522   5.483534
    14  H    2.586222   3.667405   2.431156   4.142111   4.646114
    15  O    5.033709   6.010781   5.126642   4.933541   5.579382
    16  C    5.250307   6.337706   5.060755   6.201196   6.776377
    17  C    6.678522   7.762041   6.502056   7.387245   7.977534
    18  C    5.205234   6.266849   4.879552   6.672215   7.184383
    19  O    7.132072   8.186338   7.050935   7.417662   8.031288
    20  C    7.713058   8.799888   7.451147   8.670103   9.237102
    21  C    6.491954   7.527506   6.103580   8.063532   8.556657
    22  H    4.379577   5.402193   4.011295   6.129923   6.596614
    23  H    5.957839   6.959675   5.992209   5.922212   6.554385
    24  H    8.717631   9.805211   8.474106   9.529862  10.106758
    25  C    7.642737   8.706997   7.291867   8.969196   9.495850
    26  H    6.736662   7.710930   6.285254   8.556680   9.003906
    27  H    8.612571   9.662100   8.227122  10.025253  10.538839
                    6          7          8          9         10
     6  N    0.000000
     7  H    2.102465   0.000000
     8  H    2.088505   4.057812   0.000000
     9  H    2.097395   3.302179   1.774702   0.000000
[...]
 Alpha  occ. eigenvalues --   -0.26004
 Alpha virt. eigenvalues --   -0.03168   0.03847   0.04543   0.05303   0.05981
 Alpha virt. eigenvalues --    0.06239   0.06410   0.07077   0.07807   0.07891
 Alpha virt. eigenvalues --    0.08344   0.08935   0.09425   0.09730   0.09985
 Alpha virt. eigenvalues --    0.11012   0.12016   0.12459   0.13247   0.13852
 Alpha virt. eigenvalues --    0.13981   0.14251   0.14890   0.15609   0.15737
 Alpha virt. eigenvalues --    0.16095   0.16386   0.16901   0.17202   0.17382
 Alpha virt. eigenvalues --    0.17951   0.18166   0.18352   0.18967   0.19269
 Alpha virt. eigenvalues --    0.19410   0.19925   0.20212   0.20695   0.21013
 Alpha virt. eigenvalues --    0.21320   0.21532   0.22154   0.22513   0.22841
 Alpha virt. eigenvalues --    0.24073   0.24311   0.24652   0.25064   0.25422
 Alpha virt. eigenvalues --    0.25890   0.26097   0.26690   0.27064   0.27708
 Alpha virt. eigenvalues --    0.27839   0.28271   0.28710   0.28988   0.29798
 Alpha virt. eigenvalues --    0.30323   0.30748   0.31239   0.32051   0.32521
 Alpha virt. eigenvalues --    0.33049   0.33534   0.34010   0.34336   0.34616
 Alpha virt. eigenvalues --    0.35361   0.36120   0.36426   0.36794   0.37366
 Alpha virt. eigenvalues --    0.37596   0.37937   0.38151   0.38602   0.38843
 Alpha virt. eigenvalues --    0.39856   0.40885   0.41045   0.41680   0.42148
 Alpha virt. eigenvalues --    0.42527   0.43830   0.44876   0.45445   0.46505
 Alpha virt. eigenvalues --    0.46894   0.47593   0.50172   0.51024   0.52456
 Alpha virt. eigenvalues --    0.53006   0.54205   0.55408   0.55928   0.57482
 Alpha virt. eigenvalues --    0.60904   0.61595   0.62117   0.62893   0.64090
 Alpha virt. eigenvalues --    0.64320   0.65126   0.66306   0.67119   0.67397
 Alpha virt. eigenvalues --    0.67575   0.68323   0.68511   0.69489   0.69997
 Alpha virt. eigenvalues --    0.71072   0.71460   0.71969   0.72539   0.72879
 Alpha virt. eigenvalues --    0.73870   0.74851   0.75961   0.76488   0.78084
 Alpha virt. eigenvalues --    0.78359   0.79544   0.79989   0.80885   0.83054
 Alpha virt. eigenvalues --    0.83230   0.83556   0.85285   0.86450   0.87289
 Alpha virt. eigenvalues --    0.88395   0.92058   0.92558   0.93619   0.93895
 Alpha virt. eigenvalues --    0.94963   0.95486   0.95923   0.97611   0.98275
 Alpha virt. eigenvalues --    0.98803   1.00259   1.01200   1.03058   1.03810
 Alpha virt. eigenvalues --    1.03969   1.06267   1.07448   1.08871   1.09299
 Alpha virt. eigenvalues --    1.10873   1.11840   1.12548   1.14647   1.15695
 Alpha virt. eigenvalues --    1.16465   1.18242   1.18760   1.20801   1.21890
 Alpha virt. eigenvalues --    1.23698   1.25000   1.26011   1.30226   1.30950
 Alpha virt. eigenvalues --    1.32075   1.33260   1.34687   1.36978   1.39369
 Alpha virt. eigenvalues --    1.42493   1.43345   1.45532   1.50151   1.51853
 Alpha virt. eigenvalues --    1.52745   1.54631   1.56145   1.57824   1.58686
 Alpha virt. eigenvalues --    1.59615   1.60507   1.62539   1.63287   1.63669
 Alpha virt. eigenvalues --    1.65484   1.65769   1.66496   1.66802   1.67705
 Alpha virt. eigenvalues --    1.68775   1.70041   1.72149   1.73900   1.74572
 Alpha virt. eigenvalues --    1.76197   1.76884   1.78471   1.78737   1.80555
 Alpha virt. eigenvalues --    1.81015   1.82915   1.83836   1.84598   1.85575
 Alpha virt. eigenvalues --    1.87155   1.88765   1.90406   1.90938   1.93831
 Alpha virt. eigenvalues --    1.94342   1.96743   2.00448   2.00582   2.01106
 Alpha virt. eigenvalues --    2.01437   2.04116   2.05620   2.06313   2.07626
 Alpha virt. eigenvalues --    2.07869   2.09048   2.11131   2.13812   2.14765
 Alpha virt. eigenvalues --    2.16048   2.16254   2.18228   2.21969   2.24116
 Alpha virt. eigenvalues --    2.25263   2.26328   2.27676   2.32376   2.33807
 Alpha virt. eigenvalues --    2.36872   2.39083   2.41094   2.41498   2.47545
 Alpha virt. eigenvalues --    2.47959   2.51346   2.53782   2.55669   2.55839
 Alpha virt. eigenvalues --    2.56957   2.58309   2.60013   2.61474   2.63472
 Alpha virt. eigenvalues --    2.64618   2.66005   2.67981   2.70860   2.72164
 Alpha virt. eigenvalues --    2.73684   2.75437   2.76794   2.78347   2.79328
 Alpha virt. eigenvalues --    2.80437   2.81559   2.82607   2.84157   2.84336
 Alpha virt. eigenvalues --    2.85644   2.86042   2.87829   2.88150   2.91213
 Alpha virt. eigenvalues --    2.91515   2.93407   2.95311   2.96612   2.97467
 Alpha virt. eigenvalues --    2.98844   3.01835   3.04533   3.07299   3.08960
 Alpha virt. eigenvalues --    3.10716   3.14396   3.15960   3.18340   3.19620
 Alpha virt. eigenvalues --    3.22195   3.26224   3.29280   3.32007   3.33767
 Alpha virt. eigenvalues --    3.37418   3.41313   3.45417   3.49462   3.51351
 Alpha virt. eigenvalues --    3.56550   3.61389   3.63469   3.64923   3.67493
 Alpha virt. eigenvalues --    3.71609   3.72734   3.79906   3.80777   3.82979
 Alpha virt. eigenvalues --    3.85974   3.88464   3.94167   3.95036   3.97578
 Alpha virt. eigenvalues --    4.08185   4.11219   4.15088   4.16730   4.27149
 Alpha virt. eigenvalues --    4.32710   4.33933   4.64652   4.90246   4.97742
 Alpha virt. eigenvalues --    5.14440   5.16513   5.22154   5.41781   5.53947
 Alpha virt. eigenvalues --    5.84827   5.92363  23.74076  23.91220  24.00793
 Alpha virt. eigenvalues --   24.05294  24.07062  24.07998  24.09241  24.15531
 Alpha virt. eigenvalues --   24.21947  24.24155  24.31136  35.68043  50.05644
 Alpha virt. eigenvalues --   50.21348
          Condensed to atoms (all electrons):
               1          2          3          4          5          6
     1  C    5.292508   0.384696   0.410446  -0.072945   0.010319   0.241925
     2  H    0.384696   0.453984  -0.014362  -0.000080  -0.005078  -0.045831
     3  H    0.410446  -0.014362   0.500467  -0.008748  -0.000550  -0.044116
     4  C   -0.072945  -0.000080  -0.008748   5.190647   0.399606   0.246520
     5  H    0.010319  -0.005078  -0.000550   0.399606   0.523253  -0.040811
     6  N    0.241925  -0.045831  -0.044116   0.246520  -0.040811   6.702317
     7  H    0.408307  -0.023245  -0.047819   0.009523   0.002105  -0.030748
     8  H   -0.003908   0.003132  -0.000472   0.401026  -0.029824  -0.088490
     9  H   -0.011039  -0.004102   0.002533   0.411884  -0.056595  -0.033695
    10  C   -0.261317   0.006838   0.039704  -0.177902  -0.028553   0.193103
    11  H    0.009434   0.000063  -0.001884  -0.030432   0.004668  -0.054533
    12  C    0.450437   0.031357  -0.030291  -0.007543   0.011949  -0.174122
    13  C   -0.202183  -0.005233   0.004414  -0.018942  -0.001556   0.006520
    14  H    0.032210   0.004106  -0.017628  -0.010041   0.000178  -0.029442
    15  O    0.000067   0.000063   0.000128   0.001269   0.000137  -0.000791
    16  C   -0.207676  -0.005989  -0.007519   0.026739  -0.001128  -0.011886
    17  C   -0.001539  -0.002326   0.007383  -0.004887  -0.000210   0.020298
    18  C   -0.008329   0.000697  -0.005691  -0.001192  -0.000057   0.000576
    19  O    0.010413   0.000766  -0.002028  -0.000749  -0.000041  -0.000135
    20  C    0.007260  -0.000572   0.001010   0.000333   0.000165  -0.000877
    21  C    0.004093   0.000295  -0.001529  -0.000449  -0.000011   0.001238
    22  H   -0.000111  -0.000003  -0.000028   0.000068   0.000019   0.000065
    23  H   -0.000407  -0.000043   0.000111   0.000004  -0.000063  -0.000135
    24  H   -0.000186  -0.000019  -0.000069   0.000050   0.000002  -0.000008
    25  C   -0.002157  -0.000119   0.000548  -0.000353  -0.000027   0.000407
    26  H   -0.000028  -0.000001  -0.000011   0.000020   0.000000   0.000005
    27  H   -0.000051  -0.000002   0.000009   0.000000   0.000000   0.000000
               7          8          9         10         11         12
     1  C    0.408307  -0.003908  -0.011039  -0.261317   0.009434   0.450437
     2  H   -0.023245   0.003132  -0.004102   0.006838   0.000063   0.031357
     3  H   -0.047819  -0.000472   0.002533   0.039704  -0.001884  -0.030291
     4  C    0.009523   0.401026   0.411884  -0.177902  -0.030432  -0.007543
     5  H    0.002105  -0.029824  -0.056595  -0.028553   0.004668   0.011949
     6  N   -0.030748  -0.088490  -0.033695   0.193103  -0.054533  -0.174122
     7  H    0.507852  -0.002884  -0.000830   0.023336   0.001262  -0.026966
     8  H   -0.002884   0.520806  -0.024185   0.054117  -0.013798  -0.004215
     9  H   -0.000830  -0.024185   0.521332  -0.027740   0.001800   0.015785
    10  C    0.023336   0.054117  -0.027740  12.755795   0.273083  -5.765060
    11  H    0.001262  -0.013798   0.001800   0.273083   0.448343   0.191537
    12  C   -0.026966  -0.004215   0.015785  -5.765060   0.191537  20.340818
    13  C   -0.030531   0.013935   0.002890  -1.435237  -0.006653  -0.128299
    14  H    0.000158  -0.000957  -0.000185  -0.166490   0.009555   0.573688
    15  O    0.000633   0.000993  -0.000080   0.104129  -0.004356  -0.676983
    16  C    0.006318   0.009361   0.000852   2.015481  -0.095613  -7.747944
    17  C   -0.001669  -0.000846   0.000405  -0.046386   0.002200  -0.121675
    18  C   -0.002536  -0.000094   0.000148  -0.832601  -0.000591  -1.362832
    19  O   -0.001975   0.000013   0.000001  -0.137767  -0.001393   0.003054
    20  C   -0.002115  -0.000691   0.000047  -0.620528   0.002204   0.567758
    21  C   -0.000176  -0.000082   0.000011  -0.070624   0.005802   0.072806
    22  H   -0.000130  -0.000163   0.000010  -0.033525   0.001396   0.011021
    23  H    0.000002   0.000502   0.000007   0.066334  -0.000495   0.145469
    24  H   -0.000030  -0.000002   0.000001  -0.003036  -0.000117  -0.010930
    25  C    0.000379   0.000050   0.000007   0.024786   0.000697  -0.151638
    26  H    0.000010   0.000004   0.000000   0.001869  -0.000148  -0.001236
    27  H    0.000000   0.000001   0.000000   0.000702   0.000016  -0.005224
              13         14         15         16         17         18
     1  C   -0.202183   0.032210   0.000067  -0.207676  -0.001539  -0.008329
     2  H   -0.005233   0.004106   0.000063  -0.005989  -0.002326   0.000697
     3  H    0.004414  -0.017628   0.000128  -0.007519   0.007383  -0.005691
     4  C   -0.018942  -0.010041   0.001269   0.026739  -0.004887  -0.001192
     5  H   -0.001556   0.000178   0.000137  -0.001128  -0.000210  -0.000057
     6  N    0.006520  -0.029442  -0.000791  -0.011886   0.020298   0.000576
     7  H   -0.030531   0.000158   0.000633   0.006318  -0.001669  -0.002536
     8  H    0.013935  -0.000957   0.000993   0.009361  -0.000846  -0.000094
     9  H    0.002890  -0.000185  -0.000080   0.000852   0.000405   0.000148
    10  C   -1.435237  -0.166490   0.104129   2.015481  -0.046386  -0.832601
    11  H   -0.006653   0.009555  -0.004356  -0.095613   0.002200  -0.000591
    12  C   -0.128299   0.573688  -0.676983  -7.747944  -0.121675  -1.362832
    13  C   11.282797  -0.044020   0.341561  -2.142225  -2.013319  -0.205228
    14  H   -0.044020   0.507971  -0.009092  -0.227248   0.019213   0.059318
    15  O    0.341561  -0.009092   7.971592  -0.017533  -0.047909   0.202420
    16  C   -2.142225  -0.227248  -0.017533  19.319107   0.453799  -0.825389
    17  C   -2.013319   0.019213  -0.047909   0.453799  15.804009  -3.656171
    18  C   -0.205228   0.059318   0.202420  -0.825389  -3.656171  11.739673
    19  O    0.059305   0.025426  -0.003096  -0.161364   0.452318   0.060684
    20  C    1.288195   0.042249  -0.014655  -4.149240  -4.800224   2.302213
    21  C   -0.118289   0.038984   0.115857  -1.755082  -0.278461  -0.183525
    22  H    0.021143   0.003326   0.008554  -0.208662  -0.065164   0.517984
    23  H    0.091282  -0.001270   0.236126  -0.173935   0.026493  -0.105094
    24  H   -0.000315   0.000955   0.000375  -0.029333  -0.211879   0.057711
    25  C   -0.499924  -0.009996   0.007721   0.611370   1.550958  -1.756670
    26  H   -0.000569   0.000407   0.000574   0.003668  -0.005973  -0.021624
    27  H   -0.008269  -0.000363   0.000088   0.050938   0.037074  -0.037566
              19         20         21         22         23         24
     1  C    0.010413   0.007260   0.004093  -0.000111  -0.000407  -0.000186
     2  H    0.000766  -0.000572   0.000295  -0.000003  -0.000043  -0.000019
     3  H   -0.002028   0.001010  -0.001529  -0.000028   0.000111  -0.000069
     4  C   -0.000749   0.000333  -0.000449   0.000068   0.000004   0.000050
     5  H   -0.000041   0.000165  -0.000011   0.000019  -0.000063   0.000002
     6  N   -0.000135  -0.000877   0.001238   0.000065  -0.000135  -0.000008
     7  H   -0.001975  -0.002115  -0.000176  -0.000130   0.000002  -0.000030
     8  H    0.000013  -0.000691  -0.000082  -0.000163   0.000502  -0.000002
     9  H    0.000001   0.000047   0.000011   0.000010   0.000007   0.000001
    10  C   -0.137767  -0.620528  -0.070624  -0.033525   0.066334  -0.003036
    11  H   -0.001393   0.002204   0.005802   0.001396  -0.000495  -0.000117
    12  C    0.003054   0.567758   0.072806   0.011021   0.145469  -0.010930
    13  C    0.059305   1.288195  -0.118289   0.021143   0.091282  -0.000315
    14  H    0.025426   0.042249   0.038984   0.003326  -0.001270   0.000955
    15  O   -0.003096  -0.014655   0.115857   0.008554   0.236126   0.000375
    16  C   -0.161364  -4.149240  -1.755082  -0.208662  -0.173935  -0.029333
    17  C    0.452318  -4.800224  -0.278461  -0.065164   0.026493  -0.211879
    18  C    0.060684   2.302213  -0.183525   0.517984  -0.105094   0.057711
    19  O    8.452714  -0.235962  -0.029352   0.001236  -0.000874  -0.007732
    20  C   -0.235962  12.649904  -0.140701   0.062888  -0.014096   0.566382
    21  C   -0.029352  -0.140701   7.999753   0.005739  -0.002727   0.009139
    22  H    0.001236   0.062888   0.005739   0.550114  -0.000598   0.000908
    23  H   -0.000874  -0.014096  -0.002727  -0.000598   0.417837  -0.000091
    24  H   -0.007732   0.566382   0.009139   0.000908  -0.000091   0.461228
    25  C   -0.017821  -1.084197   0.532721  -0.005468   0.001447  -0.044163
    26  H   -0.000256   0.013483   0.417708  -0.011655   0.000055   0.000816
    27  H    0.001353  -0.079626  -0.062825  -0.000442  -0.000011  -0.008960
              25         26         27
     1  C   -0.002157  -0.000028  -0.000051
     2  H   -0.000119  -0.000001  -0.000002
     3  H    0.000548  -0.000011   0.000009
     4  C   -0.000353   0.000020   0.000000
     5  H   -0.000027   0.000000   0.000000
     6  N    0.000407   0.000005   0.000000
     7  H    0.000379   0.000010   0.000000
     8  H    0.000050   0.000004   0.000001
     9  H    0.000007   0.000000   0.000000
    10  C    0.024786   0.001869   0.000702
    11  H    0.000697  -0.000148   0.000016
    12  C   -0.151638  -0.001236  -0.005224
    13  C   -0.499924  -0.000569  -0.008269
    14  H   -0.009996   0.000407  -0.000363
    15  O    0.007721   0.000574   0.000088
    16  C    0.611370   0.003668   0.050938
    17  C    1.550958  -0.005973   0.037074
    18  C   -1.756670  -0.021624  -0.037566
    19  O   -0.017821  -0.000256   0.001353
    20  C   -1.084197   0.013483  -0.079626
    21  C    0.532721   0.417708  -0.062825
    22  H   -0.005468  -0.011655  -0.000442
    23  H    0.001447   0.000055  -0.000011
    24  H   -0.044163   0.000816  -0.008960
    25  C    6.792369  -0.071222   0.435826
    26  H   -0.071222   0.461457  -0.006928
    27  H    0.435826  -0.006928   0.455917
 Mulliken charges:
               1
     1  C   -0.490238
     2  H    0.221009
     3  H    0.215993
     4  C   -0.353426
     5  H    0.212104
     6  N    0.142646
     7  H    0.211768
     8  H    0.166671
     9  H    0.200737
    10  C    0.047490
    11  H    0.257954
    12  C   -0.200721
    13  C   -0.251247
    14  H    0.198987
    15  O   -0.217791
    16  C    1.270133
    17  C   -1.115512
    18  C    0.063767
    19  O   -0.466742
    20  C   -0.360607
    21  C   -0.560316
    22  H    0.141479
    23  H    0.314170
    24  H    0.219302
    25  C   -0.315530
    26  H    0.219573
    27  H    0.228346
 Sum of Mulliken charges =   0.00000
 Mulliken charges with hydrogens summed into heavy atoms:
               1
     1  C    0.158532
     4  C    0.226086
     6  N    0.142646
    10  C    0.305444
    12  C   -0.001734
    13  C   -0.251247
    15  O    0.096379
    16  C    1.270133
    17  C   -1.115512
    18  C    0.205246
    19  O   -0.466742
    20  C   -0.141305
    21  C   -0.340743
    25  C   -0.087184
 Electronic spatial extent (au):  <R**2>=           3819.8666
 Charge=              0.0000 electrons
 Dipole moment (field-independent basis, Debye):
    X=             -9.3321    Y=             -5.2590    Z=              0.1530  Tot=             10.7130
 Quadrupole moment (field-independent basis, Debye-Ang):
   XX=            -46.6032   YY=            -82.7789   ZZ=            -87.4341
   XY=             -7.5838   XZ=             -0.5051   YZ=              4.1883
 Traceless Quadrupole moment (field-independent basis, Debye-Ang):
   XX=             25.6689   YY=            -10.5068   ZZ=            -15.1620
   XY=             -7.5838   XZ=             -0.5051   YZ=              4.1883
 Octapole moment (field-independent basis, Debye-Ang**2):
  XXX=           -160.2563  YYY=            -43.5589  ZZZ=             -1.1303  XYY=            -19.1332
  XXY=              2.1343  XXZ=              8.6121  XZZ=            -21.0846  YZZ=             -2.2590
  YYZ=             -3.4604  XYZ=              1.1205
 Hexadecapole moment (field-independent basis, Debye-Ang**3):
 XXXX=          -3290.4861 YYYY=           -826.5898 ZZZZ=           -120.1558 XXXY=              8.4002
 XXXZ=              8.8868 YYYX=            -57.9839 YYYZ=             28.7443 ZZZX=            -10.6350
 ZZZY=              4.4212 XXYY=           -752.6053 XXZZ=           -762.4752 YYZZ=           -165.0380
 XXYZ=             -0.1301 YYXZ=              0.3357 ZZXY=             -4.6052
 N-N= 8.374867816771D+02 E-N=-3.149274115374D+03  KE= 6.293878324206D+02
 1\1\GINC-SM2\Scan\RwB97XD TD-FC\6-311++G(d,p)\C11H13N1O2\CA12053\22-No
 v-2016\0\\# wb97xd 6-311++g** opt=modredundant td=(nstates=1,root=1) S
 CRF=(PCM,solvent=dichloromethane)\\title\\0,1\C,0.590235279,-1.5152294
 567,8.2672872932\H,1.6678439068,-1.4496422754,8.4079893886\H,0.0938332
 991,-1.2157093163,9.1972936321\C,1.2041261456,0.2516219093,6.637104863
 2\H,1.5287363278,0.9643249029,7.4030834062\N,0.2019538045,-0.651486451
 2,7.1695860914\H,0.3279722148,-2.5552432785,8.0526728857\H,0.789456295
 7,0.8058878073,5.7962613578\H,2.076836497,-0.3101376825,6.2925962752\C
 ,-1.0672507323,-0.6076028094,6.7377573324\H,-1.2581418048,0.0830573684
 ,5.9250525686\C,-2.1036928432,-1.3760185953,7.2505891311\C,-3.40723290
 23,-1.313438329,6.743029642\H,-1.9432635816,-2.0575650251,8.0720130878
 \O,-3.6105987783,-0.3520307137,5.793003271\C,-4.5583432129,-2.02311532
 52,7.2501221654\C,-4.4457978412,-3.0865717146,8.2842095367\C,-5.845254
 1179,-1.6666231687,6.8352750297\O,-3.3348172295,-3.4845833033,8.706932
 2165\C,-5.663503227,-3.6696253991,8.7680080103\C,-6.9988608831,-2.3005
 04162,7.3190514521\H,-5.9938866397,-0.8485353669,6.139536538\H,-4.3405
 488703,-0.5903003744,5.216526563\H,-5.5549933443,-4.4428537754,9.52097
 49231\C,-6.9090177861,-3.3012870556,8.2897002285\H,-7.966822221,-1.989
 8096013,6.94316489\H,-7.8067854316,-3.7775763243,8.6666764884\\Version
 =ES64L-G09RevD.01\State=1-A\HF=-632.1462913,-632.1433848,-632.1331831,
 -632.1156658,-632.099029,-632.0983944,-632.109239,-632.1192039,-632.12
 28462,-632.1235119\RMSD=8.482e-09,7.594e-09,6.404e-09,3.268e-09,5.791e
 -09,3.416e-09,7.489e-09,2.317e-09,9.122e-09,8.724e-09\PG=C01 [X(C11H13
 N1O2)]\\@


 BOOKS ARE LIGHTHOUSES ERECTED IN THE GREAT SEA OF TIME.
     -- E.P.WHIPPLE
 Job cpu time:      15 days  7 hours 45 minutes 41.9 seconds.
 File lengths (MBytes):  RWF=    272 Int=      0 D2E=      0 Chk=     29 Scr=      1
 Normal termination of Gaussian 09 at Tue Nov 22 22:38:53 2016.
