 Entering Gaussian System, Link 0=g09
 Input=4_scan_vacuum_complete.com
 Output=4_scan_vacuum_complete.out
 Initial command:
 /share/apps/gaussian/g09_D01/g09/l1.exe "/tmp/3884454.1.serial.q/Gau-27093.inp" -scrdir="/tmp/3884454.1.serial.q/"
 Entering Link 1 = /share/apps/gaussian/g09_D01/g09/l1.exe PID=     27094.
  
 Copyright (c) 1988,1990,1992,1993,1995,1998,2003,2009,2013,
            Gaussian, Inc.  All Rights Reserved.
  
 This is part of the Gaussian(R) 09 program.  It is based on
 the Gaussian(R) 03 system (copyright 2003, Gaussian, Inc.),
 the Gaussian(R) 98 system (copyright 1998, Gaussian, Inc.),
 the Gaussian(R) 94 system (copyright 1995, Gaussian, Inc.),
 the Gaussian 92(TM) system (copyright 1992, Gaussian, Inc.),
 the Gaussian 90(TM) system (copyright 1990, Gaussian, Inc.),
 the Gaussian 88(TM) system (copyright 1988, Gaussian, Inc.),
 the Gaussian 86(TM) system (copyright 1986, Carnegie Mellon
 University), and the Gaussian 82(TM) system (copyright 1983,
 Carnegie Mellon University). Gaussian is a federally registered
 trademark of Gaussian, Inc.
  
 This software contains proprietary and confidential information,
 including trade secrets, belonging to Gaussian, Inc.
  
 This software is provided under written license and may be
 used, copied, transmitted, or stored only in accord with that
 written license.
  
 The following legend is applicable only to US Government
 contracts under FAR:
  
                    RESTRICTED RIGHTS LEGEND
  
 Use, reproduction and disclosure by the US Government is
 subject to restrictions as set forth in subparagraphs (a)
 and (c) of the Commercial Computer Software - Restricted
 Rights clause in FAR 52.227-19.
  
 Gaussian, Inc.
 340 Quinnipiac St., Bldg. 40, Wallingford CT 06492
  
  
 ---------------------------------------------------------------
 Warning -- This program may not be used in any manner that
 competes with the business of Gaussian, Inc. or will provide
 assistance to any competitor of Gaussian, Inc.  The licensee
 of this program is prohibited from giving any competitor of
 Gaussian, Inc. access to this program.  By using this program,
 the user acknowledges that Gaussian, Inc. is engaged in the
 business of creating and licensing software in the field of
 computational chemistry and represents and warrants to the
 licensee that it is not a competitor of Gaussian, Inc. and that
 it will not use this program in any manner prohibited above.
 ---------------------------------------------------------------
  

 Cite this work as:
 Gaussian 09, Revision D.01,
 M. J. Frisch, G. W. Trucks, H. B. Schlegel, G. E. Scuseria, 
 M. A. Robb, J. R. Cheeseman, G. Scalmani, V. Barone, B. Mennucci, 
 G. A. Petersson, H. Nakatsuji, M. Caricato, X. Li, H. P. Hratchian, 
 A. F. Izmaylov, J. Bloino, G. Zheng, J. L. Sonnenberg, M. Hada, 
 M. Ehara, K. Toyota, R. Fukuda, J. Hasegawa, M. Ishida, T. Nakajima, 
 Y. Honda, O. Kitao, H. Nakai, T. Vreven, J. A. Montgomery, Jr., 
 J. E. Peralta, F. Ogliaro, M. Bearpark, J. J. Heyd, E. Brothers, 
 K. N. Kudin, V. N. Staroverov, T. Keith, R. Kobayashi, J. Normand, 
 K. Raghavachari, A. Rendell, J. C. Burant, S. S. Iyengar, J. Tomasi, 
 M. Cossi, N. Rega, J. M. Millam, M. Klene, J. E. Knox, J. B. Cross, 
 V. Bakken, C. Adamo, J. Jaramillo, R. Gomperts, R. E. Stratmann, 
 O. Yazyev, A. J. Austin, R. Cammi, C. Pomelli, J. W. Ochterski, 
 R. L. Martin, K. Morokuma, V. G. Zakrzewski, G. A. Voth, 
 P. Salvador, J. J. Dannenberg, S. Dapprich, A. D. Daniels, 
 O. Farkas, J. B. Foresman, J. V. Ortiz, J. Cioslowski, 
 and D. J. Fox, Gaussian, Inc., Wallingford CT, 2013.
 
 ******************************************
 Gaussian 09:  ES64L-G09RevD.01 24-Apr-2013
                19-Dec-2016 
 ******************************************
 %chk=4_scan_vacuum_complete.chk
 %mem=16GB
 %nproc=4
 Will use up to    4 processors via shared memory.
 ----------------------------------------------------------
 # wb97xd 6-311++g** opt=modredundant td=(nstates=1,root=1)
 ----------------------------------------------------------
 1/14=-1,18=120,19=15,26=3,38=1/1,3;
 2/9=110,12=2,17=6,18=5,40=1/2;
 3/5=4,6=6,7=1111,11=9,16=1,25=1,30=1,71=1,74=-58/1,2,8,3;
 4//1;
 5/5=2,38=5/2;
 8/6=1,10=2,107=1,108=1/1;
 9/8=1,15=2,41=1,42=1,70=2/14;
 10/5=4/2;
 6/7=2,8=2,9=2,10=2/1;
 7/12=6,13=5,14=1/1,2,3,16;
 1/14=-1,18=20,19=15,26=3/3(2);
 2/9=110/2;
 99//99;
 2/9=110/2;
 3/5=4,6=6,7=1111,11=9,16=1,25=1,30=1,71=1,74=-58/1,2,8,3;
 4/5=5,16=3,69=1/1;
 5/5=2,38=5/2;
 8/6=1,10=2,107=1,108=1/1;
 9/8=1,15=2,41=1,42=1,49=4,70=2/14;
 10/5=4/2;
 7/12=6,13=5,14=1/1,2,3,16;
 1/14=-1,18=20,19=15,26=3/3(-8);
 2/9=110/2;
 6/7=2,8=2,9=2,10=2/1;
 99//99;
 -----------
 Geom Opt s0
 -----------
 Symbolic Z-matrix:
 Charge =  0 Multiplicity = 1
 C                     3.41387   0.2919    1.61103 
 H                     4.36418   0.16767   2.13185 
 H                     3.1622    1.36373   1.59303 
 C                     4.7991   -0.09148  -0.37531 
 H                     5.00927   0.96397  -0.60383 
 N                     3.52191  -0.26747   0.28473 
 H                     2.64409  -0.23473   2.17947 
 H                     4.80689  -0.65199  -1.31136 
 H                     5.60105  -0.476     0.25901 
 C                     2.40167  -0.32414  -0.50857 
 H                     2.57482  -0.68619  -1.51454 
 C                     1.11675  -0.0358   -0.11571 
 C                    -0.00447  -0.24704  -0.91133 
 H                     0.92551   0.34925   0.87837 
 O                     0.18842  -0.58858  -2.22694 
 C                    -1.34239   0.25798  -0.53356 
 C                    -2.28996  -0.64761   0.10707 
 C                    -1.65345   1.5999   -0.65687 
 O                    -2.02296  -1.84715   0.28692 
 C                    -3.5649   -0.09069   0.52628 
 C                    -2.88847   2.0588   -0.23473 
 H                    -0.94892   2.2957   -1.09495 
 H                    -0.53984  -1.13319  -2.5306 
 H                    -4.27321  -0.77453   0.97804 
 C                    -3.85601   1.22896   0.35864 
 F                    -3.18765   3.34994  -0.39587 
 H                    -4.80319   1.65696   0.66354 
 
 The following ModRedundant input section has been read:
 D      15      13      16      17 S   5 20.000                                
 

 GradGradGradGradGradGradGradGradGradGradGradGradGradGradGradGradGradGrad
 Berny optimization.
 Initialization pass.
                           ----------------------------
                           !    Initial Parameters    !
                           ! (Angstroms and Degrees)  !
 --------------------------                            --------------------------
 ! Name  Definition              Value          Derivative Info.                !
 --------------------------------------------------------------------------------
 ! R1    R(1,2)                  1.0908         estimate D2E/DX2                !
 ! R2    R(1,3)                  1.1011         estimate D2E/DX2                !
 ! R3    R(1,6)                  1.4435         estimate D2E/DX2                !
 ! R4    R(1,7)                  1.0923         estimate D2E/DX2                !
 ! R5    R(4,5)                  1.1002         estimate D2E/DX2                !
 ! R6    R(4,6)                  1.4484         estimate D2E/DX2                !
 ! R7    R(4,8)                  1.0911         estimate D2E/DX2                !
 ! R8    R(4,9)                  1.0924         estimate D2E/DX2                !
 ! R9    R(6,10)                 1.3739         estimate D2E/DX2                !
 ! R10   R(10,11)                1.0831         estimate D2E/DX2                !
 ! R11   R(10,12)                1.3742         estimate D2E/DX2                !
 ! R12   R(12,13)                1.391          estimate D2E/DX2                !
 ! R13   R(12,14)                1.0831         estimate D2E/DX2                !
 ! R14   R(13,15)                1.3728         estimate D2E/DX2                !
 ! R15   R(13,16)                1.4791         estimate D2E/DX2                !
 ! R16   R(15,23)                0.9587         estimate D2E/DX2                !
 ! R17   R(16,17)                1.4589         estimate D2E/DX2                !
 ! R18   R(16,18)                1.383          estimate D2E/DX2                !
 ! R19   R(17,19)                1.242          estimate D2E/DX2                !
 ! R20   R(17,20)                1.4531         estimate D2E/DX2                !
 ! R21   R(18,21)                1.3835         estimate D2E/DX2                !
 ! R22   R(18,22)                1.0828         estimate D2E/DX2                !
 ! R23   R(20,24)                1.0832         estimate D2E/DX2                !
 ! R24   R(20,25)                1.3617         estimate D2E/DX2                !
 ! R25   R(21,25)                1.406          estimate D2E/DX2                !
 ! R26   R(21,26)                1.3351         estimate D2E/DX2                !
 ! R27   R(25,27)                1.0832         estimate D2E/DX2                !
 ! A1    A(2,1,3)              108.5294         estimate D2E/DX2                !
 ! A2    A(2,1,6)              109.231          estimate D2E/DX2                !
 ! A3    A(2,1,7)              108.0957         estimate D2E/DX2                !
 ! A4    A(3,1,6)              112.2896         estimate D2E/DX2                !
 ! A5    A(3,1,7)              108.4663         estimate D2E/DX2                !
 ! A6    A(6,1,7)              110.1263         estimate D2E/DX2                !
 ! A7    A(5,4,6)              112.3135         estimate D2E/DX2                !
 ! A8    A(5,4,8)              108.2566         estimate D2E/DX2                !
 ! A9    A(5,4,9)              108.5463         estimate D2E/DX2                !
 ! A10   A(6,4,8)              109.5623         estimate D2E/DX2                !
 ! A11   A(6,4,9)              109.8745         estimate D2E/DX2                !
 ! A12   A(8,4,9)              108.1856         estimate D2E/DX2                !
 ! A13   A(1,6,4)              115.9524         estimate D2E/DX2                !
 ! A14   A(1,6,10)             119.0454         estimate D2E/DX2                !
 ! A15   A(4,6,10)             117.4453         estimate D2E/DX2                !
 ! A16   A(6,10,11)            114.8189         estimate D2E/DX2                !
 ! A17   A(6,10,12)            126.0638         estimate D2E/DX2                !
 ! A18   A(11,10,12)           119.0219         estimate D2E/DX2                !
 ! A19   A(10,12,13)           123.9386         estimate D2E/DX2                !
 ! A20   A(10,12,14)           120.1378         estimate D2E/DX2                !
 ! A21   A(13,12,14)           115.8912         estimate D2E/DX2                !
 ! A22   A(12,13,15)           118.2085         estimate D2E/DX2                !
 ! A23   A(12,13,16)           122.0853         estimate D2E/DX2                !
 ! A24   A(15,13,16)           117.1803         estimate D2E/DX2                !
 ! A25   A(13,15,23)           109.7627         estimate D2E/DX2                !
 ! A26   A(13,16,17)           119.1912         estimate D2E/DX2                !
 ! A27   A(13,16,18)           120.7943         estimate D2E/DX2                !
 ! A28   A(17,16,18)           119.6935         estimate D2E/DX2                !
 ! A29   A(16,17,19)           121.5656         estimate D2E/DX2                !
 ! A30   A(16,17,20)           117.3014         estimate D2E/DX2                !
 ! A31   A(19,17,20)           121.1329         estimate D2E/DX2                !
 ! A32   A(16,18,21)           119.6968         estimate D2E/DX2                !
 ! A33   A(16,18,22)           120.8804         estimate D2E/DX2                !
 ! A34   A(21,18,22)           119.4152         estimate D2E/DX2                !
 ! A35   A(17,20,24)           116.8777         estimate D2E/DX2                !
 ! A36   A(17,20,25)           121.5664         estimate D2E/DX2                !
 ! A37   A(24,20,25)           121.5558         estimate D2E/DX2                !
 ! A38   A(18,21,25)           123.1816         estimate D2E/DX2                !
 ! A39   A(18,21,26)           118.9457         estimate D2E/DX2                !
 ! A40   A(25,21,26)           117.8725         estimate D2E/DX2                !
 ! A41   A(20,25,21)           118.4774         estimate D2E/DX2                !
 ! A42   A(20,25,27)           122.3579         estimate D2E/DX2                !
 ! A43   A(21,25,27)           119.1646         estimate D2E/DX2                !
 ! D1    D(2,1,6,4)            -36.6691         estimate D2E/DX2                !
 ! D2    D(2,1,6,10)           174.3916         estimate D2E/DX2                !
 ! D3    D(3,1,6,4)             83.7784         estimate D2E/DX2                !
 ! D4    D(3,1,6,10)           -65.1608         estimate D2E/DX2                !
 ! D5    D(7,1,6,4)           -155.2368         estimate D2E/DX2                !
 ! D6    D(7,1,6,10)            55.824          estimate D2E/DX2                !
 ! D7    D(5,4,6,1)            -66.4197         estimate D2E/DX2                !
 ! D8    D(5,4,6,10)            83.0321         estimate D2E/DX2                !
 ! D9    D(8,4,6,1)            173.2351         estimate D2E/DX2                !
 ! D10   D(8,4,6,10)           -37.3131         estimate D2E/DX2                !
 ! D11   D(9,4,6,1)             54.5075         estimate D2E/DX2                !
 ! D12   D(9,4,6,10)          -156.0407         estimate D2E/DX2                !
 ! D13   D(1,6,10,11)          175.5791         estimate D2E/DX2                !
 ! D14   D(1,6,10,12)           -8.0309         estimate D2E/DX2                !
 ! D15   D(4,6,10,11)           27.0962         estimate D2E/DX2                !
 ! D16   D(4,6,10,12)         -156.5139         estimate D2E/DX2                !
 ! D17   D(6,10,12,13)        -172.6646         estimate D2E/DX2                !
 ! D18   D(6,10,12,14)           5.1772         estimate D2E/DX2                !
 ! D19   D(11,10,12,13)          3.5881         estimate D2E/DX2                !
 ! D20   D(11,10,12,14)       -178.5702         estimate D2E/DX2                !
 ! D21   D(10,12,13,15)         -9.3302         estimate D2E/DX2                !
 ! D22   D(10,12,13,16)       -170.7874         estimate D2E/DX2                !
 ! D23   D(14,12,13,15)        172.7445         estimate D2E/DX2                !
 ! D24   D(14,12,13,16)         11.2873         estimate D2E/DX2                !
 ! D25   D(12,13,15,23)        150.2348         estimate D2E/DX2                !
 ! D26   D(16,13,15,23)        -47.3962         estimate D2E/DX2                !
 ! D27   D(12,13,16,17)        -98.3629         estimate D2E/DX2                !
 ! D28   D(12,13,16,18)         75.1115         estimate D2E/DX2                !
 ! D29   D(15,13,16,17)         99.9998         Scan                            !
 ! D30   D(15,13,16,18)        -86.5258         estimate D2E/DX2                !
 ! D31   D(13,16,17,19)         -3.366          estimate D2E/DX2                !
 ! D32   D(13,16,17,20)        176.7509         estimate D2E/DX2                !
 ! D33   D(18,16,17,19)       -176.9134         estimate D2E/DX2                !
 ! D34   D(18,16,17,20)          3.2035         estimate D2E/DX2                !
 ! D35   D(13,16,18,21)       -176.791          estimate D2E/DX2                !
 ! D36   D(13,16,18,22)          4.2184         estimate D2E/DX2                !
 ! D37   D(17,16,18,21)         -3.3492         estimate D2E/DX2                !
 ! D38   D(17,16,18,22)        177.6602         estimate D2E/DX2                !
 ! D39   D(16,17,20,24)        178.4731         estimate D2E/DX2                !
 ! D40   D(16,17,20,25)         -1.5006         estimate D2E/DX2                !
 ! D41   D(19,17,20,24)         -1.4105         estimate D2E/DX2                !
 ! D42   D(19,17,20,25)        178.6158         estimate D2E/DX2                !
 ! D43   D(16,18,21,25)          1.7734         estimate D2E/DX2                !
 ! D44   D(16,18,21,26)       -178.1027         estimate D2E/DX2                !
 ! D45   D(22,18,21,25)       -179.2211         estimate D2E/DX2                !
 ! D46   D(22,18,21,26)          0.9028         estimate D2E/DX2                !
 ! D47   D(17,20,25,21)         -0.0575         estimate D2E/DX2                !
 ! D48   D(17,20,25,27)        179.8086         estimate D2E/DX2                !
 ! D49   D(24,20,25,21)        179.9701         estimate D2E/DX2                !
 ! D50   D(24,20,25,27)         -0.1639         estimate D2E/DX2                !
 ! D51   D(18,21,25,20)         -0.0176         estimate D2E/DX2                !
 ! D52   D(18,21,25,27)       -179.888          estimate D2E/DX2                !
 ! D53   D(26,21,25,20)        179.8597         estimate D2E/DX2                !
 ! D54   D(26,21,25,27)         -0.0107         estimate D2E/DX2                !
 --------------------------------------------------------------------------------
 Trust Radius=3.00D-01 FncErr=1.00D-07 GrdErr=1.00D-06
 Number of optimizations in scan=   6
 Number of steps in this run=    134 maximum allowed number of steps=    162.
 GradGradGradGradGradGradGradGradGradGradGradGradGradGradGradGradGradGrad

                          Input orientation:                          
 ---------------------------------------------------------------------
 Center     Atomic      Atomic             Coordinates (Angstroms)
 Number     Number       Type             X           Y           Z
 ---------------------------------------------------------------------
      1          6           0        3.413872    0.291899    1.611032
      2          1           0        4.364175    0.167674    2.131849
      3          1           0        3.162199    1.363728    1.593034
      4          6           0        4.799104   -0.091479   -0.375308
      5          1           0        5.009266    0.963969   -0.603833
      6          7           0        3.521913   -0.267467    0.284726
      7          1           0        2.644088   -0.234733    2.179473
      8          1           0        4.806892   -0.651989   -1.311364
      9          1           0        5.601050   -0.476003    0.259011
     10          6           0        2.401669   -0.324135   -0.508570
     11          1           0        2.574816   -0.686193   -1.514541
     12          6           0        1.116745   -0.035802   -0.115708
     13          6           0       -0.004465   -0.247042   -0.911332
     14          1           0        0.925506    0.349246    0.878367
     15          8           0        0.188422   -0.588583   -2.226937
     16          6           0       -1.342391    0.257975   -0.533556
     17          6           0       -2.289961   -0.647610    0.107071
     18          6           0       -1.653448    1.599898   -0.656867
     19          8           0       -2.022960   -1.847151    0.286918
     20          6           0       -3.564899   -0.090693    0.526280
     21          6           0       -2.888473    2.058796   -0.234734
     22          1           0       -0.948920    2.295704   -1.094947
     23          1           0       -0.539843   -1.133187   -2.530603
     24          1           0       -4.273208   -0.774530    0.978044
     25          6           0       -3.856012    1.228955    0.358638
     26          9           0       -3.187651    3.349942   -0.395872
     27          1           0       -4.803188    1.656959    0.663537
 ---------------------------------------------------------------------
                    Distance matrix (angstroms):
                    1          2          3          4          5
     1  C    0.000000
     2  H    1.090760   0.000000
     3  H    1.101127   1.779217   0.000000
     4  C    2.451814   2.557765   2.944734   0.000000
     5  H    2.811154   2.921333   2.897877   1.100165   0.000000
     6  N    1.443486   2.076202   2.121759   1.448390   2.125604
     7  H    1.092261   1.767173   1.779727   3.345373   3.844183
     8  H    3.372214   3.567010   3.899187   1.091070   1.775634
     9  H    2.683539   2.334888   3.333500   1.092400   1.779952
    10  C    2.428326   3.326427   2.800719   2.412381   2.909957
    11  H    3.380811   4.150549   3.768848   2.568851   3.078794
    12  C    2.892371   3.954582   3.010376   3.691918   4.048398
    13  C    4.282266   5.340221   4.346745   4.835886   5.167069
    14  H    2.594620   3.664510   2.557874   4.095205   4.387698
    15  O    5.090067   6.083408   5.219870   4.993399   5.318404
    16  C    5.217513   6.299003   5.102588   6.153464   6.391159
    17  C    5.973130   7.002995   5.998301   7.127188   7.508747
    18  C    5.703679   6.785277   5.320553   6.676486   6.693204
    19  O    5.990656   6.946854   6.237111   7.075414   7.625486
    20  C    7.072928   8.094123   6.964708   8.412456   8.712392
    21  C    6.800612   7.859896   6.358812   7.983876   7.981802
    22  H    5.511035   6.570365   4.999512   6.265485   6.124924
    23  H    5.900498   6.890580   6.078164   5.851052   6.237236
    24  H    7.786472   8.764896   7.761162   9.198096   9.575439
    25  C    7.436248   8.475970   7.127214   8.785969   8.921307
    26  F    7.547145   8.575913   6.944162   8.696669   8.539647
    27  H    8.383389   9.402896   8.024795   9.815307   9.918201
                    6          7          8          9         10
     6  N    0.000000
     7  H    2.088472   0.000000
     8  H    2.084834   4.127683   0.000000
     9  H    2.089727   3.534121   1.768541   0.000000
    10  C    1.373855   2.700432   2.556768   3.293673   0.000000
    11  H    2.075978   3.722144   2.241565   3.513938   1.083071
    12  C    2.449255   2.764092   3.927654   4.521414   1.374229
    13  C    3.723750   4.070388   4.844911   5.730962   2.440828
    14  H    2.733875   2.233256   4.567554   4.788042   2.134501
    15  O    4.186135   5.056872   4.708775   5.957277   2.814459
    16  C    4.960557   4.847195   6.264719   7.026967   3.789124
    17  C    5.827002   5.367509   7.237216   7.894339   4.742894
    18  C    5.581936   5.466215   6.872798   7.601049   4.490865
    19  O    5.765503   5.288005   7.115462   7.746377   4.746548
    20  C    7.093131   6.426921   8.589463   9.177936   6.060144
    21  C    6.839180   6.457391   8.229589   8.873612   5.808524
    22  H    5.334950   5.480387   6.470325   7.240005   4.293465
    23  H    5.017311   5.755819   5.505059   6.776755   3.660010
    24  H    7.842303   7.041576   9.365075   9.904903   6.853237
    25  C    7.528514   6.907179   9.020685   9.610038   6.505591
    26  F    7.652915   7.313787   8.987007   9.607705   6.689697
    27  H    8.553024   7.831889  10.078944  10.628327   7.563632
                   11         12         13         14         15
    11  H    0.000000
    12  C    2.122667   0.000000
    13  C    2.685034   1.390954   0.000000
    14  H    3.085185   1.083060   2.103195   0.000000
    15  O    2.492371   2.371632   1.372834   3.326519   0.000000
    16  C    4.147083   2.511623   1.479122   2.673053   2.434664
    17  C    5.128077   3.468369   2.533987   3.453672   3.404917
    18  C    4.882626   3.262259   2.488993   3.251473   3.262982
    19  O    5.072733   3.647032   2.840858   3.723899   3.576824
    20  C    6.497359   4.725775   3.842898   4.525621   4.681401
    21  C    6.246631   4.521424   3.753955   4.325274   4.521589
    22  H    4.635136   3.265241   2.718688   3.346063   3.300615
    23  H    3.306552   3.127340   1.921958   3.995739   0.958737
    24  H    7.288087   5.549199   4.697888   5.319721   5.496601
    25  C    6.966501   5.152953   4.315762   4.889470   5.132844
    26  F    7.123751   5.483574   4.830804   5.248421   5.501150
    27  H    8.041724   6.206309   5.397516   5.879983   6.189787
                   16         17         18         19         20
    16  C    0.000000
    17  C    1.458895   0.000000
    18  C    1.383011   2.457650   0.000000
    19  O    2.359641   1.241988   3.592968   0.000000
    20  C    2.486838   1.453052   2.812753   2.349471   0.000000
    21  C    2.392200   2.792791   1.383499   4.034558   2.378444
    22  H    2.149958   3.450556   1.082783   4.497373   3.894434
    23  H    2.562735   3.202502   3.495820   3.263097   4.425188
    24  H    3.455530   2.169786   3.895380   2.586849   1.083248
    25  C    2.838504   2.457091   2.453597   3.581571   1.361735
    26  F    3.603360   4.127859   2.341912   5.369589   3.581990
    27  H    3.920115   3.454997   3.415785   4.488908   2.146273
                   21         22         23         24         25
    21  C    0.000000
    22  H    2.134937   0.000000
    23  H    4.579938   3.739752   0.000000
    24  H    3.378766   4.977401   5.135879   0.000000
    25  C    1.406008   3.420825   4.992435   2.138146   0.000000
    26  F    1.335115   2.571389   5.627291   4.480775   2.348314
    27  H    2.152788   4.284349   6.013614   2.508372   1.083187
                   26         27
    26  F    0.000000
    27  H    2.568754   0.000000
 Stoichiometry    C11H12FNO2
 Framework group  C1[X(C11H12FNO2)]
 Deg. of freedom    75
 Full point group                 C1      NOp   1
 Largest Abelian subgroup         C1      NOp   1
 Largest concise Abelian subgroup C1      NOp   1
                         Standard orientation:                         
 ---------------------------------------------------------------------
 Center     Atomic      Atomic             Coordinates (Angstroms)
 Number     Number       Type             X           Y           Z
 ---------------------------------------------------------------------
      1          6           0       -3.603362    0.791899   -1.658791
      2          1           0       -4.570762    0.890016   -2.153026
      3          1           0       -3.151547    1.792328   -1.572271
      4          6           0       -4.993756    0.523253    0.342715
      5          1           0       -4.993842    1.578357    0.654353
      6          7           0       -3.787900    0.161472   -0.373428
      7          1           0       -2.960416    0.175407   -2.290924
      8          1           0       -5.088417   -0.096835    1.235443
      9          1           0       -5.867618    0.347400   -0.288774
     10          6           0       -2.682431   -0.166983    0.373251
     11          1           0       -2.900039   -0.567048    1.355920
     12          6           0       -1.374745   -0.096453   -0.043270
     13          6           0       -0.297760   -0.576593    0.694511
     14          1           0       -1.134743    0.321781   -1.013063
     15          8           0       -0.524248   -0.976943    1.987993
     16          6           0        1.103592   -0.305105    0.306816
     17          6           0        1.847205   -1.320491   -0.431024
     18          6           0        1.667442    0.940345    0.515731
     19          8           0        1.352549   -2.430463   -0.687560
     20          6           0        3.195760   -0.983093   -0.854017
     21          6           0        2.958067    1.189540    0.084154
     22          1           0        1.118036    1.720291    1.027842
     23          1           0        0.093057   -1.671057    2.225306
     24          1           0        3.750868   -1.750970   -1.379036
     25          6           0        3.736730    0.240863   -0.601816
     26          9           0        3.501378    2.384579    0.327523
     27          1           0        4.741455    0.504974   -0.908516
 ---------------------------------------------------------------------
 Rotational constants (GHZ):      1.0672551      0.2731084      0.2527630
 Standard basis: 6-311++G(d,p) (5D, 7F)
 There are   429 symmetry adapted cartesian basis functions of A   symmetry.
 There are   414 symmetry adapted basis functions of A   symmetry.
   414 basis functions,   648 primitive gaussians,   429 cartesian basis functions
    55 alpha electrons       55 beta electrons
       nuclear repulsion energy       938.8753059214 Hartrees.
 NAtoms=   27 NActive=   27 NUniq=   27 SFac= 1.00D+00 NAtFMM=   60 NAOKFM=F Big=F
 Integral buffers will be    131072 words long.
 Raffenetti 1 integral format.
 Two-electron integral symmetry is turned on.
 Nuclear repulsion after empirical dispersion term =      938.8596349039 Hartrees.
 One-electron integrals computed using PRISM.
 NBasis=   414 RedAO= T EigKep=  1.72D-06  NBF=   414
 NBsUse=   413 1.00D-06 EigRej=  6.37D-07 NBFU=   413
 ExpMin= 3.60D-02 ExpMax= 1.14D+04 ExpMxC= 1.72D+03 IAcc=3 IRadAn=         5 AccDes= 0.00D+00
 Harris functional with IExCor= 4639 and IRadAn=       5 diagonalized for initial guess.
 HarFok:  IExCor= 4639 AccDes= 0.00D+00 IRadAn=         5 IDoV= 1 UseB2=F ITyADJ=14
 ICtDFT=  3500011 ScaDFX=  1.000000  1.000000  1.000000  1.000000
 FoFCou: FMM=F IPFlag=           0 FMFlag=      100000 FMFlg1=           0
         NFxFlg=           0 DoJE=T BraDBF=F KetDBF=T FulRan=T
         wScrn=  0.000000 ICntrl=     500 IOpCl=  0 I1Cent=   200000004 NGrid=           0
         NMat0=    1 NMatS0=      1 NMatT0=    0 NMatD0=    1 NMtDS0=    0 NMtDT0=    0
 Petite list used in FoFCou.
 Requested convergence on RMS density matrix=1.00D-08 within 128 cycles.
 Requested convergence on MAX density matrix=1.00D-06.
 Requested convergence on             energy=1.00D-06.
 No special actions if energy rises.
 Restarting incremental Fock formation.
 SCF Done:  E(RwB97XD) =  -731.296058164     A.U. after   23 cycles
            NFock= 23  Conv=0.52D-08     -V/T= 2.0038
 DoSCS=F DFT=T ScalE2(SS,OS)=  1.000000  1.000000
 ExpMin= 3.60D-02 ExpMax= 1.14D+04 ExpMxC= 1.72D+03 IAcc=3 IRadAn=         5 AccDes= 0.00D+00
 HarFok:  IExCor=  205 AccDes= 0.00D+00 IRadAn=         5 IDoV=-2 UseB2=F ITyADJ=14
 ICtDFT= 12500011 ScaDFX=  1.000000  1.000000  1.000000  1.000000
 Range of M.O.s used for correlation:    16   413
 NBasis=   414 NAE=    55 NBE=    55 NFC=    15 NFV=     0
 NROrb=    398 NOA=    40 NOB=    40 NVA=   358 NVB=   358

 **** Warning!!: The largest alpha MO coefficient is  0.12199988D+03

 Would need an additional         20031600000 words for in-memory AO integral storage.
 Orbital symmetries:
       Occupied  (A) (A) (A) (A) (A) (A) (A) (A) (A) (A) (A) (A)
                 (A) (A) (A) (A) (A) (A) (A) (A) (A) (A) (A) (A)
                 (A) (A) (A) (A) (A) (A) (A) (A) (A) (A) (A) (A)
                 (A) (A) (A) (A) (A) (A) (A) (A) (A) (A) (A) (A)
                 (A) (A) (A) (A) (A) (A) (A)
       Virtual   (A) (A) (A) (A) (A) (A) (A) (A) (A) (A) (A) (A)
                 (A) (A) (A) (A) (A) (A) (A) (A) (A) (A) (A) (A)
                 (A) (A) (A) (A) (A) (A) (A) (A) (A) (A) (A) (A)
                 (A) (A) (A) (A) (A) (A) (A) (A) (A) (A) (A) (A)
                 (A) (A) (A) (A) (A) (A) (A) (A) (A) (A) (A) (A)
                 (A) (A) (A) (A) (A) (A) (A) (A) (A) (A) (A) (A)
                 (A) (A) (A) (A) (A) (A) (A) (A) (A) (A) (A) (A)
                 (A) (A) (A) (A) (A) (A) (A) (A) (A) (A) (A) (A)
                 (A) (A) (A) (A) (A) (A) (A) (A) (A) (A) (A) (A)
                 (A) (A) (A) (A) (A) (A) (A) (A) (A) (A) (A) (A)
                 (A) (A) (A) (A) (A) (A) (A) (A) (A) (A) (A) (A)
                 (A) (A) (A) (A) (A) (A) (A) (A) (A) (A) (A) (A)
                 (A) (A) (A) (A) (A) (A) (A) (A) (A) (A) (A) (A)
                 (A) (A) (A) (A) (A) (A) (A) (A) (A) (A) (A) (A)
                 (A) (A) (A) (A) (A) (A) (A) (A) (A) (A) (A) (A)
                 (A) (A) (A) (A) (A) (A) (A) (A) (A) (A) (A) (A)
                 (A) (A) (A) (A) (A) (A) (A) (A) (A) (A) (A) (A)
                 (A) (A) (A) (A) (A) (A) (A) (A) (A) (A) (A) (A)
                 (A) (A) (A) (A) (A) (A) (A) (A) (A) (A) (A) (A)
                 (A) (A) (A) (A) (A) (A) (A) (A) (A) (A) (A) (A)
                 (A) (A) (A) (A) (A) (A) (A) (A) (A) (A) (A) (A)
                 (A) (A) (A) (A) (A) (A) (A) (A) (A) (A) (A) (A)
                 (A) (A) (A) (A) (A) (A) (A) (A) (A) (A) (A) (A)
                 (A) (A) (A) (A) (A) (A) (A) (A) (A) (A) (A) (A)
                 (A) (A) (A) (A) (A) (A) (A) (A) (A) (A) (A) (A)
                 (A) (A) (A) (A) (A) (A) (A) (A) (A) (A) (A) (A)
                 (A) (A) (A) (A) (A) (A) (A) (A) (A) (A) (A) (A)
                 (A) (A) (A) (A) (A) (A) (A) (A) (A) (A) (A) (A)
                 (A) (A) (A) (A) (A) (A) (A) (A) (A) (A) (A) (A)
                 (A) (A) (A) (A) (A) (A) (A) (A) (A) (A)
     8 initial guesses have been made.
 Convergence on wavefunction:    0.000001000000000
 Iteration     1 Dimension     8 NMult     0 NNew      8
 CISAX will form     8 AO SS matrices at one time.
 Iteration     2 Dimension    12 NMult     8 NNew      4
 Iteration     3 Dimension    16 NMult    12 NNew      4
 Iteration     4 Dimension    20 NMult    16 NNew      4
 Iteration     5 Dimension    24 NMult    20 NNew      4
 Iteration     6 Dimension    28 NMult    24 NNew      4
 Iteration     7 Dimension    32 NMult    28 NNew      4
 Iteration     8 Dimension    36 NMult    32 NNew      4
 Iteration     9 Dimension    40 NMult    36 NNew      4
 Iteration    10 Dimension    44 NMult    40 NNew      4
 Iteration    11 Dimension    48 NMult    44 NNew      4
 ***********************************************************************
 Excited states from <AA,BB:AA,BB> singles matrix:
 ***********************************************************************
 
 Ground to excited state transition densities written to RWF  633
 Ground to excited state transition electric dipole moments (Au):
       state          X           Y           Z        Dip. S.      Osc.
         1        -0.0349      0.0283      0.0027      0.0020      0.0000
 Ground to excited state transition velocity dipole moments (Au):
       state          X           Y           Z        Dip. S.      Osc.
         1        -0.0002      0.0004      0.0033      0.0000      0.0005
 Ground to excited state transition magnetic dipole moments (Au):
       state          X           Y           Z
         1         0.0784      0.0113     -0.0286
 Ground to excited state transition velocity quadrupole moments (Au):
       state          XX          YY          ZZ          XY          XZ          YZ
         1        -0.0106      0.0023      0.0033     -0.0043      0.0023     -0.0017
 <0|del|b> * <b|rxdel|0> + <0|del|b> * <b|delr+rdel|0>
 Rotatory Strengths (R) in cgs (10**-40 erg-esu-cm/Gauss)
       state          XX          YY          ZZ    R(velocity)    E-M Angle
         1        -2.5212     -2.2511     -0.2023     -1.6582      111.62
 1/2[<0|r|b>*<b|rxdel|0> + (<0|rxdel|b>*<b|r|0>)*]
 Rotatory Strengths (R) in cgs (10**-40 erg-esu-cm/Gauss)
       state          XX          YY          ZZ     R(length)
         1         1.9329     -0.2272      0.0537      0.5864
  1/2[<0|del|b>*<b|r|0> + (<0|r|b>*<b|del|0>)*] (Au)
       state          X           Y           Z        Dip. S.   Osc.(frdel)
         1         0.0000      0.0000      0.0000      0.0000      0.0000

 Excitation energies and oscillator strengths:
 
 Excited State   1:      Singlet-A      0.4023 eV 3082.18 nm  f=0.0000  <S**2>=0.000
      55 -> 56         0.69056
 This state for optimization and/or second-order correction.
 Total Energy, E(TD-HF/TD-KS) =  -731.281275351    
 Copying the excited state density for this state as the 1-particle RhoCI density.
 SavETr:  write IOETrn=   770 NScale= 10 NData=  16 NLR=1 NState=    1 LETran=      28.
          IDoAtm=111111111111111111111111111
          Differentiating once with respect to electric field.
                with respect to dipole field.
          Differentiating once with respect to nuclear coordinates.
          There are     1 degrees of freedom in the 1st order CPHF.  IDoFFX=0 NUNeed=     1.
 LinEq1:  Iter=  0 NonCon=     1 RMS=7.61D-03 Max=1.71D-01 NDo=     1
 AX will form     1 AO Fock derivatives at one time.
 LinEq1:  Iter=  1 NonCon=     1 RMS=2.52D-03 Max=8.66D-02 NDo=     1
 LinEq1:  Iter=  2 NonCon=     1 RMS=1.91D-03 Max=7.89D-02 NDo=     1
 LinEq1:  Iter=  3 NonCon=     1 RMS=9.04D-04 Max=8.44D-02 NDo=     1
 LinEq1:  Iter=  4 NonCon=     1 RMS=5.70D-04 Max=4.01D-02 NDo=     1
 LinEq1:  Iter=  5 NonCon=     1 RMS=3.49D-04 Max=1.62D-02 NDo=     1
 LinEq1:  Iter=  6 NonCon=     1 RMS=1.61D-04 Max=4.18D-03 NDo=     1
 LinEq1:  Iter=  7 NonCon=     1 RMS=7.69D-05 Max=1.98D-03 NDo=     1
 LinEq1:  Iter=  8 NonCon=     1 RMS=3.60D-05 Max=1.36D-03 NDo=     1
 LinEq1:  Iter=  9 NonCon=     1 RMS=2.34D-05 Max=1.29D-03 NDo=     1
 LinEq1:  Iter= 10 NonCon=     1 RMS=1.17D-05 Max=8.36D-04 NDo=     1
 LinEq1:  Iter= 11 NonCon=     1 RMS=6.75D-06 Max=4.40D-04 NDo=     1
 LinEq1:  Iter= 12 NonCon=     1 RMS=3.60D-06 Max=1.76D-04 NDo=     1
 LinEq1:  Iter= 13 NonCon=     1 RMS=2.14D-06 Max=6.70D-05 NDo=     1
 LinEq1:  Iter= 14 NonCon=     1 RMS=9.87D-07 Max=2.11D-05 NDo=     1
 LinEq1:  Iter= 15 NonCon=     1 RMS=4.46D-07 Max=1.21D-05 NDo=     1
 LinEq1:  Iter= 16 NonCon=     1 RMS=2.21D-07 Max=6.82D-06 NDo=     1
 LinEq1:  Iter= 17 NonCon=     1 RMS=1.13D-07 Max=4.46D-06 NDo=     1
 LinEq1:  Iter= 18 NonCon=     1 RMS=4.60D-08 Max=1.91D-06 NDo=     1
 LinEq1:  Iter= 19 NonCon=     1 RMS=1.85D-08 Max=7.43D-07 NDo=     1
 LinEq1:  Iter= 20 NonCon=     1 RMS=8.39D-09 Max=2.67D-07 NDo=     1
 LinEq1:  Iter= 21 NonCon=     1 RMS=4.15D-09 Max=1.50D-07 NDo=     1
 LinEq1:  Iter= 22 NonCon=     1 RMS=1.60D-09 Max=3.22D-08 NDo=     1
 LinEq1:  Iter= 23 NonCon=     1 RMS=6.80D-10 Max=1.03D-08 NDo=     1
 LinEq1:  Iter= 24 NonCon=     1 RMS=3.59D-10 Max=7.65D-09 NDo=     1
 LinEq1:  Iter= 25 NonCon=     1 RMS=1.46D-10 Max=3.35D-09 NDo=     1
 LinEq1:  Iter= 26 NonCon=     1 RMS=7.62D-11 Max=2.27D-09 NDo=     1
 LinEq1:  Iter= 27 NonCon=     0 RMS=2.59D-11 Max=9.14D-10 NDo=     1
 Linear equations converged to 1.000D-10 1.000D-09 after    27 iterations.
 End of Minotr F.D. properties file   721 does not exist.
 End of Minotr F.D. properties file   722 does not exist.
 End of Minotr F.D. properties file   788 does not exist.

 **********************************************************************

            Population analysis using the SCF density.

 **********************************************************************

 Orbital symmetries:
       Occupied  (A) (A) (A) (A) (A) (A) (A) (A) (A) (A) (A) (A)
                 (A) (A) (A) (A) (A) (A) (A) (A) (A) (A) (A) (A)
                 (A) (A) (A) (A) (A) (A) (A) (A) (A) (A) (A) (A)
                 (A) (A) (A) (A) (A) (A) (A) (A) (A) (A) (A) (A)
                 (A) (A) (A) (A) (A) (A) (A)
       Virtual   (A) (A) (A) (A) (A) (A) (A) (A) (A) (A) (A) (A)
                 (A) (A) (A) (A) (A) (A) (A) (A) (A) (A) (A) (A)
                 (A) (A) (A) (A) (A) (A) (A) (A) (A) (A) (A) (A)
                 (A) (A) (A) (A) (A) (A) (A) (A) (A) (A) (A) (A)
                 (A) (A) (A) (A) (A) (A) (A) (A) (A) (A) (A) (A)
                 (A) (A) (A) (A) (A) (A) (A) (A) (A) (A) (A) (A)
                 (A) (A) (A) (A) (A) (A) (A) (A) (A) (A) (A) (A)
                 (A) (A) (A) (A) (A) (A) (A) (A) (A) (A) (A) (A)
                 (A) (A) (A) (A) (A) (A) (A) (A) (A) (A) (A) (A)
                 (A) (A) (A) (A) (A) (A) (A) (A) (A) (A) (A) (A)
                 (A) (A) (A) (A) (A) (A) (A) (A) (A) (A) (A) (A)
                 (A) (A) (A) (A) (A) (A) (A) (A) (A) (A) (A) (A)
                 (A) (A) (A) (A) (A) (A) (A) (A) (A) (A) (A) (A)
                 (A) (A) (A) (A) (A) (A) (A) (A) (A) (A) (A) (A)
                 (A) (A) (A) (A) (A) (A) (A) (A) (A) (A) (A) (A)
                 (A) (A) (A) (A) (A) (A) (A) (A) (A) (A) (A) (A)
                 (A) (A) (A) (A) (A) (A) (A) (A) (A) (A) (A) (A)
                 (A) (A) (A) (A) (A) (A) (A) (A) (A) (A) (A) (A)
                 (A) (A) (A) (A) (A) (A) (A) (A) (A) (A) (A) (A)
                 (A) (A) (A) (A) (A) (A) (A) (A) (A) (A) (A) (A)
                 (A) (A) (A) (A) (A) (A) (A) (A) (A) (A) (A) (A)
                 (A) (A) (A) (A) (A) (A) (A) (A) (A) (A) (A) (A)
                 (A) (A) (A) (A) (A) (A) (A) (A) (A) (A) (A) (A)
                 (A) (A) (A) (A) (A) (A) (A) (A) (A) (A) (A) (A)
                 (A) (A) (A) (A) (A) (A) (A) (A) (A) (A) (A) (A)
                 (A) (A) (A) (A) (A) (A) (A) (A) (A) (A) (A) (A)
                 (A) (A) (A) (A) (A) (A) (A) (A) (A) (A) (A) (A)
                 (A) (A) (A) (A) (A) (A) (A) (A) (A) (A) (A) (A)
                 (A) (A) (A) (A) (A) (A) (A) (A) (A) (A) (A) (A)
                 (A) (A) (A) (A) (A) (A) (A) (A) (A) (A)
 The electronic state is 1-A.
 Alpha  occ. eigenvalues --  -24.77757 -19.33138 -19.13280 -14.55006 -10.43985
 Alpha  occ. eigenvalues --  -10.41587 -10.37465 -10.36827 -10.33157 -10.31924
 Alpha  occ. eigenvalues --  -10.30319 -10.27299 -10.26274 -10.26013 -10.23950
 Alpha  occ. eigenvalues --   -1.29815  -1.21518  -1.13595  -1.05245  -0.95962
 Alpha  occ. eigenvalues --   -0.91980  -0.88931  -0.87596  -0.83163  -0.78741
 Alpha  occ. eigenvalues --   -0.75644  -0.72117  -0.70161  -0.66363  -0.65951
 Alpha  occ. eigenvalues --   -0.64888  -0.62467  -0.61713  -0.58950  -0.58326
 Alpha  occ. eigenvalues --   -0.55231  -0.54829  -0.54649  -0.54026  -0.52911
 Alpha  occ. eigenvalues --   -0.52593  -0.51681  -0.51040  -0.48483  -0.47830
 Alpha  occ. eigenvalues --   -0.46534  -0.45709  -0.43818  -0.42380  -0.40114
 Alpha  occ. eigenvalues --   -0.36926  -0.35832  -0.31523  -0.26826  -0.21467
 Alpha virt. eigenvalues --   -0.06597   0.01200   0.03192   0.03876   0.04359
 Alpha virt. eigenvalues --    0.05784   0.06217   0.06454   0.06778   0.07095
 Alpha virt. eigenvalues --    0.07512   0.07854   0.08376   0.09167   0.09910
 Alpha virt. eigenvalues --    0.10847   0.11149   0.11752   0.12156   0.12590
 Alpha virt. eigenvalues --    0.13113   0.13512   0.13832   0.14506   0.14935
 Alpha virt. eigenvalues --    0.15359   0.15457   0.16162   0.16411   0.16664
 Alpha virt. eigenvalues --    0.17042   0.17316   0.18065   0.18388   0.18702
 Alpha virt. eigenvalues --    0.19571   0.19781   0.20170   0.20435   0.20917
 Alpha virt. eigenvalues --    0.21002   0.21397   0.21651   0.22089   0.22308
 Alpha virt. eigenvalues --    0.22815   0.23329   0.23843   0.24043   0.24340
 Alpha virt. eigenvalues --    0.24934   0.25605   0.26173   0.26696   0.27059
 Alpha virt. eigenvalues --    0.27577   0.27979   0.28284   0.28868   0.29307
 Alpha virt. eigenvalues --    0.29503   0.30043   0.30332   0.30804   0.31330
 Alpha virt. eigenvalues --    0.31961   0.32243   0.32488   0.33289   0.33706
 Alpha virt. eigenvalues --    0.33848   0.34501   0.34884   0.35806   0.36119
 Alpha virt. eigenvalues --    0.36726   0.37234   0.37626   0.38569   0.38982
 Alpha virt. eigenvalues --    0.39249   0.39823   0.41159   0.41643   0.42052
 Alpha virt. eigenvalues --    0.43935   0.44377   0.45005   0.45284   0.46106
 Alpha virt. eigenvalues --    0.46827   0.47517   0.47882   0.48738   0.50190
 Alpha virt. eigenvalues --    0.50659   0.50931   0.52366   0.52428   0.53531
 Alpha virt. eigenvalues --    0.53832   0.55438   0.55759   0.57134   0.59308
 Alpha virt. eigenvalues --    0.61416   0.63097   0.63384   0.64204   0.65019
 Alpha virt. eigenvalues --    0.65884   0.66231   0.67243   0.67313   0.67769
 Alpha virt. eigenvalues --    0.68566   0.68928   0.69281   0.70532   0.70980
 Alpha virt. eigenvalues --    0.71842   0.72417   0.72996   0.73182   0.73773
 Alpha virt. eigenvalues --    0.75041   0.76368   0.76692   0.77793   0.78137
 Alpha virt. eigenvalues --    0.78924   0.79764   0.81725   0.82562   0.83000
 Alpha virt. eigenvalues --    0.84065   0.84755   0.86572   0.88322   0.88949
 Alpha virt. eigenvalues --    0.90600   0.91851   0.92347   0.93903   0.95057
 Alpha virt. eigenvalues --    0.95651   0.96313   0.96833   0.98061   1.00112
 Alpha virt. eigenvalues --    1.00462   1.02092   1.03536   1.05667   1.06243
 Alpha virt. eigenvalues --    1.07542   1.08498   1.08930   1.11451   1.13707
 Alpha virt. eigenvalues --    1.13927   1.14737   1.16247   1.16489   1.18557
 Alpha virt. eigenvalues --    1.19991   1.20893   1.23298   1.26195   1.27400
 Alpha virt. eigenvalues --    1.29355   1.30581   1.32020   1.33863   1.35372
 Alpha virt. eigenvalues --    1.36644   1.38695   1.40641   1.42337   1.45645
 Alpha virt. eigenvalues --    1.46568   1.47031   1.49406   1.51034   1.51508
 Alpha virt. eigenvalues --    1.53423   1.54403   1.55886   1.56547   1.57836
 Alpha virt. eigenvalues --    1.58935   1.59417   1.60479   1.61346   1.62610
 Alpha virt. eigenvalues --    1.63578   1.64292   1.65369   1.66132   1.67900
 Alpha virt. eigenvalues --    1.68128   1.68842   1.70934   1.72653   1.73204
 Alpha virt. eigenvalues --    1.73439   1.74779   1.75367   1.76559   1.78623
 Alpha virt. eigenvalues --    1.79162   1.80720   1.81880   1.83838   1.84769
 Alpha virt. eigenvalues --    1.85309   1.88020   1.89745   1.90464   1.93059
 Alpha virt. eigenvalues --    1.94973   1.97958   1.99487   2.00796   2.02839
 Alpha virt. eigenvalues --    2.04231   2.05227   2.05826   2.06276   2.08254
 Alpha virt. eigenvalues --    2.09934   2.11009   2.11540   2.14384   2.16530
 Alpha virt. eigenvalues --    2.17231   2.17620   2.19140   2.19477   2.20731
 Alpha virt. eigenvalues --    2.21739   2.22705   2.24598   2.28693   2.30856
 Alpha virt. eigenvalues --    2.32937   2.37543   2.38163   2.41538   2.42122
 Alpha virt. eigenvalues --    2.44546   2.46518   2.47909   2.50450   2.53934
 Alpha virt. eigenvalues --    2.56217   2.56915   2.56994   2.60020   2.63024
 Alpha virt. eigenvalues --    2.64272   2.66111   2.68018   2.69249   2.71570
 Alpha virt. eigenvalues --    2.72543   2.74130   2.74611   2.75737   2.79002
 Alpha virt. eigenvalues --    2.81127   2.82597   2.83919   2.85547   2.87531
 Alpha virt. eigenvalues --    2.88270   2.88692   2.90162   2.91216   2.92776
 Alpha virt. eigenvalues --    2.94545   2.95017   2.98169   3.00416   3.01774
 Alpha virt. eigenvalues --    3.03966   3.06502   3.07514   3.08054   3.11339
 Alpha virt. eigenvalues --    3.13843   3.15444   3.19786   3.21623   3.25159
 Alpha virt. eigenvalues --    3.27371   3.29185   3.30753   3.33177   3.40283
 Alpha virt. eigenvalues --    3.45757   3.47228   3.50251   3.52146   3.58372
 Alpha virt. eigenvalues --    3.61017   3.62535   3.64867   3.66648   3.74659
 Alpha virt. eigenvalues --    3.75990   3.79729   3.80293   3.82916   3.86648
 Alpha virt. eigenvalues --    3.87434   3.88087   3.91950   3.94722   3.96163
 Alpha virt. eigenvalues --    4.00647   4.03988   4.09727   4.13369   4.19950
 Alpha virt. eigenvalues --    4.27692   4.29169   4.30828   4.35578   4.47026
 Alpha virt. eigenvalues --    4.93299   4.95036   5.02168   5.06860   5.14840
 Alpha virt. eigenvalues --    5.28937   5.44452   5.51442   5.78208   5.95684
 Alpha virt. eigenvalues --    6.48869   6.60629   6.92873  23.73393  23.85020
 Alpha virt. eigenvalues --   23.99362  24.00950  24.03057  24.07604  24.11317
 Alpha virt. eigenvalues --   24.14848  24.23095  24.30290  24.37543  35.60870
 Alpha virt. eigenvalues --   50.01861  50.27328  66.99494
          Condensed to atoms (all electrons):
               1          2          3          4          5          6
     1  C    5.347446   0.365936   0.421674  -0.132523   0.017833   0.289383
     2  H    0.365936   0.490859  -0.024893   0.009187  -0.005584  -0.040263
     3  H    0.421674  -0.024893   0.491468  -0.022801   0.006339  -0.046034
     4  C   -0.132523   0.009187  -0.022801   5.269164   0.401509   0.249215
     5  H    0.017833  -0.005584   0.006339   0.401509   0.530265  -0.025890
     6  N    0.289383  -0.040263  -0.046034   0.249215  -0.025890   6.663198
     7  H    0.404116  -0.017079  -0.039195   0.014512  -0.000132  -0.029340
     8  H    0.000135   0.003359  -0.001276   0.393147  -0.040633  -0.075686
     9  H   -0.025680   0.004002   0.001608   0.411108  -0.053832  -0.043227
    10  C   -0.164379   0.024303   0.004109  -0.143485  -0.071679   0.114324
    11  H    0.013484  -0.001517  -0.001709  -0.010060   0.007481  -0.054884
    12  C    0.113984  -0.012319   0.011810  -0.016759   0.029904  -0.124516
    13  C   -0.110704   0.007746  -0.004396  -0.053471  -0.001467  -0.003905
    14  H    0.008072  -0.001190  -0.005057   0.005415   0.002427  -0.028604
    15  O   -0.001180  -0.000080  -0.000052  -0.003014  -0.000281  -0.000757
    16  C   -0.090325   0.004499  -0.007342  -0.010303   0.000750  -0.013693
    17  C   -0.013380   0.000567  -0.003014  -0.003943   0.000761  -0.008695
    18  C    0.015503  -0.002141   0.001502   0.002611  -0.003010   0.020030
    19  O    0.001473   0.000205  -0.000134  -0.000015  -0.000001   0.000536
    20  C    0.002564   0.000683  -0.002576  -0.000606   0.000031   0.001988
    21  C    0.008602   0.000599   0.002020   0.000332  -0.000435   0.001617
    22  H   -0.000357   0.000152  -0.001145   0.000111  -0.000153   0.000977
    23  H   -0.000516   0.000086  -0.000032  -0.000724  -0.000015  -0.000186
    24  H    0.000176   0.000027  -0.000048  -0.000005   0.000000   0.000097
    25  C   -0.003874  -0.000499   0.001361   0.000091  -0.000032  -0.001395
    26  F    0.000055   0.000003   0.000010  -0.000001  -0.000001   0.000002
    27  H   -0.000052  -0.000001   0.000023   0.000002   0.000001  -0.000019
               7          8          9         10         11         12
     1  C    0.404116   0.000135  -0.025680  -0.164379   0.013484   0.113984
     2  H   -0.017079   0.003359   0.004002   0.024303  -0.001517  -0.012319
     3  H   -0.039195  -0.001276   0.001608   0.004109  -0.001709   0.011810
     4  C    0.014512   0.393147   0.411108  -0.143485  -0.010060  -0.016759
     5  H   -0.000132  -0.040633  -0.053832  -0.071679   0.007481   0.029904
     6  N   -0.029340  -0.075686  -0.043227   0.114324  -0.054884  -0.124516
     7  H    0.491427  -0.002557  -0.000633   0.029126   0.000728  -0.020040
     8  H   -0.002557   0.525900  -0.011585   0.055293  -0.009152  -0.018370
     9  H   -0.000633  -0.011585   0.526523   0.008632  -0.002280   0.009559
    10  C    0.029126   0.055293   0.008632   9.187982   0.398773  -1.485346
    11  H    0.000728  -0.009152  -0.002280   0.398773   0.450679   0.094048
    12  C   -0.020040  -0.018370   0.009559  -1.485346   0.094048  11.810577
    13  C   -0.029595   0.013031  -0.000155  -1.793770  -0.092260  -0.429944
    14  H   -0.006502  -0.002000  -0.001006  -0.168381   0.009020   0.459180
    15  O    0.000624   0.000800   0.000128  -0.069660   0.000115  -0.359172
    16  C   -0.010103   0.007224  -0.002325   0.635567  -0.042534  -4.779130
    17  C   -0.001961  -0.001552  -0.000834   0.137289   0.017875  -0.096751
    18  C    0.010407   0.002541   0.001849  -0.712405  -0.036931   1.419459
    19  O   -0.000522  -0.000092  -0.000001  -0.007604   0.001882  -0.063534
    20  C   -0.001332  -0.000627  -0.000051  -0.039756   0.005069  -0.613463
    21  C    0.002067   0.000407   0.000113   0.186646  -0.002547   0.221318
    22  H    0.000178   0.000186   0.000021  -0.019225  -0.000973  -0.031851
    23  H   -0.000010   0.000269  -0.000031   0.001341  -0.001799  -0.010971
    24  H   -0.000027  -0.000006  -0.000001  -0.000950   0.000061  -0.013482
    25  C    0.000929   0.000189   0.000010   0.005397  -0.001754   0.367033
    26  F    0.000018   0.000000   0.000000   0.000475  -0.000007   0.003600
    27  H   -0.000004   0.000002  -0.000001   0.001593   0.000007   0.000708
              13         14         15         16         17         18
     1  C   -0.110704   0.008072  -0.001180  -0.090325  -0.013380   0.015503
     2  H    0.007746  -0.001190  -0.000080   0.004499   0.000567  -0.002141
     3  H   -0.004396  -0.005057  -0.000052  -0.007342  -0.003014   0.001502
     4  C   -0.053471   0.005415  -0.003014  -0.010303  -0.003943   0.002611
     5  H   -0.001467   0.002427  -0.000281   0.000750   0.000761  -0.003010
     6  N   -0.003905  -0.028604  -0.000757  -0.013693  -0.008695   0.020030
     7  H   -0.029595  -0.006502   0.000624  -0.010103  -0.001961   0.010407
     8  H    0.013031  -0.002000   0.000800   0.007224  -0.001552   0.002541
     9  H   -0.000155  -0.001006   0.000128  -0.002325  -0.000834   0.001849
    10  C   -1.793770  -0.168381  -0.069660   0.635567   0.137289  -0.712405
    11  H   -0.092260   0.009020   0.000115  -0.042534   0.017875  -0.036931
    12  C   -0.429944   0.459180  -0.359172  -4.779130  -0.096751   1.419459
    13  C   11.497250   0.057021   0.441539  -0.989571  -1.555474  -1.443928
    14  H    0.057021   0.503472  -0.001059  -0.007338   0.005278  -0.044982
    15  O    0.441539  -0.001059   7.730837   0.350503  -0.009525  -0.142374
    16  C   -0.989571  -0.007338   0.350503  19.957891   0.616089  -7.951042
    17  C   -1.555474   0.005278  -0.009525   0.616089  14.550849  -3.787697
    18  C   -1.443928  -0.044982  -0.142374  -7.951042  -3.787697  21.894668
    19  O    0.240534   0.004237  -0.003924  -0.091161   0.281836  -0.102877
    20  C    0.422134   0.047231  -0.010662  -1.646424  -4.281790   0.987578
    21  C    0.587722  -0.046850  -0.049628  -0.282528  -1.719186  -2.249537
    22  H   -0.014424   0.002805   0.003331   0.058749   0.057005   0.547113
    23  H    0.072150  -0.001707   0.268573   0.037898  -0.072210  -0.007376
    24  H    0.000927   0.000650  -0.000244  -0.038166  -0.202313   0.103001
    25  C   -0.577574  -0.018100   0.008687  -0.485149   2.652133  -2.174855
    26  F    0.015875  -0.001330   0.000118   0.063081  -0.037850  -0.408236
    27  H   -0.003974  -0.000149   0.000005   0.075794   0.062126  -0.154018
              19         20         21         22         23         24
     1  C    0.001473   0.002564   0.008602  -0.000357  -0.000516   0.000176
     2  H    0.000205   0.000683   0.000599   0.000152   0.000086   0.000027
     3  H   -0.000134  -0.002576   0.002020  -0.001145  -0.000032  -0.000048
     4  C   -0.000015  -0.000606   0.000332   0.000111  -0.000724  -0.000005
     5  H   -0.000001   0.000031  -0.000435  -0.000153  -0.000015   0.000000
     6  N    0.000536   0.001988   0.001617   0.000977  -0.000186   0.000097
     7  H   -0.000522  -0.001332   0.002067   0.000178  -0.000010  -0.000027
     8  H   -0.000092  -0.000627   0.000407   0.000186   0.000269  -0.000006
     9  H   -0.000001  -0.000051   0.000113   0.000021  -0.000031  -0.000001
    10  C   -0.007604  -0.039756   0.186646  -0.019225   0.001341  -0.000950
    11  H    0.001882   0.005069  -0.002547  -0.000973  -0.001799   0.000061
    12  C   -0.063534  -0.613463   0.221318  -0.031851  -0.010971  -0.013482
    13  C    0.240534   0.422134   0.587722  -0.014424   0.072150   0.000927
    14  H    0.004237   0.047231  -0.046850   0.002805  -0.001707   0.000650
    15  O   -0.003924  -0.010662  -0.049628   0.003331   0.268573  -0.000244
    16  C   -0.091161  -1.646424  -0.282528   0.058749   0.037898  -0.038166
    17  C    0.281836  -4.281790  -1.719186   0.057005  -0.072210  -0.202313
    18  C   -0.102877   0.987578  -2.249537   0.547113  -0.007376   0.103001
    19  O    8.324291  -0.123635   0.014986  -0.000754  -0.009274  -0.015202
    20  C   -0.123635  13.692631   1.349563   0.029145  -0.014182   0.624028
    21  C    0.014986   1.349563  10.168692  -0.237371   0.021748   0.052383
    22  H   -0.000754   0.029145  -0.237371   0.520574  -0.000700   0.002536
    23  H   -0.009274  -0.014182   0.021748  -0.000700   0.375400  -0.000048
    24  H   -0.015202   0.624028   0.052383   0.002536  -0.000048   0.487834
    25  C   -0.003151  -4.262535  -1.750955  -0.102443  -0.006287  -0.206959
    26  F    0.000155   0.031913   0.656385  -0.026207   0.000026   0.000693
    27  H    0.002057  -0.073472  -0.127686  -0.003148  -0.000017  -0.016038
              25         26         27
     1  C   -0.003874   0.000055  -0.000052
     2  H   -0.000499   0.000003  -0.000001
     3  H    0.001361   0.000010   0.000023
     4  C    0.000091  -0.000001   0.000002
     5  H   -0.000032  -0.000001   0.000001
     6  N   -0.001395   0.000002  -0.000019
     7  H    0.000929   0.000018  -0.000004
     8  H    0.000189   0.000000   0.000002
     9  H    0.000010   0.000000  -0.000001
    10  C    0.005397   0.000475   0.001593
    11  H   -0.001754  -0.000007   0.000007
    12  C    0.367033   0.003600   0.000708
    13  C   -0.577574   0.015875  -0.003974
    14  H   -0.018100  -0.001330  -0.000149
    15  O    0.008687   0.000118   0.000005
    16  C   -0.485149   0.063081   0.075794
    17  C    2.652133  -0.037850   0.062126
    18  C   -2.174855  -0.408236  -0.154018
    19  O   -0.003151   0.000155   0.002057
    20  C   -4.262535   0.031913  -0.073472
    21  C   -1.750955   0.656385  -0.127686
    22  H   -0.102443  -0.026207  -0.003148
    23  H   -0.006287   0.000026  -0.000017
    24  H   -0.206959   0.000693  -0.016038
    25  C   12.050187  -0.301764   0.537527
    26  F   -0.301764   9.191654  -0.023596
    27  H    0.537527  -0.023596   0.497447
 Mulliken charges:
               1
     1  C   -0.467468
     2  H    0.193353
     3  H    0.217781
     4  C   -0.358694
     5  H    0.205844
     6  N    0.155726
     7  H    0.204901
     8  H    0.161048
     9  H    0.178088
    10  C   -0.114211
    11  H    0.259184
    12  C   -0.465532
    13  C   -0.251317
    14  H    0.229446
    15  O   -0.153647
    16  C    0.639087
    17  C   -0.585633
    18  C    0.215149
    19  O   -0.450313
    20  C   -0.123447
    21  C   -0.808477
    22  H    0.215869
    23  H    0.348595
    24  H    0.221075
    25  C    0.273781
    26  F   -0.165073
    27  H    0.224884
 Sum of Mulliken charges =   0.00000
 Mulliken charges with hydrogens summed into heavy atoms:
               1
     1  C    0.148568
     4  C    0.186286
     6  N    0.155726
    10  C    0.144973
    12  C   -0.236086
    13  C   -0.251317
    15  O    0.194948
    16  C    0.639087
    17  C   -0.585633
    18  C    0.431018
    19  O   -0.450313
    20  C    0.097628
    21  C   -0.808477
    25  C    0.498665
    26  F   -0.165073
 Electronic spatial extent (au):  <R**2>=           4397.7958
 Charge=              0.0000 electrons
 Dipole moment (field-independent basis, Debye):
    X=            -13.1474    Y=              3.4208    Z=              1.4721  Tot=             13.6647
 Quadrupole moment (field-independent basis, Debye-Ang):
   XX=            -61.5795   YY=           -104.2388   ZZ=            -82.9977
   XY=             -5.9905   XZ=              2.2179   YZ=             -9.9337
 Traceless Quadrupole moment (field-independent basis, Debye-Ang):
   XX=             21.3592   YY=            -21.3002   ZZ=             -0.0590
   XY=             -5.9905   XZ=              2.2179   YZ=             -9.9337
 Octapole moment (field-independent basis, Debye-Ang**2):
  XXX=           -182.9982  YYY=             36.3220  ZZZ=              9.5323  XYY=            -41.4129
  XXY=              8.6655  XXZ=            -17.5579  XZZ=            -18.7875  YZZ=             -0.9439
  YYZ=             22.1411  XYZ=             -1.4336
 Hexadecapole moment (field-independent basis, Debye-Ang**3):
 XXXX=          -3598.0016 YYYY=           -918.9346 ZZZZ=           -485.5208 XXXY=           -124.8558
 XXXZ=            -45.6677 YYYX=             37.9718 YYYZ=            -56.7461 ZZZX=             46.5945
 ZZZY=            -35.1053 XXYY=           -943.3587 XXZZ=           -759.4349 YYZZ=           -198.7066
 XXYZ=            -30.3451 YYXZ=             11.0346 ZZXY=              2.6253
 N-N= 9.388596349039D+02 E-N=-3.588683702760D+03  KE= 7.285095562801D+02
 Calling FoFJK, ICntrl=  10005127 FMM=F ISym2X=0 I1Cent= 0 IOpClX= 0 NMat=1 NMatS=1 NMatT=0.
 ***** Axes restored to original set *****
 -------------------------------------------------------------------
 Center     Atomic                   Forces (Hartrees/Bohr)
 Number     Number              X              Y              Z
 -------------------------------------------------------------------
      1        6          -0.000001850    0.000005016   -0.000002091
      2        1           0.000000837    0.000005457    0.000000004
      3        1          -0.000000612    0.000003759   -0.000001371
      4        6           0.000001129    0.000006405   -0.000002231
      5        1          -0.000000691    0.000004801   -0.000001394
      6        7          -0.000000488    0.000006413    0.000000787
      7        1           0.000002405    0.000003400   -0.000000271
      8        1           0.000000527    0.000004085   -0.000000315
      9        1           0.000000798    0.000006779    0.000000378
     10        6          -0.000000738    0.000001771    0.000000404
     11        1           0.000001333    0.000002174    0.000000298
     12        6           0.000000346   -0.000002139   -0.000004063
     13        6           0.001810823    0.008406221   -0.004850011
     14        1          -0.000002249    0.000001743    0.000000711
     15        8          -0.002062790   -0.006500029    0.001388585
     16        6           0.002614631   -0.000147262    0.009456266
     17        6          -0.002355531   -0.001768059   -0.005981922
     18        6          -0.000005904    0.000001207   -0.000003464
     19        8           0.000003529   -0.000004886   -0.000001438
     20        6           0.000002318   -0.000004279    0.000000968
     21        6           0.000000702   -0.000004072   -0.000001767
     22        1          -0.000001445   -0.000003256   -0.000000374
     23        1          -0.000000015   -0.000002399    0.000000301
     24        1           0.000001590   -0.000005846    0.000001539
     25        6          -0.000002557   -0.000007541    0.000001321
     26        9          -0.000004489   -0.000004037   -0.000000448
     27        1          -0.000001611   -0.000005426   -0.000000403
 -------------------------------------------------------------------
 Cartesian Forces:  Max     0.009456266 RMS     0.001881152

 GradGradGradGradGradGradGradGradGradGradGradGradGradGradGradGradGradGrad
 Berny optimization.
 FormGI is forming the generalized inverse of G from B-inverse, IUseBI=4.
 Internal  Forces:  Max     0.006927749 RMS     0.000947180
 Search for a local minimum.
 Step number   1 out of a maximum of  134 on scan point     1 out of     6
 All quantities printed in internal units (Hartrees-Bohrs-Radians)
 Mixed Optimization -- En-DIIS/RFO-DIIS
 Second derivative matrix not updated -- first step.
 ITU=  0
     Eigenvalues ---    0.01052   0.01117   0.01348   0.01423   0.01587
     Eigenvalues ---    0.01806   0.01825   0.01975   0.02038   0.02051
     Eigenvalues ---    0.02124   0.02162   0.02208   0.02243   0.02248
     Eigenvalues ---    0.02311   0.02326   0.02372   0.02430   0.07316
     Eigenvalues ---    0.07350   0.07638   0.07690   0.15985   0.15995
     Eigenvalues ---    0.15998   0.16000   0.16000   0.16000   0.16000
     Eigenvalues ---    0.16000   0.16000   0.16000   0.16000   0.16000
     Eigenvalues ---    0.21804   0.22002   0.22005   0.22344   0.22788
     Eigenvalues ---    0.23472   0.24088   0.24503   0.24550   0.24834
     Eigenvalues ---    0.25000   0.25000   0.33558   0.33664   0.34537
     Eigenvalues ---    0.34553   0.34670   0.34689   0.34725   0.35605
     Eigenvalues ---    0.35612   0.35626   0.35627   0.35660   0.35939
     Eigenvalues ---    0.36940   0.38457   0.39111   0.43371   0.45974
     Eigenvalues ---    0.47153   0.47971   0.50172   0.50243   0.50436
     Eigenvalues ---    0.51570   0.55746   0.58314   0.862691000.00000
     Eigenvalues --- 1000.000001000.000001000.000001000.000001000.00000
     Eigenvalues --- 1000.000001000.000001000.000001000.000001000.00000
     Eigenvalues --- 1000.000001000.000001000.000001000.000001000.00000
     Eigenvalues --- 1000.000001000.000001000.000001000.000001000.00000
     Eigenvalues --- 1000.000001000.000001000.000001000.000001000.00000
     Eigenvalues --- 1000.000001000.000001000.000001000.000001000.00000
     Eigenvalues --- 1000.000001000.000001000.000001000.000001000.00000
     Eigenvalues --- 1000.000001000.000001000.000001000.000001000.00000
     Eigenvalues --- 1000.000001000.000001000.000001000.000001000.00000
     Eigenvalues --- 1000.000001000.000001000.000001000.00000
 RFO step:  Lambda= 0.00000000D+00 EMin= 1.05167376D-02
 Linear search not attempted -- first point.
 Iteration  1 RMS(Cart)=  0.00003846 RMS(Int)=  0.00000000
 Iteration  2 RMS(Cart)=  0.00000000 RMS(Int)=  0.00000000
 Iteration  1 RMS(Cart)=  0.00000000 RMS(Int)=  0.00000000
 Variable       Old X    -DE/DX   Delta X   Delta X   Delta X     New X
                                 (Linear)    (Quad)   (Total)
    R1        2.06124   0.00000   0.00000   0.00000   0.00000   2.06124
    R2        2.08083   0.00000   0.00000   0.00000   0.00000   2.08083
    R3        2.72779   0.00000   0.00000   0.00000   0.00000   2.72779
    R4        2.06407   0.00000   0.00000   0.00000   0.00000   2.06407
    R5        2.07901   0.00000   0.00000   0.00000   0.00000   2.07901
    R6        2.73706   0.00000   0.00000   0.00000   0.00000   2.73706
    R7        2.06182   0.00000   0.00000   0.00000   0.00000   2.06182
    R8        2.06434   0.00000   0.00000   0.00000   0.00000   2.06434
    R9        2.59621   0.00000   0.00000   0.00000   0.00000   2.59621
   R10        2.04671   0.00000   0.00000   0.00000   0.00000   2.04671
   R11        2.59692   0.00000   0.00000   0.00000   0.00000   2.59691
   R12        2.62852  -0.00001   0.00000  -0.00001  -0.00001   2.62851
   R13        2.04669   0.00000   0.00000   0.00000   0.00000   2.04669
   R14        2.59428   0.00000   0.00000  -0.00001  -0.00001   2.59427
   R15        2.79514   0.00000   0.00000   0.00000   0.00000   2.79514
   R16        1.81175   0.00000   0.00000   0.00000   0.00000   1.81175
   R17        2.75691  -0.00005   0.00000  -0.00001  -0.00001   2.75690
   R18        2.61351  -0.00005   0.00000   0.00001   0.00001   2.61352
   R19        2.34702   0.00000   0.00000   0.00000   0.00000   2.34702
   R20        2.74587   0.00000   0.00000   0.00000   0.00000   2.74587
   R21        2.61443   0.00000   0.00000   0.00000   0.00000   2.61443
   R22        2.04616   0.00000   0.00000   0.00000   0.00000   2.04616
   R23        2.04704   0.00000   0.00000   0.00000   0.00000   2.04704
   R24        2.57331   0.00005   0.00000   0.00000   0.00000   2.57331
   R25        2.65697   0.00005   0.00000   0.00000   0.00000   2.65697
   R26        2.52300   0.00000   0.00000   0.00000   0.00000   2.52300
   R27        2.04693   0.00000   0.00000   0.00000   0.00000   2.04693
    A1        1.89419   0.00000   0.00000   0.00000   0.00000   1.89420
    A2        1.90644   0.00000   0.00000   0.00000   0.00000   1.90644
    A3        1.88663   0.00000   0.00000  -0.00001  -0.00001   1.88662
    A4        1.95982   0.00000   0.00000   0.00000   0.00000   1.95983
    A5        1.89309   0.00000   0.00000   0.00001   0.00001   1.89310
    A6        1.92207   0.00000   0.00000   0.00000   0.00000   1.92206
    A7        1.96024   0.00000   0.00000   0.00001   0.00001   1.96025
    A8        1.88943   0.00000   0.00000   0.00000   0.00000   1.88944
    A9        1.89449   0.00000   0.00000   0.00000   0.00000   1.89449
   A10        1.91222   0.00000   0.00000  -0.00001  -0.00001   1.91222
   A11        1.91767   0.00000   0.00000  -0.00001  -0.00001   1.91766
   A12        1.88820   0.00000   0.00000   0.00000   0.00000   1.88820
   A13        2.02375   0.00000   0.00000   0.00001   0.00001   2.02376
   A14        2.07773   0.00000   0.00000   0.00000   0.00000   2.07774
   A15        2.04981   0.00000   0.00000   0.00000   0.00000   2.04981
   A16        2.00397   0.00000   0.00000   0.00000   0.00000   2.00397
   A17        2.20023   0.00000   0.00000   0.00000   0.00000   2.20022
   A18        2.07732   0.00000   0.00000   0.00000   0.00000   2.07733
   A19        2.16314   0.00000   0.00000   0.00001   0.00001   2.16314
   A20        2.09680   0.00000   0.00000   0.00001   0.00001   2.09681
   A21        2.02268   0.00000   0.00000  -0.00002  -0.00002   2.02267
   A22        2.06313   0.00114   0.00000   0.00001   0.00001   2.06314
   A23        2.13079   0.00000   0.00000   0.00000   0.00000   2.13079
   A24        2.04518  -0.00024   0.00000  -0.00001  -0.00001   2.04517
   A25        1.91572   0.00000   0.00000   0.00000   0.00000   1.91572
   A26        2.08028   0.00000   0.00000   0.00000   0.00000   2.08028
   A27        2.10826   0.00000   0.00000  -0.00001  -0.00001   2.10825
   A28        2.08905   0.00024   0.00000   0.00001   0.00001   2.08905
   A29        2.12172   0.00005   0.00000  -0.00001  -0.00001   2.12171
   A30        2.04730  -0.00011   0.00000   0.00000   0.00000   2.04729
   A31        2.11417   0.00006   0.00000   0.00001   0.00001   2.11418
   A32        2.08910  -0.00011   0.00000   0.00000   0.00000   2.08910
   A33        2.10976   0.00006   0.00000  -0.00001  -0.00001   2.10975
   A34        2.08419   0.00005   0.00000   0.00001   0.00001   2.08420
   A35        2.03990   0.00000   0.00000   0.00000   0.00000   2.03990
   A36        2.12173   0.00000   0.00000   0.00000   0.00000   2.12174
   A37        2.12155   0.00000   0.00000   0.00000   0.00000   2.12155
   A38        2.14993  -0.00001   0.00000   0.00000   0.00000   2.14992
   A39        2.07599   0.00001   0.00000   0.00000   0.00000   2.07600
   A40        2.05726   0.00000   0.00000   0.00000   0.00000   2.05726
   A41        2.06782   0.00005   0.00000   0.00000   0.00000   2.06782
   A42        2.13555  -0.00002   0.00000   0.00001   0.00001   2.13555
   A43        2.07981  -0.00002   0.00000  -0.00001  -0.00001   2.07981
    D1       -0.64000   0.00000   0.00000   0.00001   0.00001  -0.63998
    D2        3.04371   0.00000   0.00000  -0.00002  -0.00002   3.04369
    D3        1.46221   0.00000   0.00000   0.00002   0.00002   1.46223
    D4       -1.13727   0.00000   0.00000  -0.00001  -0.00001  -1.13729
    D5       -2.70939   0.00000   0.00000   0.00003   0.00003  -2.70937
    D6        0.97431   0.00000   0.00000  -0.00001  -0.00001   0.97431
    D7       -1.15924   0.00000   0.00000  -0.00004  -0.00004  -1.15929
    D8        1.44918   0.00000   0.00000  -0.00001  -0.00001   1.44917
    D9        3.02352   0.00000   0.00000  -0.00005  -0.00005   3.02347
   D10       -0.65124   0.00000   0.00000  -0.00002  -0.00002  -0.65126
   D11        0.95134   0.00000   0.00000  -0.00005  -0.00005   0.95129
   D12       -2.72342   0.00000   0.00000  -0.00001  -0.00001  -2.72344
   D13        3.06443   0.00000   0.00000   0.00000   0.00000   3.06443
   D14       -0.14017   0.00000   0.00000   0.00000   0.00000  -0.14017
   D15        0.47292   0.00000   0.00000  -0.00004  -0.00004   0.47288
   D16       -2.73168   0.00000   0.00000  -0.00004  -0.00004  -2.73172
   D17       -3.01357   0.00000   0.00000  -0.00001  -0.00001  -3.01358
   D18        0.09036   0.00000   0.00000  -0.00001  -0.00001   0.09035
   D19        0.06262   0.00000   0.00000  -0.00001  -0.00001   0.06261
   D20       -3.11664   0.00000   0.00000  -0.00001  -0.00001  -3.11664
   D21       -0.16284   0.00157   0.00000   0.00000   0.00000  -0.16284
   D22       -2.98080  -0.00157   0.00000  -0.00003  -0.00003  -2.98083
   D23        3.01496   0.00157   0.00000   0.00000   0.00000   3.01496
   D24        0.19700  -0.00157   0.00000  -0.00003  -0.00003   0.19697
   D25        2.62209  -0.00150   0.00000   0.00003   0.00003   2.62212
   D26       -0.82722   0.00150   0.00000   0.00005   0.00005  -0.82717
   D27       -1.71676  -0.00359   0.00000   0.00003   0.00003  -1.71673
   D28        1.31094  -0.00110   0.00000   0.00006   0.00006   1.31100
   D29        1.74533  -0.00693   0.00000   0.00000   0.00000   1.74533
   D30       -1.51016  -0.00444   0.00000   0.00003   0.00003  -1.51013
   D31       -0.05875   0.00145   0.00000  -0.00010  -0.00010  -0.05885
   D32        3.08489   0.00129   0.00000   0.00001   0.00001   3.08489
   D33       -3.08772  -0.00099   0.00000  -0.00013  -0.00013  -3.08785
   D34        0.05591  -0.00115   0.00000  -0.00002  -0.00002   0.05589
   D35       -3.08559  -0.00133   0.00000   0.00000   0.00000  -3.08559
   D36        0.07362  -0.00148   0.00000  -0.00003  -0.00003   0.07359
   D37       -0.05845   0.00116   0.00000   0.00003   0.00003  -0.05843
   D38        3.10076   0.00100   0.00000   0.00000   0.00000   3.10075
   D39        3.11494   0.00031   0.00000  -0.00001  -0.00001   3.11493
   D40       -0.02619   0.00046   0.00000   0.00001   0.00001  -0.02618
   D41       -0.02462   0.00016   0.00000   0.00009   0.00009  -0.02453
   D42        3.11743   0.00030   0.00000   0.00011   0.00011   3.11755
   D43        0.03095  -0.00046   0.00000  -0.00002  -0.00002   0.03093
   D44       -3.10848  -0.00032   0.00000  -0.00002  -0.00002  -3.10850
   D45       -3.12800  -0.00031   0.00000   0.00001   0.00001  -3.12799
   D46        0.01576  -0.00017   0.00000   0.00001   0.00001   0.01576
   D47       -0.00100   0.00023   0.00000   0.00000   0.00000  -0.00100
   D48        3.13825  -0.00009   0.00000  -0.00001  -0.00001   3.13824
   D49        3.14107   0.00038   0.00000   0.00003   0.00003   3.14110
   D50       -0.00286   0.00006   0.00000   0.00001   0.00001  -0.00285
   D51       -0.00031  -0.00025   0.00000   0.00000   0.00000  -0.00031
   D52       -3.13964   0.00006   0.00000   0.00002   0.00002  -3.13962
   D53        3.13914  -0.00040   0.00000   0.00001   0.00001   3.13915
   D54       -0.00019  -0.00009   0.00000   0.00002   0.00002  -0.00017
         Item               Value     Threshold  Converged?
 Maximum Force            0.000006     0.000450     YES
 RMS     Force            0.000001     0.000300     YES
 Maximum Displacement     0.000165     0.001800     YES
 RMS     Displacement     0.000038     0.001200     YES
 Predicted change in Energy=-8.194971D-10
 Optimization completed.
    -- Stationary point found.
                           ----------------------------
                           !   Optimized Parameters   !
                           ! (Angstroms and Degrees)  !
 --------------------------                            --------------------------
 ! Name  Definition              Value          Derivative Info.                !
 --------------------------------------------------------------------------------
 ! R1    R(1,2)                  1.0908         -DE/DX =    0.0                 !
 ! R2    R(1,3)                  1.1011         -DE/DX =    0.0                 !
 ! R3    R(1,6)                  1.4435         -DE/DX =    0.0                 !
 ! R4    R(1,7)                  1.0923         -DE/DX =    0.0                 !
 ! R5    R(4,5)                  1.1002         -DE/DX =    0.0                 !
 ! R6    R(4,6)                  1.4484         -DE/DX =    0.0                 !
 ! R7    R(4,8)                  1.0911         -DE/DX =    0.0                 !
 ! R8    R(4,9)                  1.0924         -DE/DX =    0.0                 !
 ! R9    R(6,10)                 1.3739         -DE/DX =    0.0                 !
 ! R10   R(10,11)                1.0831         -DE/DX =    0.0                 !
 ! R11   R(10,12)                1.3742         -DE/DX =    0.0                 !
 ! R12   R(12,13)                1.391          -DE/DX =    0.0                 !
 ! R13   R(12,14)                1.0831         -DE/DX =    0.0                 !
 ! R14   R(13,15)                1.3728         -DE/DX =    0.0                 !
 ! R15   R(13,16)                1.4791         -DE/DX =    0.0                 !
 ! R16   R(15,23)                0.9587         -DE/DX =    0.0                 !
 ! R17   R(16,17)                1.4589         -DE/DX =   -0.0001              !
 ! R18   R(16,18)                1.383          -DE/DX =    0.0                 !
 ! R19   R(17,19)                1.242          -DE/DX =    0.0                 !
 ! R20   R(17,20)                1.4531         -DE/DX =    0.0                 !
 ! R21   R(18,21)                1.3835         -DE/DX =    0.0                 !
 ! R22   R(18,22)                1.0828         -DE/DX =    0.0                 !
 ! R23   R(20,24)                1.0832         -DE/DX =    0.0                 !
 ! R24   R(20,25)                1.3617         -DE/DX =    0.0001              !
 ! R25   R(21,25)                1.406          -DE/DX =    0.0001              !
 ! R26   R(21,26)                1.3351         -DE/DX =    0.0                 !
 ! R27   R(25,27)                1.0832         -DE/DX =    0.0                 !
 ! A1    A(2,1,3)              108.5294         -DE/DX =    0.0                 !
 ! A2    A(2,1,6)              109.231          -DE/DX =    0.0                 !
 ! A3    A(2,1,7)              108.0957         -DE/DX =    0.0                 !
 ! A4    A(3,1,6)              112.2896         -DE/DX =    0.0                 !
 ! A5    A(3,1,7)              108.4663         -DE/DX =    0.0                 !
 ! A6    A(6,1,7)              110.1263         -DE/DX =    0.0                 !
 ! A7    A(5,4,6)              112.3135         -DE/DX =    0.0                 !
 ! A8    A(5,4,8)              108.2566         -DE/DX =    0.0                 !
 ! A9    A(5,4,9)              108.5463         -DE/DX =    0.0                 !
 ! A10   A(6,4,8)              109.5623         -DE/DX =    0.0                 !
 ! A11   A(6,4,9)              109.8745         -DE/DX =    0.0                 !
 ! A12   A(8,4,9)              108.1856         -DE/DX =    0.0                 !
 ! A13   A(1,6,4)              115.9524         -DE/DX =    0.0                 !
 ! A14   A(1,6,10)             119.0454         -DE/DX =    0.0                 !
 ! A15   A(4,6,10)             117.4453         -DE/DX =    0.0                 !
 ! A16   A(6,10,11)            114.8189         -DE/DX =    0.0                 !
 ! A17   A(6,10,12)            126.0638         -DE/DX =    0.0                 !
 ! A18   A(11,10,12)           119.0219         -DE/DX =    0.0                 !
 ! A19   A(10,12,13)           123.9386         -DE/DX =    0.0                 !
 ! A20   A(10,12,14)           120.1378         -DE/DX =    0.0                 !
 ! A21   A(13,12,14)           115.8912         -DE/DX =    0.0                 !
 ! A22   A(12,13,15)           118.2085         -DE/DX =    0.0011              !
 ! A23   A(12,13,16)           122.0853         -DE/DX =    0.0                 !
 ! A24   A(15,13,16)           117.1803         -DE/DX =   -0.0002              !
 ! A25   A(13,15,23)           109.7627         -DE/DX =    0.0                 !
 ! A26   A(13,16,17)           119.1912         -DE/DX =    0.0                 !
 ! A27   A(13,16,18)           120.7943         -DE/DX =    0.0                 !
 ! A28   A(17,16,18)           119.6935         -DE/DX =    0.0002              !
 ! A29   A(16,17,19)           121.5656         -DE/DX =    0.0001              !
 ! A30   A(16,17,20)           117.3014         -DE/DX =   -0.0001              !
 ! A31   A(19,17,20)           121.1329         -DE/DX =    0.0001              !
 ! A32   A(16,18,21)           119.6968         -DE/DX =   -0.0001              !
 ! A33   A(16,18,22)           120.8804         -DE/DX =    0.0001              !
 ! A34   A(21,18,22)           119.4152         -DE/DX =    0.0001              !
 ! A35   A(17,20,24)           116.8777         -DE/DX =    0.0                 !
 ! A36   A(17,20,25)           121.5664         -DE/DX =    0.0                 !
 ! A37   A(24,20,25)           121.5558         -DE/DX =    0.0                 !
 ! A38   A(18,21,25)           123.1816         -DE/DX =    0.0                 !
 ! A39   A(18,21,26)           118.9457         -DE/DX =    0.0                 !
[...]
 Alpha virt. eigenvalues --    0.08102   0.08589   0.09251   0.10125   0.10677
 Alpha virt. eigenvalues --    0.11363   0.11756   0.12433   0.13039   0.13386
 Alpha virt. eigenvalues --    0.13979   0.14529   0.14960   0.15183   0.15600
 Alpha virt. eigenvalues --    0.15883   0.16041   0.16526   0.16893   0.17187
 Alpha virt. eigenvalues --    0.17727   0.18062   0.18156   0.18894   0.19156
 Alpha virt. eigenvalues --    0.19611   0.20118   0.20191   0.20500   0.20645
 Alpha virt. eigenvalues --    0.21373   0.21947   0.22669   0.23034   0.23233
 Alpha virt. eigenvalues --    0.23473   0.23785   0.23923   0.24749   0.25045
 Alpha virt. eigenvalues --    0.25520   0.26327   0.26753   0.27372   0.27520
 Alpha virt. eigenvalues --    0.27928   0.28453   0.28701   0.29722   0.29931
 Alpha virt. eigenvalues --    0.30073   0.30614   0.31106   0.31481   0.32315
 Alpha virt. eigenvalues --    0.32719   0.33279   0.33738   0.33964   0.34421
 Alpha virt. eigenvalues --    0.34734   0.35166   0.35459   0.35893   0.36404
 Alpha virt. eigenvalues --    0.37438   0.37490   0.37746   0.38330   0.38811
 Alpha virt. eigenvalues --    0.39611   0.39995   0.41103   0.41591   0.42152
 Alpha virt. eigenvalues --    0.43486   0.43926   0.44902   0.45255   0.46003
 Alpha virt. eigenvalues --    0.46879   0.47408   0.48458   0.49626   0.50052
 Alpha virt. eigenvalues --    0.50911   0.51126   0.51583   0.52112   0.54096
 Alpha virt. eigenvalues --    0.54441   0.55561   0.55878   0.57445   0.61193
 Alpha virt. eigenvalues --    0.62620   0.63550   0.63807   0.65130   0.65183
 Alpha virt. eigenvalues --    0.65699   0.66084   0.67594   0.68165   0.68774
 Alpha virt. eigenvalues --    0.69871   0.69918   0.70354   0.70486   0.71026
 Alpha virt. eigenvalues --    0.71665   0.73228   0.74153   0.74530   0.75612
 Alpha virt. eigenvalues --    0.76037   0.77278   0.78113   0.78475   0.79038
 Alpha virt. eigenvalues --    0.79707   0.80041   0.82044   0.83420   0.83911
 Alpha virt. eigenvalues --    0.84819   0.86650   0.87219   0.87745   0.90298
 Alpha virt. eigenvalues --    0.91506   0.93118   0.93486   0.93846   0.94924
 Alpha virt. eigenvalues --    0.96248   0.96800   0.98349   0.99411   1.00801
 Alpha virt. eigenvalues --    1.01511   1.02770   1.04025   1.04287   1.05150
 Alpha virt. eigenvalues --    1.05748   1.08476   1.09747   1.10871   1.11943
 Alpha virt. eigenvalues --    1.14127   1.15266   1.16236   1.17639   1.20356
 Alpha virt. eigenvalues --    1.22068   1.22210   1.22877   1.24287   1.27083
 Alpha virt. eigenvalues --    1.28857   1.29305   1.32426   1.33950   1.35058
 Alpha virt. eigenvalues --    1.36480   1.38226   1.39231   1.40659   1.44081
 Alpha virt. eigenvalues --    1.46338   1.49973   1.51114   1.51480   1.52721
 Alpha virt. eigenvalues --    1.54086   1.55541   1.56546   1.57140   1.58423
 Alpha virt. eigenvalues --    1.59038   1.60738   1.61855   1.62718   1.63432
 Alpha virt. eigenvalues --    1.64535   1.65244   1.65404   1.67082   1.68188
 Alpha virt. eigenvalues --    1.69140   1.70385   1.71412   1.72336   1.73980
 Alpha virt. eigenvalues --    1.75628   1.76243   1.77048   1.78628   1.80395
 Alpha virt. eigenvalues --    1.80967   1.81899   1.84185   1.84672   1.86109
 Alpha virt. eigenvalues --    1.87100   1.88392   1.89986   1.92154   1.93062
 Alpha virt. eigenvalues --    1.95883   1.97560   2.00240   2.01143   2.02115
 Alpha virt. eigenvalues --    2.03107   2.04387   2.06874   2.07338   2.08282
 Alpha virt. eigenvalues --    2.10659   2.10931   2.12669   2.15059   2.16487
 Alpha virt. eigenvalues --    2.17861   2.18970   2.20519   2.21901   2.22673
 Alpha virt. eigenvalues --    2.24096   2.25051   2.26257   2.30099   2.30838
 Alpha virt. eigenvalues --    2.34935   2.37897   2.38297   2.41678   2.44563
 Alpha virt. eigenvalues --    2.46099   2.50493   2.51475   2.53177   2.53877
 Alpha virt. eigenvalues --    2.55035   2.57468   2.58432   2.61632   2.65422
 Alpha virt. eigenvalues --    2.65967   2.67891   2.69223   2.70750   2.72121
 Alpha virt. eigenvalues --    2.72394   2.73675   2.76544   2.77940   2.79555
 Alpha virt. eigenvalues --    2.80736   2.81547   2.83140   2.84658   2.85840
 Alpha virt. eigenvalues --    2.86526   2.87326   2.89162   2.91473   2.93790
 Alpha virt. eigenvalues --    2.95279   2.96240   2.98275   3.00410   3.02477
 Alpha virt. eigenvalues --    3.04291   3.07250   3.07855   3.09162   3.11949
 Alpha virt. eigenvalues --    3.14470   3.17282   3.19672   3.22962   3.25612
 Alpha virt. eigenvalues --    3.26570   3.28549   3.29654   3.33246   3.38485
 Alpha virt. eigenvalues --    3.43201   3.47752   3.50765   3.53994   3.56393
 Alpha virt. eigenvalues --    3.63195   3.64005   3.65276   3.70551   3.73192
 Alpha virt. eigenvalues --    3.78366   3.78565   3.82071   3.83292   3.84456
 Alpha virt. eigenvalues --    3.89771   3.89893   3.91768   3.92581   3.97805
 Alpha virt. eigenvalues --    3.98772   4.07821   4.10394   4.10993   4.18048
 Alpha virt. eigenvalues --    4.23872   4.27882   4.33157   4.34380   4.60645
 Alpha virt. eigenvalues --    4.91496   4.96146   4.99303   5.12208   5.14661
 Alpha virt. eigenvalues --    5.25318   5.44132   5.54356   5.84987   5.94509
 Alpha virt. eigenvalues --    6.46847   6.58566   6.89665  23.72489  23.88516
 Alpha virt. eigenvalues --   24.02510  24.03022  24.05697  24.06695  24.08524
 Alpha virt. eigenvalues --   24.16409  24.23601  24.26531  24.31173  35.66309
 Alpha virt. eigenvalues --   50.05028  50.23700  66.97244
          Condensed to atoms (all electrons):
               1          2          3          4          5          6
     1  C    5.306775   0.372587   0.422170  -0.084278  -0.019861   0.240520
     2  H    0.372587   0.506519  -0.022670   0.006960  -0.000710  -0.050070
     3  H    0.422170  -0.022670   0.470447   0.008088  -0.002373  -0.028766
     4  C   -0.084278   0.006960   0.008088   5.215494   0.415307   0.266830
     5  H   -0.019861  -0.000710  -0.002373   0.415307   0.540576  -0.043440
     6  N    0.240520  -0.050070  -0.028766   0.266830  -0.043440   6.786136
     7  H    0.408483  -0.024507  -0.036041  -0.012674   0.002655  -0.046790
     8  H   -0.006450   0.003961  -0.002828   0.399300  -0.018523  -0.088406
     9  H    0.020973  -0.006476   0.002790   0.398480  -0.059799  -0.043565
    10  C   -0.111945   0.008347   0.057763  -0.215723  -0.001909   0.035538
    11  H    0.015247  -0.000144   0.001851  -0.027348   0.000064  -0.072735
    12  C    0.273221   0.028524  -0.051104   0.032455   0.008579  -0.122066
    13  C   -0.227965  -0.005385  -0.065974  -0.078325  -0.003490   0.035405
    14  H    0.034290   0.003956   0.010125  -0.002567   0.000566  -0.030931
    15  O    0.000289   0.000115   0.000120   0.000903   0.000088  -0.002724
    16  C   -0.141632  -0.002185   0.009888   0.025628   0.000184  -0.009521
    17  C   -0.056022  -0.004820   0.007413  -0.008185  -0.000126   0.013124
    18  C    0.042488   0.003288   0.000478   0.010770   0.000212   0.005616
    19  O    0.002869   0.000456   0.001204  -0.000321   0.000090   0.002721
    20  C   -0.010261  -0.000627  -0.010358  -0.002173   0.000039   0.004841
    21  C    0.009190   0.000676  -0.001643  -0.002135  -0.000062   0.000772
    22  H   -0.000735  -0.000040   0.000152   0.000703   0.000030   0.000279
    23  H   -0.000792   0.000018  -0.000161  -0.001110  -0.000039   0.000312
    24  H   -0.000350  -0.000004  -0.000155   0.000036   0.000003   0.000052
    25  C   -0.000104  -0.000151   0.001758   0.000422   0.000004  -0.000216
    26  F    0.000007   0.000000  -0.000001  -0.000001   0.000000   0.000001
    27  H   -0.000033  -0.000002   0.000024   0.000009   0.000000  -0.000015
               7          8          9         10         11         12
     1  C    0.408483  -0.006450   0.020973  -0.111945   0.015247   0.273221
     2  H   -0.024507   0.003961  -0.006476   0.008347  -0.000144   0.028524
     3  H   -0.036041  -0.002828   0.002790   0.057763   0.001851  -0.051104
     4  C   -0.012674   0.399300   0.398480  -0.215723  -0.027348   0.032455
     5  H    0.002655  -0.018523  -0.059799  -0.001909   0.000064   0.008579
     6  N   -0.046790  -0.088406  -0.043565   0.035538  -0.072735  -0.122066
     7  H    0.500933  -0.000892   0.001883  -0.035138  -0.003207   0.009038
     8  H   -0.000892   0.540796  -0.035350   0.092323  -0.007938  -0.055278
     9  H    0.001883  -0.035350   0.549425  -0.065638   0.003597   0.032977
    10  C   -0.035138   0.092323  -0.065638  10.206909   0.377088  -4.133455
    11  H   -0.003207  -0.007938   0.003597   0.377088   0.479138   0.142499
    12  C    0.009038  -0.055278   0.032977  -4.133455   0.142499  17.622547
    13  C    0.045504   0.019249   0.007073  -1.727517  -0.045598  -1.473128
    14  H   -0.024345  -0.001313  -0.000216  -0.010671   0.006886   0.594677
    15  O    0.000053   0.000795  -0.000099   0.070641  -0.000405  -0.365454
    16  C   -0.006601   0.015239  -0.001003   2.024753  -0.102597  -7.484867
    17  C    0.010346  -0.000377  -0.000263   0.102984   0.009105  -0.604819
    18  C   -0.010457  -0.000789   0.000266  -0.068016  -0.011940   2.201901
    19  O   -0.000855  -0.000106  -0.000003  -0.121023  -0.000801  -0.096271
    20  C    0.009057  -0.000543  -0.000084  -0.372144   0.004922  -0.612690
    21  C   -0.001082  -0.000096  -0.000063   0.005727   0.010331   0.092315
    22  H    0.000096  -0.000052  -0.000006   0.000779  -0.000988  -0.004089
    23  H    0.000030   0.000432   0.000013   0.010560  -0.000248   0.056786
    24  H    0.000154  -0.000001  -0.000005  -0.000207  -0.000013  -0.020383
    25  C   -0.001012  -0.000019   0.000037   0.023807   0.000365   0.376162
    26  F   -0.000003   0.000000   0.000000  -0.000277   0.000007   0.004707
    27  H   -0.000010   0.000000   0.000001   0.001475  -0.000004   0.001101
              13         14         15         16         17         18
     1  C   -0.227965   0.034290   0.000289  -0.141632  -0.056022   0.042488
     2  H   -0.005385   0.003956   0.000115  -0.002185  -0.004820   0.003288
     3  H   -0.065974   0.010125   0.000120   0.009888   0.007413   0.000478
     4  C   -0.078325  -0.002567   0.000903   0.025628  -0.008185   0.010770
     5  H   -0.003490   0.000566   0.000088   0.000184  -0.000126   0.000212
     6  N    0.035405  -0.030931  -0.002724  -0.009521   0.013124   0.005616
     7  H    0.045504  -0.024345   0.000053  -0.006601   0.010346  -0.010457
     8  H    0.019249  -0.001313   0.000795   0.015239  -0.000377  -0.000789
     9  H    0.007073  -0.000216  -0.000099  -0.001003  -0.000263   0.000266
    10  C   -1.727517  -0.010671   0.070641   2.024753   0.102984  -0.068016
    11  H   -0.045598   0.006886  -0.000405  -0.102597   0.009105  -0.011940
    12  C   -1.473128   0.594677  -0.365454  -7.484867  -0.604819   2.201901
    13  C   14.327285  -0.190159   0.238435  -3.237752  -2.059173  -1.937885
    14  H   -0.190159   0.539550  -0.002821  -0.278935  -0.060704   0.145450
    15  O    0.238435  -0.002821   7.928715  -0.180683  -0.001577   0.206055
    16  C   -3.237752  -0.278935  -0.180683  26.686480  -0.260931 -10.590313
    17  C   -2.059173  -0.060704  -0.001577  -0.260931  17.566444  -1.125322
    18  C   -1.937885   0.145450   0.206055 -10.590313  -1.125322  26.850697
    19  O    0.274358   0.036161  -0.005952  -0.177064   0.360697  -0.078961
    20  C    1.966146   0.021782  -0.019232  -1.150558  -6.789597  -3.693298
    21  C    0.449050   0.012126   0.068354   1.471185  -2.426885  -6.523255
    22  H   -0.041721  -0.002299   0.010572  -0.169554  -0.014216   0.755002
    23  H    0.119348   0.002258   0.220361  -0.035690  -0.013391  -0.161069
    24  H    0.005893  -0.000984   0.000473  -0.033300  -0.253500   0.026241
    25  C   -0.313957   0.018918   0.014965  -2.236085   2.969065   0.780798
    26  F    0.033525   0.000288   0.000194   0.003122  -0.051960  -0.333500
    27  H   -0.005124   0.000096   0.000053   0.030355   0.081269  -0.037150
              19         20         21         22         23         24
     1  C    0.002869  -0.010261   0.009190  -0.000735  -0.000792  -0.000350
     2  H    0.000456  -0.000627   0.000676  -0.000040   0.000018  -0.000004
     3  H    0.001204  -0.010358  -0.001643   0.000152  -0.000161  -0.000155
     4  C   -0.000321  -0.002173  -0.002135   0.000703  -0.001110   0.000036
     5  H    0.000090   0.000039  -0.000062   0.000030  -0.000039   0.000003
     6  N    0.002721   0.004841   0.000772   0.000279   0.000312   0.000052
     7  H   -0.000855   0.009057  -0.001082   0.000096   0.000030   0.000154
     8  H   -0.000106  -0.000543  -0.000096  -0.000052   0.000432  -0.000001
     9  H   -0.000003  -0.000084  -0.000063  -0.000006   0.000013  -0.000005
    10  C   -0.121023  -0.372144   0.005727   0.000779   0.010560  -0.000207
    11  H   -0.000801   0.004922   0.010331  -0.000988  -0.000248  -0.000013
    12  C   -0.096271  -0.612690   0.092315  -0.004089   0.056786  -0.020383
    13  C    0.274358   1.966146   0.449050  -0.041721   0.119348   0.005893
    14  H    0.036161   0.021782   0.012126  -0.002299   0.002258  -0.000984
    15  O   -0.005952  -0.019232   0.068354   0.010572   0.220361   0.000473
    16  C   -0.177064  -1.150558   1.471185  -0.169554  -0.035690  -0.033300
    17  C    0.360697  -6.789597  -2.426885  -0.014216  -0.013391  -0.253500
    18  C   -0.078961  -3.693298  -6.523255   0.755002  -0.161069   0.026241
    19  O    8.359940  -0.112535   0.008515  -0.001425   0.001085  -0.010210
    20  C   -0.112535  16.815576   3.081030   0.002311   0.014862   0.650629
    21  C    0.008515   3.081030  12.959369  -0.160526   0.056220   0.082746
    22  H   -0.001425   0.002311  -0.160526   0.518282  -0.003893   0.001798
    23  H    0.001085   0.014862   0.056220  -0.003893   0.458256  -0.000122
    24  H   -0.010210   0.650629   0.082746   0.001798  -0.000122   0.469061
    25  C   -0.059654  -3.971197  -3.058808  -0.068579  -0.015040  -0.136570
    26  F    0.000096   0.053852   0.652461  -0.023374  -0.000585   0.001221
    27  H    0.001229  -0.107624  -0.212124  -0.002634  -0.000161  -0.014418
              25         26         27
     1  C   -0.000104   0.000007  -0.000033
     2  H   -0.000151   0.000000  -0.000002
     3  H    0.001758  -0.000001   0.000024
     4  C    0.000422  -0.000001   0.000009
     5  H    0.000004   0.000000   0.000000
     6  N   -0.000216   0.000001  -0.000015
     7  H   -0.001012  -0.000003  -0.000010
     8  H   -0.000019   0.000000   0.000000
     9  H    0.000037   0.000000   0.000001
    10  C    0.023807  -0.000277   0.001475
    11  H    0.000365   0.000007  -0.000004
    12  C    0.376162   0.004707   0.001101
    13  C   -0.313957   0.033525  -0.005124
    14  H    0.018918   0.000288   0.000096
    15  O    0.014965   0.000194   0.000053
    16  C   -2.236085   0.003122   0.030355
    17  C    2.969065  -0.051960   0.081269
    18  C    0.780798  -0.333500  -0.037150
    19  O   -0.059654   0.000096   0.001229
    20  C   -3.971197   0.053852  -0.107624
    21  C   -3.058808   0.652461  -0.212124
    22  H   -0.068579  -0.023374  -0.002634
    23  H   -0.015040  -0.000585  -0.000161
    24  H   -0.136570   0.001221  -0.014418
    25  C   11.449402  -0.315937   0.567702
    26  F   -0.315937   9.164989  -0.024273
    27  H    0.567702  -0.024273   0.477927
 Mulliken charges:
               1
     1  C   -0.488681
     2  H    0.182384
     3  H    0.227804
     4  C   -0.346548
     5  H    0.181933
     6  N    0.147099
     7  H    0.215380
     8  H    0.146866
     9  H    0.195055
    10  C   -0.155029
    11  H    0.222867
    12  C   -0.453884
    13  C   -0.108118
    14  H    0.178816
    15  O   -0.182236
    16  C    1.832436
    17  C   -1.388580
    18  C   -0.457309
    19  O   -0.384238
    20  C    0.227872
    21  C   -0.573387
    22  H    0.204128
    23  H    0.291757
    24  H    0.231915
    25  C   -0.026074
    26  F   -0.164557
    27  H    0.242330
 Sum of Mulliken charges =   0.00000
 Mulliken charges with hydrogens summed into heavy atoms:
               1
     1  C    0.136887
     4  C    0.177306
     6  N    0.147099
    10  C    0.067838
    12  C   -0.275068
    13  C   -0.108118
    15  O    0.109521
    16  C    1.832436
    17  C   -1.388580
    18  C   -0.253181
    19  O   -0.384238
    20  C    0.459787
    21  C   -0.573387
    25  C    0.216256
    26  F   -0.164557
 Electronic spatial extent (au):  <R**2>=           4464.1998
 Charge=              0.0000 electrons
 Dipole moment (field-independent basis, Debye):
    X=             -8.0899    Y=              3.1722    Z=              0.3971  Tot=              8.6987
 Quadrupole moment (field-independent basis, Debye-Ang):
   XX=            -62.2869   YY=            -89.8308   ZZ=            -89.9691
   XY=             -3.6679   XZ=             -4.1128   YZ=             -4.5739
 Traceless Quadrupole moment (field-independent basis, Debye-Ang):
   XX=             18.4087   YY=             -9.1352   ZZ=             -9.2735
   XY=             -3.6679   XZ=             -4.1128   YZ=             -4.5739
 Octapole moment (field-independent basis, Debye-Ang**2):
  XXX=           -179.3477  YYY=             37.8094  ZZZ=              0.6067  XYY=             -7.0417
  XXY=            -30.8090  XXZ=              3.5032  XZZ=             -2.8280  YZZ=              8.6833
  YYZ=             -0.7179  XYZ=             -3.4812
 Hexadecapole moment (field-independent basis, Debye-Ang**3):
 XXXX=          -4103.4402 YYYY=           -911.5066 ZZZZ=           -153.3624 XXXY=           -151.0736
 XXXZ=            -41.8629 YYYX=             41.3292 YYYZ=            -23.2872 ZZZX=              4.1292
 ZZZY=             -6.7938 XXYY=           -867.8616 XXZZ=           -827.5488 YYZZ=           -176.3313
 XXYZ=            -13.1250 YYXZ=             -7.1281 ZZXY=             24.4703
 N-N= 9.447884940274D+02 E-N=-3.600775163952D+03  KE= 7.285357608335D+02
 1\1\GINC-DN13\Scan\RwB97XD TD-FC\6-311++G(d,p)\C11H12F1N1O2\CA12053\22
 -Dec-2016\0\\# wb97xd 6-311++g** opt=modredundant td=(nstates=1,root=1
 )\\Geom Opt s0\\0,1\C,3.3005451063,-0.6435462985,1.6339619753\H,4.2601
 157786,-0.6826632726,2.1502281626\H,2.65282696,0.0700148094,2.14817879
 17\C,4.8268036799,-0.4818490378,-0.3062070422\H,5.5993635385,0.0140560
 977,0.2883510522\N,3.5182903249,-0.2321380357,0.2611450155\H,2.8322742
 478,-1.6348622992,1.683440621\H,4.8678933053,-0.0925625648,-1.32336409
 71\H,5.0464984612,-1.5563327408,-0.3360531973\C,2.4884147199,0.1473794
 405,-0.5160273785\H,2.7500498371,0.424470458,-1.5313456071\C,1.1719261
 809,0.2141487678,-0.0947998753\C,0.1601300182,0.7838401717,-0.85164828
 99\H,0.8653183508,-0.143363129,0.8800485467\O,0.4881633378,1.272383508
 6,-2.073487827\C,-1.2497606452,0.7879348527,-0.4734305266\C,-1.6525620
 517,0.6992128152,0.9404867197\C,-2.2252195023,0.75647598,-1.4531026718
 \O,-0.7964427491,0.6142801969,1.858990007\C,-3.050522584,0.7190508494,
 1.2053548833\C,-3.5874425815,0.7942280348,-1.1074557068\H,-1.977423953
 ,0.6658667497,-2.506321395\H,-0.2202239659,1.8361300682,-2.3960183588\
 H,-3.3441477442,0.7139682805,2.2483662853\C,-4.0154200599,0.7860037735
 ,0.1992444707\F,-4.4814256196,0.8361114595,-2.1109556359\H,-5.07372439
 05,0.8199090642,0.4262290784\\Version=ES64L-G09RevD.01\State=1-A\HF=-7
 31.2960582,-731.2806614,-731.3245485,-731.3389512,-731.3418008,-731.33
 89527\RMSD=5.218e-09,8.505e-09,5.961e-09,8.404e-09,6.419e-09,5.732e-09
 \PG=C01 [X(C11H12F1N1O2)]\\@


 ADVERTISING--  HE WHO HAS SOMETHING TO SELL AND GOES AND WHISPERS
                IN A WELL, IS NOT SO APT TO GET THE DOLLARS AS HE
                WHO CLIMBS A TREE AND HOLLERS.

                   -- FROM THE BACK OF A SUGAR PACKET
 Job cpu time:      12 days  1 hours 57 minutes  9.7 seconds.
 File lengths (MBytes):  RWF=    173 Int=      0 D2E=      0 Chk=     26 Scr=      1
 Normal termination of Gaussian 09 at Thu Dec 22 18:39:06 2016.
