
     Program PWSCF v.6.1 (svn rev. 13369) starts on  6Oct2017 at  7:12:53 

     This program is part of the open-source Quantum ESPRESSO suite
     for quantum simulation of materials; please cite
         "P. Giannozzi et al., J. Phys.:Condens. Matter 21 395502 (2009);
          URL http://www.quantum-espresso.org", 
     in publications or presentations arising from this work. More details at
     http://www.quantum-espresso.org/quote

     Parallel version (MPI), running on     1 processors
     Waiting for input...
     Reading input from standard input

     Current dimensions of program PWSCF are:
     Max number of different atomic species (ntypx) = 10
     Max number of k-points (npk) =  40000
     Max angular momentum in pseudopotentials (lmaxx) =  3
     Message from routine iosys:
     london is obsolete, use "vdw_corr='grimme-d2'" instead

     IMPORTANT: XC functional enforced from input :
     Exchange-correlation      = PBE ( 1  4  3  4 0 0)
     Any further DFT definition will be discarded
     Please, verify this is what you really want

               file C.pbe-rrkjus.UPF: wavefunction(s)  2S 2P renormalized
               file H.pbe-rrkjus.UPF: wavefunction(s)  1S renormalized
               file O.pbe-rrkjus.UPF: wavefunction(s)  2S renormalized
               file N.pbe-rrkjus.UPF: wavefunction(s)  2S renormalized

     -------------------------------------
     Parameters for Dispersion Correction:
     -------------------------------------
       atom      VdW radius       C_6     

        C          2.744         60.710
        H          1.892          4.857
        O          2.536         24.284
        N          2.640         42.670

     Subspace diagonalization in iterative solution of the eigenvalue problem:
     a serial algorithm will be used

 
     G-vector sticks info
     --------------------
     sticks:   dense  smooth     PW     G-vecs:    dense   smooth      PW
     Sum        3019    3019    785               169855   169855   22761
 


     bravais-lattice index     =            0
     lattice parameter (alat)  =      14.0342  a.u.
     unit-cell volume          =    7653.1420 (a.u.)^3
     number of atoms/cell      =          124
     number of atomic types    =            4
     number of electrons       =       344.00
     number of Kohn-Sham states=          172
     kinetic-energy cutoff     =      30.0000  Ry
     charge density cutoff     =     120.0000  Ry
     convergence threshold     =      1.0E-07
     mixing beta               =       0.7000
     number of iterations used =            8  plain     mixing
     Exchange-correlation      = PBE ( 1  4  3  4 0 0)
     nstep                     =           50


     celldm(1)=  14.034240  celldm(2)=   0.000000  celldm(3)=   0.000000
     celldm(4)=   0.000000  celldm(5)=   0.000000  celldm(6)=   0.000000

     crystal axes: (cart. coord. in units of alat)
               a(1) = (   1.000000   0.000000   0.000000 )  
               a(2) = (   0.000000   1.600867   0.000000 )  
               a(3) = (  -0.373929   0.000000   1.729489 )  

     reciprocal axes: (cart. coord. in units 2 pi/alat)
               b(1) = (  1.000000  0.000000  0.216208 )  
               b(2) = (  0.000000  0.624661  0.000000 )  
               b(3) = (  0.000000  0.000000  0.578206 )  


     PseudoPot. # 1 for C  read from file:
     /data/home/btx156/espresso/pseudo/C.pbe-rrkjus.UPF
     MD5 check sum: 00fb224312de0c5b6853bd333518df6f
     Pseudo is Ultrasoft, Zval =  4.0
     Generated by new atomic code, or converted to UPF format
     Using radial grid of  627 points,  4 beta functions with: 
                l(1) =   0
                l(2) =   0
                l(3) =   1
                l(4) =   1
     Q(r) pseudized with 0 coefficients 


     PseudoPot. # 2 for H  read from file:
     /data/home/btx156/espresso/pseudo/H.pbe-rrkjus.UPF
     MD5 check sum: 7cc9d459525c9a0585f487a71c3c9563
     Pseudo is Ultrasoft, Zval =  1.0
     Generated by new atomic code, or converted to UPF format
     Using radial grid of 1061 points,  2 beta functions with: 
                l(1) =   0
                l(2) =   0
     Q(r) pseudized with 0 coefficients 


     PseudoPot. # 3 for O  read from file:
     /data/home/btx156/espresso/pseudo/O.pbe-rrkjus.UPF
     MD5 check sum: 390ba29e75625707450f3bd3f0eb6be9
     Pseudo is Ultrasoft, Zval =  6.0
     Generated by new atomic code, or converted to UPF format
     Using radial grid of 1269 points,  4 beta functions with: 
                l(1) =   0
                l(2) =   0
                l(3) =   1
                l(4) =   1
     Q(r) pseudized with 0 coefficients 


     PseudoPot. # 4 for N  read from file:
     /data/home/btx156/espresso/pseudo/N.pbe-rrkjus.UPF
     MD5 check sum: 0c3fbe5807a93f9ba59d5a7019aa238b
     Pseudo is Ultrasoft, Zval =  5.0
     Generated by new atomic code, or converted to UPF format
     Using radial grid of 1257 points,  4 beta functions with: 
                l(1) =   0
                l(2) =   0
                l(3) =   1
                l(4) =   1
     Q(r) pseudized with 0 coefficients 


     atomic species   valence    mass     pseudopotential
        C              4.00    12.00000     C ( 1.00)
        H              1.00     1.00790     H ( 1.00)
        O              6.00    15.99940     O ( 1.00)
        N              5.00    14.00670     N ( 1.00)

      4 Sym. Ops., with inversion, found ( 2 have fractional translation)



   Cartesian axes

     site n.     atom                  positions (alat units)
         1           O   tau(   1) = (   0.0995112   1.4779845   0.1358347  )
         2           C   tau(   2) = (   0.0217394   1.4531710   0.6904990  )
         3           O   tau(   3) = (  -0.0949290   1.1538564   0.6545081  )
         4           C   tau(   4) = (  -0.0020736   1.4423007   0.8871247  )
         5           C   tau(   5) = (   0.0674669   1.4608556   0.3152681  )
         6           C   tau(   6) = (  -0.0019659   1.3087564   0.3957585  )
         7           C   tau(   7) = (  -0.0256847   1.3047222   0.5817305  )
         8           O   tau(   8) = (  -0.0683341   1.2992473   0.9523429  )
         9           N   tau(   9) = (   0.0647699   0.0966930   1.3056432  )
        10           C   tau(  10) = (   0.0297404   1.5731883   1.1829357  )
        11           C   tau(  11) = (   0.0892144   0.0047222   0.6012051  )
        12           C   tau(  12) = (   0.0498209   1.5877723   1.0007002  )
        13           C   tau(  13) = (   0.1118197   0.0109337   0.4189508  )
        14           C   tau(  14) = (   0.1286565   0.2738602   1.2540867  )
        15           C   tau(  15) = (   0.0443258   0.0604651   1.4961288  )
        16           C   tau(  16) = (   0.0632429   1.3292799   0.0224665  )
        17           H   tau(  17) = (   0.1412706   1.2310667   0.0537877  )
        18           H   tau(  18) = (  -0.2902661   1.3629777   1.6288328  )
        19           H   tau(  19) = (   0.9401233   1.2928608   0.0373576  )
        20           H   tau(  20) = (  -0.0296731   1.2091347   0.3268737  )
        21           H   tau(  21) = (  -0.0128632   1.4639929   1.2296663  )
        22           H   tau(  22) = (   0.0976382   0.0947715   0.9498357  )
        23           H   tau(  23) = (   0.1645962   0.1130208   0.3580037  )
        24           H   tau(  24) = (   0.1213180   0.1122209   0.6738090  )
        25           H   tau(  25) = (  -0.0311529   0.1424770   1.5501414  )
        26           H   tau(  26) = (   0.0505979   0.3284976   1.1674050  )
        27           H   tau(  27) = (   0.1462796   0.3433859   1.3585140  )
        28           H   tau(  28) = (   0.0008119   1.5400345   1.5133022  )
        29           H   tau(  29) = (   0.2456898   0.2635028   1.1947311  )
        30           H   tau(  30) = (   0.1565764   0.0794024   1.5560216  )
        31           H   tau(  31) = (  -0.0982684   1.1878437   0.7782700  )
        32           O   tau(  32) = (   0.2135244   0.6775510   0.7289109  )
        33           O   tau(  33) = (   0.5265599   0.1228826   1.5936552  )
        34           O   tau(  34) = (   0.4125468   0.9233162   1.0005790  )
        35           C   tau(  35) = (   0.2912962   0.6527375   0.1742466  )
        36           C   tau(  36) = (   0.6043317   0.1476961   1.0389909  )
        37           C   tau(  37) = (   0.3347750   0.9481297   1.5552433  )
        38           O   tau(  38) = (   0.4079646   0.3534228   0.2102362  )
        39           O   tau(  39) = (   0.7210002   0.4470107   1.0749805  )
        40           O   tau(  40) = (   0.2181065   1.2474443   1.5192524  )
        41           C   tau(  41) = (  -0.0588196   0.6418671   1.7071096  )
        42           C   tau(  42) = (   0.6281448   0.1585665   0.8423653  )
        43           C   tau(  43) = (   0.6848908   0.9590001   0.0223790  )
        44           C   tau(  44) = (   0.2455686   0.6604220   0.5494762  )
        45           C   tau(  45) = (   0.5586042   0.1400116   1.4142205  )
        46           C   tau(  46) = (   0.3805025   0.9404452   1.1800124  )
        47           C   tau(  47) = (   0.3150015   0.5083228   0.4689858  )
        48           C   tau(  48) = (   0.6280371   0.2921108   1.3337301  )
        49           C   tau(  49) = (   0.3110697   1.0925444   1.2605028  )
        50           C   tau(  50) = (   0.3387203   0.5042886   0.2830138  )
        51           C   tau(  51) = (   0.6517559   0.2961449   1.1477581  )
        52           C   tau(  52) = (   0.2873509   1.0965785   1.4464748  )
        53           O   tau(  53) = (   0.0074408   0.4988137   1.6418900  )
        54           O   tau(  54) = (   0.6944052   0.3016199   0.7771457  )
        55           O   tau(  55) = (   0.6186303   1.1020534   0.0875986  )
        56           N   tau(  56) = (  -0.1256632   0.8971265   1.2885897  )
        57           N   tau(  57) = (   0.5613013   1.5041742   0.4238454  )
        58           N   tau(  58) = (   0.7517343   0.7037406   0.4408989  )
        59           C   tau(  59) = (  -0.0906337   0.7727547   1.4112972  )
        60           C   tau(  60) = (   0.5963308   0.0276789   0.5465529  )
        61           C   tau(  61) = (   0.7167048   0.8281125   0.3181914  )
        62           C   tau(  62) = (   0.2238211   0.8051558   0.2635392  )
        63           C   tau(  63) = (   0.5368567   1.5961449   1.1282835  )
        64           C   tau(  64) = (   0.4022500   0.7957114   1.4659494  )
        65           C   tau(  65) = (  -0.1107142   0.7873388   1.5935341  )
        66           C   tau(  66) = (   0.5762502   0.0130948   0.7287898  )
        67           C   tau(  67) = (   0.7367853   0.8135284   0.1359545  )
        68           C   tau(  68) = (   0.2012159   0.8113672   0.4457935  )
        69           C   tau(  69) = (   0.5142515   1.5899335   1.3105378  )
        70           C   tau(  70) = (   0.4248553   0.7894999   1.2836964  )
        71           C   tau(  71) = (  -0.1895497   1.0742938   1.3401462  )
        72           C   tau(  72) = (   0.4974147   1.3270070   0.4754019  )
        73           C   tau(  73) = (   0.8156209   0.5265734   0.3893424  )
        74           C   tau(  74) = (  -0.1052191   0.8608987   1.0981041  )
        75           C   tau(  75) = (   0.5817453   1.5404021   0.2333598  )
        76           C   tau(  76) = (   0.7312902   0.7399685   0.6313845  )
        77           C   tau(  77) = (   0.2497926   0.5288463   0.8422778  )
        78           C   tau(  78) = (   0.5628282   0.2715873   1.7070234  )
        79           C   tau(  79) = (   0.3762785   1.0720208   0.8872108  )
        80           H   tau(  80) = (   0.1717650   0.4306331   0.8109579  )
        81           H   tau(  81) = (   0.4848006   0.3698004   1.6757022  )
        82           H   tau(  82) = (   0.4543061   1.1702340   0.9185320  )
        83           H   tau(  83) = (   0.2293728   0.5625441   0.9654001  )
        84           H   tau(  84) = (   0.9163372   0.2378895   0.1006558  )
        85           H   tau(  85) = (   0.3966984   1.0383231   0.7640885  )
        86           H   tau(  86) = (   0.3729122   0.4924272   0.8273880  )
        87           H   tau(  87) = (  -0.3140522   0.3080064   1.6921323  )
        88           H   tau(  88) = (   0.2531589   1.1084399   0.9021019  )
        89           H   tau(  89) = (   0.3427086   0.4087012   0.5378706  )
        90           H   tau(  90) = (   0.6557442   0.3917324   1.4026149  )
        91           H   tau(  91) = (   0.2833625   1.1921660   1.1916180  )
        92           H   tau(  92) = (  -0.0480301   0.6635594   1.3645666  )
        93           H   tau(  93) = (   0.6389344   0.1368742   0.4998223  )
        94           H   tau(  94) = (   0.6741012   0.9373078   0.3649220  )
        95           H   tau(  95) = (  -0.1585315   0.8952051   1.6443985  )
        96           H   tau(  96) = (   0.5284329   1.5060957   0.7796542  )
        97           H   tau(  97) = (   0.7846026   0.7056621   0.0850914  )
        98           H   tau(  98) = (   0.1484394   0.9134543   0.5067406  )
        99           H   tau(  99) = (   0.4614750   1.4878464   1.3714849  )
       100           H   tau( 100) = (   0.4776318   0.6874128   1.2227493  )
       101           H   tau( 101) = (   0.1917176   0.9126545   0.1909353  )
       102           H   tau( 102) = (   0.5047545   1.4886462   1.0556796  )
       103           H   tau( 103) = (   0.4343535   0.6882126   1.5385533  )
       104           H   tau( 104) = (  -0.0297404   0.9429106   1.0440929  )
       105           H   tau( 105) = (   0.6572240   1.4583901   0.1793486  )
       106           H   tau( 106) = (   0.6558115   0.6579565   0.6853971  )
       107           H   tau( 107) = (  -0.1114911   1.1289311   1.4268279  )
       108           H   tau( 108) = (   0.5754733   1.2723696   0.5620836  )
       109           H   tau( 109) = (   0.7375623   0.4719360   0.3026607  )
       110           H   tau( 110) = (  -0.2071715   1.1438195   1.2357203  )
       111           H   tau( 111) = (   0.4797929   1.2574812   0.3709760  )
       112           H   tau( 112) = (   0.8332440   0.4570476   0.4937697  )
       113           H   tau( 113) = (  -0.0617052   0.7396009   1.0809307  )
       114           H   tau( 114) = (   0.6252592   0.0608327   0.2161864  )
       115           H   tau( 115) = (   0.6877764   0.8612663   0.6485579  )
       116           H   tau( 116) = (   0.6934169   1.0639364   1.3995018  )
       117           H   tau( 117) = (   0.3803813   1.3373643   0.5347575  )
       118           H   tau( 118) = (  -0.0673458   0.5369308   0.3299868  )
       119           H   tau( 119) = (  -0.2174696   0.8798360   1.0382126  )
       120           H   tau( 120) = (   0.4694948   1.5214647   0.1734683  )
       121           H   tau( 121) = (   0.8435408   0.7210312   0.6912773  )
       122           H   tau( 122) = (   0.4113040   0.3874101   0.0864743  )
       123           H   tau( 123) = (   0.7243395   0.4130235   0.9512186  )
       124           H   tau( 124) = (   0.2147672   1.2134570   1.6430143  )

     number of k points=     2
                       cart. coord. in units 2pi/alat
        k(    1) = (   0.0000000   0.0000000   0.0000000), wk =   1.0000000
        k(    2) = (   0.0000000   0.0000000  -0.2891028), wk =   1.0000000

     Dense  grid:   169855 G-vectors     FFT dimensions: (  50,  80,  90)

     Estimated max dynamical RAM per process >     934.50MB

     Initial potential from superposition of free atoms

     starting charge  338.22517, renormalised to  344.00000
     Starting wfc are  316 randomized atomic wfcs

     total cpu time spent up to now is       16.2 secs

     per-process dynamical memory:   511.6 Mb

     Self-consistent Calculation

     iteration #  1     ecut=    30.00 Ry     beta=0.70
     Davidson diagonalization with overlap
     ethr =  1.00E-02,  avg # of iterations =  2.0

     total cpu time spent up to now is       49.5 secs

     total energy              =   -1069.01314106 Ry
     Harris-Foulkes estimate   =   -1091.25866740 Ry
     estimated scf accuracy    <      32.80463042 Ry

     iteration #  2     ecut=    30.00 Ry     beta=0.70
     Davidson diagonalization with overlap
     ethr =  9.54E-03,  avg # of iterations =  4.0

     total cpu time spent up to now is       77.5 secs

     total energy              =   -1073.11964908 Ry
     Harris-Foulkes estimate   =   -1082.46587718 Ry
     estimated scf accuracy    <      16.45706742 Ry

     iteration #  3     ecut=    30.00 Ry     beta=0.70
     Davidson diagonalization with overlap
     ethr =  4.78E-03,  avg # of iterations =  4.0

     total cpu time spent up to now is      104.8 secs

     total energy              =   -1076.94791702 Ry
     Harris-Foulkes estimate   =   -1079.26183188 Ry
     estimated scf accuracy    <       4.86573335 Ry

     iteration #  4     ecut=    30.00 Ry     beta=0.70
     Davidson diagonalization with overlap
     ethr =  1.41E-03,  avg # of iterations =  4.0

     total cpu time spent up to now is      129.7 secs

     total energy              =   -1077.93039493 Ry
     Harris-Foulkes estimate   =   -1078.32421005 Ry
     estimated scf accuracy    <       0.86834863 Ry

     iteration #  5     ecut=    30.00 Ry     beta=0.70
     Davidson diagonalization with overlap
     ethr =  2.52E-04,  avg # of iterations =  4.0

     total cpu time spent up to now is      154.5 secs

     total energy              =   -1078.10554913 Ry
     Harris-Foulkes estimate   =   -1078.14104639 Ry
     estimated scf accuracy    <       0.07029945 Ry

     iteration #  6     ecut=    30.00 Ry     beta=0.70
     Davidson diagonalization with overlap
     ethr =  2.04E-05,  avg # of iterations =  4.0

     total cpu time spent up to now is      181.0 secs

     total energy              =   -1078.12263251 Ry
     Harris-Foulkes estimate   =   -1078.12663457 Ry
     estimated scf accuracy    <       0.00811556 Ry

     iteration #  7     ecut=    30.00 Ry     beta=0.70
     Davidson diagonalization with overlap
     ethr =  2.36E-06,  avg # of iterations =  4.0

     total cpu time spent up to now is      207.7 secs

     total energy              =   -1078.12443404 Ry
     Harris-Foulkes estimate   =   -1078.12538785 Ry
     estimated scf accuracy    <       0.00206614 Ry

     iteration #  8     ecut=    30.00 Ry     beta=0.70
     Davidson diagonalization with overlap
     ethr =  6.01E-07,  avg # of iterations =  4.0

     total cpu time spent up to now is      233.6 secs

     total energy              =   -1078.12487345 Ry
     Harris-Foulkes estimate   =   -1078.12503556 Ry
     estimated scf accuracy    <       0.00036311 Ry

     iteration #  9     ecut=    30.00 Ry     beta=0.70
     Davidson diagonalization with overlap
     ethr =  1.06E-07,  avg # of iterations =  4.0

     total cpu time spent up to now is      257.5 secs

     total energy              =   -1078.12495478 Ry
     Harris-Foulkes estimate   =   -1078.12497679 Ry
     estimated scf accuracy    <       0.00004878 Ry

     iteration # 10     ecut=    30.00 Ry     beta=0.70
     Davidson diagonalization with overlap
     ethr =  1.42E-08,  avg # of iterations =  4.0

     total cpu time spent up to now is      282.5 secs

     total energy              =   -1078.12496513 Ry
     Harris-Foulkes estimate   =   -1078.12496741 Ry
     estimated scf accuracy    <       0.00000485 Ry

     iteration # 11     ecut=    30.00 Ry     beta=0.70
     Davidson diagonalization with overlap
     ethr =  1.41E-09,  avg # of iterations =  4.0

     total cpu time spent up to now is      309.3 secs

     total energy              =   -1078.12496631 Ry
     Harris-Foulkes estimate   =   -1078.12496651 Ry
     estimated scf accuracy    <       0.00000049 Ry

     iteration # 12     ecut=    30.00 Ry     beta=0.70
     Davidson diagonalization with overlap
     ethr =  1.41E-10,  avg # of iterations =  4.0

     total cpu time spent up to now is      336.4 secs

     End of self-consistent calculation

          k = 0.0000 0.0000 0.0000 ( 21265 PWs)   bands (ev):

   -20.8687 -20.8661 -20.8246 -20.8235 -20.6908 -20.6893 -20.6878 -20.6870
   -19.0642 -19.0638 -19.0588 -19.0539 -18.2204 -18.2196 -18.2190 -18.2161
   -15.2187 -15.2153 -15.2129 -15.2092 -13.5828 -13.5636 -13.5105 -13.4884
   -13.1512 -13.1479 -13.0922 -13.0912 -12.8807 -12.8772 -12.8729 -12.8417
   -12.7640 -12.7483 -12.7244 -12.6983 -11.9846 -11.9466 -11.9201 -11.9136
   -11.3616 -11.3107 -11.3045 -11.2831  -9.5500  -9.5499  -9.5475  -9.5097
    -9.3690  -9.3606  -9.3547  -9.3210  -8.8977  -8.8694  -8.8084  -8.7689
    -8.0660  -8.0540  -7.9975  -7.9552  -7.4864  -7.4695  -7.4521  -7.3669
    -7.2248  -7.2081  -7.1978  -7.1953  -6.7221  -6.6785  -6.6701  -6.6509
    -6.2426  -6.1939  -6.1880  -6.1817  -6.1742  -6.1614  -6.0829  -6.0735
    -6.0077  -5.9699  -5.9036  -5.8985  -5.8069  -5.7621  -5.7247  -5.6945
    -5.4029  -5.3702  -5.3374  -5.2782  -5.0709  -5.0656  -5.0412  -5.0269
    -4.7861  -4.7283  -4.7172  -4.6882  -4.6576  -4.5913  -4.5669  -4.4956
    -4.4919  -4.4719  -4.2400  -4.2262  -4.1931  -4.1740  -4.1472  -4.1199
    -4.0553  -4.0540  -4.0461  -4.0175  -3.9728  -3.9694  -3.8735  -3.8483
    -3.8418  -3.8063  -3.8053  -3.7391  -3.4992  -3.4560  -3.4372  -3.3892
    -3.2652  -3.2602  -3.1607  -3.0935  -3.0758  -3.0652  -3.0493  -3.0159
    -2.8418  -2.7600  -2.7255  -2.7254  -2.2836  -2.2824  -2.2452  -2.2425
    -2.0079  -1.9556  -1.9511  -1.8935  -1.8571  -1.8024  -1.6417  -1.6359
    -1.3003  -1.2811  -1.2283  -1.1477   0.1610   0.1814   0.1886   0.2301
     0.3966   0.4149   0.4448   0.4554   0.5340   0.5673   0.6799   0.7636
     1.1684   1.1941   1.3558   1.4019

          k = 0.0000 0.0000-0.2891 ( 21228 PWs)   bands (ev):

   -20.8674 -20.8673 -20.8242 -20.8241 -20.6890 -20.6889 -20.6885 -20.6884
   -19.0642 -19.0641 -19.0563 -19.0561 -18.2198 -18.2198 -18.2178 -18.2178
   -15.2174 -15.2174 -15.2104 -15.2103 -13.5730 -13.5730 -13.5136 -13.5135
   -13.1313 -13.1312 -13.0907 -13.0907 -12.8829 -12.8829 -12.8474 -12.8473
   -12.7608 -12.7608 -12.7105 -12.7105 -11.9539 -11.9538 -11.9444 -11.9444
   -11.3366 -11.3366 -11.2890 -11.2890  -9.5595  -9.5595  -9.5132  -9.5132
    -9.3582  -9.3582  -9.3252  -9.3251  -8.8793  -8.8793  -8.8157  -8.8157
    -8.0345  -8.0344  -8.0065  -8.0065  -7.5057  -7.5057  -7.4281  -7.4280
    -7.2175  -7.2175  -7.1532  -7.1532  -6.6741  -6.6741  -6.6277  -6.6277
    -6.2881  -6.2881  -6.2119  -6.2119  -6.1123  -6.1123  -6.0303  -6.0303
    -6.0153  -6.0153  -5.9389  -5.9389  -5.7625  -5.7625  -5.7232  -5.7231
    -5.4114  -5.4113  -5.3410  -5.3409  -5.0879  -5.0879  -4.9586  -4.9586
    -4.7463  -4.7463  -4.6710  -4.6710  -4.6159  -4.6159  -4.5435  -4.5435
    -4.4361  -4.4360  -4.2620  -4.2620  -4.2112  -4.2112  -4.1581  -4.1581
    -4.0720  -4.0720  -4.0347  -4.0346  -3.9936  -3.9936  -3.8740  -3.8740
    -3.8075  -3.8074  -3.7690  -3.7689  -3.4448  -3.4448  -3.4106  -3.4106
    -3.2627  -3.2627  -3.1128  -3.1128  -3.0746  -3.0746  -3.0303  -3.0302
    -2.8195  -2.8195  -2.7185  -2.7185  -2.2757  -2.2757  -2.2611  -2.2610
    -1.9863  -1.9862  -1.9198  -1.9197  -1.8313  -1.8312  -1.6315  -1.6314
    -1.2489  -1.2489  -1.2210  -1.2210   0.1645   0.1646   0.2133   0.2133
     0.4211   0.4212   0.4348   0.4349   0.5734   0.5734   0.6870   0.6870
     1.1715   1.1716   1.4022   1.4022

     highest occupied level (ev):     1.4022

!    total energy              =   -1078.12496642 Ry
     Harris-Foulkes estimate   =   -1078.12496645 Ry
     estimated scf accuracy    <       0.00000005 Ry

     The total energy is the sum of the following terms:

     one-electron contribution =    -946.48744828 Ry
     hartree contribution      =     591.81441072 Ry
     xc contribution           =    -321.91430939 Ry
     ewald contribution        =    -401.02027016 Ry
     Dispersion Correction     =      -0.51734932 Ry

     convergence has been achieved in  12 iterations

     Forces acting on atoms (cartesian axes, Ry/au):

     atom    1 type  3   force =     0.01718512    0.03040215    0.01139787
     atom    2 type  1   force =     0.00059881    0.00239296    0.00190485
     atom    3 type  3   force =     0.00458461   -0.03342541   -0.11090591
     atom    4 type  1   force =     0.01133813    0.02478686   -0.00452320
     atom    5 type  1   force =     0.00710129    0.01145953   -0.00726067
     atom    6 type  1   force =     0.07678899    0.25853767    0.17195283
     atom    7 type  1   force =     0.00213881    0.00367449   -0.01561307
     atom    8 type  3   force =    -0.01839964   -0.03579197    0.01302866
     atom    9 type  4   force =    -0.00269648    0.01105989   -0.01025137
     atom   10 type  1   force =     0.09464462    0.24107214   -0.09580924
     atom   11 type  1   force =    -0.03977704   -0.12394109   -0.06228809
     atom   12 type  1   force =    -0.08443400   -0.19170505    0.07609152
     atom   13 type  1   force =    -0.07941741   -0.16577042    0.08008483
     atom   14 type  1   force =    -0.03582520   -0.24788709    0.00570311
     atom   15 type  1   force =     0.07350163   -0.05167911   -0.27657435
     atom   16 type  1   force =     0.03146429    0.15403207    0.13596682
     atom   17 type  2   force =     0.15811985   -0.19804145    0.06345976
     atom   18 type  2   force =     0.04239353    0.08118133   -0.23505373
     atom   19 type  2   force =    -0.24822818   -0.07404135    0.02635318
     atom   20 type  2   force =    -0.08564180   -0.28863934   -0.18995475
     atom   21 type  2   force =    -0.10774401   -0.27279321    0.11643486
     atom   22 type  2   force =     0.09522032    0.21532522   -0.10555678
     atom   23 type  2   force =     0.09174057    0.18602364   -0.10229329
     atom   24 type  2   force =     0.04239830    0.13371330    0.08942686
     atom   25 type  2   force =    -0.24701502    0.24811465    0.14648388
     atom   26 type  2   force =    -0.17576214    0.11463795   -0.16393840
     atom   27 type  2   force =     0.02617586    0.17399015    0.24970375
     atom   28 type  2   force =    -0.07352443   -0.22077734    0.03135595
     atom   29 type  2   force =     0.19645758   -0.02878950   -0.09445397
     atom   30 type  2   force =     0.24653447    0.02018686    0.11704871
     atom   31 type  2   force =    -0.01244752    0.00654248    0.13229488
     atom   32 type  3   force =    -0.01718512    0.03040215   -0.01139787
     atom   33 type  3   force =    -0.01718512   -0.03040215   -0.01139787
     atom   34 type  3   force =     0.01718512   -0.03040215    0.01139787
     atom   35 type  1   force =    -0.00059881    0.00239296   -0.00190485
     atom   36 type  1   force =    -0.00059881   -0.00239296   -0.00190485
     atom   37 type  1   force =     0.00059881   -0.00239296    0.00190485
     atom   38 type  3   force =    -0.00458461   -0.03342541    0.11090591
     atom   39 type  3   force =    -0.00458461    0.03342541    0.11090591
     atom   40 type  3   force =     0.00458461    0.03342541   -0.11090591
     atom   41 type  1   force =    -0.01133813    0.02478686    0.00452320
     atom   42 type  1   force =    -0.01133813   -0.02478686    0.00452320
     atom   43 type  1   force =     0.01133813   -0.02478686   -0.00452320
     atom   44 type  1   force =    -0.00710129    0.01145953    0.00726067
     atom   45 type  1   force =    -0.00710129   -0.01145953    0.00726067
     atom   46 type  1   force =     0.00710129   -0.01145953   -0.00726067
     atom   47 type  1   force =    -0.07678899    0.25853767   -0.17195283
     atom   48 type  1   force =    -0.07678899   -0.25853767   -0.17195283
     atom   49 type  1   force =     0.07678899   -0.25853767    0.17195283
     atom   50 type  1   force =    -0.00213881    0.00367449    0.01561307
     atom   51 type  1   force =    -0.00213881   -0.00367449    0.01561307
     atom   52 type  1   force =     0.00213881   -0.00367449   -0.01561307
     atom   53 type  3   force =     0.01839964   -0.03579197   -0.01302866
     atom   54 type  3   force =     0.01839964    0.03579197   -0.01302866
     atom   55 type  3   force =    -0.01839964    0.03579197    0.01302866
     atom   56 type  4   force =     0.00269648    0.01105989    0.01025137
     atom   57 type  4   force =     0.00269648   -0.01105989    0.01025137
     atom   58 type  4   force =    -0.00269648   -0.01105989   -0.01025137
     atom   59 type  1   force =    -0.09464462    0.24107214    0.09580924
     atom   60 type  1   force =    -0.09464462   -0.24107214    0.09580924
     atom   61 type  1   force =     0.09464462   -0.24107214   -0.09580924
     atom   62 type  1   force =     0.03977704   -0.12394109    0.06228809
     atom   63 type  1   force =     0.03977704    0.12394109    0.06228809
     atom   64 type  1   force =    -0.03977704    0.12394109   -0.06228809
     atom   65 type  1   force =     0.08443400   -0.19170505   -0.07609152
     atom   66 type  1   force =     0.08443400    0.19170505   -0.07609152
     atom   67 type  1   force =    -0.08443400    0.19170505    0.07609152
     atom   68 type  1   force =     0.07941741   -0.16577042   -0.08008483
     atom   69 type  1   force =     0.07941741    0.16577042   -0.08008483
     atom   70 type  1   force =    -0.07941741    0.16577042    0.08008483
     atom   71 type  1   force =     0.03582520   -0.24788709   -0.00570311
     atom   72 type  1   force =     0.03582520    0.24788709   -0.00570311
     atom   73 type  1   force =    -0.03582520    0.24788709    0.00570311
     atom   74 type  1   force =    -0.07350163   -0.05167911    0.27657435
     atom   75 type  1   force =    -0.07350163    0.05167911    0.27657435
     atom   76 type  1   force =     0.07350163    0.05167911   -0.27657435
     atom   77 type  1   force =    -0.03146429    0.15403207   -0.13596682
     atom   78 type  1   force =    -0.03146429   -0.15403207   -0.13596682
     atom   79 type  1   force =     0.03146429   -0.15403207    0.13596682
     atom   80 type  2   force =    -0.15811985   -0.19804145   -0.06345976
     atom   81 type  2   force =    -0.15811985    0.19804145   -0.06345976
     atom   82 type  2   force =     0.15811985    0.19804145    0.06345976
     atom   83 type  2   force =    -0.04239353    0.08118133    0.23505373
     atom   84 type  2   force =    -0.04239353   -0.08118133    0.23505373
     atom   85 type  2   force =     0.04239353   -0.08118133   -0.23505373
     atom   86 type  2   force =     0.24822818   -0.07404135   -0.02635318
     atom   87 type  2   force =     0.24822818    0.07404135   -0.02635318
     atom   88 type  2   force =    -0.24822818    0.07404135    0.02635318
     atom   89 type  2   force =     0.08564180   -0.28863934    0.18995475
     atom   90 type  2   force =     0.08564180    0.28863934    0.18995475
     atom   91 type  2   force =    -0.08564180    0.28863934   -0.18995475
     atom   92 type  2   force =     0.10774401   -0.27279321   -0.11643486
     atom   93 type  2   force =     0.10774401    0.27279321   -0.11643486
     atom   94 type  2   force =    -0.10774401    0.27279321    0.11643486
     atom   95 type  2   force =    -0.09522032    0.21532522    0.10555678
     atom   96 type  2   force =    -0.09522032   -0.21532522    0.10555678
     atom   97 type  2   force =     0.09522032   -0.21532522   -0.10555678
     atom   98 type  2   force =    -0.09174057    0.18602364    0.10229329
     atom   99 type  2   force =    -0.09174057   -0.18602364    0.10229329
     atom  100 type  2   force =     0.09174057   -0.18602364   -0.10229329
     atom  101 type  2   force =    -0.04239830    0.13371330   -0.08942686
     atom  102 type  2   force =    -0.04239830   -0.13371330   -0.08942686
     atom  103 type  2   force =     0.04239830   -0.13371330    0.08942686
     atom  104 type  2   force =     0.24701502    0.24811465   -0.14648388
     atom  105 type  2   force =     0.24701502   -0.24811465   -0.14648388
     atom  106 type  2   force =    -0.24701502   -0.24811465    0.14648388
     atom  107 type  2   force =     0.17576214    0.11463795    0.16393840
     atom  108 type  2   force =     0.17576214   -0.11463795    0.16393840
     atom  109 type  2   force =    -0.17576214   -0.11463795   -0.16393840
     atom  110 type  2   force =    -0.02617586    0.17399015   -0.24970375
     atom  111 type  2   force =    -0.02617586   -0.17399015   -0.24970375
     atom  112 type  2   force =     0.02617586   -0.17399015    0.24970375
     atom  113 type  2   force =     0.07352443   -0.22077734   -0.03135595
     atom  114 type  2   force =     0.07352443    0.22077734   -0.03135595
     atom  115 type  2   force =    -0.07352443    0.22077734    0.03135595
     atom  116 type  2   force =    -0.19645758   -0.02878950    0.09445397
     atom  117 type  2   force =    -0.19645758    0.02878950    0.09445397
     atom  118 type  2   force =     0.19645758    0.02878950   -0.09445397
     atom  119 type  2   force =    -0.24653447    0.02018686   -0.11704871
     atom  120 type  2   force =    -0.24653447   -0.02018686   -0.11704871
     atom  121 type  2   force =     0.24653447   -0.02018686    0.11704871
     atom  122 type  2   force =     0.01244752    0.00654248   -0.13229488
     atom  123 type  2   force =     0.01244752   -0.00654248   -0.13229488
     atom  124 type  2   force =    -0.01244752   -0.00654248    0.13229488

     Total force =     2.510707     Total SCF correction =     0.000439

     BFGS Geometry Optimization

     number of scf cycles    =   1
     number of bfgs steps    =   0

     energy   new            =   -1078.1249664189 Ry

     new trust radius        =       0.3795192005 bohr
     new conv_thr            =       0.0000001000 Ry


ATOMIC_POSITIONS (angstrom)
O        0.748123972  10.992488125   1.014821491
C        0.161766876  10.793386298   5.129068003
O       -0.702573928   8.551542032   4.802081117
C       -0.009400121  10.724506640   6.585926426
C        0.504807842  10.855254125   2.337527819
C        0.026034985   9.856422240   3.030133519
C       -0.189618192   9.691594456   4.312017920
O       -0.517226671   9.630049703   7.079564468
N        0.479593083   0.723952639   9.691065207
C        0.270953774  11.811009879   8.734489935
C        0.641510896  -0.030516800   4.431948562
C        0.325319453  11.690304054   7.472065898
C        0.788414117  -0.006521927   3.153759068
C        0.936522121   1.902673799   9.316617955
C        0.368085389   0.421702592  10.964793155
C        0.486330185   9.953540263   0.238800542
H        1.132833420   9.037840976   0.433041457
H       -2.133256311  10.165249309  11.972304923
H        6.850563303   9.562379004   0.291385503
H       -0.265689689   8.827018642   2.327040275
H       -0.152545676  10.728134053   9.193854675
H        0.775508421   0.817775197   6.998191756
H        1.270937019   0.937799472   2.604618721
H        0.923416213   0.904178033   5.051432658
H       -0.362074719   1.189416616  11.589795929
H        0.282760683   2.500283790   8.583097536
H        1.100211669   2.642261622  10.221277535
H       -0.032877450  11.320389663  11.255282854
H        1.928600874   1.941695253   8.822807111
H        1.293290422   0.600372424  11.617889507
H       -0.736386943   8.825102133   5.849907438
O        1.576666028   5.047988125   5.407298509
O        3.901456028   0.896511875  11.829408509
O        3.072913972   6.841011875   7.436931491
C        2.163023124   4.848886298   1.293051997
C        4.487813124   1.095613702   7.715161997
C        2.486556876   7.040113702  11.551178003
O        3.027363928   2.607042032   1.620028883
O        5.352153928   3.337457968   8.042138883
O        1.622216072   9.281957968  11.224191117
C       -0.442829879   4.780006640  12.680413574
C        4.658980121   1.164493360   6.258303574
C        5.092409879   7.108993360   0.163806426
C        1.819982158   4.910754125   4.084582181
C        4.144772158   1.033745875  10.506692181
C        2.829597842   6.978245875   8.759637819
C        2.298755015   3.911922240   3.391976481
C        4.623545015   2.032577760   9.814086481
C        2.350824985   7.977077760   9.452243519
C        2.514408192   3.747094456   2.110092080
C        4.839198192   2.197405544   8.532202080
C        2.135171808   8.141905544  10.734127920
O        0.064996671   3.685549703  12.186765532
O        5.166806671   2.258950297   5.764655532
O        4.584583329   8.203450297   0.657454468
N       -0.931823083   6.668452639   9.575264793
N        4.169986917  11.165047361   3.153154793
N        5.581403083   5.220547361   3.268955207
C       -0.723183774   5.866509879  10.531840065
C        4.378626226   0.077990121   4.109730065
C        5.372763774   6.022490121   2.312379935
C        1.683279104   5.913983200   1.990161438
C        4.008069104  11.919516800   8.412271438
C        2.966300896   5.975016800  10.854058562
C       -0.777549453   5.745804054  11.794274102
C        4.324260547   0.198695946   5.372164102
C        5.427129453   6.143195946   1.049945898
C        1.536375883   5.937978073   3.268350932
C        3.861165883  11.895521927   9.690460932
C        3.113204117   5.951021927   9.575879068
C       -1.388752121   7.847173799   9.949712045
C        3.713057879   9.986326201   3.527602045
C        6.038332121   4.041826201   2.894507955
C       -0.820315389   6.366202592   8.301536845
C        4.281494611  11.467297408   1.879426845
C        5.469895389   5.522797408   4.542683155
C        1.838459815   4.009040263   6.183309458
C        4.163249815   1.935459737  12.605429458
C        2.811120185   7.879959737   6.660910542
H        1.191956580   3.093340976   5.989078543
H        3.516746580   2.851159024  12.411188543
H        3.457623420   8.795659024   6.855151457
H        1.681026311   4.220749309   7.294025077
H        6.782836311   1.723750691   0.871915077
H        2.968553689   7.668250691   5.550194923
H        2.900826697   3.617879004   6.130734497
H       -2.200983303   2.326620996  12.552844497
H        1.748753303   8.271120996   6.713495503
H        2.590479689   2.882518642   4.095069725
H        4.915269689   3.061981358  10.517179725
H        2.059100311   9.006481358   8.749150275
H       -0.299684324   4.783634053  10.072475325
H        4.802125676   1.160865947   3.650365325
H        4.949264324   7.105365947   2.771744675
H       -1.227738421   6.762275197  12.268148244
H        3.874071579  11.071224803   5.846038244
H        5.877318421   5.126724803   0.576081756
H        1.053852981   6.882299472   3.817491279
H        3.378642981  10.951200528  10.239601279
H        3.595727019   5.006700528   9.026738721
H        1.401373787   6.848678033   1.370677342
H        3.726173787  10.984821967   7.792787342
H        3.248206213   5.040321967  11.473542658
H       -0.090155281   7.133916616   7.676544071
H        5.011654719  10.699583384   1.254434071
H        4.739735281   4.755083384   5.167685929
H       -0.734990683   8.444783790  10.683232464
H        4.366819317   9.388716210   4.261122464
H        5.384570683   3.444216210   2.160987536
H       -1.552431669   8.586761622   9.045062465
H        3.549378331   9.246738378   2.622952465
H        6.202021669   3.302238378   3.799167535
H       -0.419352550   5.375889663   8.011047146
H        4.682457450   0.568610337   1.588937146
H        5.068932550   6.513110337   4.833172854
H        5.045769126   7.886195253  10.443522889
H        2.720979126   9.947304747   4.021412889
H       -0.396189126   4.002804747   2.400697111
H       -1.745520422   6.544872424   7.648450493
H        3.356289578  11.288627576   1.226340493
H        6.395100422   5.344127576   5.195779507
H        3.061176943   2.880602133   0.572202562
H        5.385966943   3.063897867   6.994312562
H        1.588403057   9.008397867  12.272017438



     Writing output data file 2hp_3.save
     charge density from previous step

     total cpu time spent up to now is      353.3 secs

     per-process dynamical memory:   549.8 Mb

     Self-consistent Calculation

     iteration #  1     ecut=    30.00 Ry     beta=0.70
     Davidson diagonalization with overlap
     ethr =  1.00E-06,  avg # of iterations = 14.0

     total cpu time spent up to now is      437.2 secs

     total energy              =   -1069.49045258 Ry
     Harris-Foulkes estimate   =   -1088.35767485 Ry
     estimated scf accuracy    <      25.87300887 Ry

     iteration #  2     ecut=    30.00 Ry     beta=0.70
     Davidson diagonalization with overlap
     ethr =  7.52E-03,  avg # of iterations =  3.0

     total cpu time spent up to now is      464.4 secs

     total energy              =   -1074.35077598 Ry
     Harris-Foulkes estimate   =   -1082.78391266 Ry
     estimated scf accuracy    <      14.73093654 Ry

     iteration #  3     ecut=    30.00 Ry     beta=0.70
     Davidson diagonalization with overlap
     ethr =  4.28E-03,  avg # of iterations =  4.0

     total cpu time spent up to now is      491.4 secs

     total energy              =   -1077.88100141 Ry
     Harris-Foulkes estimate   =   -1079.03962734 Ry
     estimated scf accuracy    <       2.32756427 Ry

     iteration #  4     ecut=    30.00 Ry     beta=0.70
     Davidson diagonalization with overlap
     ethr =  6.77E-04,  avg # of iterations =  4.0

     total cpu time spent up to now is      517.1 secs

     total energy              =   -1078.43371215 Ry
     Harris-Foulkes estimate   =   -1078.67603095 Ry
     estimated scf accuracy    <       0.58855787 Ry

     iteration #  5     ecut=    30.00 Ry     beta=0.70
     Davidson diagonalization with overlap
     ethr =  1.71E-04,  avg # of iterations =  4.0

     total cpu time spent up to now is      540.5 secs

     total energy              =   -1078.53470303 Ry
     Harris-Foulkes estimate   =   -1078.54842313 Ry
     estimated scf accuracy    <       0.02789045 Ry

     iteration #  6     ecut=    30.00 Ry     beta=0.70
     Davidson diagonalization with overlap
     ethr =  8.11E-06,  avg # of iterations =  4.0

     total cpu time spent up to now is      568.5 secs

     total energy              =   -1078.54257656 Ry
     Harris-Foulkes estimate   =   -1078.54514177 Ry
     estimated scf accuracy    <       0.00625972 Ry

     iteration #  7     ecut=    30.00 Ry     beta=0.70
     Davidson diagonalization with overlap
     ethr =  1.82E-06,  avg # of iterations =  4.0

     total cpu time spent up to now is      593.7 secs

     total energy              =   -1078.54375755 Ry
     Harris-Foulkes estimate   =   -1078.54418894 Ry
     estimated scf accuracy    <       0.00086937 Ry

     iteration #  8     ecut=    30.00 Ry     beta=0.70
     Davidson diagonalization with overlap
     ethr =  2.53E-07,  avg # of iterations =  4.0

     total cpu time spent up to now is      620.6 secs

     total energy              =   -1078.54396764 Ry
     Harris-Foulkes estimate   =   -1078.54408036 Ry
     estimated scf accuracy    <       0.00025882 Ry

     iteration #  9     ecut=    30.00 Ry     beta=0.70
     Davidson diagonalization with overlap
     ethr =  7.52E-08,  avg # of iterations =  3.0

     total cpu time spent up to now is      644.8 secs

     total energy              =   -1078.54401977 Ry
     Harris-Foulkes estimate   =   -1078.54403502 Ry
     estimated scf accuracy    <       0.00003382 Ry

     iteration # 10     ecut=    30.00 Ry     beta=0.70
     Davidson diagonalization with overlap
     ethr =  9.83E-09,  avg # of iterations =  4.0

     total cpu time spent up to now is      670.4 secs

     total energy              =   -1078.54402681 Ry
     Harris-Foulkes estimate   =   -1078.54402764 Ry
     estimated scf accuracy    <       0.00000173 Ry

     iteration # 11     ecut=    30.00 Ry     beta=0.70
     Davidson diagonalization with overlap
     ethr =  5.02E-10,  avg # of iterations =  4.0

     total cpu time spent up to now is      698.0 secs

     total energy              =   -1078.54402729 Ry
     Harris-Foulkes estimate   =   -1078.54402745 Ry
     estimated scf accuracy    <       0.00000039 Ry

     iteration # 12     ecut=    30.00 Ry     beta=0.70
     Davidson diagonalization with overlap
     ethr =  1.12E-10,  avg # of iterations =  3.5

     total cpu time spent up to now is      723.7 secs

     End of self-consistent calculation

          k = 0.0000 0.0000 0.0000 ( 21265 PWs)   bands (ev):

   -21.7485 -21.7483 -21.7064 -21.7063 -20.0553 -20.0405 -20.0327 -20.0311
   -19.9609 -19.9572 -19.9515 -19.9387 -18.8816 -18.8781 -18.8708 -18.8696
   -16.0146 -16.0133 -16.0115 -16.0107 -13.9428 -13.9235 -13.8886 -13.8686
   -13.2905 -13.2857 -13.2390 -13.2328 -12.5343 -12.5312 -12.5221 -12.5005
   -12.4821 -12.4671 -12.4542 -12.4259 -11.8084 -11.7807 -11.7418 -11.7192
   -11.2135 -11.2119 -11.1730 -11.1709  -9.6720  -9.6640  -9.6595  -9.6528
    -8.7923  -8.7645  -8.7099  -8.6677  -8.6080  -8.5948  -8.5708  -8.5417
    -7.8089  -7.7886  -7.7109  -7.6072  -7.5999  -7.5673  -7.5393  -7.4844
    -7.0037  -6.9423  -6.9365  -6.8239  -6.5361  -6.5228  -6.5168  -6.5020
    -6.3716  -6.3338  -6.3196  -6.3005  -6.0548  -5.9737  -5.9633  -5.9528
    -5.7500  -5.7465  -5.7245  -5.6877  -5.6661  -5.6390  -5.5423  -5.5368
    -5.3049  -5.2665  -5.2601  -5.2062  -4.6282  -4.5776  -4.5246  -4.5069
    -4.4946  -4.4497  -4.4236  -4.4197  -4.4161  -4.2966  -4.2896  -4.2420
    -3.7988  -3.7602  -3.7235  -3.6708  -3.5100  -3.4918  -3.4789  -3.4141
    -3.3406  -3.3371  -3.2833  -3.2623  -3.2427  -3.2174  -3.1811  -3.0764
    -2.9772  -2.9081  -2.9058  -2.8609  -2.7850  -2.7642  -2.6820  -2.6250
    -2.5885  -2.5581  -2.5419  -2.4445  -2.4334  -2.4269  -2.4133  -2.3440
    -2.0372  -2.0164  -1.9590  -1.8883  -1.7484  -1.7205  -1.5967  -1.5136
    -1.4626  -1.4049  -1.3330  -1.2526  -1.2276  -1.2142  -1.1814  -1.1428
    -1.0742  -1.0220  -1.0106  -0.9461   0.0291   0.0359   0.0425   0.0655
     0.1615   0.2066   0.2509   0.2663   0.4516   0.4945   0.5302   0.6938
     0.9340   0.9475   1.0256   1.1061

          k = 0.0000 0.0000-0.2891 ( 21228 PWs)   bands (ev):

   -21.7485 -21.7483 -21.7064 -21.7063 -20.0485 -20.0484 -20.0319 -20.0319
   -19.9588 -19.9587 -19.9448 -19.9448 -18.8800 -18.8799 -18.8701 -18.8700
   -16.0133 -16.0133 -16.0116 -16.0116 -13.9341 -13.9340 -13.8815 -13.8814
   -13.2797 -13.2797 -13.2345 -13.2344 -12.5389 -12.5389 -12.5180 -12.5180
   -12.4715 -12.4714 -12.4379 -12.4378 -11.7868 -11.7868 -11.7486 -11.7486
   -11.2010 -11.2010 -11.1674 -11.1674  -9.6872  -9.6871  -9.6428  -9.6427
    -8.7389  -8.7389  -8.7101  -8.7101  -8.6356  -8.6356  -8.5518  -8.5518
    -7.8002  -7.8001  -7.6469  -7.6469  -7.5989  -7.5988  -7.4906  -7.4905
    -6.9717  -6.9717  -6.8810  -6.8810  -6.5104  -6.5103  -6.4761  -6.4761
    -6.3707  -6.3707  -6.3300  -6.3300  -6.0548  -6.0547  -5.9601  -5.9601
    -5.7430  -5.7429  -5.7170  -5.7169  -5.6630  -5.6629  -5.5307  -5.5306
    -5.2684  -5.2684  -5.2317  -5.2317  -4.5702  -4.5702  -4.5025  -4.5025
    -4.4508  -4.4507  -4.4054  -4.4053  -4.3922  -4.3922  -4.2931  -4.2930
    -3.8209  -3.8209  -3.6307  -3.6306  -3.4857  -3.4857  -3.4431  -3.4431
    -3.3721  -3.3721  -3.3665  -3.3664  -3.1755  -3.1754  -3.1344  -3.1343
    -2.9101  -2.9101  -2.8855  -2.8855  -2.7877  -2.7877  -2.6686  -2.6686
    -2.5773  -2.5773  -2.4972  -2.4972  -2.4328  -2.4328  -2.3126  -2.3126
    -2.0717  -2.0716  -1.9376  -1.9376  -1.7431  -1.7431  -1.4991  -1.4990
    -1.4589  -1.4589  -1.2875  -1.2875  -1.2306  -1.2306  -1.1446  -1.1446
    -1.0446  -1.0446  -0.9866  -0.9866   0.0115   0.0115   0.0685   0.0685
     0.2040   0.2040   0.2357   0.2357   0.4934   0.4934   0.5877   0.5878
     0.9268   0.9269   1.0937   1.0937

     highest occupied level (ev):     1.1061

!    total energy              =   -1078.54402737 Ry
     Harris-Foulkes estimate   =   -1078.54402739 Ry
     estimated scf accuracy    <       0.00000003 Ry

     The total energy is the sum of the following terms:

     one-electron contribution =    -945.90938373 Ry
     hartree contribution      =     590.71426642 Ry
     xc contribution           =    -316.75290207 Ry
     ewald contribution        =    -406.06064399 Ry
     Dispersion Correction     =      -0.53536400 Ry

     convergence has been achieved in  12 iterations

     Forces acting on atoms (cartesian axes, Ry/au):

     atom    1 type  3   force =     0.02314448    0.08271015    0.06430083
     atom    2 type  1   force =    -0.02517904   -0.04912878    0.05939943
     atom    3 type  3   force =     0.00089977    0.01253454    0.04031410
     atom    4 type  1   force =    -0.04423578   -0.11261876   -0.02270753
     atom    5 type  1   force =     0.03023072    0.06344009   -0.04288469
     atom    6 type  1   force =    -0.08841197   -0.31701678   -0.24435938
     atom    7 type  1   force =    -0.01668454    0.00268741    0.14173346
     atom    8 type  3   force =    -0.00646382   -0.01645996   -0.03979129
     atom    9 type  4   force =     0.00083159   -0.01241137   -0.08213156
     atom   10 type  1   force =    -0.14298635   -0.34719924    0.18236189
     atom   11 type  1   force =     0.02589015    0.13092146    0.21430399
     atom   12 type  1   force =     0.12337729    0.26645273   -0.21978624
     atom   13 type  1   force =     0.12121556    0.22626545   -0.21001192
     atom   14 type  1   force =     0.09611214    0.33932358   -0.01700316
     atom   15 type  1   force =    -0.06151154    0.02514424    0.34155674
     atom   16 type  1   force =    -0.03738569   -0.16585200   -0.14045730
     atom   17 type  2   force =    -0.01066962    0.02683967    0.00466243
     atom   18 type  2   force =    -0.00103139    0.01325820    0.04875707
     atom   19 type  2   force =     0.02214731    0.01802812    0.00648252
     atom   20 type  2   force =     0.02399273    0.09914060    0.07763280
     atom   21 type  2   force =     0.03500482    0.09123846   -0.03358756
     atom   22 type  2   force =    -0.03344733   -0.07836997    0.01630115
     atom   23 type  2   force =    -0.03705001   -0.06470718    0.04921840
     atom   24 type  2   force =    -0.01358434   -0.05238983   -0.04063625
     atom   25 type  2   force =     0.04421903   -0.05148946   -0.06387443
     atom   26 type  2   force =     0.01088526   -0.03409089    0.03406380
     atom   27 type  2   force =    -0.02182445   -0.05107458   -0.05402463
     atom   28 type  2   force =     0.01245063    0.00696918   -0.03056202
     atom   29 type  2   force =    -0.00018422   -0.02598697    0.00237977
     atom   30 type  2   force =    -0.01824916   -0.01686299   -0.04443421
     atom   31 type  2   force =    -0.00118736   -0.01726686   -0.01084452
     atom   32 type  3   force =    -0.02314448    0.08271015   -0.06430083
     atom   33 type  3   force =    -0.02314448   -0.08271015   -0.06430083
     atom   34 type  3   force =     0.02314448   -0.08271015    0.06430083
     atom   35 type  1   force =     0.02517904   -0.04912878   -0.05939943
     atom   36 type  1   force =     0.02517904    0.04912878   -0.05939943
     atom   37 type  1   force =    -0.02517904    0.04912878    0.05939943
     atom   38 type  3   force =    -0.00089977    0.01253454   -0.04031410
     atom   39 type  3   force =    -0.00089977   -0.01253454   -0.04031410
     atom   40 type  3   force =     0.00089977   -0.01253454    0.04031410
     atom   41 type  1   force =     0.04423578   -0.11261876    0.02270753
     atom   42 type  1   force =     0.04423578    0.11261876    0.02270753
     atom   43 type  1   force =    -0.04423578    0.11261876   -0.02270753
     atom   44 type  1   force =    -0.03023072    0.06344009    0.04288469
     atom   45 type  1   force =    -0.03023072   -0.06344009    0.04288469
     atom   46 type  1   force =     0.03023072   -0.06344009   -0.04288469
     atom   47 type  1   force =     0.08841197   -0.31701678    0.24435938
     atom   48 type  1   force =     0.08841197    0.31701678    0.24435938
     atom   49 type  1   force =    -0.08841197    0.31701678   -0.24435938
     atom   50 type  1   force =     0.01668454    0.00268741   -0.14173346
     atom   51 type  1   force =     0.01668454   -0.00268741   -0.14173346
     atom   52 type  1   force =    -0.01668454   -0.00268741    0.14173346
     atom   53 type  3   force =     0.00646382   -0.01645996    0.03979129
     atom   54 type  3   force =     0.00646382    0.01645996    0.03979129
     atom   55 type  3   force =    -0.00646382    0.01645996   -0.03979129
     atom   56 type  4   force =    -0.00083159   -0.01241137    0.08213156
     atom   57 type  4   force =    -0.00083159    0.01241137    0.08213156
     atom   58 type  4   force =     0.00083159    0.01241137   -0.08213156
     atom   59 type  1   force =     0.14298635   -0.34719924   -0.18236189
     atom   60 type  1   force =     0.14298635    0.34719924   -0.18236189
     atom   61 type  1   force =    -0.14298635    0.34719924    0.18236189
     atom   62 type  1   force =    -0.02589015    0.13092146   -0.21430399
     atom   63 type  1   force =    -0.02589015   -0.13092146   -0.21430399
     atom   64 type  1   force =     0.02589015   -0.13092146    0.21430399
     atom   65 type  1   force =    -0.12337729    0.26645273    0.21978624
     atom   66 type  1   force =    -0.12337729   -0.26645273    0.21978624
     atom   67 type  1   force =     0.12337729   -0.26645273   -0.21978624
     atom   68 type  1   force =    -0.12121556    0.22626545    0.21001192
     atom   69 type  1   force =    -0.12121556   -0.22626545    0.21001192
     atom   70 type  1   force =     0.12121556   -0.22626545   -0.21001192
     atom   71 type  1   force =    -0.09611214    0.33932358    0.01700316
     atom   72 type  1   force =    -0.09611214   -0.33932358    0.01700316
     atom   73 type  1   force =     0.09611214   -0.33932358   -0.01700316
     atom   74 type  1   force =     0.06151154    0.02514424   -0.34155674
     atom   75 type  1   force =     0.06151154   -0.02514424   -0.34155674
     atom   76 type  1   force =    -0.06151154   -0.02514424    0.34155674
     atom   77 type  1   force =     0.03738569   -0.16585200    0.14045730
     atom   78 type  1   force =     0.03738569    0.16585200    0.14045730
     atom   79 type  1   force =    -0.03738569    0.16585200   -0.14045730
     atom   80 type  2   force =     0.01066962    0.02683967   -0.00466243
     atom   81 type  2   force =     0.01066962   -0.02683967   -0.00466243
     atom   82 type  2   force =    -0.01066962   -0.02683967    0.00466243
     atom   83 type  2   force =     0.00103139    0.01325820   -0.04875707
     atom   84 type  2   force =     0.00103139   -0.01325820   -0.04875707
     atom   85 type  2   force =    -0.00103139   -0.01325820    0.04875707
     atom   86 type  2   force =    -0.02214731    0.01802812   -0.00648252
     atom   87 type  2   force =    -0.02214731   -0.01802812   -0.00648252
     atom   88 type  2   force =     0.02214731   -0.01802812    0.00648252
     atom   89 type  2   force =    -0.02399273    0.09914060   -0.07763280
     atom   90 type  2   force =    -0.02399273   -0.09914060   -0.07763280
     atom   91 type  2   force =     0.02399273   -0.09914060    0.07763280
     atom   92 type  2   force =    -0.03500482    0.09123846    0.03358756
     atom   93 type  2   force =    -0.03500482   -0.09123846    0.03358756
     atom   94 type  2   force =     0.03500482   -0.09123846   -0.03358756
     atom   95 type  2   force =     0.03344733   -0.07836997   -0.01630115
     atom   96 type  2   force =     0.03344733    0.07836997   -0.01630115
     atom   97 type  2   force =    -0.03344733    0.07836997    0.01630115
     atom   98 type  2   force =     0.03705001   -0.06470718   -0.04921840
     atom   99 type  2   force =     0.03705001    0.06470718   -0.04921840
     atom  100 type  2   force =    -0.03705001    0.06470718    0.04921840
     atom  101 type  2   force =     0.01358434   -0.05238983    0.04063625
     atom  102 type  2   force =     0.01358434    0.05238983    0.04063625
     atom  103 type  2   force =    -0.01358434    0.05238983   -0.04063625
     atom  104 type  2   force =    -0.04421903   -0.05148946    0.06387443
     atom  105 type  2   force =    -0.04421903    0.05148946    0.06387443
     atom  106 type  2   force =     0.04421903    0.05148946   -0.06387443
     atom  107 type  2   force =    -0.01088526   -0.03409089   -0.03406380
     atom  108 type  2   force =    -0.01088526    0.03409089   -0.03406380
     atom  109 type  2   force =     0.01088526    0.03409089    0.03406380
     atom  110 type  2   force =     0.02182445   -0.05107458    0.05402463
     atom  111 type  2   force =     0.02182445    0.05107458    0.05402463
     atom  112 type  2   force =    -0.02182445    0.05107458   -0.05402463
     atom  113 type  2   force =    -0.01245063    0.00696918    0.03056202
     atom  114 type  2   force =    -0.01245063   -0.00696918    0.03056202
     atom  115 type  2   force =     0.01245063   -0.00696918   -0.03056202
     atom  116 type  2   force =     0.00018422   -0.02598697   -0.00237977
     atom  117 type  2   force =     0.00018422    0.02598697   -0.00237977
     atom  118 type  2   force =    -0.00018422    0.02598697    0.00237977
     atom  119 type  2   force =     0.01824916   -0.01686299    0.04443421
     atom  120 type  2   force =     0.01824916    0.01686299    0.04443421
     atom  121 type  2   force =    -0.01824916    0.01686299   -0.04443421
     atom  122 type  2   force =     0.00118736   -0.01726686    0.01084452
     atom  123 type  2   force =     0.00118736    0.01726686    0.01084452
     atom  124 type  2   force =    -0.00118736    0.01726686   -0.01084452

     Total force =     2.087398     Total SCF correction =     0.000347

     number of scf cycles    =   2
     number of bfgs steps    =   1

     energy   old            =   -1078.1249664189 Ry
     energy   new            =   -1078.5440273703 Ry

     CASE: energy  _new < energy  _old

     new trust radius        =       0.2250508091 bohr
     new conv_thr            =       0.0000001000 Ry


ATOMIC_POSITIONS (angstrom)
O        0.757307998  11.022838749   1.037442161
C        0.153312180  10.776987217   5.149277536
O       -0.701904966   8.553112577   4.806861445
C       -0.023434535  10.688451953   6.577898375
C        0.515581626  10.877589056   2.322468385
C        0.002295953   9.769963519   2.961313707
C       -0.195081839   9.692794577   4.358634597
O       -0.520874747   9.621640991   7.067165494
N        0.479659137   0.720642440   9.662514816
C        0.230208292  11.712968235   8.788438881
C        0.647085464   0.003821400   4.499353332
C        0.360256602  11.765011170   7.403909240
C        0.823020836   0.056680365   3.089221009
C        0.966123781   1.997513254   9.311330586
C        0.353168203   0.426077373  11.058101974
C        0.476211787   9.909803341   0.202200066
H        1.141823591   9.031131608   0.439669945
H       -2.130228261  10.176191783  11.970048808
H        6.838272436   9.562569850   0.295673336
H       -0.264408618   8.837508201   2.338126626
H       -0.149306348  10.737217263   9.191786087
H        0.771797604   0.808460488   6.995289478
H        1.265732525   0.930764722   2.613091757
H        0.922205798   0.897136448   5.044832904
H       -0.366815853   1.191790271  11.579893337
H        0.272438256   2.497902127   8.581543642
H        1.094926764   2.638871913  10.222921681
H       -0.034528826  11.305159742  11.247460024
H        1.944185033   1.930627181   8.816088158
H        1.306762714   0.596285911  11.612207142
H       -0.737779239   8.819792569   5.856781783
O        1.567482002   5.078338749   5.384677839
O        3.892272002   0.866161251  11.806787839
O        3.082097998   6.810661251   7.459552161
C        2.171477820   4.832487217   1.272842464
C        4.496267820   1.112012783   7.694952464
C        2.478102180   7.056512783  11.571387536
O        3.026694966   2.608612577   1.615248555
O        5.351484966   3.335887423   8.037358555
O        1.622885034   9.280387423  11.228971445
C       -0.428795465   4.743951953  12.688441625
C        4.673014535   1.200548047   6.266331625
C        5.078375465   7.145048047   0.155778375
C        1.809208374   4.933089056   4.099641615
C        4.133998374   1.011410944  10.521751615
C        2.840371626   6.955910944   8.744578385
C        2.322494047   3.825463519   3.460796293
C        4.647284047   2.119036481   9.882906293
C        2.327085953   8.063536481   9.383423707
C        2.519871839   3.748294577   2.063475403
C        4.844661839   2.196205423   8.485585403
C        2.129708161   8.140705423  10.780744597
O        0.068644747   3.677140991  12.199164506
O        5.170454747   2.267359009   5.777054506
O        4.580935253   8.211859009   0.645055494
N       -0.931889137   6.665142440   9.603815184
N        4.169920863  11.168357560   3.181705184
N        5.581469137   5.223857560   3.240404816
C       -0.682438292   5.768468235  10.477891119
C        4.419371708   0.176031765   4.055781119
C        5.332018292   6.120531765   2.366328881
C        1.677704536   5.948321400   1.922756668
C        4.002494536  11.885178600   8.344866668
C        2.971875464   5.940678600  10.921463332
C       -0.812486602   5.820511170  11.862430760
C        4.289323398   0.123988830   5.440320760
C        5.462066602   6.068488830   0.981789240
C        1.501769164   6.001180365   3.332888991
C        3.826559164  11.832319635   9.754998991
C        3.147810836   5.887819635   9.511341009
C       -1.418353781   7.942013254   9.954999414
C        3.683456219   9.891486746   3.532889414
C        6.067933781   3.946986746   2.889220586
C       -0.805398203   6.370577373   8.208228026
C        4.296411797  11.462922627   1.786118026
C        5.454978203   5.518422627   4.635991974
C        1.848578213   3.965303341   6.219909934
C        4.173368213   1.979196659  12.642029934
C        2.801001787   7.923696659   6.624310066
H        1.182966409   3.086631608   5.982450055
H        3.507756409   2.857868392  12.404560055
H        3.466613591   8.802368392   6.861779945
H        1.677998261   4.231691783   7.296281192
H        6.779808261   1.712808217   0.874171192
H        2.971581739   7.657308217   5.547938808
H        2.913117564   3.618069850   6.126446664
H       -2.188692436   2.326430150  12.548556664
H        1.736462436   8.270930150   6.717783336
H        2.589198618   2.893008201   4.083983374
H        4.913988618   3.051491799  10.506093374
H        2.060381382   8.995991799   8.760236626
H       -0.302923652   4.792717263  10.074543913
H        4.798886348   1.151782737   3.652433913
H        4.952503652   7.096282737   2.769676087
H       -1.224027604   6.752960488  12.271050522
H        3.877782396  11.080539512   5.848940522
H        5.873607604   5.136039512   0.573179478
H        1.059057475   6.875264722   3.809018243
H        3.383847475  10.958235278  10.231128243
H        3.590522525   5.013735278   9.035211757
H        1.402584202   6.841636448   1.377277096
H        3.727384202  10.991863552   7.799387096
H        3.246995798   5.047363552  11.466942904
H       -0.085414147   7.136290271   7.686446663
H        5.016395853  10.697209729   1.264336663
H        4.734994147   4.752709729   5.157783337
H       -0.724668256   8.442402127  10.684786358
H        4.377141744   9.391097873   4.262676358
H        5.374248256   3.446597873   2.159433642
H       -1.547146764   8.583371913   9.043418319
H        3.554663236   9.250128087   2.621308319
H        6.196736764   3.305628087   3.800811681
H       -0.417701174   5.360659742   8.018869976
H        4.684108826   0.583840258   1.596759976
H        5.067281174   6.528340258   4.825350024
H        5.030184967   7.875127181  10.450241842
H        2.705394967   9.958372819   4.028131842
H       -0.380604967   4.013872819   2.393978158
H       -1.758992714   6.540785911   7.654132858
H        3.342817286  11.292714089   1.232022858
H        6.408572714   5.348214089   5.190097142
H        3.062569239   2.875292569   0.565328217
H        5.387359239   3.069207431   6.987438217
H        1.587010761   9.013707431  12.278891783



     Writing output data file 2hp_3.save
     charge density from previous step

     total cpu time spent up to now is      740.5 secs

     per-process dynamical memory:   564.2 Mb

     Self-consistent Calculation

     iteration #  1     ecut=    30.00 Ry     beta=0.70
     Davidson diagonalization with overlap
     ethr =  1.00E-06,  avg # of iterations = 13.0

     total cpu time spent up to now is      816.8 secs

     total energy              =   -1072.76556575 Ry
     Harris-Foulkes estimate   =   -1085.24264746 Ry
     estimated scf accuracy    <      15.95790783 Ry

     iteration #  2     ecut=    30.00 Ry     beta=0.70
     Davidson diagonalization with overlap
     ethr =  4.64E-03,  avg # of iterations =  4.0

     total cpu time spent up to now is      846.6 secs

     total energy              =   -1074.55641418 Ry
     Harris-Foulkes estimate   =   -1084.99774046 Ry
     estimated scf accuracy    <      21.50988527 Ry

     iteration #  3     ecut=    30.00 Ry     beta=0.70
     Davidson diagonalization with overlap
     ethr =  4.64E-03,  avg # of iterations =  4.0

     total cpu time spent up to now is      873.6 secs

     total energy              =   -1079.37339442 Ry
     Harris-Foulkes estimate   =   -1080.29353144 Ry
     estimated scf accuracy    <       2.00281425 Ry

     iteration #  4     ecut=    30.00 Ry     beta=0.70
     Davidson diagonalization with overlap
     ethr =  5.82E-04,  avg # of iterations =  4.0

     total cpu time spent up to now is      897.8 secs

     total energy              =   -1079.72266363 Ry
     Harris-Foulkes estimate   =   -1079.77995881 Ry
     estimated scf accuracy    <       0.10656509 Ry

     iteration #  5     ecut=    30.00 Ry     beta=0.70
     Davidson diagonalization with overlap
     ethr =  3.10E-05,  avg # of iterations =  4.0

     total cpu time spent up to now is      925.0 secs

     total energy              =   -1079.74665706 Ry
     Harris-Foulkes estimate   =   -1079.77188541 Ry
     estimated scf accuracy    <       0.06011770 Ry

     iteration #  6     ecut=    30.00 Ry     beta=0.70
     Davidson diagonalization with overlap
     ethr =  1.75E-05,  avg # of iterations =  3.0

     total cpu time spent up to now is      948.4 secs

     total energy              =   -1079.75845682 Ry
     Harris-Foulkes estimate   =   -1079.76034738 Ry
     estimated scf accuracy    <       0.00446654 Ry

     iteration #  7     ecut=    30.00 Ry     beta=0.70
     Davidson diagonalization with overlap
     ethr =  1.30E-06,  avg # of iterations =  4.0

     total cpu time spent up to now is      976.0 secs

     total energy              =   -1079.75934025 Ry
     Harris-Foulkes estimate   =   -1079.76007210 Ry
     estimated scf accuracy    <       0.00170480 Ry

     iteration #  8     ecut=    30.00 Ry     beta=0.70
     Davidson diagonalization with overlap
     ethr =  4.96E-07,  avg # of iterations =  3.0

     total cpu time spent up to now is      999.4 secs

     total energy              =   -1079.75967589 Ry
     Harris-Foulkes estimate   =   -1079.75971972 Ry
     estimated scf accuracy    <       0.00008830 Ry

     iteration #  9     ecut=    30.00 Ry     beta=0.70
     Davidson diagonalization with overlap
     ethr =  2.57E-08,  avg # of iterations =  4.0

     total cpu time spent up to now is     1026.1 secs

     total energy              =   -1079.75969830 Ry
     Harris-Foulkes estimate   =   -1079.75970296 Ry
     estimated scf accuracy    <       0.00000965 Ry

     iteration # 10     ecut=    30.00 Ry     beta=0.70
     Davidson diagonalization with overlap
     ethr =  2.80E-09,  avg # of iterations =  4.0

     total cpu time spent up to now is     1052.6 secs

     total energy              =   -1079.75970053 Ry
     Harris-Foulkes estimate   =   -1079.75970101 Ry
     estimated scf accuracy    <       0.00000107 Ry

     iteration # 11     ecut=    30.00 Ry     beta=0.70
     Davidson diagonalization with overlap
     ethr =  3.12E-10,  avg # of iterations =  4.0

     total cpu time spent up to now is     1080.7 secs

     total energy              =   -1079.75970080 Ry
     Harris-Foulkes estimate   =   -1079.75970092 Ry
     estimated scf accuracy    <       0.00000028 Ry

     iteration # 12     ecut=    30.00 Ry     beta=0.70
     Davidson diagonalization with overlap
     ethr =  8.27E-11,  avg # of iterations =  4.0

     total cpu time spent up to now is     1106.4 secs

     End of self-consistent calculation

          k = 0.0000 0.0000 0.0000 ( 21265 PWs)   bands (ev):

   -21.2656 -21.2652 -21.2243 -21.2242 -20.2780 -20.2762 -20.2743 -20.2733
   -19.1283 -19.1268 -19.1260 -19.1188 -18.7643 -18.7635 -18.7627 -18.7564
   -15.0621 -15.0602 -15.0551 -15.0533 -13.3503 -13.3280 -13.2659 -13.2427
   -12.8818 -12.8776 -12.8099 -12.8067 -12.1191 -12.0925 -12.0499 -12.0389
   -11.9940 -11.9895 -11.9764 -11.9747 -11.3901 -11.3575 -11.3431 -11.3349
   -10.9557 -10.9089 -10.8843 -10.8699  -9.1671  -9.1584  -9.1419  -9.1223
    -8.8709  -8.8249  -8.8098  -8.7986  -8.3387  -8.2856  -8.1789  -8.1611
    -7.4530  -7.4329  -7.2998  -7.2767  -7.1107  -7.1101  -7.0861  -7.0523
    -6.8127  -6.8064  -6.7819  -6.6734  -6.2861  -6.2567  -6.2514  -6.2458
    -5.9422  -5.9003  -5.8697  -5.8554  -5.8263  -5.7700  -5.7248  -5.6926
    -5.5028  -5.3915  -5.3686  -5.3336  -5.3060  -5.2913  -5.1877  -5.1438
    -5.0357  -4.9962  -4.9747  -4.9484  -4.5859  -4.5596  -4.5453  -4.4983
    -4.4653  -4.3265  -4.3178  -4.2440  -4.2432  -4.2280  -4.1814  -4.1064
    -3.8063  -3.7556  -3.7121  -3.6353  -3.5736  -3.5526  -3.5299  -3.5274
    -3.4569  -3.4521  -3.3841  -3.3746  -3.3559  -3.3429  -3.2729  -3.2352
    -3.1889  -3.1221  -3.0924  -3.0714  -3.0081  -2.9976  -2.9930  -2.9758
    -2.8957  -2.8902  -2.8756  -2.7898  -2.6253  -2.6136  -2.5767  -2.5526
    -2.5275  -2.4954  -2.4923  -2.4125  -2.1316  -2.1037  -2.0850  -2.0662
    -1.8242  -1.8075  -1.7874  -1.6837  -1.6695  -1.6062  -1.5243  -1.4530
    -1.2402  -1.2139  -1.0761  -1.0327   0.2360   0.2365   0.2577   0.3078
     0.3126   0.3242   0.3697   0.4446   0.7405   0.7737   0.8388   0.8965
     1.1829   1.2066   1.3095   1.3806

          k = 0.0000 0.0000-0.2891 ( 21228 PWs)   bands (ev):

   -21.2655 -21.2654 -21.2243 -21.2242 -20.2770 -20.2770 -20.2738 -20.2738
   -19.1274 -19.1273 -19.1226 -19.1225 -18.7641 -18.7641 -18.7594 -18.7593
   -15.0604 -15.0604 -15.0548 -15.0547 -13.3448 -13.3447 -13.2567 -13.2567
   -12.8734 -12.8733 -12.8032 -12.8031 -12.0781 -12.0781 -12.0506 -12.0506
   -12.0063 -12.0062 -11.9783 -11.9782 -11.3871 -11.3870 -11.3577 -11.3577
   -10.9186 -10.9186 -10.8661 -10.8661  -9.1873  -9.1872  -9.1141  -9.1141
    -8.8337  -8.8337  -8.7884  -8.7884  -8.3092  -8.3092  -8.2056  -8.2056
    -7.4208  -7.4207  -7.3384  -7.3383  -7.1096  -7.1096  -7.0552  -7.0551
    -6.8038  -6.8038  -6.7167  -6.7167  -6.2560  -6.2559  -6.2101  -6.2101
    -5.9666  -5.9666  -5.8782  -5.8782  -5.7902  -5.7901  -5.7251  -5.7250
    -5.4013  -5.4013  -5.3792  -5.3791  -5.2765  -5.2765  -5.1867  -5.1866
    -5.0265  -5.0265  -4.9861  -4.9861  -4.5586  -4.5586  -4.5045  -4.5045
    -4.3212  -4.3212  -4.2830  -4.2830  -4.2236  -4.2236  -4.2002  -4.2002
    -3.7654  -3.7654  -3.6555  -3.6555  -3.6186  -3.6186  -3.5755  -3.5755
    -3.4619  -3.4619  -3.3964  -3.3964  -3.3121  -3.3120  -3.2434  -3.2434
    -3.1814  -3.1814  -3.0927  -3.0926  -2.9894  -2.9894  -2.9121  -2.9120
    -2.8850  -2.8850  -2.8651  -2.8651  -2.6319  -2.6318  -2.5419  -2.5418
    -2.5288  -2.5288  -2.4386  -2.4386  -2.1111  -2.1111  -2.1048  -2.1048
    -1.8345  -1.8345  -1.7271  -1.7271  -1.6199  -1.6199  -1.4974  -1.4974
    -1.1512  -1.1512  -1.1143  -1.1142   0.2698   0.2699   0.2819   0.2820
     0.3249   0.3249   0.3563   0.3563   0.7987   0.7987   0.8245   0.8245
     1.1854   1.1855   1.3692   1.3692

     highest occupied level (ev):     1.3806

!    total energy              =   -1079.75970085 Ry
     Harris-Foulkes estimate   =   -1079.75970087 Ry
     estimated scf accuracy    <       0.00000003 Ry

     The total energy is the sum of the following terms:

     one-electron contribution =    -898.81462132 Ry
     hartree contribution      =     568.39129607 Ry
     xc contribution           =    -315.78939686 Ry
     ewald contribution        =    -433.00441171 Ry
     Dispersion Correction     =      -0.54256703 Ry

     convergence has been achieved in  12 iterations

     Forces acting on atoms (cartesian axes, Ry/au):

     atom    1 type  3   force =     0.00741881   -0.01073025   -0.08699924
     atom    2 type  1   force =     0.00211150    0.01066424    0.01566393
     atom    3 type  3   force =    -0.01019719   -0.00453304    0.06896799
     atom    4 type  1   force =     0.01107577    0.03678417    0.02217632
     atom    5 type  1   force =    -0.02148395   -0.04232292    0.04314309
     atom    6 type  1   force =    -0.02954889   -0.09904332   -0.04613444
     atom    7 type  1   force =     0.00757128   -0.01095158   -0.10948159
     atom    8 type  3   force =    -0.02240636   -0.04945519   -0.00107272
     atom    9 type  4   force =     0.01192142    0.02913591    0.07322865
     atom   10 type  1   force =    -0.04463395   -0.13760770   -0.08534192
     atom   11 type  1   force =     0.02268788    0.03531085   -0.08357005
     atom   12 type  1   force =     0.01323244    0.04356709    0.03297272
     atom   13 type  1   force =     0.02238124    0.08413589    0.11455077
     atom   14 type  1   force =     0.01534297    0.08133370   -0.01518917
     atom   15 type  1   force =    -0.03808325    0.05951021    0.09032421
     atom   16 type  1   force =    -0.00929734   -0.04397234   -0.03911658
     atom   17 type  2   force =    -0.01280489    0.02304019    0.00032013
     atom   18 type  2   force =    -0.00163702    0.00760142    0.03392798
     atom   19 type  2   force =     0.02163612    0.01238560    0.00176771
     atom   20 type  2   force =     0.01125909    0.05169583    0.04270048
     atom   21 type  2   force =     0.01117618    0.02992175   -0.00986126
     atom   22 type  2   force =    -0.00607261   -0.01649494   -0.00422832
     atom   23 type  2   force =     0.00000597    0.00550056    0.00490228
     atom   24 type  2   force =     0.00210027    0.00280601    0.00633257
     atom   25 type  2   force =     0.03392900   -0.04355044   -0.03931784
     atom   26 type  2   force =     0.01133275   -0.00827951    0.02215694
     atom   27 type  2   force =    -0.01173516   -0.01656882   -0.02527777
     atom   28 type  2   force =     0.00851976    0.00395170   -0.00802936
     atom   29 type  2   force =     0.00605771   -0.00666846   -0.00045721
     atom   30 type  2   force =    -0.00774608   -0.01474053   -0.01881135
     atom   31 type  2   force =    -0.00461334   -0.02311149   -0.00603983
     atom   32 type  3   force =    -0.00741881   -0.01073025    0.08699924
     atom   33 type  3   force =    -0.00741881    0.01073025    0.08699924
     atom   34 type  3   force =     0.00741881    0.01073025   -0.08699924
     atom   35 type  1   force =    -0.00211150    0.01066424   -0.01566393
     atom   36 type  1   force =    -0.00211150   -0.01066424   -0.01566393
     atom   37 type  1   force =     0.00211150   -0.01066424    0.01566393
     atom   38 type  3   force =     0.01019719   -0.00453304   -0.06896799
     atom   39 type  3   force =     0.01019719    0.00453304   -0.06896799
     atom   40 type  3   force =    -0.01019719    0.00453304    0.06896799
     atom   41 type  1   force =    -0.01107577    0.03678417   -0.02217632
     atom   42 type  1   force =    -0.01107577   -0.03678417   -0.02217632
     atom   43 type  1   force =     0.01107577   -0.03678417    0.02217632
     atom   44 type  1   force =     0.02148395   -0.04232292   -0.04314309
     atom   45 type  1   force =     0.02148395    0.04232292   -0.04314309
     atom   46 type  1   force =    -0.02148395    0.04232292    0.04314309
     atom   47 type  1   force =     0.02954889   -0.09904332    0.04613444
     atom   48 type  1   force =     0.02954889    0.09904332    0.04613444
     atom   49 type  1   force =    -0.02954889    0.09904332   -0.04613444
     atom   50 type  1   force =    -0.00757128   -0.01095158    0.10948159
     atom   51 type  1   force =    -0.00757128    0.01095158    0.10948159
     atom   52 type  1   force =     0.00757128    0.01095158   -0.10948159
     atom   53 type  3   force =     0.02240636   -0.04945519    0.00107272
     atom   54 type  3   force =     0.02240636    0.04945519    0.00107272
     atom   55 type  3   force =    -0.02240636    0.04945519   -0.00107272
     atom   56 type  4   force =    -0.01192142    0.02913591   -0.07322865
     atom   57 type  4   force =    -0.01192142   -0.02913591   -0.07322865
     atom   58 type  4   force =     0.01192142   -0.02913591    0.07322865
     atom   59 type  1   force =     0.04463395   -0.13760770    0.08534192
     atom   60 type  1   force =     0.04463395    0.13760770    0.08534192
     atom   61 type  1   force =    -0.04463395    0.13760770   -0.08534192
     atom   62 type  1   force =    -0.02268788    0.03531085    0.08357005
     atom   63 type  1   force =    -0.02268788   -0.03531085    0.08357005
     atom   64 type  1   force =     0.02268788   -0.03531085   -0.08357005
     atom   65 type  1   force =    -0.01323244    0.04356709   -0.03297272
     atom   66 type  1   force =    -0.01323244   -0.04356709   -0.03297272
     atom   67 type  1   force =     0.01323244   -0.04356709    0.03297272
     atom   68 type  1   force =    -0.02238124    0.08413589   -0.11455077
     atom   69 type  1   force =    -0.02238124   -0.08413589   -0.11455077
     atom   70 type  1   force =     0.02238124   -0.08413589    0.11455077
     atom   71 type  1   force =    -0.01534297    0.08133370    0.01518917
     atom   72 type  1   force =    -0.01534297   -0.08133370    0.01518917
     atom   73 type  1   force =     0.01534297   -0.08133370   -0.01518917
     atom   74 type  1   force =     0.03808325    0.05951021   -0.09032421
     atom   75 type  1   force =     0.03808325   -0.05951021   -0.09032421
     atom   76 type  1   force =    -0.03808325   -0.05951021    0.09032421
     atom   77 type  1   force =     0.00929734   -0.04397234    0.03911658
     atom   78 type  1   force =     0.00929734    0.04397234    0.03911658
     atom   79 type  1   force =    -0.00929734    0.04397234   -0.03911658
     atom   80 type  2   force =     0.01280489    0.02304019   -0.00032013
     atom   81 type  2   force =     0.01280489   -0.02304019   -0.00032013
     atom   82 type  2   force =    -0.01280489   -0.02304019    0.00032013
     atom   83 type  2   force =     0.00163702    0.00760142   -0.03392798
     atom   84 type  2   force =     0.00163702   -0.00760142   -0.03392798
     atom   85 type  2   force =    -0.00163702   -0.00760142    0.03392798
     atom   86 type  2   force =    -0.02163612    0.01238560   -0.00176771
     atom   87 type  2   force =    -0.02163612   -0.01238560   -0.00176771
     atom   88 type  2   force =     0.02163612   -0.01238560    0.00176771
     atom   89 type  2   force =    -0.01125909    0.05169583   -0.04270048
     atom   90 type  2   force =    -0.01125909   -0.05169583   -0.04270048
     atom   91 type  2   force =     0.01125909   -0.05169583    0.04270048
     atom   92 type  2   force =    -0.01117618    0.02992175    0.00986126
[...]
    -6.7088  -6.7088  -6.6165  -6.6165  -6.1782  -6.1782  -6.1131  -6.1131
    -5.9318  -5.9317  -5.7635  -5.7635  -5.7331  -5.7330  -5.6521  -5.6521
    -5.4256  -5.4256  -5.4029  -5.4029  -5.1615  -5.1614  -5.1049  -5.1049
    -4.9537  -4.9537  -4.8556  -4.8555  -4.6286  -4.6286  -4.5355  -4.5355
    -4.2451  -4.2451  -4.2105  -4.2104  -4.1695  -4.1695  -4.0763  -4.0763
    -3.9246  -3.9246  -3.8276  -3.8276  -3.6690  -3.6689  -3.6545  -3.6545
    -3.5092  -3.5092  -3.4792  -3.4792  -3.4557  -3.4557  -3.3731  -3.3731
    -3.1997  -3.1997  -3.1393  -3.1392  -3.0676  -3.0676  -2.9643  -2.9643
    -2.8844  -2.8844  -2.8272  -2.8272  -2.7552  -2.7552  -2.7094  -2.7094
    -2.4932  -2.4932  -2.4143  -2.4143  -2.0203  -2.0202  -2.0050  -2.0050
    -1.8604  -1.8604  -1.7428  -1.7428  -1.5947  -1.5947  -1.4549  -1.4548
    -1.1445  -1.1445  -1.0996  -1.0996   0.2775   0.2776   0.3120   0.3120
     0.3240   0.3240   0.3434   0.3434   0.6333   0.6334   0.7362   0.7363
     1.1588   1.1589   1.3948   1.3949

     highest occupied level (ev):     1.3996

!    total energy              =   -1080.00387739 Ry
     Harris-Foulkes estimate   =   -1080.00387739 Ry
     estimated scf accuracy    <          1.8E-10 Ry

     The total energy is the sum of the following terms:

     one-electron contribution =    -867.70416342 Ry
     hartree contribution      =     553.31396623 Ry
     xc contribution           =    -315.28374795 Ry
     ewald contribution        =    -449.78226367 Ry
     Dispersion Correction     =      -0.54766857 Ry

     convergence has been achieved in  10 iterations

     Forces acting on atoms (cartesian axes, Ry/au):

     atom    1 type  3   force =    -0.00015913   -0.00075673    0.00013272
     atom    2 type  1   force =     0.00060552    0.00028618   -0.00024129
     atom    3 type  3   force =     0.00012167    0.00089992   -0.00039314
     atom    4 type  1   force =     0.00063489   -0.00009830   -0.00024652
     atom    5 type  1   force =     0.00014680   -0.00070200    0.00009027
     atom    6 type  1   force =     0.00025159   -0.00005022   -0.00012491
     atom    7 type  1   force =     0.00035697    0.00082181   -0.00085892
     atom    8 type  3   force =     0.00038022   -0.00013922    0.00085189
     atom    9 type  4   force =     0.00011458   -0.00003396    0.00034057
     atom   10 type  1   force =    -0.00009120    0.00034037   -0.00034512
     atom   11 type  1   force =     0.00023904    0.00007612   -0.00040444
     atom   12 type  1   force =     0.00043148    0.00017131    0.00058736
     atom   13 type  1   force =     0.00044239    0.00034737   -0.00068405
     atom   14 type  1   force =    -0.00020559    0.00004403    0.00031296
     atom   15 type  1   force =    -0.00012888   -0.00012116   -0.00014833
     atom   16 type  1   force =     0.00006122    0.00023020   -0.00000844
     atom   17 type  2   force =    -0.00019934    0.00017216   -0.00004419
     atom   18 type  2   force =     0.00000852   -0.00005299   -0.00007553
     atom   19 type  2   force =     0.00010300    0.00052632    0.00016495
     atom   20 type  2   force =    -0.00027133    0.00042891    0.00029099
     atom   21 type  2   force =    -0.00051981    0.00015288   -0.00018004
     atom   22 type  2   force =    -0.00016616    0.00068955    0.00044574
     atom   23 type  2   force =    -0.00014629    0.00011830    0.00060515
     atom   24 type  2   force =    -0.00019620   -0.00042497    0.00020601
     atom   25 type  2   force =     0.00023263   -0.00031740   -0.00064795
     atom   26 type  2   force =     0.00000761   -0.00001884   -0.00032662
     atom   27 type  2   force =     0.00016170    0.00064331   -0.00013897
     atom   28 type  2   force =    -0.00069250   -0.00043869   -0.00028930
     atom   29 type  2   force =    -0.00036680    0.00021638    0.00031006
     atom   30 type  2   force =    -0.00058048   -0.00030053    0.00012989
     atom   31 type  2   force =    -0.00024842   -0.00030294   -0.00039928
     atom   32 type  3   force =     0.00015913   -0.00075673   -0.00013272
     atom   33 type  3   force =     0.00015913    0.00075673   -0.00013272
     atom   34 type  3   force =    -0.00015913    0.00075673    0.00013272
     atom   35 type  1   force =    -0.00060552    0.00028618    0.00024129
     atom   36 type  1   force =    -0.00060552   -0.00028618    0.00024129
     atom   37 type  1   force =     0.00060552   -0.00028618   -0.00024129
     atom   38 type  3   force =    -0.00012167    0.00089992    0.00039314
     atom   39 type  3   force =    -0.00012167   -0.00089992    0.00039314
     atom   40 type  3   force =     0.00012167   -0.00089992   -0.00039314
     atom   41 type  1   force =    -0.00063489   -0.00009830    0.00024652
     atom   42 type  1   force =    -0.00063489    0.00009830    0.00024652
     atom   43 type  1   force =     0.00063489    0.00009830   -0.00024652
     atom   44 type  1   force =    -0.00014680   -0.00070200   -0.00009027
     atom   45 type  1   force =    -0.00014680    0.00070200   -0.00009027
     atom   46 type  1   force =     0.00014680    0.00070200    0.00009027
     atom   47 type  1   force =    -0.00025159   -0.00005022    0.00012491
     atom   48 type  1   force =    -0.00025159    0.00005022    0.00012491
     atom   49 type  1   force =     0.00025159    0.00005022   -0.00012491
     atom   50 type  1   force =    -0.00035697    0.00082181    0.00085892
     atom   51 type  1   force =    -0.00035697   -0.00082181    0.00085892
     atom   52 type  1   force =     0.00035697   -0.00082181   -0.00085892
     atom   53 type  3   force =    -0.00038022   -0.00013922   -0.00085189
     atom   54 type  3   force =    -0.00038022    0.00013922   -0.00085189
     atom   55 type  3   force =     0.00038022    0.00013922    0.00085189
     atom   56 type  4   force =    -0.00011458   -0.00003396   -0.00034057
     atom   57 type  4   force =    -0.00011458    0.00003396   -0.00034057
     atom   58 type  4   force =     0.00011458    0.00003396    0.00034057
     atom   59 type  1   force =     0.00009120    0.00034037    0.00034512
     atom   60 type  1   force =     0.00009120   -0.00034037    0.00034512
     atom   61 type  1   force =    -0.00009120   -0.00034037   -0.00034512
     atom   62 type  1   force =    -0.00023904    0.00007612    0.00040444
     atom   63 type  1   force =    -0.00023904   -0.00007612    0.00040444
     atom   64 type  1   force =     0.00023904   -0.00007612   -0.00040444
     atom   65 type  1   force =    -0.00043148    0.00017131   -0.00058736
     atom   66 type  1   force =    -0.00043148   -0.00017131   -0.00058736
     atom   67 type  1   force =     0.00043148   -0.00017131    0.00058736
     atom   68 type  1   force =    -0.00044239    0.00034737    0.00068405
     atom   69 type  1   force =    -0.00044239   -0.00034737    0.00068405
     atom   70 type  1   force =     0.00044239   -0.00034737   -0.00068405
     atom   71 type  1   force =     0.00020559    0.00004403   -0.00031296
     atom   72 type  1   force =     0.00020559   -0.00004403   -0.00031296
     atom   73 type  1   force =    -0.00020559   -0.00004403    0.00031296
     atom   74 type  1   force =     0.00012888   -0.00012116    0.00014833
     atom   75 type  1   force =     0.00012888    0.00012116    0.00014833
     atom   76 type  1   force =    -0.00012888    0.00012116   -0.00014833
     atom   77 type  1   force =    -0.00006122    0.00023020    0.00000844
     atom   78 type  1   force =    -0.00006122   -0.00023020    0.00000844
     atom   79 type  1   force =     0.00006122   -0.00023020   -0.00000844
     atom   80 type  2   force =     0.00019934    0.00017216    0.00004419
     atom   81 type  2   force =     0.00019934   -0.00017216    0.00004419
     atom   82 type  2   force =    -0.00019934   -0.00017216   -0.00004419
     atom   83 type  2   force =    -0.00000852   -0.00005299    0.00007553
     atom   84 type  2   force =    -0.00000852    0.00005299    0.00007553
     atom   85 type  2   force =     0.00000852    0.00005299   -0.00007553
     atom   86 type  2   force =    -0.00010300    0.00052632   -0.00016495
     atom   87 type  2   force =    -0.00010300   -0.00052632   -0.00016495
     atom   88 type  2   force =     0.00010300   -0.00052632    0.00016495
     atom   89 type  2   force =     0.00027133    0.00042891   -0.00029099
     atom   90 type  2   force =     0.00027133   -0.00042891   -0.00029099
     atom   91 type  2   force =    -0.00027133   -0.00042891    0.00029099
     atom   92 type  2   force =     0.00051981    0.00015288    0.00018004
     atom   93 type  2   force =     0.00051981   -0.00015288    0.00018004
     atom   94 type  2   force =    -0.00051981   -0.00015288   -0.00018004
     atom   95 type  2   force =     0.00016616    0.00068955   -0.00044574
     atom   96 type  2   force =     0.00016616   -0.00068955   -0.00044574
     atom   97 type  2   force =    -0.00016616   -0.00068955    0.00044574
     atom   98 type  2   force =     0.00014629    0.00011830   -0.00060515
     atom   99 type  2   force =     0.00014629   -0.00011830   -0.00060515
     atom  100 type  2   force =    -0.00014629   -0.00011830    0.00060515
     atom  101 type  2   force =     0.00019620   -0.00042497   -0.00020601
     atom  102 type  2   force =     0.00019620    0.00042497   -0.00020601
     atom  103 type  2   force =    -0.00019620    0.00042497    0.00020601
     atom  104 type  2   force =    -0.00023263   -0.00031740    0.00064795
     atom  105 type  2   force =    -0.00023263    0.00031740    0.00064795
     atom  106 type  2   force =     0.00023263    0.00031740   -0.00064795
     atom  107 type  2   force =    -0.00000761   -0.00001884    0.00032662
     atom  108 type  2   force =    -0.00000761    0.00001884    0.00032662
     atom  109 type  2   force =     0.00000761    0.00001884   -0.00032662
     atom  110 type  2   force =    -0.00016170    0.00064331    0.00013897
     atom  111 type  2   force =    -0.00016170   -0.00064331    0.00013897
     atom  112 type  2   force =     0.00016170   -0.00064331   -0.00013897
     atom  113 type  2   force =     0.00069250   -0.00043869    0.00028930
     atom  114 type  2   force =     0.00069250    0.00043869    0.00028930
     atom  115 type  2   force =    -0.00069250    0.00043869   -0.00028930
     atom  116 type  2   force =     0.00036680    0.00021638   -0.00031006
     atom  117 type  2   force =     0.00036680   -0.00021638   -0.00031006
     atom  118 type  2   force =    -0.00036680   -0.00021638    0.00031006
     atom  119 type  2   force =     0.00058048   -0.00030053   -0.00012989
     atom  120 type  2   force =     0.00058048    0.00030053   -0.00012989
     atom  121 type  2   force =    -0.00058048    0.00030053    0.00012989
     atom  122 type  2   force =     0.00024842   -0.00030294    0.00039928
     atom  123 type  2   force =     0.00024842    0.00030294    0.00039928
     atom  124 type  2   force =    -0.00024842    0.00030294   -0.00039928

     Total force =     0.007257     Total SCF correction =     0.000026

     bfgs converged in  35 scf cycles and  34 bfgs steps
     (criteria: energy <  1.0E-04 Ry, force <  1.0E-03 Ry/Bohr)

     End of BFGS Geometry Optimization

     Final energy   =   -1080.0038773937 Ry
Begin final coordinates

ATOMIC_POSITIONS (angstrom)
O        0.770990621  10.930019994   0.955069949
C        0.169184799  10.752266899   5.096996754
O       -0.709111319   8.530786834   4.824778382
C       -0.040052494  10.663438536   6.553959972
C        0.535559880  10.813361762   2.291549455
C       -0.016178946   9.680763966   2.883428069
C       -0.195141481   9.645030909   4.276434807
O       -0.560419483   9.573986180   7.025827261
N        0.457776890   0.673072476   9.680373585
C        0.174337675  11.619521019   8.784453894
C        0.707899656  -0.009877280   4.442099979
C        0.334890790  11.726420994   7.416725734
C        0.899151975   0.037312559   3.076020126
C        0.985709917   1.962569950   9.266745408
C        0.322435591   0.442725220  11.111834030
C        0.407795010   9.827128292   0.118075968
H        1.031821859   8.947531765   0.348143295
H       -2.186285467  10.160691360  11.935964004
H        6.771295058   9.567763075   0.236620559
H       -0.317268823   8.808500815   2.306531657
H       -0.213392711  10.686733939   9.195687262
H        0.757669300   0.742402485   6.992944153
H        1.357522914   0.899970135   2.592175266
H        1.007128804   0.859332331   5.025486780
H       -0.359873227   1.187167961  11.545241895
H        0.309934511   2.425134248   8.532133323
H        1.051694098   2.613958317  10.145577666
H       -0.054202261  11.319792768  11.287044328
H        1.983974654   1.835366543   8.820308975
H        1.305997870   0.538124647  11.595497055
H       -0.742472685   8.779818887   5.861886563
O        1.553799379   4.985519994   5.467050051
O        3.878589379   0.958980006  11.889160051
O        3.095780621   6.903480006   7.377179949
C        2.155605201   4.807766899   1.325123246
C        4.480395201   1.136733101   7.747233246
C        2.493974799   7.081233101  11.519106754
O        3.033901319   2.586286834   1.597331618
O        5.358691319   3.358213166   8.019441618
O        1.615678681   9.302713166  11.246888382
C       -0.412177506   4.718938536  12.712380028
C        4.689632494   1.225561464   6.290270028
C        5.061757506   7.170061464   0.131839972
C        1.789230120   4.868861762   4.130560545
C        4.114020120   1.075638238  10.552670545
C        2.860349880   7.020138238   8.713659455
C        2.340968946   3.736263966   3.538681931
C        4.665758946   2.208236034   9.960791931
C        2.308611054   8.152736034   9.305538069
C        2.519931481   3.700530909   2.145675193
C        4.844721481   2.243969091   8.567785193
C        2.129648519   8.188469091  10.698544807
O        0.108189483   3.629486180  12.240502739
O        5.209999483   2.315013820   5.818392739
O        4.541390517   8.259513820   0.603717261
N       -0.910006890   6.617572476   9.585956415
N        4.191803110  11.215927524   3.163846415
N        5.559586890   5.271427524   3.258263585
C       -0.626567675   5.675021019  10.481876106
C        4.475242325   0.269478981   4.059766106
C        5.276147675   6.213978981   2.362343894
C        1.616890344   5.934622720   1.980010021
C        3.941680344  11.898877280   8.402120021
C        3.032689656   5.954377280  10.864209979
C       -0.787120790   5.781920994  11.849614266
C        4.314689210   0.162579006   5.427504266
C        5.436700790   6.107079006   0.994605734
C        1.425638025   5.981812559   3.346089874
C        3.750428025  11.851687441   9.768199874
C        3.223941975   5.907187441   9.498140126
C       -1.437939917   7.907069950   9.999584592
C        3.663870083   9.926430050   3.577474592
C        6.087519917   3.981930050   2.844635408
C       -0.774665591   6.387225220   8.154495970
C        4.327144409  11.446274780   1.732385970
C        5.424245591   5.501774780   4.689724030
C        1.916994990   3.882628292   6.304034032
C        4.241784990   2.061871708  12.726154032
C        2.732585010   8.006371708   6.540185968
H        1.292968141   3.003031765   6.073976705
H        3.617758141   2.941468235  12.496086705
H        3.356611859   8.885968235   6.770253295
H        1.734055467   4.216191360   7.330365996
H        6.835865467   1.728308640   0.908255996
H        2.915524533   7.672808640   5.513854004
H        2.980094942   3.623263075   6.185499441
H       -2.121715058   2.321236925  12.607609441
H        1.669485058   8.265736925   6.658730559
H        2.642058823   2.864000815   4.115578343
H        4.966848823   3.080499185  10.537688343
H        2.007521177   9.024999185   8.728641657
H       -0.238837289   4.742233939  10.070642738
H        4.862972711   1.202266061   3.648532738
H        4.888417289   7.146766061   2.773577262
H       -1.209899300   6.686902485  12.273395847
H        3.891910700  11.146597515   5.851285847
H        5.859479300   5.202097515   0.570834153
H        0.967267086   6.844470135   3.829934734
H        3.292057086  10.989029865  10.252044734
H        3.682312914   5.044529865   9.014295266
H        1.317661196   6.803832331   1.396623220
H        3.642461196  11.029667669   7.818733220
H        3.331918804   5.085167669  11.447596780
H       -0.092356773   7.131667961   7.721098105
H        5.009453227  10.701832039   1.298988105
H        4.741936773   4.757332039   5.123131895
H       -0.762164511   8.369634248  10.734196677
H        4.339645489   9.463865752   4.312086677
H        5.411744511   3.519365752   2.110023323
H       -1.503914098   8.558458317   9.120762334
H        3.597895902   9.275041683   2.698652334
H        6.153504098   3.330541683   3.723467666
H       -0.398027739   5.375292768   7.979285672
H        4.703782261   0.569207232   1.557175672
H        5.047607739   6.513707232   4.864934328
H        4.990395346   7.779866543  10.446021025
H        2.665605346  10.053633457   4.023911025
H       -0.340815346   4.109133457   2.398198975
H       -1.758227870   6.482624647   7.670842945
H        3.343582130  11.350875353   1.248732945
H        6.407807870   5.406375353   5.173387055
H        3.067262685   2.835318887   0.560223437
H        5.392052685   3.109181113   6.982333437
H        1.582317315   9.053681113  12.283996563
End final coordinates



     Writing output data file 2hp_3.save
 
     init_run     :     15.76s CPU     16.10s WALL (       1 calls)
     electrons    :   9986.05s CPU  10171.24s WALL (      35 calls)
     update_pot   :     15.30s CPU     15.32s WALL (      34 calls)
     forces       :    540.63s CPU    551.07s WALL (      35 calls)

     Called by init_run:
     wfcinit      :     12.02s CPU     12.20s WALL (       1 calls)
     potinit      :      1.48s CPU      1.50s WALL (       1 calls)

     Called by electrons:
     c_bands      :   8577.40s CPU   8677.85s WALL (     358 calls)
     sum_band     :    967.51s CPU   1009.36s WALL (     358 calls)
     v_of_rho     :     60.91s CPU     60.95s WALL (     393 calls)
     newd         :    127.35s CPU    173.22s WALL (     393 calls)
     mix_rho      :     11.82s CPU     12.05s WALL (     358 calls)

     Called by c_bands:
     init_us_2    :     79.46s CPU     79.55s WALL (    1504 calls)
     cegterg      :   8293.78s CPU   8394.08s WALL (     716 calls)

     Called by sum_band:
     sum_band:bec :      0.50s CPU      0.50s WALL (     716 calls)
     addusdens    :    134.73s CPU    176.12s WALL (     358 calls)

     Called by *egterg:
     h_psi        :   4594.20s CPU   4596.25s WALL (    3603 calls)
     s_psi        :   1118.80s CPU   1118.75s WALL (    3603 calls)
     g_psi        :     37.79s CPU     37.79s WALL (    2885 calls)
     cdiaghg      :    287.00s CPU    287.03s WALL (    3533 calls)

     Called by h_psi:
     h_psi:pot    :   4551.23s CPU   4553.22s WALL (    3603 calls)
     h_psi:calbec :   1024.52s CPU   1024.55s WALL (    3603 calls)
     vloc_psi     :   2408.35s CPU   2410.33s WALL (    3603 calls)
     add_vuspsi   :   1118.36s CPU   1118.33s WALL (    3603 calls)

     General routines
     calbec       :   1482.03s CPU   1482.03s WALL (    4599 calls)
     fft          :     22.14s CPU     22.17s WALL (    5110 calls)
     fftw         :   2448.72s CPU   2450.64s WALL (  869666 calls)
     davcio       :      0.01s CPU      0.08s WALL (       2 calls)
 
     Parallel routines
     fft_scatter  :    276.37s CPU    276.78s WALL (  874776 calls)
 
     PWSCF        :     2h56m CPU        2h59m WALL

 
   This run was terminated on:  10:12:32   6Oct2017            

=------------------------------------------------------------------------------=
   JOB DONE.
=------------------------------------------------------------------------------=
