
     Program PWSCF v.6.1 (svn rev. 13369) starts on 10Oct2017 at 20:18:26 

     This program is part of the open-source Quantum ESPRESSO suite
     for quantum simulation of materials; please cite
         "P. Giannozzi et al., J. Phys.:Condens. Matter 21 395502 (2009);
          URL http://www.quantum-espresso.org", 
     in publications or presentations arising from this work. More details at
     http://www.quantum-espresso.org/quote

     Parallel version (MPI), running on     1 processors
     Waiting for input...
     Reading input from standard input

     Current dimensions of program PWSCF are:
     Max number of different atomic species (ntypx) = 10
     Max number of k-points (npk) =  40000
     Max angular momentum in pseudopotentials (lmaxx) =  3
     Message from routine iosys:
     london is obsolete, use "vdw_corr='grimme-d2'" instead

     IMPORTANT: XC functional enforced from input :
     Exchange-correlation      = PBE ( 1  4  3  4 0 0)
     Any further DFT definition will be discarded
     Please, verify this is what you really want

               file C.pbe-rrkjus.UPF: wavefunction(s)  2S 2P renormalized
               file H.pbe-rrkjus.UPF: wavefunction(s)  1S renormalized
               file O.pbe-rrkjus.UPF: wavefunction(s)  2S renormalized
               file N.pbe-rrkjus.UPF: wavefunction(s)  2S renormalized

     -------------------------------------
     Parameters for Dispersion Correction:
     -------------------------------------
       atom      VdW radius       C_6     

        C          2.744         60.710
        H          1.892          4.857
        O          2.536         24.284
        N          2.640         42.670

     Subspace diagonalization in iterative solution of the eigenvalue problem:
     a serial algorithm will be used

 
     G-vector sticks info
     --------------------
     sticks:   dense  smooth     PW     G-vecs:    dense   smooth      PW
     Sum        3019    3019    837               169855   169855   25105
 


     bravais-lattice index     =            0
     lattice parameter (alat)  =      14.0342  a.u.
     unit-cell volume          =    7653.1420 (a.u.)^3
     number of atoms/cell      =          124
     number of atomic types    =            4
     number of electrons       =       344.00
     number of Kohn-Sham states=          172
     kinetic-energy cutoff     =      30.0000  Ry
     charge density cutoff     =     120.0000  Ry
     convergence threshold     =      1.0E-07
     mixing beta               =       0.7000
     number of iterations used =            8  plain     mixing
     Exchange-correlation      = PBE ( 1  4  3  4 0 0)
     nstep                     =           50


     celldm(1)=  14.034240  celldm(2)=   0.000000  celldm(3)=   0.000000
     celldm(4)=   0.000000  celldm(5)=   0.000000  celldm(6)=   0.000000

     crystal axes: (cart. coord. in units of alat)
               a(1) = (   1.000000   0.000000   0.000000 )  
               a(2) = (   0.000000   1.600867   0.000000 )  
               a(3) = (  -0.373929   0.000000   1.729489 )  

     reciprocal axes: (cart. coord. in units 2 pi/alat)
               b(1) = (  1.000000  0.000000  0.216208 )  
               b(2) = (  0.000000  0.624661  0.000000 )  
               b(3) = (  0.000000  0.000000  0.578206 )  


     PseudoPot. # 1 for C  read from file:
     /data/home/btx156/espresso/pseudo/C.pbe-rrkjus.UPF
     MD5 check sum: 00fb224312de0c5b6853bd333518df6f
     Pseudo is Ultrasoft, Zval =  4.0
     Generated by new atomic code, or converted to UPF format
     Using radial grid of  627 points,  4 beta functions with: 
                l(1) =   0
                l(2) =   0
                l(3) =   1
                l(4) =   1
     Q(r) pseudized with 0 coefficients 


     PseudoPot. # 2 for H  read from file:
     /data/home/btx156/espresso/pseudo/H.pbe-rrkjus.UPF
     MD5 check sum: 7cc9d459525c9a0585f487a71c3c9563
     Pseudo is Ultrasoft, Zval =  1.0
     Generated by new atomic code, or converted to UPF format
     Using radial grid of 1061 points,  2 beta functions with: 
                l(1) =   0
                l(2) =   0
     Q(r) pseudized with 0 coefficients 


     PseudoPot. # 3 for O  read from file:
     /data/home/btx156/espresso/pseudo/O.pbe-rrkjus.UPF
     MD5 check sum: 390ba29e75625707450f3bd3f0eb6be9
     Pseudo is Ultrasoft, Zval =  6.0
     Generated by new atomic code, or converted to UPF format
     Using radial grid of 1269 points,  4 beta functions with: 
                l(1) =   0
                l(2) =   0
                l(3) =   1
                l(4) =   1
     Q(r) pseudized with 0 coefficients 


     PseudoPot. # 4 for N  read from file:
     /data/home/btx156/espresso/pseudo/N.pbe-rrkjus.UPF
     MD5 check sum: 0c3fbe5807a93f9ba59d5a7019aa238b
     Pseudo is Ultrasoft, Zval =  5.0
     Generated by new atomic code, or converted to UPF format
     Using radial grid of 1257 points,  4 beta functions with: 
                l(1) =   0
                l(2) =   0
                l(3) =   1
                l(4) =   1
     Q(r) pseudized with 0 coefficients 


     atomic species   valence    mass     pseudopotential
        C              4.00    12.00000     C ( 1.00)
        H              1.00     1.00790     H ( 1.00)
        O              6.00    15.99940     O ( 1.00)
        N              5.00    14.00670     N ( 1.00)

      4 Sym. Ops., with inversion, found ( 2 have fractional translation)



   Cartesian axes

     site n.     atom                  positions (alat units)
         1           O   tau(   1) = (   0.1032729   1.4720067   0.1285692  )
         2           C   tau(   2) = (   0.0230087   1.4485935   0.6866609  )
         3           O   tau(   3) = (  -0.0940585   1.1486817   0.6498309  )
         4           C   tau(   4) = (  -0.0051101   1.4366401   0.8827769  )
         5           C   tau(   5) = (   0.0721427   1.4566880   0.3086460  )
         6           C   tau(   6) = (  -0.0011726   1.3037965   0.3888193  )
         7           C   tau(   7) = (  -0.0250591   1.2990683   0.5762114  )
         8           O   tau(   8) = (  -0.0745004   1.2898007   0.9466707  )
         9           N   tau(   9) = (   0.0643311   0.0900572   1.3041609  )
        10           C   tau(  10) = (   0.0245516   1.5648650   1.1832220  )
        11           C   tau(  11) = (   0.0947817  -0.0002200   0.5982230  )
        12           C   tau(  12) = (   0.0452821   1.5801754   0.9990839  )
        13           C   tau(  13) = (   0.1202887   0.0061425   0.4141137  )
        14           C   tau(  14) = (   0.1321879   0.2651908   1.2482712  )
        15           C   tau(  15) = (   0.0435820   0.0590965   1.4964663  )
        16           C   tau(  16) = (   0.0548619   1.3231707   0.0159116  )
        17           H   tau(  17) = (   0.1390925   1.2049741   0.0471161  )
        18           H   tau(  18) = (  -0.2943050   1.3679708   1.6071962  )
        19           H   tau(  19) = (   0.9117496   1.2877192   0.0314297  )
        20           H   tau(  20) = (  -0.0423342   1.1864885   0.3114257  )
        21           H   tau(  21) = (  -0.0286114   1.4394504   1.2379985  )
        22           H   tau(  22) = (   0.1011383   0.1019553   0.9427448  )
        23           H   tau(  23) = (   0.1816801   0.1224928   0.3491587  )
        24           H   tau(  24) = (   0.1345066   0.1167892   0.6769753  )
        25           H   tau(  25) = (  -0.0491237   0.1593766   1.5532698  )
        26           H   tau(  26) = (   0.0391984   0.3254658   1.1499815  )
        27           H   tau(  27) = (   0.1403476   0.3531964   1.3663872  )
        28           H   tau(  28) = (  -0.0078433   1.5237891   1.5192804  )
        29           H   tau(  29) = (   0.2665035   0.2513770   1.1868531  )
        30           H   tau(  30) = (   0.1750454   0.0718039   1.5638205  )
        31           H   tau(  31) = (  -0.0994191   1.1817088   0.7889054  )
        32           O   tau(  32) = (   0.2097627   0.6715731   0.7361764  )
        33           O   tau(  33) = (   0.5227983   0.1288605   1.6009207  )
        34           O   tau(  34) = (   0.4163084   0.9292941   0.9933135  )
        35           C   tau(  35) = (   0.2900268   0.6481599   0.1780848  )
        36           C   tau(  36) = (   0.6030624   0.1522737   1.0428291  )
        37           C   tau(  37) = (   0.3360443   0.9527073   1.5514052  )
        38           O   tau(  38) = (   0.4070941   0.3482481   0.2149134  )
        39           O   tau(  39) = (   0.7201296   0.4521854   1.0796577  )
        40           O   tau(  40) = (   0.2189771   1.2526190   1.5145752  )
        41           C   tau(  41) = (  -0.0557832   0.6362065   1.7114573  )
        42           C   tau(  42) = (   0.6311813   0.1642271   0.8467130  )
        43           C   tau(  43) = (   0.6818543   0.9646607   0.0180313  )
        44           C   tau(  44) = (   0.2408929   0.6562545   0.5560983  )
        45           C   tau(  45) = (   0.5539285   0.1441791   1.4208426  )
        46           C   tau(  46) = (   0.3851783   0.9446127   1.1733903  )
        47           C   tau(  47) = (   0.3142082   0.5033629   0.4759250  )
        48           C   tau(  48) = (   0.6272438   0.2970707   1.3406693  )
        49           C   tau(  49) = (   0.3118630   1.0975043   1.2535636  )
        50           C   tau(  50) = (   0.3380947   0.4986347   0.2885329  )
        51           C   tau(  51) = (   0.6511303   0.3017989   1.1532772  )
        52           C   tau(  52) = (   0.2879765   1.1022325   1.4409557  )
        53           O   tau(  53) = (   0.0136072   0.4893671   1.6475622  )
        54           O   tau(  54) = (   0.7005716   0.3110665   0.7828179  )
        55           O   tau(  55) = (   0.6124640   1.1115001   0.0819264  )
        56           N   tau(  56) = (  -0.1252244   0.8904908   1.2900720  )
        57           N   tau(  57) = (   0.5617400   1.5108099   0.4253277  )
        58           N   tau(  58) = (   0.7512956   0.7103763   0.4394166  )
        59           C   tau(  59) = (  -0.0854448   0.7644314   1.4110109  )
        60           C   tau(  60) = (   0.6015196   0.0360021   0.5462666  )
        61           C   tau(  61) = (   0.7115160   0.8364357   0.3184777  )
        62           C   tau(  62) = (   0.2182538   0.8002136   0.2665213  )
        63           C   tau(  63) = (   0.5312894   1.6010872   1.1312656  )
        64           C   tau(  64) = (   0.4078173   0.8006536   1.4629673  )
        65           C   tau(  65) = (  -0.1061753   0.7797419   1.5951504  )
        66           C   tau(  66) = (   0.5807891   0.0206917   0.7304061  )
        67           C   tau(  67) = (   0.7322465   0.8211253   0.1343382  )
        68           C   tau(  68) = (   0.1927469   0.8065761   0.4506306  )
        69           C   tau(  69) = (   0.5057824   1.5947246   1.3153749  )
        70           C   tau(  70) = (   0.4333243   0.7942910   1.2788593  )
        71           C   tau(  71) = (  -0.1930812   1.0656244   1.3459617  )
        72           C   tau(  72) = (   0.4938832   1.3356763   0.4812174  )
        73           C   tau(  73) = (   0.8191524   0.5352427   0.3835269  )
        74           C   tau(  74) = (  -0.1044753   0.8595301   1.0977666  )
        75           C   tau(  75) = (   0.5824892   1.5417706   0.2330223  )
        76           C   tau(  76) = (   0.7305464   0.7413371   0.6317220  )
        77           C   tau(  77) = (   0.2581737   0.5227371   0.8488327  )
        78           C   tau(  78) = (   0.5712093   0.2776965   1.7135784  )
        79           C   tau(  79) = (   0.3678975   1.0781301   0.8806559  )
        80           H   tau(  80) = (   0.1739431   0.4045405   0.8176295  )
        81           H   tau(  81) = (   0.4869787   0.3958930   1.6823738  )
        82           H   tau(  82) = (   0.4521280   1.1963266   0.9118604  )
        83           H   tau(  83) = (   0.2334117   0.5675372   0.9870367  )
        84           H   tau(  84) = (   0.9203761   0.2328964   0.1222924  )
        85           H   tau(  85) = (   0.3926594   1.0333300   0.7424519  )
        86           H   tau(  86) = (   0.4012860   0.4872856   0.8333160  )
        87           H   tau(  87) = (  -0.2856785   0.3131480   1.6980603  )
        88           H   tau(  88) = (   0.2247852   1.1135816   0.8961740  )
        89           H   tau(  89) = (   0.3553698   0.3860549   0.5533186  )
        90           H   tau(  90) = (   0.6684053   0.4143786   1.4180629  )
        91           H   tau(  91) = (   0.2707014   1.2148122   1.1761700  )
        92           H   tau(  92) = (  -0.0322819   0.6390169   1.3562344  )
        93           H   tau(  93) = (   0.6546825   0.1614167   0.4914901  )
        94           H   tau(  94) = (   0.6583531   0.9618503   0.3732542  )
        95           H   tau(  95) = (  -0.1620316   0.9023889   1.6514894  )
        96           H   tau(  96) = (   0.5249328   1.4989119   0.7867451  )
        97           H   tau(  97) = (   0.7881027   0.6984783   0.0780005  )
        98           H   tau(  98) = (   0.1313554   0.9229264   0.5155856  )
        99           H   tau(  99) = (   0.4443910   1.4783743   1.3803299  )
       100           H   tau( 100) = (   0.4947157   0.6779407   1.2139043  )
       101           H   tau( 101) = (   0.1785289   0.9172227   0.1877690  )
       102           H   tau( 102) = (   0.4915659   1.4840780   1.0525133  )
       103           H   tau( 103) = (   0.4475422   0.6836444   1.5417196  )
       104           H   tau( 104) = (  -0.0117695   0.9598102   1.0409644  )
       105           H   tau( 105) = (   0.6751949   1.4414905   0.1762201  )
       106           H   tau( 106) = (   0.6378407   0.6410569   0.6885255  )
       107           H   tau( 107) = (  -0.1000917   1.1258994   1.4442514  )
       108           H   tau( 108) = (   0.5868727   1.2754013   0.5795071  )
       109           H   tau( 109) = (   0.7261629   0.4749678   0.2852372  )
       110           H   tau( 110) = (  -0.2012396   1.1536300   1.2278471  )
       111           H   tau( 111) = (   0.4857248   1.2476707   0.3631028  )
       112           H   tau( 112) = (   0.8273121   0.4472372   0.5016429  )
       113           H   tau( 113) = (  -0.0530499   0.7233555   1.0749525  )
       114           H   tau( 114) = (   0.6339145   0.0770781   0.2102082  )
       115           H   tau( 115) = (   0.6791211   0.8775116   0.6545361  )
       116           H   tau( 116) = (   0.6726032   1.0518106   1.4073798  )
       117           H   tau( 117) = (   0.3595677   1.3494901   0.5426355  )
       118           H   tau( 118) = (  -0.0465321   0.5490566   0.3221088  )
       119           H   tau( 119) = (  -0.2359387   0.8722375   1.0304137  )
       120           H   tau( 120) = (   0.4510258   1.5290633   0.1656694  )
       121           H   tau( 121) = (   0.8620098   0.7286297   0.6990762  )
       122           H   tau( 122) = (   0.4124547   0.3812752   0.0758389  )
       123           H   tau( 123) = (   0.7254902   0.4191583   0.9405832  )
       124           H   tau( 124) = (   0.2136165   1.2195919   1.6536497  )

     number of k points=   104

     Number of k-points >= 100: set verbosity='high' to print them.

     Dense  grid:   169855 G-vectors     FFT dimensions: (  50,  80,  90)

     Estimated max dynamical RAM per process >    6619.38MB

     Initial potential from superposition of free atoms

     starting charge  338.22517, renormalised to  344.00000
     Starting wfc are  316 randomized atomic wfcs

     total cpu time spent up to now is      654.0 secs

     Self-consistent Calculation

     iteration #  1     ecut=    30.00 Ry     beta=0.70
     Davidson diagonalization with overlap
     ethr =  1.00E-02,  avg # of iterations =  2.0

     total cpu time spent up to now is     1970.1 secs

     total energy              =   -1073.67856661 Ry
     Harris-Foulkes estimate   =   -1088.65200224 Ry
     estimated scf accuracy    <      22.77852524 Ry

     iteration #  2     ecut=    30.00 Ry     beta=0.70
     Davidson diagonalization with overlap
     ethr =  6.62E-03,  avg # of iterations =  4.0

     total cpu time spent up to now is     3374.5 secs

     total energy              =   -1075.97456062 Ry
     Harris-Foulkes estimate   =   -1083.60678468 Ry
     estimated scf accuracy    <      13.85562004 Ry

     iteration #  3     ecut=    30.00 Ry     beta=0.70
     Davidson diagonalization with overlap
     ethr =  4.03E-03,  avg # of iterations =  4.0

     total cpu time spent up to now is     4744.6 secs

     total energy              =   -1079.10251450 Ry
     Harris-Foulkes estimate   =   -1080.80281136 Ry
     estimated scf accuracy    <       3.51016820 Ry

     iteration #  4     ecut=    30.00 Ry     beta=0.70
     Davidson diagonalization with overlap
     ethr =  1.02E-03,  avg # of iterations =  4.0

     total cpu time spent up to now is     6058.2 secs

     total energy              =   -1079.83315484 Ry
     Harris-Foulkes estimate   =   -1080.23605372 Ry
     estimated scf accuracy    <       0.94596968 Ry

     iteration #  5     ecut=    30.00 Ry     beta=0.70
     Davidson diagonalization with overlap
     ethr =  2.75E-04,  avg # of iterations =  4.0

     total cpu time spent up to now is     7278.1 secs

     total energy              =   -1080.00956328 Ry
     Harris-Foulkes estimate   =   -1080.03569371 Ry
     estimated scf accuracy    <       0.05304408 Ry

     iteration #  6     ecut=    30.00 Ry     beta=0.70
     Davidson diagonalization with overlap
     ethr =  1.54E-05,  avg # of iterations =  4.0

     total cpu time spent up to now is     8658.2 secs

     total energy              =   -1080.02353523 Ry
     Harris-Foulkes estimate   =   -1080.02575969 Ry
     estimated scf accuracy    <       0.00501122 Ry

     iteration #  7     ecut=    30.00 Ry     beta=0.70
     Davidson diagonalization with overlap
     ethr =  1.46E-06,  avg # of iterations =  4.0

     total cpu time spent up to now is     9994.4 secs

     total energy              =   -1080.02459153 Ry
     Harris-Foulkes estimate   =   -1080.02516635 Ry
     estimated scf accuracy    <       0.00123836 Ry

     iteration #  8     ecut=    30.00 Ry     beta=0.70
     Davidson diagonalization with overlap
     ethr =  3.60E-07,  avg # of iterations =  4.0

     total cpu time spent up to now is    11300.1 secs

     total energy              =   -1080.02488430 Ry
     Harris-Foulkes estimate   =   -1080.02496233 Ry
     estimated scf accuracy    <       0.00018022 Ry

     iteration #  9     ecut=    30.00 Ry     beta=0.70
     Davidson diagonalization with overlap
     ethr =  5.24E-08,  avg # of iterations =  4.0

     total cpu time spent up to now is    12634.2 secs

     total energy              =   -1080.02492260 Ry
     Harris-Foulkes estimate   =   -1080.02493676 Ry
     estimated scf accuracy    <       0.00003091 Ry

     iteration # 10     ecut=    30.00 Ry     beta=0.70
     Davidson diagonalization with overlap
     ethr =  8.99E-09,  avg # of iterations =  4.0

     total cpu time spent up to now is    13877.6 secs

     total energy              =   -1080.02492903 Ry
     Harris-Foulkes estimate   =   -1080.02493055 Ry
     estimated scf accuracy    <       0.00000334 Ry

     iteration # 11     ecut=    30.00 Ry     beta=0.70
     Davidson diagonalization with overlap
     ethr =  9.71E-10,  avg # of iterations =  3.0

     total cpu time spent up to now is    15165.5 secs

     total energy              =   -1080.02492990 Ry
     Harris-Foulkes estimate   =   -1080.02493008 Ry
     estimated scf accuracy    <       0.00000051 Ry

     iteration # 12     ecut=    30.00 Ry     beta=0.70
     Davidson diagonalization with overlap
     ethr =  1.48E-10,  avg # of iterations =  3.0

     total cpu time spent up to now is    16456.7 secs

     End of self-consistent calculation

     Number of k-points >= 100: set verbosity='high' to print the bands.

     highest occupied level (ev):     1.4056

!    total energy              =   -1080.02493000 Ry
     Harris-Foulkes estimate   =   -1080.02493002 Ry
     estimated scf accuracy    <       0.00000003 Ry

     The total energy is the sum of the following terms:

     one-electron contribution =    -866.06508181 Ry
     hartree contribution      =     552.38218402 Ry
     xc contribution           =    -315.22946116 Ry
     ewald contribution        =    -450.56508108 Ry
     Dispersion Correction     =      -0.54748997 Ry

     convergence has been achieved in  12 iterations

     Forces acting on atoms (cartesian axes, Ry/au):

     atom    1 type  3   force =    -0.00008883   -0.00008237   -0.00001852
     atom    2 type  1   force =    -0.00033232    0.00013315   -0.00041827
     atom    3 type  3   force =    -0.00029327    0.00018961    0.00023850
     atom    4 type  1   force =    -0.00019319    0.00037583    0.00051292
     atom    5 type  1   force =    -0.00065956   -0.00045894    0.00000683
     atom    6 type  1   force =    -0.00002979    0.00042880    0.00014814
     atom    7 type  1   force =     0.00022845    0.00023705   -0.00018978
     atom    8 type  3   force =     0.00003510    0.00002510   -0.00010839
     atom    9 type  4   force =     0.00095254    0.00013666    0.00027281
     atom   10 type  1   force =    -0.00007223   -0.00011271   -0.00005481
     atom   11 type  1   force =     0.00053585   -0.00006022   -0.00020233
     atom   12 type  1   force =    -0.00006088   -0.00055072   -0.00020529
     atom   13 type  1   force =    -0.00000095    0.00001570   -0.00000396
     atom   14 type  1   force =    -0.00040752    0.00000722    0.00007467
     atom   15 type  1   force =    -0.00019497   -0.00013847    0.00023211
     atom   16 type  1   force =     0.00011517   -0.00015047    0.00012191
     atom   17 type  2   force =     0.00023665   -0.00014956    0.00021511
     atom   18 type  2   force =     0.00012361    0.00023996   -0.00003719
     atom   19 type  2   force =     0.00025400    0.00042975    0.00048622
     atom   20 type  2   force =     0.00019230   -0.00045326   -0.00055069
     atom   21 type  2   force =     0.00066664   -0.00028498    0.00027019
     atom   22 type  2   force =     0.00019695    0.00000194   -0.00075829
     atom   23 type  2   force =    -0.00024746    0.00038053   -0.00001537
     atom   24 type  2   force =    -0.00036227    0.00030657   -0.00003487
     atom   25 type  2   force =    -0.00025058    0.00020583    0.00045382
     atom   26 type  2   force =    -0.00042089    0.00066799   -0.00024088
     atom   27 type  2   force =    -0.00018480    0.00018972    0.00050382
     atom   28 type  2   force =    -0.00008509   -0.00018441   -0.00017080
     atom   29 type  2   force =    -0.00083363   -0.00006262    0.00040028
     atom   30 type  2   force =    -0.00043560    0.00019430   -0.00027160
     atom   31 type  2   force =     0.00041857    0.00014145    0.00035783
     atom   32 type  3   force =     0.00008883   -0.00008237    0.00001852
     atom   33 type  3   force =     0.00008883    0.00008237    0.00001852
     atom   34 type  3   force =    -0.00008883    0.00008237   -0.00001852
     atom   35 type  1   force =     0.00033232    0.00013315    0.00041827
     atom   36 type  1   force =     0.00033232   -0.00013315    0.00041827
     atom   37 type  1   force =    -0.00033232   -0.00013315   -0.00041827
     atom   38 type  3   force =     0.00029327    0.00018961   -0.00023850
     atom   39 type  3   force =     0.00029327   -0.00018961   -0.00023850
     atom   40 type  3   force =    -0.00029327   -0.00018961    0.00023850
     atom   41 type  1   force =     0.00019319    0.00037583   -0.00051292
     atom   42 type  1   force =     0.00019319   -0.00037583   -0.00051292
     atom   43 type  1   force =    -0.00019319   -0.00037583    0.00051292
     atom   44 type  1   force =     0.00065956   -0.00045894   -0.00000683
     atom   45 type  1   force =     0.00065956    0.00045894   -0.00000683
     atom   46 type  1   force =    -0.00065956    0.00045894    0.00000683
     atom   47 type  1   force =     0.00002979    0.00042880   -0.00014814
     atom   48 type  1   force =     0.00002979   -0.00042880   -0.00014814
     atom   49 type  1   force =    -0.00002979   -0.00042880    0.00014814
     atom   50 type  1   force =    -0.00022845    0.00023705    0.00018978
     atom   51 type  1   force =    -0.00022845   -0.00023705    0.00018978
     atom   52 type  1   force =     0.00022845   -0.00023705   -0.00018978
     atom   53 type  3   force =    -0.00003510    0.00002510    0.00010839
     atom   54 type  3   force =    -0.00003510   -0.00002510    0.00010839
     atom   55 type  3   force =     0.00003510   -0.00002510   -0.00010839
     atom   56 type  4   force =    -0.00095254    0.00013666   -0.00027281
     atom   57 type  4   force =    -0.00095254   -0.00013666   -0.00027281
     atom   58 type  4   force =     0.00095254   -0.00013666    0.00027281
     atom   59 type  1   force =     0.00007223   -0.00011271    0.00005481
     atom   60 type  1   force =     0.00007223    0.00011271    0.00005481
     atom   61 type  1   force =    -0.00007223    0.00011271   -0.00005481
     atom   62 type  1   force =    -0.00053585   -0.00006022    0.00020233
     atom   63 type  1   force =    -0.00053585    0.00006022    0.00020233
     atom   64 type  1   force =     0.00053585    0.00006022   -0.00020233
     atom   65 type  1   force =     0.00006088   -0.00055072    0.00020529
     atom   66 type  1   force =     0.00006088    0.00055072    0.00020529
     atom   67 type  1   force =    -0.00006088    0.00055072   -0.00020529
     atom   68 type  1   force =     0.00000095    0.00001570    0.00000396
     atom   69 type  1   force =     0.00000095   -0.00001570    0.00000396
     atom   70 type  1   force =    -0.00000095   -0.00001570   -0.00000396
     atom   71 type  1   force =     0.00040752    0.00000722   -0.00007467
     atom   72 type  1   force =     0.00040752   -0.00000722   -0.00007467
     atom   73 type  1   force =    -0.00040752   -0.00000722    0.00007467
     atom   74 type  1   force =     0.00019497   -0.00013847   -0.00023211
     atom   75 type  1   force =     0.00019497    0.00013847   -0.00023211
     atom   76 type  1   force =    -0.00019497    0.00013847    0.00023211
     atom   77 type  1   force =    -0.00011517   -0.00015047   -0.00012191
     atom   78 type  1   force =    -0.00011517    0.00015047   -0.00012191
     atom   79 type  1   force =     0.00011517    0.00015047    0.00012191
     atom   80 type  2   force =    -0.00023665   -0.00014956   -0.00021511
     atom   81 type  2   force =    -0.00023665    0.00014956   -0.00021511
     atom   82 type  2   force =     0.00023665    0.00014956    0.00021511
     atom   83 type  2   force =    -0.00012361    0.00023996    0.00003719
     atom   84 type  2   force =    -0.00012361   -0.00023996    0.00003719
     atom   85 type  2   force =     0.00012361   -0.00023996   -0.00003719
     atom   86 type  2   force =    -0.00025400    0.00042975   -0.00048622
     atom   87 type  2   force =    -0.00025400   -0.00042975   -0.00048622
     atom   88 type  2   force =     0.00025400   -0.00042975    0.00048622
     atom   89 type  2   force =    -0.00019230   -0.00045326    0.00055069
     atom   90 type  2   force =    -0.00019230    0.00045326    0.00055069
     atom   91 type  2   force =     0.00019230    0.00045326   -0.00055069
     atom   92 type  2   force =    -0.00066664   -0.00028498   -0.00027019
     atom   93 type  2   force =    -0.00066664    0.00028498   -0.00027019
     atom   94 type  2   force =     0.00066664    0.00028498    0.00027019
     atom   95 type  2   force =    -0.00019695    0.00000194    0.00075829
     atom   96 type  2   force =    -0.00019695   -0.00000194    0.00075829
     atom   97 type  2   force =     0.00019695   -0.00000194   -0.00075829
     atom   98 type  2   force =     0.00024746    0.00038053    0.00001537
     atom   99 type  2   force =     0.00024746   -0.00038053    0.00001537
     atom  100 type  2   force =    -0.00024746   -0.00038053   -0.00001537
     atom  101 type  2   force =     0.00036227    0.00030657    0.00003487
     atom  102 type  2   force =     0.00036227   -0.00030657    0.00003487
     atom  103 type  2   force =    -0.00036227   -0.00030657   -0.00003487
     atom  104 type  2   force =     0.00025058    0.00020583   -0.00045382
     atom  105 type  2   force =     0.00025058   -0.00020583   -0.00045382
     atom  106 type  2   force =    -0.00025058   -0.00020583    0.00045382
     atom  107 type  2   force =     0.00042089    0.00066799    0.00024088
     atom  108 type  2   force =     0.00042089   -0.00066799    0.00024088
     atom  109 type  2   force =    -0.00042089   -0.00066799   -0.00024088
     atom  110 type  2   force =     0.00018480    0.00018972   -0.00050382
     atom  111 type  2   force =     0.00018480   -0.00018972   -0.00050382
     atom  112 type  2   force =    -0.00018480   -0.00018972    0.00050382
     atom  113 type  2   force =     0.00008509   -0.00018441    0.00017080
     atom  114 type  2   force =     0.00008509    0.00018441    0.00017080
     atom  115 type  2   force =    -0.00008509    0.00018441   -0.00017080
     atom  116 type  2   force =     0.00083363   -0.00006262   -0.00040028
     atom  117 type  2   force =     0.00083363    0.00006262   -0.00040028
     atom  118 type  2   force =    -0.00083363    0.00006262    0.00040028
     atom  119 type  2   force =     0.00043560    0.00019430    0.00027160
     atom  120 type  2   force =     0.00043560   -0.00019430    0.00027160
     atom  121 type  2   force =    -0.00043560   -0.00019430   -0.00027160
     atom  122 type  2   force =    -0.00041857    0.00014145   -0.00035783
     atom  123 type  2   force =    -0.00041857   -0.00014145   -0.00035783
     atom  124 type  2   force =     0.00041857   -0.00014145    0.00035783

     Total force =     0.006239     Total SCF correction =     0.000316

     BFGS Geometry Optimization

     bfgs converged in   1 scf cycles and   0 bfgs steps
     (criteria: energy <  1.0E-04 Ry, force <  1.0E-03 Ry/Bohr)

     End of BFGS Geometry Optimization

     Final energy   =   -1080.0249300017 Ry
Begin final coordinates

ATOMIC_POSITIONS (angstrom)
O        0.766966230  10.932004596   0.954832159
C        0.170876763  10.758124139   5.099555524
O       -0.698534821   8.530799677   4.826034016
C       -0.037950739  10.669350995   6.556030974
C        0.535774800  10.818239320   2.292190508
C       -0.008708515   9.682774894   2.887605337
C       -0.186103962   9.647660403   4.279291865
O       -0.553284967   9.578833704   7.030544483
N        0.477761551   0.668819130   9.685480975
C        0.182334712  11.621626535   8.787316214
C        0.703906093  -0.001633948   4.442763192
C        0.336291712  11.735330861   7.419796284
C        0.893336209   0.045618196   3.075456638
C        0.981706862   1.969466289   9.270410838
C        0.323665945   0.438886161  11.113656586
C        0.407437217   9.826659300   0.118168919
H        1.032984046   8.948860785   0.349912461
H       -2.185685408  10.159371807  11.936003587
H        6.771199759   9.563375197   0.233415523
H       -0.314399040   8.811575536   2.312834005
H       -0.212485156  10.690222617   9.194119640
H        0.751113790   0.757181117   7.001388790
H        1.349265780   0.909705331   2.593061864
H        0.998926911   0.867346329   5.027624664
H       -0.364822339   1.183626474  11.535513652
H        0.291111168   2.417104497   8.540452245
H        1.042305841   2.623048569  10.147611021
H       -0.058249422  11.316572079  11.283087991
H        1.979214720   1.866876503   8.814283532
H        1.299992008   0.533258893  11.613869545
H       -0.738345742   8.776078733   5.858884745
O        1.557823770   4.987504596   5.467287841
O        3.882613770   0.956995404  11.889397841
O        3.091756230   6.901495404   7.376942159
C        2.153913237   4.813624139   1.322564476
C        4.478703237   1.130875861   7.744674476
C        2.495666763   7.075375861  11.521665524
O        3.023324821   2.586299677   1.596075984
O        5.348114821   3.358200323   8.018185984
O        1.626255179   9.302700323  11.248144016
C       -0.414279261   4.724850995  12.710309026
C        4.687530739   1.219649005   6.288199026
C        5.063859261   7.164149005   0.133910974
C        1.789015200   4.873739320   4.129919492
C        4.113805200   1.070760680  10.552029492
C        2.860564800   7.015260680   8.714300508
C        2.333498515   3.738274894   3.534504663
C        4.658288515   2.206225106   9.956614663
C        2.316081485   8.150725106   9.309715337
C        2.510893962   3.703160403   2.142818135
C        4.835683962   2.241339597   8.564928135
C        2.138686038   8.185839597  10.701401865
O        0.101054967   3.634333704  12.235785517
O        5.202864967   2.310166296   5.813675517
O        4.548525033   8.254666296   0.608434483
N       -0.929991551   6.613319130   9.580849025
N        4.171818449  11.220180870   3.158739025
N        5.579571551   5.275680870   3.263370975
C       -0.634564712   5.677126535  10.479013786
C        4.467245288   0.267373465   4.056903786
C        5.284144712   6.211873465   2.365206214
C        1.620883907   5.942866052   1.979346808
C        3.945673907  11.890633948   8.401456808
C        3.028696093   5.946133948  10.864873192
C       -0.788521712   5.790830861  11.846543716
C        4.313288288   0.153669139   5.424433716
C        5.438101712   6.098169139   0.997676284
C        1.431453791   5.990118196   3.346653362
C        3.756243791  11.843381804   9.768763362
C        3.218126209   5.898881804   9.497576638
C       -1.433936862   7.913966289   9.995919162
C        3.667873138   9.919533711   3.573809162
C        6.083516862   3.975033711   2.848300838
C       -0.775895945   6.383386161   8.152673414
C        4.325914055  11.450113839   1.730563414
C        5.425475945   5.505613839   4.691546586
C        1.917352783   3.882159300   6.303941081
C        4.242142783   2.062340700  12.726061081
C        2.732227217   8.006840700   6.540278919
H        1.291805954   3.004360785   6.072207539
H        3.616595954   2.940139215  12.494317539
H        3.357774046   8.884639215   6.772022461
H        1.733455408   4.214871807   7.330326413
H        6.835265408   1.729628193   0.908216413
H        2.916124592   7.674128193   5.513893587
H        2.980190241   3.618875197   6.188704477
H       -2.121619759   2.325624803  12.610814477
H        1.669389759   8.270124803   6.655525523
H        2.639189040   2.867075536   4.109275995
H        4.963979040   3.077424464  10.531385995
H        2.010390960   9.021924464   8.734944005
H       -0.239744844   4.745722617  10.072210360
H        4.862065156   1.198777383   3.650100360
H        4.889324844   7.143277383   2.772009640
H       -1.203343790   6.701681117  12.264951210
H        3.898466210  11.131818883   5.842841210
H        5.852923790   5.187318883   0.579278790
H        0.975524220   6.854205331   3.829048136
H        3.300314220  10.979294669  10.251158136
H        3.674055780   5.034794669   9.015181864
H        1.325863089   6.811846329   1.394485336
H        3.650663089  11.021653671   7.816595336
H        3.323716911   5.077153671  11.449734664
H       -0.087407661   7.128126474   7.730826348
H        5.014402339  10.705373526   1.308716348
H        4.736987661   4.760873526   5.113403652
H       -0.743341168   8.361604497  10.725877755
H        4.358468832   9.471895503   4.303767755
H        5.392921168   3.527395503   2.118342245
H       -1.494525841   8.567548569   9.118728979
H        3.607284159   9.265951431   2.696618979
H        6.144115841   3.321451431   3.725501021
H       -0.393980578   5.372072079   7.983242009
H        4.707829422   0.572427921   1.561132009
H        5.043560578   6.516927921   4.860977991
H        4.995155280   7.811376503  10.452046468
H        2.670365280  10.022123497   4.029936468
H       -0.345575280   4.077623497   2.392173532
H       -1.752222008   6.477758893   7.652470455
H        3.349587992  11.355741107   1.230360455
H        6.401802008   5.411241107   5.191759545
H        3.063135742   2.831578733   0.563225255
H        5.387925742   3.112921267   6.985335255
H        1.586444258   9.057421267  12.280994745
End final coordinates



     Writing output data file 2hp_3_866.save
 
     init_run     :    647.57s CPU    653.86s WALL (       1 calls)
     electrons    :  15618.00s CPU  15802.83s WALL (       1 calls)
     forces       :    228.35s CPU    228.66s WALL (       1 calls)

     Called by init_run:
     wfcinit      :    643.34s CPU    649.47s WALL (       1 calls)
     potinit      :      1.59s CPU      1.61s WALL (       1 calls)

     Called by electrons:
     c_bands      :  14138.89s CPU  14320.12s WALL (      12 calls)
     sum_band     :   1464.80s CPU   1466.93s WALL (      12 calls)
     v_of_rho     :      2.11s CPU      2.12s WALL (      13 calls)
     newd         :      4.41s CPU      5.96s WALL (      13 calls)
     mix_rho      :      0.46s CPU      0.47s WALL (      12 calls)

     Called by c_bands:
     init_us_2    :    161.10s CPU    161.17s WALL (    2704 calls)
     cegterg      :  13609.67s CPU  13789.30s WALL (    1248 calls)

     Called by sum_band:
     sum_band:bec :      0.85s CPU      0.85s WALL (    1248 calls)
     addusdens    :      4.67s CPU      6.16s WALL (      12 calls)

     Called by *egterg:
     h_psi        :   8117.60s CPU   8123.57s WALL (    5928 calls)
     s_psi        :   1929.31s CPU   1929.26s WALL (    5928 calls)
     g_psi        :     64.83s CPU     64.83s WALL (    4576 calls)
     cdiaghg      :    469.20s CPU    469.23s WALL (    5824 calls)

     Called by h_psi:
     h_psi:pot    :   8041.14s CPU   8044.82s WALL (    5928 calls)
     h_psi:calbec :   1786.84s CPU   1786.88s WALL (    5928 calls)
     vloc_psi     :   4325.79s CPU   4329.45s WALL (    5928 calls)
     add_vuspsi   :   1928.50s CPU   1928.46s WALL (    5928 calls)

     General routines
     calbec       :   2551.28s CPU   2551.28s WALL (    7592 calls)
     fft          :      0.74s CPU      0.75s WALL (     170 calls)
     fftw         :   4367.46s CPU   4370.83s WALL ( 1519580 calls)
     davcio       :      0.16s CPU      4.09s WALL (     104 calls)
 
     Parallel routines
     fft_scatter  :    508.45s CPU    509.12s WALL ( 1519750 calls)
 
     PWSCF        :     4h34m CPU        4h38m WALL

 
   This run was terminated on:   0:56:37  11Oct2017            

=------------------------------------------------------------------------------=
   JOB DONE.
=------------------------------------------------------------------------------=
