
     Program PWSCF v.6.1 (svn rev. 13369) starts on  5Oct2017 at 13:45:34 

     This program is part of the open-source Quantum ESPRESSO suite
     for quantum simulation of materials; please cite
         "P. Giannozzi et al., J. Phys.:Condens. Matter 21 395502 (2009);
          URL http://www.quantum-espresso.org", 
     in publications or presentations arising from this work. More details at
     http://www.quantum-espresso.org/quote

     Parallel version (MPI), running on     1 processors
     Waiting for input...
     Reading input from standard input

     Current dimensions of program PWSCF are:
     Max number of different atomic species (ntypx) = 10
     Max number of k-points (npk) =  40000
     Max angular momentum in pseudopotentials (lmaxx) =  3
     Message from routine iosys:
     london is obsolete, use "vdw_corr='grimme-d2'" instead

     IMPORTANT: XC functional enforced from input :
     Exchange-correlation      = PBE ( 1  4  3  4 0 0)
     Any further DFT definition will be discarded
     Please, verify this is what you really want

               file C.pbe-rrkjus.UPF: wavefunction(s)  2S 2P renormalized
               file H.pbe-rrkjus.UPF: wavefunction(s)  1S renormalized
               file O.pbe-rrkjus.UPF: wavefunction(s)  2S renormalized
               file N.pbe-rrkjus.UPF: wavefunction(s)  2S renormalized

     -------------------------------------
     Parameters for Dispersion Correction:
     -------------------------------------
       atom      VdW radius       C_6     

        C          2.744         60.710
        H          1.892          4.857
        O          2.536         24.284
        N          2.640         42.670

     Subspace diagonalization in iterative solution of the eigenvalue problem:
     a serial algorithm will be used

 
     G-vector sticks info
     --------------------
     sticks:   dense  smooth     PW     G-vecs:    dense   smooth      PW
     Sum        3019    3019    809               169855   169855   23541
 


     bravais-lattice index     =            0
     lattice parameter (alat)  =      14.0342  a.u.
     unit-cell volume          =    7653.1420 (a.u.)^3
     number of atoms/cell      =          124
     number of atomic types    =            4
     number of electrons       =       344.00
     number of Kohn-Sham states=          172
     kinetic-energy cutoff     =      30.0000  Ry
     charge density cutoff     =     120.0000  Ry
     convergence threshold     =      1.0E-07
     mixing beta               =       0.7000
     number of iterations used =            8  plain     mixing
     Exchange-correlation      = PBE ( 1  4  3  4 0 0)
     nstep                     =           50


     celldm(1)=  14.034240  celldm(2)=   0.000000  celldm(3)=   0.000000
     celldm(4)=   0.000000  celldm(5)=   0.000000  celldm(6)=   0.000000

     crystal axes: (cart. coord. in units of alat)
               a(1) = (   1.000000   0.000000   0.000000 )  
               a(2) = (   0.000000   1.600867   0.000000 )  
               a(3) = (  -0.373929   0.000000   1.729489 )  

     reciprocal axes: (cart. coord. in units 2 pi/alat)
               b(1) = (  1.000000  0.000000  0.216208 )  
               b(2) = (  0.000000  0.624661  0.000000 )  
               b(3) = (  0.000000  0.000000  0.578206 )  


     PseudoPot. # 1 for C  read from file:
     /data/home/btx156/espresso/pseudo/C.pbe-rrkjus.UPF
     MD5 check sum: 00fb224312de0c5b6853bd333518df6f
     Pseudo is Ultrasoft, Zval =  4.0
     Generated by new atomic code, or converted to UPF format
     Using radial grid of  627 points,  4 beta functions with: 
                l(1) =   0
                l(2) =   0
                l(3) =   1
                l(4) =   1
     Q(r) pseudized with 0 coefficients 


     PseudoPot. # 2 for H  read from file:
     /data/home/btx156/espresso/pseudo/H.pbe-rrkjus.UPF
     MD5 check sum: 7cc9d459525c9a0585f487a71c3c9563
     Pseudo is Ultrasoft, Zval =  1.0
     Generated by new atomic code, or converted to UPF format
     Using radial grid of 1061 points,  2 beta functions with: 
                l(1) =   0
                l(2) =   0
     Q(r) pseudized with 0 coefficients 


     PseudoPot. # 3 for O  read from file:
     /data/home/btx156/espresso/pseudo/O.pbe-rrkjus.UPF
     MD5 check sum: 390ba29e75625707450f3bd3f0eb6be9
     Pseudo is Ultrasoft, Zval =  6.0
     Generated by new atomic code, or converted to UPF format
     Using radial grid of 1269 points,  4 beta functions with: 
                l(1) =   0
                l(2) =   0
                l(3) =   1
                l(4) =   1
     Q(r) pseudized with 0 coefficients 


     PseudoPot. # 4 for N  read from file:
     /data/home/btx156/espresso/pseudo/N.pbe-rrkjus.UPF
     MD5 check sum: 0c3fbe5807a93f9ba59d5a7019aa238b
     Pseudo is Ultrasoft, Zval =  5.0
     Generated by new atomic code, or converted to UPF format
     Using radial grid of 1257 points,  4 beta functions with: 
                l(1) =   0
                l(2) =   0
                l(3) =   1
                l(4) =   1
     Q(r) pseudized with 0 coefficients 


     atomic species   valence    mass     pseudopotential
        C              4.00    12.00000     C ( 1.00)
        H              1.00     1.00790     H ( 1.00)
        O              6.00    15.99940     O ( 1.00)
        N              5.00    14.00670     N ( 1.00)

      4 Sym. Ops., with inversion, found ( 2 have fractional translation)



   Cartesian axes

     site n.     atom                  positions (alat units)
         1           O   tau(   1) = (   0.0995112   1.4779845   0.1358347  )
         2           C   tau(   2) = (   0.0217394   1.4531710   0.6904990  )
         3           O   tau(   3) = (  -0.0949290   1.1538564   0.6545081  )
         4           C   tau(   4) = (  -0.0020736   1.4423007   0.8871247  )
         5           C   tau(   5) = (   0.0674669   1.4608556   0.3152681  )
         6           C   tau(   6) = (  -0.0019659   1.3087564   0.3957585  )
         7           C   tau(   7) = (  -0.0256847   1.3047222   0.5817305  )
         8           O   tau(   8) = (  -0.0683341   1.2992473   0.9523429  )
         9           N   tau(   9) = (   0.0647699   0.0966930   1.3056432  )
        10           C   tau(  10) = (   0.0297404   1.5731883   1.1829357  )
        11           C   tau(  11) = (   0.0892144   0.0047222   0.6012051  )
        12           C   tau(  12) = (   0.0498209   1.5877723   1.0007002  )
        13           C   tau(  13) = (   0.1118197   0.0109337   0.4189508  )
        14           C   tau(  14) = (   0.1286565   0.2738602   1.2540867  )
        15           C   tau(  15) = (   0.0443258   0.0604651   1.4961288  )
        16           C   tau(  16) = (   0.0632429   1.3292799   0.0224665  )
        17           H   tau(  17) = (   0.1412706   1.2310667   0.0537877  )
        18           H   tau(  18) = (  -0.2902661   1.3629777   1.6288328  )
        19           H   tau(  19) = (   0.9401233   1.2928608   0.0373576  )
        20           H   tau(  20) = (  -0.0296731   1.2091347   0.3268737  )
        21           H   tau(  21) = (  -0.0128632   1.4639929   1.2296663  )
        22           H   tau(  22) = (   0.0976382   0.0947715   0.9498357  )
        23           H   tau(  23) = (   0.1645962   0.1130208   0.3580037  )
        24           H   tau(  24) = (   0.1213180   0.1122209   0.6738090  )
        25           H   tau(  25) = (  -0.0311529   0.1424770   1.5501414  )
        26           H   tau(  26) = (   0.0505979   0.3284976   1.1674050  )
        27           H   tau(  27) = (   0.1462796   0.3433859   1.3585140  )
        28           H   tau(  28) = (   0.0008119   1.5400345   1.5133022  )
        29           H   tau(  29) = (   0.2456898   0.2635028   1.1947311  )
        30           H   tau(  30) = (   0.1565764   0.0794024   1.5560216  )
        31           H   tau(  31) = (  -0.0982684   1.1878437   0.7782700  )
        32           O   tau(  32) = (   0.2135244   0.6775510   0.7289109  )
        33           O   tau(  33) = (   0.5265599   0.1228826   1.5936552  )
        34           O   tau(  34) = (   0.4125468   0.9233162   1.0005790  )
        35           C   tau(  35) = (   0.2912962   0.6527375   0.1742466  )
        36           C   tau(  36) = (   0.6043317   0.1476961   1.0389909  )
        37           C   tau(  37) = (   0.3347750   0.9481297   1.5552433  )
        38           O   tau(  38) = (   0.4079646   0.3534228   0.2102362  )
        39           O   tau(  39) = (   0.7210002   0.4470107   1.0749805  )
        40           O   tau(  40) = (   0.2181065   1.2474443   1.5192524  )
        41           C   tau(  41) = (  -0.0588196   0.6418671   1.7071096  )
        42           C   tau(  42) = (   0.6281448   0.1585665   0.8423653  )
        43           C   tau(  43) = (   0.6848908   0.9590001   0.0223790  )
        44           C   tau(  44) = (   0.2455686   0.6604220   0.5494762  )
        45           C   tau(  45) = (   0.5586042   0.1400116   1.4142205  )
        46           C   tau(  46) = (   0.3805025   0.9404452   1.1800124  )
        47           C   tau(  47) = (   0.3150015   0.5083228   0.4689858  )
        48           C   tau(  48) = (   0.6280371   0.2921108   1.3337301  )
        49           C   tau(  49) = (   0.3110697   1.0925444   1.2605028  )
        50           C   tau(  50) = (   0.3387203   0.5042886   0.2830138  )
        51           C   tau(  51) = (   0.6517559   0.2961449   1.1477581  )
        52           C   tau(  52) = (   0.2873509   1.0965785   1.4464748  )
        53           O   tau(  53) = (   0.0074408   0.4988137   1.6418900  )
        54           O   tau(  54) = (   0.6944052   0.3016199   0.7771457  )
        55           O   tau(  55) = (   0.6186303   1.1020534   0.0875986  )
        56           N   tau(  56) = (  -0.1256632   0.8971265   1.2885897  )
        57           N   tau(  57) = (   0.5613013   1.5041742   0.4238454  )
        58           N   tau(  58) = (   0.7517343   0.7037406   0.4408989  )
        59           C   tau(  59) = (  -0.0906337   0.7727547   1.4112972  )
        60           C   tau(  60) = (   0.5963308   0.0276789   0.5465529  )
        61           C   tau(  61) = (   0.7167048   0.8281125   0.3181914  )
        62           C   tau(  62) = (   0.2238211   0.8051558   0.2635392  )
        63           C   tau(  63) = (   0.5368567   1.5961449   1.1282835  )
        64           C   tau(  64) = (   0.4022500   0.7957114   1.4659494  )
        65           C   tau(  65) = (  -0.1107142   0.7873388   1.5935341  )
        66           C   tau(  66) = (   0.5762502   0.0130948   0.7287898  )
        67           C   tau(  67) = (   0.7367853   0.8135284   0.1359545  )
        68           C   tau(  68) = (   0.2012159   0.8113672   0.4457935  )
        69           C   tau(  69) = (   0.5142515   1.5899335   1.3105378  )
        70           C   tau(  70) = (   0.4248553   0.7894999   1.2836964  )
        71           C   tau(  71) = (  -0.1895497   1.0742938   1.3401462  )
        72           C   tau(  72) = (   0.4974147   1.3270070   0.4754019  )
        73           C   tau(  73) = (   0.8156209   0.5265734   0.3893424  )
        74           C   tau(  74) = (  -0.1052191   0.8608987   1.0981041  )
        75           C   tau(  75) = (   0.5817453   1.5404021   0.2333598  )
        76           C   tau(  76) = (   0.7312902   0.7399685   0.6313845  )
        77           C   tau(  77) = (   0.2497926   0.5288463   0.8422778  )
        78           C   tau(  78) = (   0.5628282   0.2715873   1.7070234  )
        79           C   tau(  79) = (   0.3762785   1.0720208   0.8872108  )
        80           H   tau(  80) = (   0.1717650   0.4306331   0.8109579  )
        81           H   tau(  81) = (   0.4848006   0.3698004   1.6757022  )
        82           H   tau(  82) = (   0.4543061   1.1702340   0.9185320  )
        83           H   tau(  83) = (   0.2293728   0.5625441   0.9654001  )
        84           H   tau(  84) = (   0.9163372   0.2378895   0.1006558  )
        85           H   tau(  85) = (   0.3966984   1.0383231   0.7640885  )
        86           H   tau(  86) = (   0.3729122   0.4924272   0.8273880  )
        87           H   tau(  87) = (  -0.3140522   0.3080064   1.6921323  )
        88           H   tau(  88) = (   0.2531589   1.1084399   0.9021019  )
        89           H   tau(  89) = (   0.3427086   0.4087012   0.5378706  )
        90           H   tau(  90) = (   0.6557442   0.3917324   1.4026149  )
        91           H   tau(  91) = (   0.2833625   1.1921660   1.1916180  )
        92           H   tau(  92) = (  -0.0480301   0.6635594   1.3645666  )
        93           H   tau(  93) = (   0.6389344   0.1368742   0.4998223  )
        94           H   tau(  94) = (   0.6741012   0.9373078   0.3649220  )
        95           H   tau(  95) = (  -0.1585315   0.8952051   1.6443985  )
        96           H   tau(  96) = (   0.5284329   1.5060957   0.7796542  )
        97           H   tau(  97) = (   0.7846026   0.7056621   0.0850914  )
        98           H   tau(  98) = (   0.1484394   0.9134543   0.5067406  )
        99           H   tau(  99) = (   0.4614750   1.4878464   1.3714849  )
       100           H   tau( 100) = (   0.4776318   0.6874128   1.2227493  )
       101           H   tau( 101) = (   0.1917176   0.9126545   0.1909353  )
       102           H   tau( 102) = (   0.5047545   1.4886462   1.0556796  )
       103           H   tau( 103) = (   0.4343535   0.6882126   1.5385533  )
       104           H   tau( 104) = (  -0.0297404   0.9429106   1.0440929  )
       105           H   tau( 105) = (   0.6572240   1.4583901   0.1793486  )
       106           H   tau( 106) = (   0.6558115   0.6579565   0.6853971  )
       107           H   tau( 107) = (  -0.1114911   1.1289311   1.4268279  )
       108           H   tau( 108) = (   0.5754733   1.2723696   0.5620836  )
       109           H   tau( 109) = (   0.7375623   0.4719360   0.3026607  )
       110           H   tau( 110) = (  -0.2071715   1.1438195   1.2357203  )
       111           H   tau( 111) = (   0.4797929   1.2574812   0.3709760  )
       112           H   tau( 112) = (   0.8332440   0.4570476   0.4937697  )
       113           H   tau( 113) = (  -0.0617052   0.7396009   1.0809307  )
       114           H   tau( 114) = (   0.6252592   0.0608327   0.2161864  )
       115           H   tau( 115) = (   0.6877764   0.8612663   0.6485579  )
       116           H   tau( 116) = (   0.6934169   1.0639364   1.3995018  )
       117           H   tau( 117) = (   0.3803813   1.3373643   0.5347575  )
       118           H   tau( 118) = (  -0.0673458   0.5369308   0.3299868  )
       119           H   tau( 119) = (  -0.2174696   0.8798360   1.0382126  )
       120           H   tau( 120) = (   0.4694948   1.5214647   0.1734683  )
       121           H   tau( 121) = (   0.8435408   0.7210312   0.6912773  )
       122           H   tau( 122) = (   0.4113040   0.3874101   0.0864743  )
       123           H   tau( 123) = (   0.7243395   0.4130235   0.9512186  )
       124           H   tau( 124) = (   0.2147672   1.2134570   1.6430143  )

     number of k points=     4
                       cart. coord. in units 2pi/alat
        k(    1) = (   0.0000000   0.0000000   0.0000000), wk =   0.5000000
        k(    2) = (   0.0000000   0.0000000  -0.2891028), wk =   0.5000000
        k(    3) = (   0.0000000  -0.3123307   0.0000000), wk =   0.5000000
        k(    4) = (   0.0000000  -0.3123307  -0.2891028), wk =   0.5000000

     Dense  grid:   169855 G-vectors     FFT dimensions: (  50,  80,  90)

     Estimated max dynamical RAM per process >    1045.97MB

     Initial potential from superposition of free atoms

     starting charge  338.22517, renormalised to  344.00000
     Starting wfc are  316 randomized atomic wfcs

     total cpu time spent up to now is       32.2 secs

     per-process dynamical memory:   626.1 Mb

     Self-consistent Calculation

     iteration #  1     ecut=    30.00 Ry     beta=0.70
     Davidson diagonalization with overlap
     ethr =  1.00E-02,  avg # of iterations =  2.0

     total cpu time spent up to now is       95.9 secs

     total energy              =   -1069.01335961 Ry
     Harris-Foulkes estimate   =   -1091.25844956 Ry
     estimated scf accuracy    <      32.80422384 Ry

     iteration #  2     ecut=    30.00 Ry     beta=0.70
     Davidson diagonalization with overlap
     ethr =  9.54E-03,  avg # of iterations =  4.0

     total cpu time spent up to now is      155.1 secs

     total energy              =   -1073.11929461 Ry
     Harris-Foulkes estimate   =   -1082.46851811 Ry
     estimated scf accuracy    <      16.46437633 Ry

     iteration #  3     ecut=    30.00 Ry     beta=0.70
     Davidson diagonalization with overlap
     ethr =  4.79E-03,  avg # of iterations =  4.0

     total cpu time spent up to now is      213.0 secs

     total energy              =   -1076.94695444 Ry
     Harris-Foulkes estimate   =   -1079.26091177 Ry
     estimated scf accuracy    <       4.86488830 Ry

     iteration #  4     ecut=    30.00 Ry     beta=0.70
     Davidson diagonalization with overlap
     ethr =  1.41E-03,  avg # of iterations =  4.0

     total cpu time spent up to now is      266.3 secs

     total energy              =   -1077.92968387 Ry
     Harris-Foulkes estimate   =   -1078.32486820 Ry
     estimated scf accuracy    <       0.87196681 Ry

     iteration #  5     ecut=    30.00 Ry     beta=0.70
     Davidson diagonalization with overlap
     ethr =  2.53E-04,  avg # of iterations =  4.0

     total cpu time spent up to now is      319.3 secs

     total energy              =   -1078.10554931 Ry
     Harris-Foulkes estimate   =   -1078.14106255 Ry
     estimated scf accuracy    <       0.07033735 Ry

     iteration #  6     ecut=    30.00 Ry     beta=0.70
     Davidson diagonalization with overlap
     ethr =  2.04E-05,  avg # of iterations =  4.0

     total cpu time spent up to now is      375.4 secs

     total energy              =   -1078.12262017 Ry
     Harris-Foulkes estimate   =   -1078.12662453 Ry
     estimated scf accuracy    <       0.00811681 Ry

     iteration #  7     ecut=    30.00 Ry     beta=0.70
     Davidson diagonalization with overlap
     ethr =  2.36E-06,  avg # of iterations =  4.0

     total cpu time spent up to now is      431.5 secs

     total energy              =   -1078.12442020 Ry
     Harris-Foulkes estimate   =   -1078.12537218 Ry
     estimated scf accuracy    <       0.00206198 Ry

     iteration #  8     ecut=    30.00 Ry     beta=0.70
     Davidson diagonalization with overlap
     ethr =  5.99E-07,  avg # of iterations =  4.0

     total cpu time spent up to now is      485.8 secs

     total energy              =   -1078.12485888 Ry
     Harris-Foulkes estimate   =   -1078.12502124 Ry
     estimated scf accuracy    <       0.00036381 Ry

     iteration #  9     ecut=    30.00 Ry     beta=0.70
     Davidson diagonalization with overlap
     ethr =  1.06E-07,  avg # of iterations =  4.0

     total cpu time spent up to now is      537.2 secs

     total energy              =   -1078.12494034 Ry
     Harris-Foulkes estimate   =   -1078.12496218 Ry
     estimated scf accuracy    <       0.00004837 Ry

     iteration # 10     ecut=    30.00 Ry     beta=0.70
     Davidson diagonalization with overlap
     ethr =  1.41E-08,  avg # of iterations =  4.0

     total cpu time spent up to now is      590.9 secs

     total energy              =   -1078.12495059 Ry
     Harris-Foulkes estimate   =   -1078.12495288 Ry
     estimated scf accuracy    <       0.00000486 Ry

     iteration # 11     ecut=    30.00 Ry     beta=0.70
     Davidson diagonalization with overlap
     ethr =  1.41E-09,  avg # of iterations =  4.0

     total cpu time spent up to now is      647.6 secs

     total energy              =   -1078.12495178 Ry
     Harris-Foulkes estimate   =   -1078.12495197 Ry
     estimated scf accuracy    <       0.00000049 Ry

     iteration # 12     ecut=    30.00 Ry     beta=0.70
     Davidson diagonalization with overlap
     ethr =  1.42E-10,  avg # of iterations =  4.0

     total cpu time spent up to now is      704.7 secs

     End of self-consistent calculation

          k = 0.0000 0.0000 0.0000 ( 21265 PWs)   bands (ev):

   -20.8686 -20.8659 -20.8245 -20.8234 -20.6907 -20.6892 -20.6876 -20.6869
   -19.0640 -19.0636 -19.0586 -19.0537 -18.2206 -18.2197 -18.2192 -18.2163
   -15.2189 -15.2155 -15.2130 -15.2094 -13.5828 -13.5636 -13.5105 -13.4884
   -13.1512 -13.1479 -13.0923 -13.0912 -12.8809 -12.8774 -12.8731 -12.8419
   -12.7642 -12.7485 -12.7246 -12.6985 -11.9846 -11.9466 -11.9201 -11.9136
   -11.3616 -11.3108 -11.3046 -11.2831  -9.5500  -9.5500  -9.5475  -9.5098
    -9.3691  -9.3608  -9.3549  -9.3212  -8.8977  -8.8695  -8.8085  -8.7690
    -8.0661  -8.0541  -7.9976  -7.9553  -7.4865  -7.4695  -7.4522  -7.3669
    -7.2249  -7.2081  -7.1979  -7.1953  -6.7222  -6.6786  -6.6701  -6.6510
    -6.2426  -6.1939  -6.1880  -6.1816  -6.1742  -6.1615  -6.0829  -6.0735
    -6.0078  -5.9699  -5.9036  -5.8986  -5.8069  -5.7621  -5.7247  -5.6945
    -5.4029  -5.3702  -5.3375  -5.2782  -5.0709  -5.0656  -5.0413  -5.0269
    -4.7862  -4.7285  -4.7173  -4.6883  -4.6577  -4.5914  -4.5669  -4.4957
    -4.4920  -4.4719  -4.2401  -4.2263  -4.1932  -4.1740  -4.1473  -4.1201
    -4.0552  -4.0540  -4.0462  -4.0176  -3.9729  -3.9695  -3.8735  -3.8484
    -3.8419  -3.8063  -3.8054  -3.7392  -3.4992  -3.4561  -3.4371  -3.3892
    -3.2652  -3.2601  -3.1606  -3.0936  -3.0758  -3.0652  -3.0493  -3.0158
    -2.8417  -2.7599  -2.7255  -2.7253  -2.2836  -2.2825  -2.2452  -2.2424
    -2.0078  -1.9556  -1.9512  -1.8935  -1.8572  -1.8024  -1.6417  -1.6359
    -1.3003  -1.2811  -1.2284  -1.1478   0.1609   0.1813   0.1886   0.2300
     0.3968   0.4151   0.4450   0.4555   0.5341   0.5673   0.6799   0.7635
     1.1684   1.1941   1.3558   1.4019

          k = 0.0000 0.0000-0.2891 ( 21228 PWs)   bands (ev):

   -20.8672 -20.8671 -20.8241 -20.8240 -20.6888 -20.6887 -20.6884 -20.6883
   -19.0640 -19.0639 -19.0560 -19.0559 -18.2200 -18.2200 -18.2179 -18.2179
   -15.2176 -15.2175 -15.2106 -15.2105 -13.5730 -13.5730 -13.5136 -13.5135
   -13.1313 -13.1313 -13.0907 -13.0907 -12.8831 -12.8830 -12.8475 -12.8475
   -12.7610 -12.7610 -12.7107 -12.7107 -11.9539 -11.9538 -11.9445 -11.9444
   -11.3366 -11.3366 -11.2890 -11.2890  -9.5596  -9.5595  -9.5133  -9.5132
    -9.3584  -9.3584  -9.3253  -9.3253  -8.8794  -8.8794  -8.8157  -8.8157
    -8.0345  -8.0345  -8.0066  -8.0066  -7.5057  -7.5057  -7.4281  -7.4280
    -7.2176  -7.2176  -7.1532  -7.1532  -6.6742  -6.6742  -6.6278  -6.6278
    -6.2882  -6.2881  -6.2119  -6.2119  -6.1123  -6.1123  -6.0303  -6.0303
    -6.0154  -6.0154  -5.9390  -5.9390  -5.7626  -5.7625  -5.7232  -5.7231
    -5.4114  -5.4114  -5.3410  -5.3410  -5.0880  -5.0880  -4.9587  -4.9587
    -4.7464  -4.7464  -4.6712  -4.6711  -4.6160  -4.6159  -4.5436  -4.5435
    -4.4361  -4.4361  -4.2621  -4.2621  -4.2113  -4.2113  -4.1582  -4.1582
    -4.0721  -4.0720  -4.0348  -4.0347  -3.9936  -3.9936  -3.8741  -3.8741
    -3.8075  -3.8075  -3.7690  -3.7690  -3.4448  -3.4448  -3.4106  -3.4106
    -3.2627  -3.2626  -3.1128  -3.1128  -3.0746  -3.0745  -3.0303  -3.0303
    -2.8194  -2.8194  -2.7184  -2.7184  -2.2757  -2.2757  -2.2610  -2.2610
    -1.9862  -1.9861  -1.9198  -1.9197  -1.8313  -1.8313  -1.6315  -1.6314
    -1.2490  -1.2489  -1.2211  -1.2210   0.1644   0.1645   0.2132   0.2132
     0.4213   0.4214   0.4350   0.4350   0.5734   0.5734   0.6870   0.6870
     1.1715   1.1716   1.4021   1.4022

          k = 0.0000-0.3123 0.0000 ( 21240 PWs)   bands (ev):

   -20.8673 -20.8672 -20.8240 -20.8238 -20.6901 -20.6900 -20.6872 -20.6871
   -19.0642 -19.0640 -19.0559 -19.0557 -18.2203 -18.2203 -18.2176 -18.2176
   -15.2160 -15.2159 -15.2125 -15.2125 -13.5733 -13.5732 -13.4996 -13.4995
   -13.1508 -13.1508 -13.0898 -13.0898 -12.8804 -12.8803 -12.8571 -12.8570
   -12.7446 -12.7445 -12.7246 -12.7246 -11.9527 -11.9527 -11.9290 -11.9290
   -11.3360 -11.3360 -11.2939 -11.2939  -9.5541  -9.5541  -9.5271  -9.5271
    -9.3697  -9.3697  -9.3288  -9.3287  -8.8549  -8.8549  -8.8187  -8.8186
    -8.0270  -8.0270  -8.0121  -8.0121  -7.4730  -7.4730  -7.4161  -7.4161
    -7.2227  -7.2227  -7.1893  -7.1892  -6.7052  -6.7052  -6.6611  -6.6611
    -6.2278  -6.2277  -6.1802  -6.1801  -6.1596  -6.1595  -6.0970  -6.0970
    -5.9798  -5.9797  -5.8786  -5.8786  -5.7989  -5.7988  -5.7043  -5.7042
    -5.3548  -5.3548  -5.3359  -5.3359  -5.0678  -5.0678  -5.0323  -5.0323
    -4.7839  -4.7839  -4.7280  -4.7280  -4.5819  -4.5818  -4.4892  -4.4891
    -4.4141  -4.4140  -4.3503  -4.3503  -4.1922  -4.1921  -4.1527  -4.1526
    -4.0655  -4.0655  -4.0188  -4.0187  -3.9204  -3.9204  -3.8625  -3.8625
    -3.8418  -3.8418  -3.7663  -3.7663  -3.4846  -3.4845  -3.4042  -3.4041
    -3.2746  -3.2746  -3.1297  -3.1296  -3.0685  -3.0684  -3.0373  -3.0373
    -2.7890  -2.7890  -2.7213  -2.7213  -2.2722  -2.2722  -2.2517  -2.2517
    -1.9488  -1.9488  -1.9437  -1.9436  -1.8510  -1.8509  -1.6374  -1.6373
    -1.2978  -1.2978  -1.1812  -1.1812   0.1695   0.1695   0.2128   0.2129
     0.4199   0.4199   0.4370   0.4370   0.5472   0.5472   0.7260   0.7260
     1.1788   1.1789   1.3811   1.3812

          k = 0.0000-0.3123-0.2891 ( 21216 PWs)   bands (ev):

   -20.8672 -20.8671 -20.8241 -20.8240 -20.6887 -20.6886 -20.6885 -20.6885
   -19.0640 -19.0638 -19.0561 -19.0559 -18.2194 -18.2193 -18.2186 -18.2185
   -15.2164 -15.2163 -15.2118 -15.2117 -13.5718 -13.5717 -13.5152 -13.5151
   -13.1240 -13.1240 -13.0977 -13.0977 -12.8783 -12.8783 -12.8536 -12.8536
   -12.7360 -12.7359 -12.7358 -12.7357 -11.9504 -11.9504 -11.9466 -11.9465
   -11.3187 -11.3187 -11.3075 -11.3075  -9.5356  -9.5356  -9.5328  -9.5328
    -9.3601  -9.3601  -9.3282  -9.3281  -8.8506  -8.8505  -8.8431  -8.8431
    -8.0309  -8.0308  -8.0073  -8.0073  -7.4867  -7.4867  -7.4603  -7.4603
    -7.1838  -7.1838  -7.1813  -7.1813  -6.6664  -6.6664  -6.6361  -6.6361
    -6.2460  -6.2460  -6.2459  -6.2459  -6.1600  -6.1599  -6.0418  -6.0418
    -5.9757  -5.9757  -5.9213  -5.9213  -5.7713  -5.7713  -5.7121  -5.7120
    -5.3794  -5.3794  -5.3776  -5.3776  -5.0333  -5.0333  -5.0253  -5.0252
    -4.7283  -4.7283  -4.7182  -4.7182  -4.5575  -4.5575  -4.5419  -4.5419
    -4.3783  -4.3783  -4.3356  -4.3356  -4.2247  -4.2247  -4.1611  -4.1611
    -4.0955  -4.0955  -4.0034  -4.0033  -3.9432  -3.9432  -3.8510  -3.8510
    -3.8277  -3.8277  -3.8246  -3.8246  -3.4271  -3.4271  -3.4163  -3.4163
    -3.2784  -3.2783  -3.1044  -3.1044  -3.0673  -3.0672  -3.0463  -3.0463
    -2.8129  -2.8129  -2.7175  -2.7174  -2.2703  -2.2703  -2.2527  -2.2527
    -1.9482  -1.9482  -1.9358  -1.9357  -1.8677  -1.8677  -1.6293  -1.6293
    -1.2429  -1.2429  -1.2277  -1.2277   0.1726   0.1726   0.2068   0.2068
     0.4254   0.4255   0.4327   0.4328   0.5696   0.5696   0.6895   0.6895
     1.1738   1.1738   1.4003   1.4004

     highest occupied level (ev):     1.4022

!    total energy              =   -1078.12495188 Ry
     Harris-Foulkes estimate   =   -1078.12495192 Ry
     estimated scf accuracy    <       0.00000005 Ry

     The total energy is the sum of the following terms:

     one-electron contribution =    -946.48673319 Ry
     hartree contribution      =     591.81341030 Ry
     xc contribution           =    -321.91400952 Ry
     ewald contribution        =    -401.02027016 Ry
     Dispersion Correction     =      -0.51734932 Ry

     convergence has been achieved in  12 iterations

     Forces acting on atoms (cartesian axes, Ry/au):

     atom    1 type  3   force =     0.01718838    0.03039852    0.01137885
     atom    2 type  1   force =     0.00061794    0.00237679    0.00190186
     atom    3 type  3   force =     0.00450980   -0.03338814   -0.11086267
     atom    4 type  1   force =     0.01130147    0.02479030   -0.00450566
     atom    5 type  1   force =     0.00710231    0.01148810   -0.00726484
     atom    6 type  1   force =     0.07680951    0.25854990    0.17195671
     atom    7 type  1   force =     0.00216537    0.00362667   -0.01558617
     atom    8 type  3   force =    -0.01835489   -0.03579970    0.01301752
     atom    9 type  4   force =    -0.00271266    0.01104838   -0.01022271
     atom   10 type  1   force =     0.09465494    0.24108278   -0.09584661
     atom   11 type  1   force =    -0.03977951   -0.12393298   -0.06226662
     atom   12 type  1   force =    -0.08444041   -0.19170186    0.07608465
     atom   13 type  1   force =    -0.07941801   -0.16577609    0.08008594
     atom   14 type  1   force =    -0.03582683   -0.24788697    0.00569541
     atom   15 type  1   force =     0.07349665   -0.05169896   -0.27657899
     atom   16 type  1   force =     0.03147449    0.15402034    0.13597066
     atom   17 type  2   force =     0.15811608   -0.19803686    0.06345786
     atom   18 type  2   force =     0.04239261    0.08118115   -0.23505467
     atom   19 type  2   force =    -0.24823217   -0.07403777    0.02635195
     atom   20 type  2   force =    -0.08563536   -0.28866944   -0.18996189
     atom   21 type  2   force =    -0.10775007   -0.27282578    0.11645255
     atom   22 type  2   force =     0.09522150    0.21532169   -0.10555452
     atom   23 type  2   force =     0.09173434    0.18605274   -0.10229268
     atom   24 type  2   force =     0.04237852    0.13370788    0.08942395
     atom   25 type  2   force =    -0.24700625    0.24813362    0.14648412
     atom   26 type  2   force =    -0.17575926    0.11463415   -0.16393177
     atom   27 type  2   force =     0.02617592    0.17400433    0.24972616
     atom   28 type  2   force =    -0.07350446   -0.22075566    0.03134388
     atom   29 type  2   force =     0.19646747   -0.02879225   -0.09446258
     atom   30 type  2   force =     0.24653057    0.02020262    0.11704594
     atom   31 type  2   force =    -0.01243539    0.00654496    0.13229014
     atom   32 type  3   force =    -0.01718838    0.03039852   -0.01137885
     atom   33 type  3   force =    -0.01718838   -0.03039852   -0.01137885
     atom   34 type  3   force =     0.01718838   -0.03039852    0.01137885
     atom   35 type  1   force =    -0.00061794    0.00237679   -0.00190186
     atom   36 type  1   force =    -0.00061794   -0.00237679   -0.00190186
     atom   37 type  1   force =     0.00061794   -0.00237679    0.00190186
     atom   38 type  3   force =    -0.00450980   -0.03338814    0.11086267
     atom   39 type  3   force =    -0.00450980    0.03338814    0.11086267
     atom   40 type  3   force =     0.00450980    0.03338814   -0.11086267
     atom   41 type  1   force =    -0.01130147    0.02479030    0.00450566
     atom   42 type  1   force =    -0.01130147   -0.02479030    0.00450566
     atom   43 type  1   force =     0.01130147   -0.02479030   -0.00450566
     atom   44 type  1   force =    -0.00710231    0.01148810    0.00726484
     atom   45 type  1   force =    -0.00710231   -0.01148810    0.00726484
     atom   46 type  1   force =     0.00710231   -0.01148810   -0.00726484
     atom   47 type  1   force =    -0.07680951    0.25854990   -0.17195671
     atom   48 type  1   force =    -0.07680951   -0.25854990   -0.17195671
     atom   49 type  1   force =     0.07680951   -0.25854990    0.17195671
     atom   50 type  1   force =    -0.00216537    0.00362667    0.01558617
     atom   51 type  1   force =    -0.00216537   -0.00362667    0.01558617
     atom   52 type  1   force =     0.00216537   -0.00362667   -0.01558617
     atom   53 type  3   force =     0.01835489   -0.03579970   -0.01301752
     atom   54 type  3   force =     0.01835489    0.03579970   -0.01301752
     atom   55 type  3   force =    -0.01835489    0.03579970    0.01301752
     atom   56 type  4   force =     0.00271266    0.01104838    0.01022271
     atom   57 type  4   force =     0.00271266   -0.01104838    0.01022271
     atom   58 type  4   force =    -0.00271266   -0.01104838   -0.01022271
     atom   59 type  1   force =    -0.09465494    0.24108278    0.09584661
     atom   60 type  1   force =    -0.09465494   -0.24108278    0.09584661
     atom   61 type  1   force =     0.09465494   -0.24108278   -0.09584661
     atom   62 type  1   force =     0.03977951   -0.12393298    0.06226662
     atom   63 type  1   force =     0.03977951    0.12393298    0.06226662
     atom   64 type  1   force =    -0.03977951    0.12393298   -0.06226662
     atom   65 type  1   force =     0.08444041   -0.19170186   -0.07608465
     atom   66 type  1   force =     0.08444041    0.19170186   -0.07608465
     atom   67 type  1   force =    -0.08444041    0.19170186    0.07608465
     atom   68 type  1   force =     0.07941801   -0.16577609   -0.08008594
     atom   69 type  1   force =     0.07941801    0.16577609   -0.08008594
     atom   70 type  1   force =    -0.07941801    0.16577609    0.08008594
     atom   71 type  1   force =     0.03582683   -0.24788697   -0.00569541
     atom   72 type  1   force =     0.03582683    0.24788697   -0.00569541
     atom   73 type  1   force =    -0.03582683    0.24788697    0.00569541
     atom   74 type  1   force =    -0.07349665   -0.05169896    0.27657899
     atom   75 type  1   force =    -0.07349665    0.05169896    0.27657899
     atom   76 type  1   force =     0.07349665    0.05169896   -0.27657899
     atom   77 type  1   force =    -0.03147449    0.15402034   -0.13597066
     atom   78 type  1   force =    -0.03147449   -0.15402034   -0.13597066
     atom   79 type  1   force =     0.03147449   -0.15402034    0.13597066
     atom   80 type  2   force =    -0.15811608   -0.19803686   -0.06345786
     atom   81 type  2   force =    -0.15811608    0.19803686   -0.06345786
     atom   82 type  2   force =     0.15811608    0.19803686    0.06345786
     atom   83 type  2   force =    -0.04239261    0.08118115    0.23505467
     atom   84 type  2   force =    -0.04239261   -0.08118115    0.23505467
     atom   85 type  2   force =     0.04239261   -0.08118115   -0.23505467
     atom   86 type  2   force =     0.24823217   -0.07403777   -0.02635195
     atom   87 type  2   force =     0.24823217    0.07403777   -0.02635195
     atom   88 type  2   force =    -0.24823217    0.07403777    0.02635195
     atom   89 type  2   force =     0.08563536   -0.28866944    0.18996189
     atom   90 type  2   force =     0.08563536    0.28866944    0.18996189
     atom   91 type  2   force =    -0.08563536    0.28866944   -0.18996189
     atom   92 type  2   force =     0.10775007   -0.27282578   -0.11645255
     atom   93 type  2   force =     0.10775007    0.27282578   -0.11645255
     atom   94 type  2   force =    -0.10775007    0.27282578    0.11645255
     atom   95 type  2   force =    -0.09522150    0.21532169    0.10555452
     atom   96 type  2   force =    -0.09522150   -0.21532169    0.10555452
     atom   97 type  2   force =     0.09522150   -0.21532169   -0.10555452
     atom   98 type  2   force =    -0.09173434    0.18605274    0.10229268
     atom   99 type  2   force =    -0.09173434   -0.18605274    0.10229268
     atom  100 type  2   force =     0.09173434   -0.18605274   -0.10229268
     atom  101 type  2   force =    -0.04237852    0.13370788   -0.08942395
     atom  102 type  2   force =    -0.04237852   -0.13370788   -0.08942395
     atom  103 type  2   force =     0.04237852   -0.13370788    0.08942395
     atom  104 type  2   force =     0.24700625    0.24813362   -0.14648412
     atom  105 type  2   force =     0.24700625   -0.24813362   -0.14648412
     atom  106 type  2   force =    -0.24700625   -0.24813362    0.14648412
     atom  107 type  2   force =     0.17575926    0.11463415    0.16393177
     atom  108 type  2   force =     0.17575926   -0.11463415    0.16393177
     atom  109 type  2   force =    -0.17575926   -0.11463415   -0.16393177
     atom  110 type  2   force =    -0.02617592    0.17400433   -0.24972616
     atom  111 type  2   force =    -0.02617592   -0.17400433   -0.24972616
     atom  112 type  2   force =     0.02617592   -0.17400433    0.24972616
     atom  113 type  2   force =     0.07350446   -0.22075566   -0.03134388
     atom  114 type  2   force =     0.07350446    0.22075566   -0.03134388
     atom  115 type  2   force =    -0.07350446    0.22075566    0.03134388
     atom  116 type  2   force =    -0.19646747   -0.02879225    0.09446258
     atom  117 type  2   force =    -0.19646747    0.02879225    0.09446258
     atom  118 type  2   force =     0.19646747    0.02879225   -0.09446258
     atom  119 type  2   force =    -0.24653057    0.02020262   -0.11704594
     atom  120 type  2   force =    -0.24653057   -0.02020262   -0.11704594
     atom  121 type  2   force =     0.24653057   -0.02020262    0.11704594
     atom  122 type  2   force =     0.01243539    0.00654496   -0.13229014
     atom  123 type  2   force =     0.01243539   -0.00654496   -0.13229014
     atom  124 type  2   force =    -0.01243539   -0.00654496    0.13229014

     Total force =     2.510753     Total SCF correction =     0.000441

     BFGS Geometry Optimization

     number of scf cycles    =   1
     number of bfgs steps    =   0

     energy   new            =   -1078.1249518850 Ry

     new trust radius        =       0.3795259931 bohr
     new conv_thr            =       0.0000001000 Ry


ATOMIC_POSITIONS (angstrom)
O        0.748125699  10.992486204   1.014811429
C        0.161777002  10.793377742   5.129066423
O       -0.702613515   8.551561759   4.802104001
C       -0.009419517  10.724508462   6.585935709
C        0.504808382  10.855269238   2.337525612
C        0.026045841   9.856428717   3.030135569
C       -0.189604136   9.691569151   4.312032155
O       -0.517202987   9.630045613   7.079558577
N        0.479584521   0.723946552   9.691080376
C        0.270959236  11.811015512   8.734470158
C        0.641509590  -0.030512507   4.431959926
C        0.325316059  11.690305746   7.472062264
C        0.788413800  -0.006524929   3.153759652
C        0.936521257   1.902673866   9.316613879
C        0.368082754   0.421692089  10.964790701
C        0.486335580   9.953534056   0.238802573
H        1.132831426   9.037843406   0.433040452
H       -2.133256795  10.165249214  11.972304423
H        6.850561194   9.562380899   0.291384851
H       -0.265686283   8.827002709   2.327036495
H       -0.152548880  10.728116816   9.193864036
H        0.775509047   0.817773331   6.998192953
H        1.270933721   0.937814869   2.604619045
H        0.923405748   0.904175162   5.051431117
H       -0.362070078   1.189426658  11.589796058
H        0.282762204   2.500281781   8.583101044
H        1.100211698   2.642269128  10.221289394
H       -0.032866885  11.320401137  11.255276469
H        1.928606109   1.941693798   8.822802556
H        1.293288357   0.600380765  11.617888044
H       -0.736380526   8.825103443   5.849904928
O        1.576664301   5.047986204   5.407308571
O        3.901454301   0.896513796  11.829418571
O        3.072915699   6.841013796   7.436921429
C        2.163012998   4.848877742   1.293053577
C        4.487802998   1.095622258   7.715163577
C        2.486567002   7.040122258  11.551176423
O        3.027403515   2.607061759   1.620005999
O        5.352193515   3.337438241   8.042115999
O        1.622176485   9.281938241  11.224214001
C       -0.442810483   4.780008462  12.680404291
C        4.658999517   1.164491538   6.258294291
C        5.092390483   7.108991538   0.163815709
C        1.819981618   4.910769238   4.084584388
C        4.144771618   1.033730762  10.506694388
C        2.829598382   6.978230762   8.759635612
C        2.298744159   3.911928717   3.391974431
C        4.623534159   2.032571283   9.814084431
C        2.350835841   7.977071283   9.452245569
C        2.514394136   3.747069151   2.110077845
C        4.839184136   2.197430849   8.532187845
C        2.135185864   8.141930849  10.734142155
O        0.064972987   3.685545613  12.186771423
O        5.166782987   2.258954387   5.764661423
O        4.584607013   8.203454387   0.657448577
N       -0.931814521   6.668446552   9.575249624
N        4.169995479  11.165053448   3.153139624
N        5.581394521   5.220553448   3.268970376
C       -0.723189236   5.866515512  10.531859842
C        4.378620764   0.077984488   4.109749842
C        5.372769236   6.022484488   2.312360158
C        1.683280410   5.913987493   1.990150074
C        4.008070410  11.919512507   8.412260074
C        2.966299590   5.975012507  10.854069926
C       -0.777546059   5.745805746  11.794277736
C        4.324263941   0.198694254   5.372167736
C        5.427126059   6.143194254   1.049942264
C        1.536376200   5.937975071   3.268350348
C        3.861166200  11.895524929   9.690460348
C        3.113203800   5.951024929   9.575879652
C       -1.388751257   7.847173866   9.949716121
C        3.713058743   9.986326134   3.527606121
C        6.038331257   4.041826134   2.894503879
C       -0.820312754   6.366192089   8.301539299
C        4.281497246  11.467307911   1.879429299
C        5.469892754   5.522807911   4.542680701
C        1.838454420   4.009034056   6.183307427
C        4.163244420   1.935465944  12.605427427
C        2.811125580   7.879965944   6.660912573
H        1.191958574   3.093343406   5.989079548
H        3.516748574   2.851156594  12.411189548
H        3.457621426   8.795656594   6.855150452
H        1.681026795   4.220749214   7.294025577
H        6.782836795   1.723750786   0.871915577
H        2.968553205   7.668250786   5.550194423
H        2.900828806   3.617880899   6.130735149
H       -2.200981194   2.326619101  12.552845149
H        1.748751194   8.271119101   6.713494851
H        2.590476283   2.882502709   4.095073505
H        4.915266283   3.061997291  10.517183505
H        2.059103717   9.006497291   8.749146495
H       -0.299681120   4.783616816  10.072465964
H        4.802128880   1.160883184   3.650355964
H        4.949261120   7.105383184   2.771754036
H       -1.227739047   6.762273331  12.268147047
H        3.874070953  11.071226669   5.846037047
H        5.877319047   5.126726669   0.576082953
H        1.053856279   6.882314869   3.817490955
H        3.378646279  10.951185131  10.239600955
H        3.595723721   5.006685131   9.026739045
H        1.401384252   6.848675162   1.370678883
H        3.726184252  10.984824838   7.792788883
H        3.248195748   5.040324838  11.473541117
H       -0.090159922   7.133926658   7.676543942
H        5.011650078  10.699573342   1.254433942
H        4.739739922   4.755073342   5.167686058
H       -0.734992204   8.444781781  10.683228956
H        4.366817796   9.388718219   4.261118956
H        5.384572204   3.444218219   2.160991044
H       -1.552431698   8.586769128   9.045050606
H        3.549378302   9.246730872   2.622940606
H        6.202021698   3.302230872   3.799179394
H       -0.419363115   5.375901137   8.011053531
H        4.682446885   0.568598863   1.588943531
H        5.068943115   6.513098863   4.833166469
H        5.045763891   7.886193798  10.443527444
H        2.720973891   9.947306202   4.021417444
H       -0.396183891   4.002806202   2.400692556
H       -1.745518357   6.544880765   7.648451956
H        3.356291643  11.288619235   1.226341956
H        6.395098357   5.344119235   5.195778044
H        3.061170526   2.880603443   0.572205072
H        5.385960526   3.063896557   6.994315072
H        1.588409474   9.008396557  12.272014928



     Writing output data file 2hp_3_122.save
     charge density from previous step

     total cpu time spent up to now is      727.3 secs

     per-process dynamical memory:   664.2 Mb

     Self-consistent Calculation

     iteration #  1     ecut=    30.00 Ry     beta=0.70
     Davidson diagonalization with overlap
     ethr =  1.00E-06,  avg # of iterations = 14.0

     total cpu time spent up to now is      901.6 secs

     total energy              =   -1069.47762420 Ry
     Harris-Foulkes estimate   =   -1088.35877065 Ry
     estimated scf accuracy    <      25.88974144 Ry

     iteration #  2     ecut=    30.00 Ry     beta=0.70
     Davidson diagonalization with overlap
     ethr =  7.53E-03,  avg # of iterations =  3.0

     total cpu time spent up to now is      959.5 secs

     total energy              =   -1074.34977152 Ry
     Harris-Foulkes estimate   =   -1082.79164578 Ry
     estimated scf accuracy    <      14.74964169 Ry

     iteration #  3     ecut=    30.00 Ry     beta=0.70
     Davidson diagonalization with overlap
     ethr =  4.29E-03,  avg # of iterations =  4.0

     total cpu time spent up to now is     1016.7 secs

     total energy              =   -1077.88363961 Ry
     Harris-Foulkes estimate   =   -1079.03622776 Ry
     estimated scf accuracy    <       2.31375329 Ry

     iteration #  4     ecut=    30.00 Ry     beta=0.70
     Davidson diagonalization with overlap
     ethr =  6.73E-04,  avg # of iterations =  4.0

     total cpu time spent up to now is     1071.9 secs

     total energy              =   -1078.43365691 Ry
     Harris-Foulkes estimate   =   -1078.67668866 Ry
     estimated scf accuracy    <       0.59097536 Ry

     iteration #  5     ecut=    30.00 Ry     beta=0.70
     Davidson diagonalization with overlap
     ethr =  1.72E-04,  avg # of iterations =  4.0

     total cpu time spent up to now is     1121.8 secs

     total energy              =   -1078.53492325 Ry
     Harris-Foulkes estimate   =   -1078.54859564 Ry
     estimated scf accuracy    <       0.02780109 Ry

     iteration #  6     ecut=    30.00 Ry     beta=0.70
     Davidson diagonalization with overlap
     ethr =  8.08E-06,  avg # of iterations =  4.0

     total cpu time spent up to now is     1181.2 secs

     total energy              =   -1078.54276333 Ry
     Harris-Foulkes estimate   =   -1078.54532270 Ry
     estimated scf accuracy    <       0.00624811 Ry

     iteration #  7     ecut=    30.00 Ry     beta=0.70
     Davidson diagonalization with overlap
     ethr =  1.82E-06,  avg # of iterations =  4.0

     total cpu time spent up to now is     1234.0 secs

     total energy              =   -1078.54394372 Ry
     Harris-Foulkes estimate   =   -1078.54437860 Ry
     estimated scf accuracy    <       0.00087737 Ry

     iteration #  8     ecut=    30.00 Ry     beta=0.70
     Davidson diagonalization with overlap
     ethr =  2.55E-07,  avg # of iterations =  4.0

     total cpu time spent up to now is     1291.0 secs

     total energy              =   -1078.54415534 Ry
     Harris-Foulkes estimate   =   -1078.54426775 Ry
     estimated scf accuracy    <       0.00025793 Ry

     iteration #  9     ecut=    30.00 Ry     beta=0.70
     Davidson diagonalization with overlap
     ethr =  7.50E-08,  avg # of iterations =  3.0

     total cpu time spent up to now is     1342.6 secs

     total energy              =   -1078.54420732 Ry
     Harris-Foulkes estimate   =   -1078.54422262 Ry
     estimated scf accuracy    <       0.00003395 Ry

     iteration # 10     ecut=    30.00 Ry     beta=0.70
     Davidson diagonalization with overlap
     ethr =  9.87E-09,  avg # of iterations =  4.0

     total cpu time spent up to now is     1396.8 secs

     total energy              =   -1078.54421440 Ry
     Harris-Foulkes estimate   =   -1078.54421522 Ry
     estimated scf accuracy    <       0.00000173 Ry

     iteration # 11     ecut=    30.00 Ry     beta=0.70
     Davidson diagonalization with overlap
     ethr =  5.03E-10,  avg # of iterations =  4.0

     total cpu time spent up to now is     1455.1 secs

     total energy              =   -1078.54421488 Ry
     Harris-Foulkes estimate   =   -1078.54421504 Ry
     estimated scf accuracy    <       0.00000039 Ry

     iteration # 12     ecut=    30.00 Ry     beta=0.70
     Davidson diagonalization with overlap
     ethr =  1.13E-10,  avg # of iterations =  3.2

     total cpu time spent up to now is     1508.9 secs

     End of self-consistent calculation

          k = 0.0000 0.0000 0.0000 ( 21265 PWs)   bands (ev):

   -21.7484 -21.7482 -21.7063 -21.7061 -20.0548 -20.0398 -20.0319 -20.0303
   -19.9615 -19.9579 -19.9520 -19.9391 -18.8812 -18.8778 -18.8705 -18.8693
   -16.0145 -16.0132 -16.0114 -16.0107 -13.9431 -13.9238 -13.8889 -13.8689
   -13.2905 -13.2857 -13.2390 -13.2328 -12.5348 -12.5318 -12.5227 -12.5012
   -12.4821 -12.4670 -12.4542 -12.4260 -11.8085 -11.7808 -11.7419 -11.7193
   -11.2136 -11.2119 -11.1731 -11.1709  -9.6720  -9.6640  -9.6595  -9.6528
    -8.7923  -8.7645  -8.7099  -8.6677  -8.6080  -8.5948  -8.5708  -8.5417
    -7.8091  -7.7888  -7.7112  -7.6077  -7.6001  -7.5672  -7.5395  -7.4847
    -7.0042  -6.9428  -6.9369  -6.8244  -6.5360  -6.5226  -6.5166  -6.5019
    -6.3720  -6.3342  -6.3200  -6.3010  -6.0549  -5.9738  -5.9634  -5.9529
    -5.7499  -5.7464  -5.7244  -5.6875  -5.6660  -5.6390  -5.5423  -5.5368
    -5.3048  -5.2664  -5.2599  -5.2061  -4.6280  -4.5776  -4.5245  -4.5068
    -4.4945  -4.4496  -4.4235  -4.4195  -4.4160  -4.2965  -4.2896  -4.2418
    -3.7988  -3.7602  -3.7234  -3.6708  -3.5100  -3.4917  -3.4791  -3.4143
    -3.3408  -3.3372  -3.2833  -3.2624  -3.2426  -3.2174  -3.1813  -3.0765
    -2.9774  -2.9081  -2.9060  -2.8613  -2.7848  -2.7643  -2.6817  -2.6248
    -2.5883  -2.5582  -2.5417  -2.4447  -2.4330  -2.4268  -2.4137  -2.3443
    -2.0371  -2.0163  -1.9589  -1.8882  -1.7484  -1.7206  -1.5968  -1.5136
    -1.4628  -1.4051  -1.3330  -1.2527  -1.2278  -1.2144  -1.1815  -1.1427
    -1.0742  -1.0221  -1.0107  -0.9461   0.0291   0.0360   0.0426   0.0656
     0.1621   0.2072   0.2515   0.2669   0.4518   0.4947   0.5305   0.6941
     0.9339   0.9472   1.0255   1.1059

          k = 0.0000 0.0000-0.2891 ( 21228 PWs)   bands (ev):

   -21.7483 -21.7482 -21.7063 -21.7061 -20.0479 -20.0478 -20.0311 -20.0311
   -19.9594 -19.9594 -19.9453 -19.9452 -18.8797 -18.8796 -18.8698 -18.8697
   -16.0133 -16.0133 -16.0116 -16.0116 -13.9343 -13.9342 -13.8818 -13.8817
   -13.2796 -13.2796 -13.2345 -13.2344 -12.5394 -12.5394 -12.5185 -12.5185
   -12.4715 -12.4715 -12.4379 -12.4379 -11.7869 -11.7869 -11.7487 -11.7487
   -11.2010 -11.2010 -11.1675 -11.1674  -9.6871  -9.6871  -9.6428  -9.6427
    -8.7389  -8.7389  -8.7101  -8.7101  -8.6356  -8.6356  -8.5518  -8.5518
    -7.8004  -7.8003  -7.6473  -7.6473  -7.5989  -7.5988  -7.4909  -7.4908
    -6.9722  -6.9721  -6.8814  -6.8814  -6.5102  -6.5102  -6.4760  -6.4760
    -6.3711  -6.3711  -6.3304  -6.3304  -6.0548  -6.0548  -5.9602  -5.9602
    -5.7428  -5.7428  -5.7168  -5.7167  -5.6630  -5.6629  -5.5307  -5.5306
    -5.2683  -5.2683  -5.2316  -5.2316  -4.5701  -4.5701  -4.5023  -4.5023
    -4.4508  -4.4507  -4.4052  -4.4052  -4.3920  -4.3920  -4.2929  -4.2929
    -3.8209  -3.8209  -3.6307  -3.6306  -3.4856  -3.4856  -3.4433  -3.4433
    -3.3721  -3.3721  -3.3667  -3.3667  -3.1756  -3.1756  -3.1344  -3.1344
    -2.9103  -2.9103  -2.8858  -2.8857  -2.7875  -2.7875  -2.6682  -2.6682
    -2.5773  -2.5773  -2.4970  -2.4970  -2.4329  -2.4329  -2.3128  -2.3128
    -2.0716  -2.0716  -1.9375  -1.9375  -1.7432  -1.7432  -1.4992  -1.4992
    -1.4591  -1.4590  -1.2877  -1.2876  -1.2307  -1.2307  -1.1447  -1.1446
    -1.0446  -1.0446  -0.9866  -0.9866   0.0115   0.0116   0.0686   0.0686
     0.2046   0.2046   0.2362   0.2363   0.4936   0.4936   0.5880   0.5880
     0.9267   0.9267   1.0935   1.0935

          k = 0.0000-0.3123 0.0000 ( 21240 PWs)   bands (ev):

   -21.7483 -21.7482 -21.7063 -21.7061 -20.0480 -20.0479 -20.0309 -20.0309
   -19.9600 -19.9599 -19.9448 -19.9448 -18.8795 -18.8794 -18.8700 -18.8699
   -16.0139 -16.0139 -16.0111 -16.0110 -13.9336 -13.9335 -13.8791 -13.8789
   -13.2881 -13.2881 -13.2356 -13.2356 -12.5367 -12.5367 -12.5117 -12.5117
   -12.4657 -12.4657 -12.4462 -12.4462 -11.7762 -11.7762 -11.7511 -11.7510
   -11.1944 -11.1943 -11.1883 -11.1883  -9.6689  -9.6689  -9.6561  -9.6560
    -8.7432  -8.7431  -8.7187  -8.7186  -8.6075  -8.6074  -8.5559  -8.5559
    -7.7811  -7.7810  -7.7008  -7.7008  -7.5552  -7.5552  -7.5156  -7.5155
    -6.9771  -6.9770  -6.8791  -6.8791  -6.5429  -6.5429  -6.4972  -6.4972
    -6.3664  -6.3664  -6.2973  -6.2972  -6.0189  -6.0189  -5.9550  -5.9550
    -5.7465  -5.7464  -5.7141  -5.7141  -5.6420  -5.6419  -5.5340  -5.5339
    -5.3090  -5.3090  -5.2246  -5.2246  -4.5598  -4.5598  -4.5191  -4.5191
    -4.4984  -4.4984  -4.4293  -4.4292  -4.3388  -4.3388  -4.2918  -4.2918
    -3.7479  -3.7478  -3.6881  -3.6881  -3.5734  -3.5734  -3.4056  -3.4056
    -3.3069  -3.3069  -3.2549  -3.2548  -3.2286  -3.2286  -3.1541  -3.1541
    -2.9840  -2.9840  -2.8624  -2.8624  -2.7709  -2.7708  -2.6440  -2.6440
    -2.5810  -2.5810  -2.5152  -2.5151  -2.4238  -2.4237  -2.3775  -2.3775
    -2.0101  -2.0101  -1.9613  -1.9612  -1.7096  -1.7095  -1.4858  -1.4858
    -1.4630  -1.4629  -1.3114  -1.3114  -1.2436  -1.2436  -1.1450  -1.1450
    -1.0690  -1.0690  -0.9870  -0.9870   0.0279   0.0280   0.0591   0.0591
     0.2104   0.2104   0.2413   0.2413   0.4831   0.4831   0.6112   0.6112
     0.9319   0.9319   1.0719   1.0719

          k = 0.0000-0.3123-0.2891 ( 21216 PWs)   bands (ev):

   -21.7483 -21.7482 -21.7063 -21.7061 -20.0468 -20.0467 -20.0326 -20.0326
   -19.9585 -19.9585 -19.9458 -19.9457 -18.8794 -18.8793 -18.8700 -18.8699
   -16.0132 -16.0131 -16.0118 -16.0117 -13.9330 -13.9328 -13.8834 -13.8832
   -13.2786 -13.2786 -13.2354 -13.2354 -12.5324 -12.5324 -12.5276 -12.5276
   -12.4558 -12.4558 -12.4519 -12.4519 -11.7811 -11.7810 -11.7542 -11.7542
   -11.1919 -11.1919 -11.1771 -11.1771  -9.6648  -9.6648  -9.6631  -9.6631
    -8.7464  -8.7464  -8.7182  -8.7182  -8.6130  -8.6130  -8.5611  -8.5611
    -7.7570  -7.7570  -7.7142  -7.7142  -7.5374  -7.5373  -7.5289  -7.5288
    -6.9661  -6.9661  -6.8843  -6.8843  -6.5059  -6.5059  -6.4913  -6.4913
    -6.3604  -6.3604  -6.3354  -6.3354  -6.0408  -6.0408  -5.9712  -5.9712
    -5.7458  -5.7458  -5.7269  -5.7269  -5.6581  -5.6580  -5.5278  -5.5277
    -5.2575  -5.2575  -5.2474  -5.2474  -4.5480  -4.5480  -4.5230  -4.5229
    -4.4325  -4.4325  -4.4225  -4.4225  -4.3369  -4.3369  -4.3295  -4.3295
    -3.7531  -3.7530  -3.7412  -3.7412  -3.5305  -3.5304  -3.3914  -3.3914
    -3.3709  -3.3709  -3.2596  -3.2596  -3.2170  -3.2170  -3.1563  -3.1563
    -2.9369  -2.9369  -2.9088  -2.9088  -2.7483  -2.7483  -2.6356  -2.6356
    -2.5873  -2.5873  -2.5458  -2.5458  -2.4256  -2.4256  -2.3145  -2.3145
    -2.0499  -2.0499  -1.9597  -1.9597  -1.7088  -1.7088  -1.5115  -1.5114
    -1.4102  -1.4101  -1.3382  -1.3381  -1.2046  -1.2046  -1.1813  -1.1813
    -1.0325  -1.0325  -1.0124  -1.0124   0.0191   0.0191   0.0610   0.0611
     0.2248   0.2249   0.2252   0.2253   0.5010   0.5010   0.5918   0.5918
     0.9301   0.9302   1.0831   1.0831

     highest occupied level (ev):     1.1059

!    total energy              =   -1078.54421496 Ry
     Harris-Foulkes estimate   =   -1078.54421497 Ry
     estimated scf accuracy    <       0.00000003 Ry

     The total energy is the sum of the following terms:

     one-electron contribution =    -945.91025410 Ry
     hartree contribution      =     590.71395850 Ry
     xc contribution           =    -316.75225612 Ry
     ewald contribution        =    -406.06029936 Ry
     Dispersion Correction     =      -0.53536387 Ry

     convergence has been achieved in  12 iterations

     Forces acting on atoms (cartesian axes, Ry/au):

     atom    1 type  3   force =     0.02313883    0.08268021    0.06425522
     atom    2 type  1   force =    -0.02517315   -0.04923150    0.05936335
     atom    3 type  3   force =     0.00073272    0.01256116    0.04043336
     atom    4 type  1   force =    -0.04425398   -0.11259236   -0.02270884
     atom    5 type  1   force =     0.03025533    0.06347714   -0.04290455
     atom    6 type  1   force =    -0.08834637   -0.31699279   -0.24428479
     atom    7 type  1   force =    -0.01662900    0.00267686    0.14177059
     atom    8 type  3   force =    -0.00638987   -0.01652621   -0.03976178
     atom    9 type  4   force =     0.00079151   -0.01246883   -0.08209560
     atom   10 type  1   force =    -0.14294551   -0.34709205    0.18238960
     atom   11 type  1   force =     0.02587785    0.13096911    0.21432124
     atom   12 type  1   force =     0.12334622    0.26643757   -0.21982957
     atom   13 type  1   force =     0.12119776    0.22626453   -0.20999013
     atom   14 type  1   force =     0.09610741    0.33929509   -0.01704445
     atom   15 type  1   force =    -0.06143982    0.02513640    0.34148130
     atom   16 type  1   force =    -0.03737294   -0.16586457   -0.14044693
     atom   17 type  2   force =    -0.01067378    0.02684669    0.00466019
     atom   18 type  2   force =    -0.00102306    0.01325352    0.04875790
     atom   19 type  2   force =     0.02214170    0.01803500    0.00647389
     atom   20 type  2   force =     0.02398687    0.09911465    0.07765266
     atom   21 type  2   force =     0.03495227    0.09113801   -0.03355036
     atom   22 type  2   force =    -0.03344893   -0.07838772    0.01629891
     atom   23 type  2   force =    -0.03708105   -0.06463756    0.04928010
     atom   24 type  2   force =    -0.01364231   -0.05243428   -0.04064031
     atom   25 type  2   force =     0.04420603   -0.05140441   -0.06385411
     atom   26 type  2   force =     0.01089536   -0.03410707    0.03409286
     atom   27 type  2   force =    -0.02181535   -0.05100065   -0.05398091
     atom   28 type  2   force =     0.01248349    0.00697256   -0.03057975
     atom   29 type  2   force =    -0.00018084   -0.02598884    0.00238392
     atom   30 type  2   force =    -0.01826978   -0.01683452   -0.04443253
     atom   31 type  2   force =    -0.00119471   -0.01726471   -0.01087402
     atom   32 type  3   force =    -0.02313883    0.08268021   -0.06425522
     atom   33 type  3   force =    -0.02313883   -0.08268021   -0.06425522
     atom   34 type  3   force =     0.02313883   -0.08268021    0.06425522
     atom   35 type  1   force =     0.02517315   -0.04923150   -0.05936335
     atom   36 type  1   force =     0.02517315    0.04923150   -0.05936335
     atom   37 type  1   force =    -0.02517315    0.04923150    0.05936335
     atom   38 type  3   force =    -0.00073272    0.01256116   -0.04043336
     atom   39 type  3   force =    -0.00073272   -0.01256116   -0.04043336
     atom   40 type  3   force =     0.00073272   -0.01256116    0.04043336
     atom   41 type  1   force =     0.04425398   -0.11259236    0.02270884
     atom   42 type  1   force =     0.04425398    0.11259236    0.02270884
     atom   43 type  1   force =    -0.04425398    0.11259236   -0.02270884
     atom   44 type  1   force =    -0.03025533    0.06347714    0.04290455
     atom   45 type  1   force =    -0.03025533   -0.06347714    0.04290455
     atom   46 type  1   force =     0.03025533   -0.06347714   -0.04290455
     atom   47 type  1   force =     0.08834637   -0.31699279    0.24428479
     atom   48 type  1   force =     0.08834637    0.31699279    0.24428479
     atom   49 type  1   force =    -0.08834637    0.31699279   -0.24428479
     atom   50 type  1   force =     0.01662900    0.00267686   -0.14177059
     atom   51 type  1   force =     0.01662900   -0.00267686   -0.14177059
     atom   52 type  1   force =    -0.01662900   -0.00267686    0.14177059
     atom   53 type  3   force =     0.00638987   -0.01652621    0.03976178
     atom   54 type  3   force =     0.00638987    0.01652621    0.03976178
     atom   55 type  3   force =    -0.00638987    0.01652621   -0.03976178
     atom   56 type  4   force =    -0.00079151   -0.01246883    0.08209560
     atom   57 type  4   force =    -0.00079151    0.01246883    0.08209560
     atom   58 type  4   force =     0.00079151    0.01246883   -0.08209560
     atom   59 type  1   force =     0.14294551   -0.34709205   -0.18238960
     atom   60 type  1   force =     0.14294551    0.34709205   -0.18238960
     atom   61 type  1   force =    -0.14294551    0.34709205    0.18238960
     atom   62 type  1   force =    -0.02587785    0.13096911   -0.21432124
     atom   63 type  1   force =    -0.02587785   -0.13096911   -0.21432124
     atom   64 type  1   force =     0.02587785   -0.13096911    0.21432124
     atom   65 type  1   force =    -0.12334622    0.26643757    0.21982957
     atom   66 type  1   force =    -0.12334622   -0.26643757    0.21982957
     atom   67 type  1   force =     0.12334622   -0.26643757   -0.21982957
     atom   68 type  1   force =    -0.12119776    0.22626453    0.20999013
     atom   69 type  1   force =    -0.12119776   -0.22626453    0.20999013
     atom   70 type  1   force =     0.12119776   -0.22626453   -0.20999013
     atom   71 type  1   force =    -0.09610741    0.33929509    0.01704445
     atom   72 type  1   force =    -0.09610741   -0.33929509    0.01704445
     atom   73 type  1   force =     0.09610741   -0.33929509   -0.01704445
     atom   74 type  1   force =     0.06143982    0.02513640   -0.34148130
     atom   75 type  1   force =     0.06143982   -0.02513640   -0.34148130
     atom   76 type  1   force =    -0.06143982   -0.02513640    0.34148130
     atom   77 type  1   force =     0.03737294   -0.16586457    0.14044693
     atom   78 type  1   force =     0.03737294    0.16586457    0.14044693
     atom   79 type  1   force =    -0.03737294    0.16586457   -0.14044693
     atom   80 type  2   force =     0.01067378    0.02684669   -0.00466019
     atom   81 type  2   force =     0.01067378   -0.02684669   -0.00466019
     atom   82 type  2   force =    -0.01067378   -0.02684669    0.00466019
     atom   83 type  2   force =     0.00102306    0.01325352   -0.04875790
     atom   84 type  2   force =     0.00102306   -0.01325352   -0.04875790
     atom   85 type  2   force =    -0.00102306   -0.01325352    0.04875790
     atom   86 type  2   force =    -0.02214170    0.01803500   -0.00647389
     atom   87 type  2   force =    -0.02214170   -0.01803500   -0.00647389
     atom   88 type  2   force =     0.02214170   -0.01803500    0.00647389
     atom   89 type  2   force =    -0.02398687    0.09911465   -0.07765266
     atom   90 type  2   force =    -0.02398687   -0.09911465   -0.07765266
     atom   91 type  2   force =     0.02398687   -0.09911465    0.07765266
     atom   92 type  2   force =    -0.03495227    0.09113801    0.03355036
     atom   93 type  2   force =    -0.03495227   -0.09113801    0.03355036
     atom   94 type  2   force =     0.03495227   -0.09113801   -0.03355036
     atom   95 type  2   force =     0.03344893   -0.07838772   -0.01629891
     atom   96 type  2   force =     0.03344893    0.07838772   -0.01629891
     atom   97 type  2   force =    -0.03344893    0.07838772    0.01629891
     atom   98 type  2   force =     0.03708105   -0.06463756   -0.04928010
     atom   99 type  2   force =     0.03708105    0.06463756   -0.04928010
     atom  100 type  2   force =    -0.03708105    0.06463756    0.04928010
     atom  101 type  2   force =     0.01364231   -0.05243428    0.04064031
     atom  102 type  2   force =     0.01364231    0.05243428    0.04064031
     atom  103 type  2   force =    -0.01364231    0.05243428   -0.04064031
     atom  104 type  2   force =    -0.04420603   -0.05140441    0.06385411
     atom  105 type  2   force =    -0.04420603    0.05140441    0.06385411
     atom  106 type  2   force =     0.04420603    0.05140441   -0.06385411
     atom  107 type  2   force =    -0.01089536   -0.03410707   -0.03409286
     atom  108 type  2   force =    -0.01089536    0.03410707   -0.03409286
     atom  109 type  2   force =     0.01089536    0.03410707    0.03409286
     atom  110 type  2   force =     0.02181535   -0.05100065    0.05398091
     atom  111 type  2   force =     0.02181535    0.05100065    0.05398091
     atom  112 type  2   force =    -0.02181535    0.05100065   -0.05398091
     atom  113 type  2   force =    -0.01248349    0.00697256    0.03057975
     atom  114 type  2   force =    -0.01248349   -0.00697256    0.03057975
     atom  115 type  2   force =     0.01248349   -0.00697256   -0.03057975
     atom  116 type  2   force =     0.00018084   -0.02598884   -0.00238392
     atom  117 type  2   force =     0.00018084    0.02598884   -0.00238392
     atom  118 type  2   force =    -0.00018084    0.02598884    0.00238392
     atom  119 type  2   force =     0.01826978   -0.01683452    0.04443253
     atom  120 type  2   force =     0.01826978    0.01683452    0.04443253
     atom  121 type  2   force =    -0.01826978    0.01683452   -0.04443253
     atom  122 type  2   force =     0.00119471   -0.01726471    0.01087402
     atom  123 type  2   force =     0.00119471    0.01726471    0.01087402
     atom  124 type  2   force =    -0.00119471    0.01726471   -0.01087402

     Total force =     2.087171     Total SCF correction =     0.000342

     number of scf cycles    =   2
     number of bfgs steps    =   1

     energy   old            =   -1078.1249518850 Ry
     energy   new            =   -1078.5442149563 Ry

     CASE: energy  _new < energy  _old

     new trust radius        =       0.2250078994 bohr
     new conv_thr            =       0.0000001000 Ry


ATOMIC_POSITIONS (angstrom)
O        0.757308436  11.022827895   1.037416397
C        0.153325316  10.776941691   5.149264705
O       -0.702006932   8.553144704   4.806929491
C       -0.023463940  10.688460581   6.577908188
C        0.515591120  10.877620151   2.322458328
C        0.002328394   9.769971262   2.961335393
C       -0.195047257   9.692761933   4.358666424
O       -0.520822547   9.621613793   7.067167817
N        0.479635784   0.720615723   9.662542839
C        0.230224972  11.713002604   8.788429669
C        0.647080555   0.003845758   4.499376854
C        0.360245151  11.765014412   7.403885612
C        0.823017331   0.056682063   3.089224398
C        0.966123309   1.997511899   9.311311583
C        0.353187742   0.426063442  11.058082077
C        0.476221376   9.909787760   0.202202318
H        1.141818759   9.031138457   0.439667757
H       -2.130226274  10.176189882  11.970050848
H        6.838269999   9.562575143   0.295669647
H       -0.264405705   8.837484757   2.338131634
H       -0.149326459  10.737166911   9.191808074
H        0.771796567   0.808449536   6.995291035
H        1.265716981   0.930803579   2.613114537
H        0.922173663   0.897116313   5.044828433
H       -0.366812587   1.191828077  11.579898224
H        0.272444654   2.497893008   8.581559121
H        1.094929282   2.638903485  10.222947561
H       -0.034504896  11.305175508  11.247445902
H        1.944191052   1.930624526   8.816084915
H        1.306751578   0.596304669  11.612204461
H       -0.737774288   8.819794422   5.856767950
O        1.567481564   5.078327895   5.384703603
O        3.892271564   0.866172105  11.806813603
O        3.082098436   6.810672105   7.459526397
C        2.171464684   4.832441691   1.272855295
C        4.496254684   1.112058309   7.694965295
C        2.478115316   7.056558309  11.571374705
O        3.026796932   2.608644704   1.615180509
O        5.351586932   3.335855296   8.037290509
O        1.622783068   9.280355296  11.229039491
C       -0.428766060   4.743960581  12.688431812
C        4.673043940   1.200539419   6.266321812
C        5.078346060   7.145039419   0.155788188
C        1.809198880   4.933120151   4.099651672
C        4.133988880   1.011379849  10.521761672
C        2.840381120   6.955879849   8.744568328
C        2.322461606   3.825471262   3.460774607
C        4.647251606   2.119028738   9.882884607
C        2.327118394   8.063528738   9.383445393
C        2.519837257   3.748261933   2.063443576
C        4.844627257   2.196238067   8.485553576
C        2.129742743   8.140738067  10.780776424
O        0.068592547   3.677113793  12.199162183
O        5.170402547   2.267386207   5.777052183
O        4.580987453   8.211886207   0.645057817
N       -0.931865784   6.665115723   9.603787161
N        4.169944216  11.168384277   3.181677161
N        5.581445784   5.223884277   3.240432839
C       -0.682454972   5.768502604  10.477900331
C        4.419355028   0.175997396   4.055790331
C        5.332034972   6.120497396   2.366319669
C        1.677709445   5.948345758   1.922733146
C        4.002499445  11.885154242   8.344843146
C        2.971870555   5.940654242  10.921486854
C       -0.812475151   5.820514412  11.862454388
C        4.289334849   0.123985588   5.440344388
C        5.462055151   6.068485588   0.981765612
C        1.501772669   6.001182063   3.332885602
C        3.826562669  11.832317937   9.754995602
C        3.147807331   5.887817937   9.511344398
C       -1.418353309   7.942011899   9.955018417
C        3.683456691   9.891488101   3.532908417
C        6.067933309   3.946988101   2.889201583
C       -0.805417742   6.370563442   8.208247923
C        4.296392258  11.462936558   1.786137923
C        5.454997742   5.518436558   4.635972077
C        1.848568624   3.965287760   6.219907682
C        4.173358624   1.979212240  12.642027682
C        2.801011376   7.923712240   6.624312318
H        1.182971241   3.086638457   5.982452243
H        3.507761241   2.857861543  12.404562243
H        3.466608759   8.802361543   6.861777757
H        1.677996274   4.231689882   7.296279152
H        6.779806274   1.712810118   0.874169152
H        2.971583726   7.657310118   5.547940848
H        2.913120001   3.618075143   6.126450353
H       -2.188689999   2.326424857  12.548560353
H        1.736459999   8.270924857   6.717779647
H        2.589195705   2.892984757   4.083978366
H        4.913985705   3.051515243  10.506088366
H        2.060384295   8.996015243   8.760241634
H       -0.302903541   4.792666911  10.074521926
H        4.798906459   1.151833089   3.652411926
H        4.952483541   7.096333089   2.769698074
H       -1.224026567   6.752949536  12.271048965
H        3.877783433  11.080550464   5.848938965
H        5.873606567   5.136050464   0.573181035
H        1.059073019   6.875303579   3.808995463
H        3.383863019  10.958196421  10.231105463
H        3.590506981   5.013696421   9.035234537
H        1.402616337   6.841616313   1.377281567
H        3.727416337  10.991883687   7.799391567
H        3.246963663   5.047383687  11.466938433
H       -0.085417413   7.136328077   7.686441776
H        5.016392587  10.697171923   1.264331776
H        4.734997413   4.752671923   5.157788224
H       -0.724674654   8.442393008  10.684770879
H        4.377135346   9.391106992   4.262660879
H        5.374254654   3.446606992   2.159449121
H       -1.547149282   8.583403485   9.043392439
H        3.554660718   9.250096515   2.621282439
H        6.196739282   3.305596515   3.800837561
H       -0.417725104   5.360675508   8.018884098
H        4.684084896   0.583824492   1.596774098
H        5.067305104   6.528324492   4.825335902
H        5.030178948   7.875124526  10.450245085
H        2.705388948   9.958375474   4.028135085
H       -0.380598948   4.013875474   2.393974915
H       -1.758981578   6.540804669   7.654135539
H        3.342828422  11.292695331   1.232025539
H        6.408561578   5.348195331   5.190094461
H        3.062564288   2.875294422   0.565342050
H        5.387354288   3.069205578   6.987452050
H        1.587015712   9.013705578  12.278877950



     Writing output data file 2hp_3_122.save
     charge density from previous step

     total cpu time spent up to now is     1531.6 secs

     per-process dynamical memory:   678.7 Mb

     Self-consistent Calculation

     iteration #  1     ecut=    30.00 Ry     beta=0.70
     Davidson diagonalization with overlap
     ethr =  1.00E-06,  avg # of iterations = 13.0

     total cpu time spent up to now is     1688.6 secs

     total energy              =   -1072.76386353 Ry
     Harris-Foulkes estimate   =   -1085.24306881 Ry
     estimated scf accuracy    <      15.96023411 Ry

     iteration #  2     ecut=    30.00 Ry     beta=0.70
     Davidson diagonalization with overlap
     ethr =  4.64E-03,  avg # of iterations =  4.0

     total cpu time spent up to now is     1751.6 secs

     total energy              =   -1074.55338456 Ry
     Harris-Foulkes estimate   =   -1085.00060883 Ry
     estimated scf accuracy    <      21.52544265 Ry

     iteration #  3     ecut=    30.00 Ry     beta=0.70
     Davidson diagonalization with overlap
     ethr =  4.64E-03,  avg # of iterations =  4.0

     total cpu time spent up to now is     1808.7 secs

     total energy              =   -1079.37350531 Ry
     Harris-Foulkes estimate   =   -1080.29295412 Ry
     estimated scf accuracy    <       2.00114107 Ry

     iteration #  4     ecut=    30.00 Ry     beta=0.70
     Davidson diagonalization with overlap
     ethr =  5.82E-04,  avg # of iterations =  4.0

     total cpu time spent up to now is     1860.6 secs

     total energy              =   -1079.72292921 Ry
     Harris-Foulkes estimate   =   -1079.78011857 Ry
     estimated scf accuracy    <       0.10632442 Ry

     iteration #  5     ecut=    30.00 Ry     beta=0.70
     Davidson diagonalization with overlap
     ethr =  3.09E-05,  avg # of iterations =  3.8

     total cpu time spent up to now is     1918.2 secs

     total energy              =   -1079.74664607 Ry
     Harris-Foulkes estimate   =   -1079.77190408 Ry
     estimated scf accuracy    <       0.06022081 Ry

     iteration #  6     ecut=    30.00 Ry     beta=0.70
     Davidson diagonalization with overlap
     ethr =  1.75E-05,  avg # of iterations =  3.0

     total cpu time spent up to now is     1967.3 secs

     total energy              =   -1079.75845569 Ry
     Harris-Foulkes estimate   =   -1079.76033321 Ry
     estimated scf accuracy    <       0.00443628 Ry

     iteration #  7     ecut=    30.00 Ry     beta=0.70
     Davidson diagonalization with overlap
     ethr =  1.29E-06,  avg # of iterations =  4.0

     total cpu time spent up to now is     2026.7 secs

     total energy              =   -1079.75933222 Ry
     Harris-Foulkes estimate   =   -1079.76006651 Ry
     estimated scf accuracy    <       0.00171098 Ry

     iteration #  8     ecut=    30.00 Ry     beta=0.70
     Davidson diagonalization with overlap
     ethr =  4.97E-07,  avg # of iterations =  3.0

     total cpu time spent up to now is     2077.4 secs

     total energy              =   -1079.75966864 Ry
     Harris-Foulkes estimate   =   -1079.75971193 Ry
     estimated scf accuracy    <       0.00008737 Ry

     iteration #  9     ecut=    30.00 Ry     beta=0.70
     Davidson diagonalization with overlap
     ethr =  2.54E-08,  avg # of iterations =  4.0

     total cpu time spent up to now is     2136.1 secs

     total energy              =   -1079.75969079 Ry
     Harris-Foulkes estimate   =   -1079.75969554 Ry
     estimated scf accuracy    <       0.00000981 Ry

     iteration # 10     ecut=    30.00 Ry     beta=0.70
     Davidson diagonalization with overlap
     ethr =  2.85E-09,  avg # of iterations =  4.0

     total cpu time spent up to now is     2194.0 secs

     total energy              =   -1079.75969305 Ry
     Harris-Foulkes estimate   =   -1079.75969354 Ry
     estimated scf accuracy    <       0.00000109 Ry

     iteration # 11     ecut=    30.00 Ry     beta=0.70
     Davidson diagonalization with overlap
     ethr =  3.16E-10,  avg # of iterations =  4.0

     total cpu time spent up to now is     2254.2 secs

     total energy              =   -1079.75969332 Ry
     Harris-Foulkes estimate   =   -1079.75969344 Ry
     estimated scf accuracy    <       0.00000029 Ry

     iteration # 12     ecut=    30.00 Ry     beta=0.70
     Davidson diagonalization with overlap
     ethr =  8.33E-11,  avg # of iterations =  4.0

     total cpu time spent up to now is     2309.5 secs

     End of self-consistent calculation

          k = 0.0000 0.0000 0.0000 ( 21265 PWs)   bands (ev):

   -21.2654 -21.2650 -21.2241 -21.2240 -20.2778 -20.2760 -20.2741 -20.2731
   -19.1279 -19.1264 -19.1255 -19.1183 -18.7649 -18.7640 -18.7633 -18.7569
   -15.0623 -15.0604 -15.0552 -15.0535 -13.3503 -13.3280 -13.2659 -13.2427
   -12.8819 -12.8777 -12.8100 -12.8068 -12.1193 -12.0927 -12.0501 -12.0392
   -11.9942 -11.9898 -11.9767 -11.9749 -11.3902 -11.3576 -11.3432 -11.3350
   -10.9559 -10.9091 -10.8846 -10.8701  -9.1672  -9.1584  -9.1419  -9.1223
    -8.8711  -8.8252  -8.8101  -8.7988  -8.3387  -8.2857  -8.1789  -8.1611
    -7.4532  -7.4331  -7.3000  -7.2769  -7.1108  -7.1101  -7.0861  -7.0523
    -6.8127  -6.8064  -6.7819  -6.6734  -6.2861  -6.2568  -6.2514  -6.2458
    -5.9424  -5.9005  -5.8699  -5.8556  -5.8265  -5.7701  -5.7251  -5.6927
    -5.5028  -5.3916  -5.3686  -5.3337  -5.3060  -5.2914  -5.1877  -5.1439
    -5.0358  -4.9963  -4.9748  -4.9486  -4.5859  -4.5597  -4.5454  -4.4983
    -4.4652  -4.3264  -4.3178  -4.2440  -4.2432  -4.2281  -4.1815  -4.1064
    -3.8064  -3.7558  -3.7123  -3.6353  -3.5736  -3.5526  -3.5299  -3.5275
    -3.4569  -3.4520  -3.3842  -3.3745  -3.3561  -3.3429  -3.2729  -3.2354
    -3.1890  -3.1221  -3.0925  -3.0715  -3.0081  -2.9976  -2.9929  -2.9758
    -2.8958  -2.8901  -2.8756  -2.7897  -2.6252  -2.6134  -2.5764  -2.5524
    -2.5275  -2.4953  -2.4922  -2.4124  -2.1316  -2.1036  -2.0849  -2.0661
    -1.8242  -1.8075  -1.7875  -1.6838  -1.6695  -1.6062  -1.5244  -1.4531
    -1.2402  -1.2139  -1.0761  -1.0326   0.2365   0.2365   0.2582   0.3083
     0.3131   0.3243   0.3698   0.4446   0.7404   0.7736   0.8388   0.8964
     1.1829   1.2066   1.3094   1.3805

          k = 0.0000 0.0000-0.2891 ( 21228 PWs)   bands (ev):

   -21.2652 -21.2651 -21.2241 -21.2240 -20.2769 -20.2768 -20.2737 -20.2736
   -19.1270 -19.1269 -19.1222 -19.1221 -18.7647 -18.7646 -18.7599 -18.7599
   -15.0606 -15.0605 -15.0550 -15.0549 -13.3448 -13.3447 -13.2567 -13.2567
   -12.8735 -12.8734 -12.8033 -12.8032 -12.0784 -12.0784 -12.0509 -12.0508
   -12.0065 -12.0065 -11.9784 -11.9784 -11.3872 -11.3871 -11.3578 -11.3578
   -10.9188 -10.9188 -10.8663 -10.8663  -9.1873  -9.1872  -9.1142  -9.1141
    -8.8340  -8.8340  -8.7887  -8.7887  -8.3092  -8.3092  -8.2057  -8.2056
    -7.4209  -7.4209  -7.3386  -7.3385  -7.1096  -7.1095  -7.0552  -7.0552
    -6.8038  -6.8038  -6.7167  -6.7167  -6.2560  -6.2560  -6.2102  -6.2102
    -5.9668  -5.9667  -5.8783  -5.8783  -5.7903  -5.7903  -5.7252  -5.7251
    -5.4014  -5.4014  -5.3792  -5.3792  -5.2766  -5.2766  -5.1867  -5.1866
    -5.0267  -5.0267  -4.9862  -4.9862  -4.5586  -4.5586  -4.5046  -4.5045
    -4.3212  -4.3212  -4.2830  -4.2830  -4.2236  -4.2236  -4.2002  -4.2002
    -3.7655  -3.7654  -3.6557  -3.6557  -3.6187  -3.6187  -3.5757  -3.5756
    -3.4618  -3.4618  -3.3965  -3.3965  -3.3120  -3.3120  -3.2435  -3.2435
    -3.1814  -3.1813  -3.0927  -3.0927  -2.9895  -2.9895  -2.9120  -2.9120
    -2.8850  -2.8850  -2.8651  -2.8651  -2.6317  -2.6317  -2.5418  -2.5418
    -2.5287  -2.5286  -2.4385  -2.4385  -2.1110  -2.1109  -2.1046  -2.1046
    -1.8345  -1.8345  -1.7271  -1.7271  -1.6200  -1.6200  -1.4975  -1.4975
    -1.1511  -1.1511  -1.1142  -1.1142   0.2703   0.2704   0.2823   0.2824
     0.3250   0.3250   0.3563   0.3563   0.7986   0.7986   0.8244   0.8244
     1.1854   1.1854   1.3691   1.3691

          k = 0.0000-0.3123 0.0000 ( 21240 PWs)   bands (ev):

   -21.2652 -21.2651 -21.2241 -21.2240 -20.2770 -20.2769 -20.2736 -20.2735
   -19.1277 -19.1276 -19.1215 -19.1214 -18.7645 -18.7644 -18.7601 -18.7601
   -15.0614 -15.0613 -15.0544 -15.0543 -13.3393 -13.3392 -13.2546 -13.2546
   -12.8797 -12.8796 -12.8081 -12.8080 -12.0949 -12.0948 -12.0582 -12.0581
   -11.9899 -11.9898 -11.9774 -11.9774 -11.3657 -11.3657 -11.3453 -11.3452
   -10.9325 -10.9325 -10.8783 -10.8783  -9.1546  -9.1546  -9.1426  -9.1426
    -8.8552  -8.8552  -8.7934  -8.7934  -8.2681  -8.2681  -8.2172  -8.2172
    -7.3973  -7.3973  -7.3525  -7.3524  -7.0886  -7.0886  -7.0648  -7.0647
    -6.8180  -6.8180  -6.7288  -6.7288  -6.2837  -6.2837  -6.2412  -6.2412
[...]
    -6.6650  -6.6650  -6.6532  -6.6532  -6.1406  -6.1406  -6.1383  -6.1383
    -5.8961  -5.8961  -5.8513  -5.8513  -5.7270  -5.7270  -5.6686  -5.6686
    -5.3894  -5.3894  -5.3652  -5.3651  -5.1803  -5.1803  -5.0876  -5.0875
    -4.9243  -4.9243  -4.9122  -4.9122  -4.5756  -4.5756  -4.5640  -4.5640
    -4.2546  -4.2546  -4.2210  -4.2210  -4.1291  -4.1291  -4.1127  -4.1126
    -3.8540  -3.8539  -3.8522  -3.8522  -3.6647  -3.6646  -3.6477  -3.6477
    -3.5304  -3.5304  -3.4892  -3.4892  -3.4443  -3.4443  -3.4131  -3.4130
    -3.1614  -3.1614  -3.1382  -3.1382  -3.0769  -3.0769  -2.9638  -2.9638
    -2.9402  -2.9402  -2.8258  -2.8258  -2.7389  -2.7388  -2.7201  -2.7200
    -2.4830  -2.4830  -2.4035  -2.4035  -2.0195  -2.0195  -1.9996  -1.9996
    -1.7890  -1.7890  -1.7699  -1.7699  -1.6450  -1.6450  -1.4496  -1.4496
    -1.1475  -1.1475  -1.1007  -1.1007   0.2839   0.2839   0.2957   0.2958
     0.3374   0.3375   0.3449   0.3449   0.6298   0.6298   0.7427   0.7427
     1.1593   1.1594   1.3931   1.3931

     highest occupied level (ev):     1.4000

!    total energy              =   -1080.00388177 Ry
     Harris-Foulkes estimate   =   -1080.00388177 Ry
     estimated scf accuracy    <          1.7E-10 Ry

     The total energy is the sum of the following terms:

     one-electron contribution =    -867.64586342 Ry
     hartree contribution      =     553.28488636 Ry
     xc contribution           =    -315.28294864 Ry
     ewald contribution        =    -449.81231917 Ry
     Dispersion Correction     =      -0.54763691 Ry

     convergence has been achieved in  10 iterations

     Forces acting on atoms (cartesian axes, Ry/au):

     atom    1 type  3   force =    -0.00015544   -0.00074992    0.00013609
     atom    2 type  1   force =     0.00059804    0.00028618   -0.00023419
     atom    3 type  3   force =     0.00012138    0.00089302   -0.00039146
     atom    4 type  1   force =     0.00062734   -0.00008550   -0.00025635
     atom    5 type  1   force =     0.00015081   -0.00069162    0.00007825
     atom    6 type  1   force =     0.00024917   -0.00004241   -0.00012266
     atom    7 type  1   force =     0.00034343    0.00079501   -0.00085356
     atom    8 type  3   force =     0.00036832   -0.00014407    0.00085731
     atom    9 type  4   force =     0.00012870   -0.00003238    0.00033230
     atom   10 type  1   force =    -0.00008924    0.00033545   -0.00034679
     atom   11 type  1   force =     0.00023548    0.00007081   -0.00040489
     atom   12 type  1   force =     0.00042027    0.00018550    0.00058744
     atom   13 type  1   force =     0.00043816    0.00033819   -0.00067270
     atom   14 type  1   force =    -0.00019432    0.00003716    0.00030711
     atom   15 type  1   force =    -0.00011676   -0.00013316   -0.00014728
     atom   16 type  1   force =     0.00005968    0.00022872   -0.00001389
     atom   17 type  2   force =    -0.00019836    0.00016671   -0.00004173
     atom   18 type  2   force =     0.00000844   -0.00005333   -0.00007605
     atom   19 type  2   force =     0.00009920    0.00052492    0.00016628
     atom   20 type  2   force =    -0.00028246    0.00042518    0.00028607
     atom   21 type  2   force =    -0.00050101    0.00014685   -0.00017944
     atom   22 type  2   force =    -0.00015364    0.00068185    0.00044076
     atom   23 type  2   force =    -0.00014059    0.00012044    0.00059125
     atom   24 type  2   force =    -0.00019256   -0.00042790    0.00020567
     atom   25 type  2   force =     0.00024205   -0.00031172   -0.00064313
     atom   26 type  2   force =     0.00000924   -0.00002732   -0.00032583
     atom   27 type  2   force =     0.00016068    0.00063376   -0.00014371
     atom   28 type  2   force =    -0.00067255   -0.00042969   -0.00028854
     atom   29 type  2   force =    -0.00035216    0.00021280    0.00030779
     atom   30 type  2   force =    -0.00056084   -0.00029841    0.00012460
     atom   31 type  2   force =    -0.00024995   -0.00030649   -0.00040247
     atom   32 type  3   force =     0.00015544   -0.00074992   -0.00013609
     atom   33 type  3   force =     0.00015544    0.00074992   -0.00013609
     atom   34 type  3   force =    -0.00015544    0.00074992    0.00013609
     atom   35 type  1   force =    -0.00059804    0.00028618    0.00023419
     atom   36 type  1   force =    -0.00059804   -0.00028618    0.00023419
     atom   37 type  1   force =     0.00059804   -0.00028618   -0.00023419
     atom   38 type  3   force =    -0.00012138    0.00089302    0.00039146
     atom   39 type  3   force =    -0.00012138   -0.00089302    0.00039146
     atom   40 type  3   force =     0.00012138   -0.00089302   -0.00039146
     atom   41 type  1   force =    -0.00062734   -0.00008550    0.00025635
     atom   42 type  1   force =    -0.00062734    0.00008550    0.00025635
     atom   43 type  1   force =     0.00062734    0.00008550   -0.00025635
     atom   44 type  1   force =    -0.00015081   -0.00069162   -0.00007825
     atom   45 type  1   force =    -0.00015081    0.00069162   -0.00007825
     atom   46 type  1   force =     0.00015081    0.00069162    0.00007825
     atom   47 type  1   force =    -0.00024917   -0.00004241    0.00012266
     atom   48 type  1   force =    -0.00024917    0.00004241    0.00012266
     atom   49 type  1   force =     0.00024917    0.00004241   -0.00012266
     atom   50 type  1   force =    -0.00034343    0.00079501    0.00085356
     atom   51 type  1   force =    -0.00034343   -0.00079501    0.00085356
     atom   52 type  1   force =     0.00034343   -0.00079501   -0.00085356
     atom   53 type  3   force =    -0.00036832   -0.00014407   -0.00085731
     atom   54 type  3   force =    -0.00036832    0.00014407   -0.00085731
     atom   55 type  3   force =     0.00036832    0.00014407    0.00085731
     atom   56 type  4   force =    -0.00012870   -0.00003238   -0.00033230
     atom   57 type  4   force =    -0.00012870    0.00003238   -0.00033230
     atom   58 type  4   force =     0.00012870    0.00003238    0.00033230
     atom   59 type  1   force =     0.00008924    0.00033545    0.00034679
     atom   60 type  1   force =     0.00008924   -0.00033545    0.00034679
     atom   61 type  1   force =    -0.00008924   -0.00033545   -0.00034679
     atom   62 type  1   force =    -0.00023548    0.00007081    0.00040489
     atom   63 type  1   force =    -0.00023548   -0.00007081    0.00040489
     atom   64 type  1   force =     0.00023548   -0.00007081   -0.00040489
     atom   65 type  1   force =    -0.00042027    0.00018550   -0.00058744
     atom   66 type  1   force =    -0.00042027   -0.00018550   -0.00058744
     atom   67 type  1   force =     0.00042027   -0.00018550    0.00058744
     atom   68 type  1   force =    -0.00043816    0.00033819    0.00067270
     atom   69 type  1   force =    -0.00043816   -0.00033819    0.00067270
     atom   70 type  1   force =     0.00043816   -0.00033819   -0.00067270
     atom   71 type  1   force =     0.00019432    0.00003716   -0.00030711
     atom   72 type  1   force =     0.00019432   -0.00003716   -0.00030711
     atom   73 type  1   force =    -0.00019432   -0.00003716    0.00030711
     atom   74 type  1   force =     0.00011676   -0.00013316    0.00014728
     atom   75 type  1   force =     0.00011676    0.00013316    0.00014728
     atom   76 type  1   force =    -0.00011676    0.00013316   -0.00014728
     atom   77 type  1   force =    -0.00005968    0.00022872    0.00001389
     atom   78 type  1   force =    -0.00005968   -0.00022872    0.00001389
     atom   79 type  1   force =     0.00005968   -0.00022872   -0.00001389
     atom   80 type  2   force =     0.00019836    0.00016671    0.00004173
     atom   81 type  2   force =     0.00019836   -0.00016671    0.00004173
     atom   82 type  2   force =    -0.00019836   -0.00016671   -0.00004173
     atom   83 type  2   force =    -0.00000844   -0.00005333    0.00007605
     atom   84 type  2   force =    -0.00000844    0.00005333    0.00007605
     atom   85 type  2   force =     0.00000844    0.00005333   -0.00007605
     atom   86 type  2   force =    -0.00009920    0.00052492   -0.00016628
     atom   87 type  2   force =    -0.00009920   -0.00052492   -0.00016628
     atom   88 type  2   force =     0.00009920   -0.00052492    0.00016628
     atom   89 type  2   force =     0.00028246    0.00042518   -0.00028607
     atom   90 type  2   force =     0.00028246   -0.00042518   -0.00028607
     atom   91 type  2   force =    -0.00028246   -0.00042518    0.00028607
     atom   92 type  2   force =     0.00050101    0.00014685    0.00017944
     atom   93 type  2   force =     0.00050101   -0.00014685    0.00017944
     atom   94 type  2   force =    -0.00050101   -0.00014685   -0.00017944
     atom   95 type  2   force =     0.00015364    0.00068185   -0.00044076
     atom   96 type  2   force =     0.00015364   -0.00068185   -0.00044076
     atom   97 type  2   force =    -0.00015364   -0.00068185    0.00044076
     atom   98 type  2   force =     0.00014059    0.00012044   -0.00059125
     atom   99 type  2   force =     0.00014059   -0.00012044   -0.00059125
     atom  100 type  2   force =    -0.00014059   -0.00012044    0.00059125
     atom  101 type  2   force =     0.00019256   -0.00042790   -0.00020567
     atom  102 type  2   force =     0.00019256    0.00042790   -0.00020567
     atom  103 type  2   force =    -0.00019256    0.00042790    0.00020567
     atom  104 type  2   force =    -0.00024205   -0.00031172    0.00064313
     atom  105 type  2   force =    -0.00024205    0.00031172    0.00064313
     atom  106 type  2   force =     0.00024205    0.00031172   -0.00064313
     atom  107 type  2   force =    -0.00000924   -0.00002732    0.00032583
     atom  108 type  2   force =    -0.00000924    0.00002732    0.00032583
     atom  109 type  2   force =     0.00000924    0.00002732   -0.00032583
     atom  110 type  2   force =    -0.00016068    0.00063376    0.00014371
     atom  111 type  2   force =    -0.00016068   -0.00063376    0.00014371
     atom  112 type  2   force =     0.00016068   -0.00063376   -0.00014371
     atom  113 type  2   force =     0.00067255   -0.00042969    0.00028854
     atom  114 type  2   force =     0.00067255    0.00042969    0.00028854
     atom  115 type  2   force =    -0.00067255    0.00042969   -0.00028854
     atom  116 type  2   force =     0.00035216    0.00021280   -0.00030779
     atom  117 type  2   force =     0.00035216   -0.00021280   -0.00030779
     atom  118 type  2   force =    -0.00035216   -0.00021280    0.00030779
     atom  119 type  2   force =     0.00056084   -0.00029841   -0.00012460
     atom  120 type  2   force =     0.00056084    0.00029841   -0.00012460
     atom  121 type  2   force =    -0.00056084    0.00029841    0.00012460
     atom  122 type  2   force =     0.00024995   -0.00030649    0.00040247
     atom  123 type  2   force =     0.00024995    0.00030649    0.00040247
     atom  124 type  2   force =    -0.00024995    0.00030649   -0.00040247

     Total force =     0.007170     Total SCF correction =     0.000025

     bfgs converged in  35 scf cycles and  34 bfgs steps
     (criteria: energy <  1.0E-04 Ry, force <  1.0E-03 Ry/Bohr)

     End of BFGS Geometry Optimization

     Final energy   =   -1080.0038817744 Ry
Begin final coordinates

ATOMIC_POSITIONS (angstrom)
O        0.770885837  10.929979551   0.955453785
C        0.169027874  10.752292010   5.097444846
O       -0.709722594   8.531059598   4.825479924
C       -0.040185138  10.663528619   6.554462167
C        0.535420371  10.813389220   2.291959649
C       -0.015787470   9.680550221   2.883977389
C       -0.195121607   9.644941902   4.276974130
O       -0.560236508   9.573972252   7.026441905
N        0.458371979   0.673290246   9.680733088
C        0.174563222  11.619665841   8.784981234
C        0.706992299  -0.009568946   4.442435097
C        0.334748739  11.726510917   7.417170929
C        0.898175187   0.037694247   3.076335630
C        0.985929624   1.962884910   9.266777741
C        0.323660777   0.443253606  11.112225568
C        0.407958325   9.827004953   0.118460929
H        1.031976797   8.947465319   0.348667989
H       -2.185892049  10.160535107  11.936375362
H        6.771446967   9.567600278   0.236806951
H       -0.316479809   8.808081093   2.307167587
H       -0.213119362  10.686886890   9.196471138
H        0.757382235   0.742525733   6.993329690
H        1.355579369   0.900902501   2.592582025
H        1.005163293   0.860028655   5.025746715
H       -0.358684846   1.187669134  11.545657827
H        0.309832226   2.425206122   8.532334594
H        1.052002108   2.614439601  10.145532838
H       -0.052616673  11.320283659  11.287797474
H        1.984090773   1.835806015   8.820070846
H        1.307313371   0.539125677  11.595569685
H       -0.742742051   8.780177241   5.862622169
O        1.553904163   4.985479551   5.466666215
O        3.878694163   0.959020449  11.888776215
O        3.095675837   6.903520449   7.377563785
C        2.155762126   4.807792010   1.324675154
C        4.480552126   1.136707990   7.746785154
C        2.493817874   7.081207990  11.519554846
O        3.034512594   2.586559598   1.596630076
O        5.359302594   3.357940402   8.018740076
O        1.615067406   9.302440402  11.247589924
C       -0.412044862   4.719028619  12.711877833
C        4.689765138   1.225471381   6.289767833
C        5.061624862   7.169971381   0.132342167
C        1.789369629   4.868889220   4.130150351
C        4.114159629   1.075610780  10.552260351
C        2.860210371   7.020110780   8.714069649
C        2.340577470   3.736050221   3.538132611
C        4.665367470   2.208449779   9.960242611
C        2.309002530   8.152949779   9.306087389
C        2.519911607   3.700441902   2.145135870
C        4.844701607   2.244058098   8.567245870
C        2.129668393   8.188558098  10.699084130
O        0.108006508   3.629472252  12.239888095
O        5.209816508   2.315027748   5.817778095
O        4.541573492   8.259527748   0.604331905
N       -0.910601979   6.617790246   9.585596912
N        4.191208021  11.215709754   3.163486912
N        5.560181979   5.271209754   3.258623088
C       -0.626793222   5.675165841  10.481348766
C        4.475016778   0.269334159   4.059238766
C        5.276373222   6.213834159   2.362871234
C        1.617797701   5.934931054   1.979674903
C        3.942587701  11.898568946   8.401784903
C        3.031782299   5.954068946  10.864545097
C       -0.786978739   5.782010917  11.849169071
C        4.314831261   0.162489083   5.427059071
C        5.436558739   6.106989083   0.995050929
C        1.426614813   5.982194247   3.345774370
C        3.751404813  11.851305753   9.767884370
C        3.222965187   5.906805753   9.498455630
C       -1.438159624   7.907384910   9.999552259
C        3.663650376   9.926115090   3.577442259
C        6.087739624   3.981615090   2.844667741
C       -0.775890777   6.387753606   8.154104432
C        4.325919223  11.445746394   1.731994432
C        5.425470777   5.501246394   4.690115568
C        1.916831675   3.882504953   6.303649071
C        4.241621675   2.061995047  12.725769071
C        2.732748325   8.006495047   6.540570929
H        1.292813203   3.002965319   6.073452011
H        3.617603203   2.941534681  12.495562011
H        3.356766797   8.886034681   6.770777989
H        1.733662049   4.216035107   7.329954638
H        6.835472049   1.728464893   0.907844638
H        2.915917951   7.672964893   5.514265362
H        2.979943033   3.623100278   6.185313049
H       -2.121866967   2.321399722  12.607423049
H        1.669636967   8.265899722   6.658916951
H        2.641269809   2.863581093   4.114942413
H        4.966059809   3.080918907  10.537052413
H        2.008310191   9.025418907   8.729277587
H       -0.239110638   4.742386890  10.069858862
H        4.862699362   1.202113110   3.647748862
H        4.888690638   7.146613110   2.774361138
H       -1.209612235   6.687025733  12.273010310
H        3.892197765  11.146474267   5.850900310
H        5.859192235   5.201974267   0.571219690
H        0.969210631   6.845402501   3.829527975
H        3.294000631  10.988097499  10.251637975
H        3.680369369   5.043597499   9.014702025
H        1.319626707   6.804528655   1.396363285
H        3.644426707  11.028971345   7.818473285
H        3.329953293   5.084471345  11.447856715
H       -0.093545154   7.132169134   7.720682173
H        5.008264846  10.701330866   1.298572173
H        4.743125154   4.756830866   5.123547827
H       -0.762062226   8.369706122  10.733995406
H        4.339747774   9.463793878   4.311885406
H        5.411642226   3.519293878   2.110224594
H       -1.504222108   8.558939601   9.120807162
H        3.597587892   9.274560399   2.698697162
H        6.153812108   3.330060399   3.723422838
H       -0.399613327   5.375783659   7.978532526
H        4.702196673   0.568716341   1.556422526
H        5.049193327   6.513216341   4.865687474
H        4.990279227   7.780306015  10.446259154
H        2.665489227  10.053193985   4.024149154
H       -0.340699227   4.108693985   2.397960846
H       -1.759543371   6.483625677   7.670770315
H        3.342266629  11.349874323   1.248660315
H        6.409123371   5.405374323   5.173459685
H        3.067532051   2.835677241   0.559487831
H        5.392322051   3.108822759   6.981597831
H        1.582047949   9.053322759  12.284732169
End final coordinates



     Writing output data file 2hp_3_122.save
 
     init_run     :     30.33s CPU     31.61s WALL (       1 calls)
     electrons    :  21166.83s CPU  21495.52s WALL (      35 calls)
     update_pot   :     15.16s CPU     15.17s WALL (      34 calls)
     forces       :    738.10s CPU    750.09s WALL (      35 calls)

     Called by init_run:
     wfcinit      :     26.74s CPU     27.40s WALL (       1 calls)
     potinit      :      1.48s CPU      1.50s WALL (       1 calls)

     Called by electrons:
     c_bands      :  18713.71s CPU  18943.47s WALL (     358 calls)
     sum_band     :   1968.84s CPU   2018.23s WALL (     358 calls)
     v_of_rho     :     60.61s CPU     60.64s WALL (     393 calls)
     newd         :    140.17s CPU    193.62s WALL (     393 calls)
     mix_rho      :     12.29s CPU     12.37s WALL (     358 calls)

     Called by c_bands:
     init_us_2    :    158.96s CPU    159.05s WALL (    3008 calls)
     cegterg      :  18129.94s CPU  18359.35s WALL (    1432 calls)

     Called by sum_band:
     sum_band:bec :      1.11s CPU      1.10s WALL (    1432 calls)
     addusdens    :    145.00s CPU    193.65s WALL (     358 calls)

     Called by *egterg:
     h_psi        :  10129.49s CPU  10134.11s WALL (    7188 calls)
     s_psi        :   2422.22s CPU   2422.17s WALL (    7188 calls)
     g_psi        :     62.49s CPU     62.49s WALL (    5752 calls)
     cdiaghg      :    592.94s CPU    593.28s WALL (    7048 calls)

     Called by h_psi:
     h_psi:pot    :  10031.27s CPU  10035.76s WALL (    7188 calls)
     h_psi:calbec :   2286.07s CPU   2286.13s WALL (    7188 calls)
     vloc_psi     :   5323.35s CPU   5327.81s WALL (    7188 calls)
     add_vuspsi   :   2421.84s CPU   2421.79s WALL (    7188 calls)

     General routines
     calbec       :   3305.96s CPU   3305.98s WALL (    9180 calls)
     fft          :     24.01s CPU     24.40s WALL (    5110 calls)
     fftw         :   5464.38s CPU   5468.50s WALL ( 1739662 calls)
     davcio       :      0.01s CPU      0.28s WALL (       4 calls)
 
     Parallel routines
     fft_scatter  :    612.62s CPU    613.49s WALL ( 1744772 calls)
 
     PWSCF        :     6h 6m CPU        6h12m WALL

 
   This run was terminated on:  19:57:35   5Oct2017            

=------------------------------------------------------------------------------=
   JOB DONE.
=------------------------------------------------------------------------------=
