
     Program PWSCF v.6.1 (svn rev. 13369) starts on  9Oct2017 at  9:54:25 

     This program is part of the open-source Quantum ESPRESSO suite
     for quantum simulation of materials; please cite
         "P. Giannozzi et al., J. Phys.:Condens. Matter 21 395502 (2009);
          URL http://www.quantum-espresso.org", 
     in publications or presentations arising from this work. More details at
     http://www.quantum-espresso.org/quote

     Parallel version (MPI), running on     1 processors
     Waiting for input...
     Reading input from standard input

     Current dimensions of program PWSCF are:
     Max number of different atomic species (ntypx) = 10
     Max number of k-points (npk) =  40000
     Max angular momentum in pseudopotentials (lmaxx) =  3
     Message from routine iosys:
     london is obsolete, use "vdw_corr='grimme-d2'" instead

     IMPORTANT: XC functional enforced from input :
     Exchange-correlation      = PBE ( 1  4  3  4 0 0)
     Any further DFT definition will be discarded
     Please, verify this is what you really want

               file C.pbe-rrkjus.UPF: wavefunction(s)  2S 2P renormalized
               file H.pbe-rrkjus.UPF: wavefunction(s)  1S renormalized
               file O.pbe-rrkjus.UPF: wavefunction(s)  2S renormalized
               file N.pbe-rrkjus.UPF: wavefunction(s)  2S renormalized

     -------------------------------------
     Parameters for Dispersion Correction:
     -------------------------------------
       atom      VdW radius       C_6     

        C          2.744         60.710
        H          1.892          4.857
        O          2.536         24.284
        N          2.640         42.670

     Subspace diagonalization in iterative solution of the eigenvalue problem:
     a serial algorithm will be used

 
     G-vector sticks info
     --------------------
     sticks:   dense  smooth     PW     G-vecs:    dense   smooth      PW
     Sum        3019    3019    837               169855   169855   25105
 


     bravais-lattice index     =            0
     lattice parameter (alat)  =      14.0342  a.u.
     unit-cell volume          =    7653.1420 (a.u.)^3
     number of atoms/cell      =          124
     number of atomic types    =            4
     number of electrons       =       344.00
     number of Kohn-Sham states=          172
     kinetic-energy cutoff     =      30.0000  Ry
     charge density cutoff     =     120.0000  Ry
     convergence threshold     =      1.0E-07
     mixing beta               =       0.7000
     number of iterations used =            8  plain     mixing
     Exchange-correlation      = PBE ( 1  4  3  4 0 0)
     nstep                     =           50


     celldm(1)=  14.034240  celldm(2)=   0.000000  celldm(3)=   0.000000
     celldm(4)=   0.000000  celldm(5)=   0.000000  celldm(6)=   0.000000

     crystal axes: (cart. coord. in units of alat)
               a(1) = (   1.000000   0.000000   0.000000 )  
               a(2) = (   0.000000   1.600867   0.000000 )  
               a(3) = (  -0.373929   0.000000   1.729489 )  

     reciprocal axes: (cart. coord. in units 2 pi/alat)
               b(1) = (  1.000000  0.000000  0.216208 )  
               b(2) = (  0.000000  0.624661  0.000000 )  
               b(3) = (  0.000000  0.000000  0.578206 )  


     PseudoPot. # 1 for C  read from file:
     /data/home/btx156/espresso/pseudo/C.pbe-rrkjus.UPF
     MD5 check sum: 00fb224312de0c5b6853bd333518df6f
     Pseudo is Ultrasoft, Zval =  4.0
     Generated by new atomic code, or converted to UPF format
     Using radial grid of  627 points,  4 beta functions with: 
                l(1) =   0
                l(2) =   0
                l(3) =   1
                l(4) =   1
     Q(r) pseudized with 0 coefficients 


     PseudoPot. # 2 for H  read from file:
     /data/home/btx156/espresso/pseudo/H.pbe-rrkjus.UPF
     MD5 check sum: 7cc9d459525c9a0585f487a71c3c9563
     Pseudo is Ultrasoft, Zval =  1.0
     Generated by new atomic code, or converted to UPF format
     Using radial grid of 1061 points,  2 beta functions with: 
                l(1) =   0
                l(2) =   0
     Q(r) pseudized with 0 coefficients 


     PseudoPot. # 3 for O  read from file:
     /data/home/btx156/espresso/pseudo/O.pbe-rrkjus.UPF
     MD5 check sum: 390ba29e75625707450f3bd3f0eb6be9
     Pseudo is Ultrasoft, Zval =  6.0
     Generated by new atomic code, or converted to UPF format
     Using radial grid of 1269 points,  4 beta functions with: 
                l(1) =   0
                l(2) =   0
                l(3) =   1
                l(4) =   1
     Q(r) pseudized with 0 coefficients 


     PseudoPot. # 4 for N  read from file:
     /data/home/btx156/espresso/pseudo/N.pbe-rrkjus.UPF
     MD5 check sum: 0c3fbe5807a93f9ba59d5a7019aa238b
     Pseudo is Ultrasoft, Zval =  5.0
     Generated by new atomic code, or converted to UPF format
     Using radial grid of 1257 points,  4 beta functions with: 
                l(1) =   0
                l(2) =   0
                l(3) =   1
                l(4) =   1
     Q(r) pseudized with 0 coefficients 


     atomic species   valence    mass     pseudopotential
        C              4.00    12.00000     C ( 1.00)
        H              1.00     1.00790     H ( 1.00)
        O              6.00    15.99940     O ( 1.00)
        N              5.00    14.00670     N ( 1.00)

      4 Sym. Ops., with inversion, found ( 2 have fractional translation)



   Cartesian axes

     site n.     atom                  positions (alat units)
         1           O   tau(   1) = (   0.1038006   1.4717340   0.1286529  )
         2           C   tau(   2) = (   0.0227598   1.4478082   0.6863767  )
         3           O   tau(   3) = (  -0.0955649   1.1487167   0.6497563  )
         4           C   tau(   4) = (  -0.0054110   1.4358561   0.8825657  )
         5           C   tau(   5) = (   0.0720950   1.4560350   0.3086149  )
         6           C   tau(   6) = (  -0.0021258   1.3034969   0.3883308  )
         7           C   tau(   7) = (  -0.0262733   1.2987022   0.5758994  )
         8           O   tau(   8) = (  -0.0754365   1.2891461   0.9461183  )
         9           N   tau(   9) = (   0.0617203   0.0906593   1.3035215  )
        10           C   tau(  10) = (   0.0235051   1.5646010   1.1829076  )
        11           C   tau(  11) = (   0.0951973  -0.0012885   0.5981789  )
        12           C   tau(  12) = (   0.0450743   1.5789878   0.9987304  )
        13           C   tau(  13) = (   0.1209403   0.0050756   0.4142320  )
        14           C   tau(  14) = (   0.1327565   0.2643047   1.2477820  )
        15           C   tau(  15) = (   0.0435813   0.0596846   1.4962736  )
        16           C   tau(  16) = (   0.0549320   1.3232172   0.0159509  )
        17           H   tau(  17) = (   0.1389568   1.2047862   0.0469485  )
        18           H   tau(  18) = (  -0.2943328   1.3681274   1.6072463  )
        19           H   tau(  19) = (   0.9117829   1.2882881   0.0318863  )
        20           H   tau(  20) = (  -0.0426144   1.1860180   0.3106627  )
        21           H   tau(  21) = (  -0.0286968   1.4390013   1.2383151  )
        22           H   tau(  22) = (   0.1019824   0.0999819   0.9416597  )
        23           H   tau(  23) = (   0.1825303   0.1213075   0.3490941  )
        24           H   tau(  24) = (   0.1353464   0.1158038   0.6767224  )
        25           H   tau(  25) = (  -0.0482973   0.1599210   1.5546357  )
        26           H   tau(  26) = (   0.0417193   0.3265567   1.1488884  )
        27           H   tau(  27) = (   0.1416533   0.3520372   1.3661074  )
        28           H   tau(  28) = (  -0.0070849   1.5242889   1.5199146  )
        29           H   tau(  29) = (   0.2671600   0.2471933   1.1876324  )
        30           H   tau(  30) = (   0.1760312   0.0725939   1.5613564  )
        31           H   tau(  31) = (  -0.1000110   1.1822607   0.7894086  )
        32           O   tau(  32) = (   0.2092349   0.6713004   0.7360927  )
        33           O   tau(  33) = (   0.5222705   0.1291332   1.6008370  )
        34           O   tau(  34) = (   0.4168362   0.9295668   0.9933972  )
        35           C   tau(  35) = (   0.2902758   0.6473746   0.1783690  )
        36           C   tau(  36) = (   0.6033114   0.1530590   1.0431133  )
        37           C   tau(  37) = (   0.3357954   0.9534926   1.5511210  )
        38           O   tau(  38) = (   0.4086005   0.3482831   0.2149880  )
        39           O   tau(  39) = (   0.7216361   0.4521504   1.0797323  )
        40           O   tau(  40) = (   0.2174706   1.2525840   1.5145006  )
        41           C   tau(  41) = (  -0.0554823   0.6354225   1.7116686  )
        42           C   tau(  42) = (   0.6314821   0.1650111   0.8469243  )
        43           C   tau(  43) = (   0.6815535   0.9654447   0.0178200  )
        44           C   tau(  44) = (   0.2409406   0.6556014   0.5561294  )
        45           C   tau(  45) = (   0.5539762   0.1448322   1.4208737  )
        46           C   tau(  46) = (   0.3851305   0.9452658   1.1733592  )
        47           C   tau(  47) = (   0.3151614   0.5030633   0.4764135  )
        48           C   tau(  48) = (   0.6281970   0.2973702   1.3411578  )
        49           C   tau(  49) = (   0.3109098   1.0978038   1.2530751  )
        50           C   tau(  50) = (   0.3393089   0.4982686   0.2888449  )
        51           C   tau(  51) = (   0.6523445   0.3021649   1.1535892  )
        52           C   tau(  52) = (   0.2867622   1.1025985   1.4406437  )
        53           O   tau(  53) = (   0.0145432   0.4887125   1.6481146  )
        54           O   tau(  54) = (   0.7015076   0.3117211   0.7833703  )
        55           O   tau(  55) = (   0.6115280   1.1121547   0.0813740  )
        56           N   tau(  56) = (  -0.1226136   0.8910929   1.2907114  )
        57           N   tau(  57) = (   0.5643509   1.5102079   0.4259671  )
        58           N   tau(  58) = (   0.7486847   0.7097743   0.4387772  )
        59           C   tau(  59) = (  -0.0843984   0.7641674   1.4113253  )
        60           C   tau(  60) = (   0.6025660   0.0362661   0.5465810  )
        61           C   tau(  61) = (   0.7104696   0.8366997   0.3181633  )
        62           C   tau(  62) = (   0.2178383   0.7991451   0.2665654  )
        63           C   tau(  63) = (   0.5308738   1.6021556   1.1313097  )
        64           C   tau(  64) = (   0.4082329   0.8017220   1.4629232  )
        65           C   tau(  65) = (  -0.1059676   0.7785542   1.5955039  )
        66           C   tau(  66) = (   0.5809969   0.0218793   0.7307596  )
        67           C   tau(  67) = (   0.7320387   0.8223129   0.1339847  )
        68           C   tau(  68) = (   0.1920953   0.8055092   0.4505123  )
        69           C   tau(  69) = (   0.5051309   1.5957916   1.3152566  )
        70           C   tau(  70) = (   0.4339759   0.7953580   1.2789777  )
        71           C   tau(  71) = (  -0.1936498   1.0647382   1.3464509  )
        72           C   tau(  72) = (   0.4933146   1.3365625   0.4817066  )
        73           C   tau(  73) = (   0.8197210   0.5361289   0.3830377  )
        74           C   tau(  74) = (  -0.1044746   0.8601182   1.0979593  )
        75           C   tau(  75) = (   0.5824899   1.5411826   0.2332150  )
        76           C   tau(  76) = (   0.7305457   0.7407490   0.6315293  )
        77           C   tau(  77) = (   0.2581035   0.5227836   0.8487934  )
        78           C   tau(  78) = (   0.5711391   0.2776499   1.7135390  )
        79           C   tau(  79) = (   0.3679676   1.0780835   0.8806952  )
        80           H   tau(  80) = (   0.1740787   0.4043526   0.8177971  )
        81           H   tau(  81) = (   0.4871143   0.3960809   1.6825414  )
        82           H   tau(  82) = (   0.4519924   1.1965145   0.9116928  )
        83           H   tau(  83) = (   0.2334395   0.5676938   0.9869866  )
        84           H   tau(  84) = (   0.9204040   0.2327397   0.1222423  )
        85           H   tau(  85) = (   0.3926316   1.0331733   0.7425020  )
        86           H   tau(  86) = (   0.4012527   0.4878545   0.8328593  )
        87           H   tau(  87) = (  -0.2857118   0.3125791   1.6976036  )
        88           H   tau(  88) = (   0.2248185   1.1130126   0.8966306  )
        89           H   tau(  89) = (   0.3556499   0.3855844   0.5540816  )
        90           H   tau(  90) = (   0.6686855   0.4148492   1.4188259  )
        91           H   tau(  91) = (   0.2704212   1.2152828   1.1754070  )
        92           H   tau(  92) = (  -0.0321965   0.6385677   1.3559178  )
        93           H   tau(  93) = (   0.6547679   0.1618659   0.4911735  )
        94           H   tau(  94) = (   0.6582677   0.9622995   0.3735708  )
        95           H   tau(  95) = (  -0.1628756   0.9004155   1.6525746  )
        96           H   tau(  96) = (   0.5240888   1.5008852   0.7878303  )
        97           H   tau(  97) = (   0.7889468   0.7004517   0.0769154  )
        98           H   tau(  98) = (   0.1305053   0.9217411   0.5156502  )
        99           H   tau(  99) = (   0.4435409   1.4795596   1.3803945  )
       100           H   tau( 100) = (   0.4955659   0.6791260   1.2138397  )
       101           H   tau( 101) = (   0.1776892   0.9162374   0.1880219  )
       102           H   tau( 102) = (   0.4907261   1.4850633   1.0527662  )
       103           H   tau( 103) = (   0.4483819   0.6846298   1.5414667  )
       104           H   tau( 104) = (  -0.0125960   0.9603546   1.0395985  )
       105           H   tau( 105) = (   0.6743685   1.4409462   0.1748542  )
       106           H   tau( 106) = (   0.6386671   0.6405126   0.6898914  )
       107           H   tau( 107) = (  -0.1026125   1.1269903   1.4453445  )
       108           H   tau( 108) = (   0.5843519   1.2743104   0.5806002  )
       109           H   tau( 109) = (   0.7286837   0.4738769   0.2841441  )
       110           H   tau( 110) = (  -0.2025452   1.1524708   1.2281269  )
       111           H   tau( 111) = (   0.4844192   1.2488299   0.3633826  )
       112           H   tau( 112) = (   0.8286177   0.4483964   0.5013631  )
       113           H   tau( 113) = (  -0.0538084   0.7238553   1.0743183  )
       114           H   tau( 114) = (   0.6331560   0.0765783   0.2095740  )
       115           H   tau( 115) = (   0.6798795   0.8770119   0.6551703  )
       116           H   tau( 116) = (   0.6719467   1.0476269   1.4066005  )
       117           H   tau( 117) = (   0.3589111   1.3536738   0.5418562  )
       118           H   tau( 118) = (  -0.0458755   0.5532402   0.3228881  )
       119           H   tau( 119) = (  -0.2369245   0.8730275   1.0328778  )
       120           H   tau( 120) = (   0.4500399   1.5282733   0.1681335  )
       121           H   tau( 121) = (   0.8629956   0.7278397   0.6966121  )
       122           H   tau( 122) = (   0.4130466   0.3818271   0.0753357  )
       123           H   tau( 123) = (   0.7260822   0.4186065   0.9400800  )
       124           H   tau( 124) = (   0.2130245   1.2190400   1.6541529  )

     number of k points=    12
                       cart. coord. in units 2pi/alat
        k(    1) = (   0.0000000   0.0000000   0.0000000), wk =   0.1250000
        k(    2) = (   0.0000000   0.0000000  -0.2891028), wk =   0.1250000
        k(    3) = (   0.0000000  -0.3123307   0.0000000), wk =   0.1250000
        k(    4) = (   0.0000000  -0.3123307  -0.2891028), wk =   0.1250000
        k(    5) = (   0.2500000   0.0000000   0.0540519), wk =   0.2500000
        k(    6) = (   0.2500000   0.0000000  -0.2350509), wk =   0.2500000
        k(    7) = (   0.2500000  -0.3123307   0.0540519), wk =   0.2500000
        k(    8) = (   0.2500000  -0.3123307  -0.2350509), wk =   0.2500000
        k(    9) = (  -0.5000000   0.0000000  -0.1081038), wk =   0.1250000
        k(   10) = (  -0.5000000   0.0000000  -0.3972066), wk =   0.1250000
        k(   11) = (  -0.5000000  -0.3123307  -0.1081038), wk =   0.1250000
        k(   12) = (  -0.5000000  -0.3123307  -0.3972066), wk =   0.1250000

     Dense  grid:   169855 G-vectors     FFT dimensions: (  50,  80,  90)

     Estimated max dynamical RAM per process >    1491.84MB

     Initial potential from superposition of free atoms

     starting charge  338.22517, renormalised to  344.00000
     Starting wfc are  316 randomized atomic wfcs

     total cpu time spent up to now is       73.6 secs

     per-process dynamical memory:  1084.6 Mb

     Self-consistent Calculation

     iteration #  1     ecut=    30.00 Ry     beta=0.70
     Davidson diagonalization with overlap
     ethr =  1.00E-02,  avg # of iterations =  2.0

     total cpu time spent up to now is      224.8 secs

     total energy              =   -1073.66985779 Ry
     Harris-Foulkes estimate   =   -1088.65065704 Ry
     estimated scf accuracy    <      22.78713630 Ry

     iteration #  2     ecut=    30.00 Ry     beta=0.70
     Davidson diagonalization with overlap
     ethr =  6.62E-03,  avg # of iterations =  4.0

     total cpu time spent up to now is      379.8 secs

     total energy              =   -1075.98671600 Ry
     Harris-Foulkes estimate   =   -1083.60795197 Ry
     estimated scf accuracy    <      13.83618535 Ry

     iteration #  3     ecut=    30.00 Ry     beta=0.70
     Davidson diagonalization with overlap
     ethr =  4.02E-03,  avg # of iterations =  4.0

     total cpu time spent up to now is      529.9 secs

     total energy              =   -1079.11182363 Ry
     Harris-Foulkes estimate   =   -1080.78799075 Ry
     estimated scf accuracy    <       3.44794235 Ry

     iteration #  4     ecut=    30.00 Ry     beta=0.70
     Davidson diagonalization with overlap
     ethr =  1.00E-03,  avg # of iterations =  4.0

     total cpu time spent up to now is      675.2 secs

     total energy              =   -1079.83221264 Ry
     Harris-Foulkes estimate   =   -1080.23497397 Ry
     estimated scf accuracy    <       0.94617760 Ry

     iteration #  5     ecut=    30.00 Ry     beta=0.70
     Davidson diagonalization with overlap
     ethr =  2.75E-04,  avg # of iterations =  4.0

     total cpu time spent up to now is      809.5 secs

     total energy              =   -1080.00871764 Ry
     Harris-Foulkes estimate   =   -1080.03447409 Ry
     estimated scf accuracy    <       0.05238142 Ry

     iteration #  6     ecut=    30.00 Ry     beta=0.70
     Davidson diagonalization with overlap
     ethr =  1.52E-05,  avg # of iterations =  4.0

     total cpu time spent up to now is      970.0 secs

     total energy              =   -1080.02253084 Ry
     Harris-Foulkes estimate   =   -1080.02462732 Ry
     estimated scf accuracy    <       0.00475796 Ry

     iteration #  7     ecut=    30.00 Ry     beta=0.70
     Davidson diagonalization with overlap
     ethr =  1.38E-06,  avg # of iterations =  4.0

     total cpu time spent up to now is     1138.5 secs

     total energy              =   -1080.02353059 Ry
     Harris-Foulkes estimate   =   -1080.02407385 Ry
     estimated scf accuracy    <       0.00116621 Ry

     iteration #  8     ecut=    30.00 Ry     beta=0.70
     Davidson diagonalization with overlap
     ethr =  3.39E-07,  avg # of iterations =  4.0

     total cpu time spent up to now is     1304.1 secs

     total energy              =   -1080.02380777 Ry
     Harris-Foulkes estimate   =   -1080.02388640 Ry
     estimated scf accuracy    <       0.00018143 Ry

     iteration #  9     ecut=    30.00 Ry     beta=0.70
     Davidson diagonalization with overlap
     ethr =  5.27E-08,  avg # of iterations =  4.0

     total cpu time spent up to now is     1470.5 secs

     total energy              =   -1080.02384617 Ry
     Harris-Foulkes estimate   =   -1080.02385987 Ry
     estimated scf accuracy    <       0.00002995 Ry

     iteration # 10     ecut=    30.00 Ry     beta=0.70
     Davidson diagonalization with overlap
     ethr =  8.71E-09,  avg # of iterations =  4.0

     total cpu time spent up to now is     1627.4 secs

     total energy              =   -1080.02385241 Ry
     Harris-Foulkes estimate   =   -1080.02385382 Ry
     estimated scf accuracy    <       0.00000309 Ry

     iteration # 11     ecut=    30.00 Ry     beta=0.70
     Davidson diagonalization with overlap
     ethr =  8.98E-10,  avg # of iterations =  3.0

     total cpu time spent up to now is     1791.1 secs

     total energy              =   -1080.02385322 Ry
     Harris-Foulkes estimate   =   -1080.02385341 Ry
     estimated scf accuracy    <       0.00000053 Ry

     iteration # 12     ecut=    30.00 Ry     beta=0.70
     Davidson diagonalization with overlap
     ethr =  1.53E-10,  avg # of iterations =  3.1

     total cpu time spent up to now is     1950.8 secs

     End of self-consistent calculation

          k = 0.0000 0.0000 0.0000 ( 21265 PWs)   bands (ev):

   -20.7070 -20.7062 -20.6641 -20.6639 -20.0472 -20.0457 -20.0437 -20.0428
   -18.8436 -18.8414 -18.8413 -18.8348 -18.0422 -18.0419 -18.0411 -18.0376
   -14.9434 -14.9390 -14.9386 -14.9344 -13.2625 -13.2421 -13.1753 -13.1486
   -12.6969 -12.6824 -12.6086 -12.6021 -12.2391 -12.2191 -12.1906 -12.1709
   -11.8625 -11.8454 -11.8246 -11.8028 -11.4039 -11.3770 -11.3554 -11.3477
   -10.8000 -10.7526 -10.7189 -10.6989  -9.1138  -9.0963  -9.0840  -9.0640
    -8.7836  -8.7492  -8.7341  -8.7231  -8.3773  -8.3328  -8.2102  -8.1726
    -7.3774  -7.3668  -7.2403  -7.2183  -6.9743  -6.9231  -6.9144  -6.8633
    -6.7415  -6.6946  -6.6813  -6.6219  -6.2153  -6.1793  -6.1762  -6.1669
    -5.8382  -5.8180  -5.8131  -5.8069  -5.7980  -5.7039  -5.6457  -5.6363
    -5.4999  -5.4647  -5.4242  -5.3523  -5.1951  -5.1914  -5.0808  -5.0706
    -4.9195  -4.8970  -4.8841  -4.8530  -4.6801  -4.6186  -4.5757  -4.5214
    -4.3558  -4.2495  -4.2403  -4.1803  -4.1619  -4.1188  -4.1136  -4.0246
    -3.9628  -3.9453  -3.9085  -3.8296  -3.6989  -3.6623  -3.5939  -3.5929
    -3.5653  -3.5486  -3.5055  -3.4551  -3.4484  -3.4395  -3.3973  -3.3498
    -3.1997  -3.1634  -3.1279  -3.1132  -3.0733  -3.0109  -3.0017  -3.0007
    -2.9616  -2.9099  -2.8916  -2.8263  -2.7738  -2.7594  -2.7231  -2.6851
    -2.5029  -2.4576  -2.4323  -2.4263  -2.0254  -2.0213  -2.0094  -1.9911
    -1.8687  -1.8386  -1.7865  -1.7079  -1.6498  -1.5767  -1.4799  -1.4346
    -1.2234  -1.1960  -1.0948  -1.0237   0.2235   0.2684   0.2833   0.2981
     0.3190   0.3232   0.3477   0.3879   0.5624   0.6527   0.6825   0.8228
     1.1567   1.1736   1.3307   1.3920

          k = 0.0000 0.0000-0.2891 ( 21228 PWs)   bands (ev):

   -20.7066 -20.7065 -20.6641 -20.6640 -20.0464 -20.0463 -20.0433 -20.0433
   -18.8427 -18.8426 -18.8380 -18.8378 -18.0417 -18.0416 -18.0397 -18.0397
   -14.9421 -14.9421 -14.9353 -14.9352 -13.2558 -13.2558 -13.1673 -13.1672
   -12.6798 -12.6798 -12.6013 -12.6013 -12.2284 -12.2283 -12.1784 -12.1783
   -11.8534 -11.8533 -11.8095 -11.8095 -11.3975 -11.3975 -11.3737 -11.3736
   -10.7678 -10.7678 -10.7031 -10.7031  -9.1215  -9.1214  -9.0551  -9.0551
    -8.7556  -8.7556  -8.7183  -8.7182  -8.3345  -8.3345  -8.2359  -8.2358
    -7.3419  -7.3419  -7.3022  -7.3022  -6.9258  -6.9257  -6.9026  -6.9025
    -6.7146  -6.7145  -6.6230  -6.6230  -6.1843  -6.1843  -6.1190  -6.1190
    -5.9383  -5.9383  -5.7703  -5.7703  -5.7384  -5.7383  -5.6578  -5.6578
    -5.4312  -5.4312  -5.4085  -5.4085  -5.1662  -5.1662  -5.1100  -5.1100
    -4.9601  -4.9601  -4.8625  -4.8624  -4.6328  -4.6328  -4.5405  -4.5405
    -4.2513  -4.2512  -4.2192  -4.2192  -4.1770  -4.1770  -4.0830  -4.0830
    -3.9295  -3.9295  -3.8348  -3.8348  -3.6746  -3.6745  -3.6597  -3.6597
    -3.5158  -3.5158  -3.4861  -3.4861  -3.4617  -3.4617  -3.3785  -3.3785
    -3.2034  -3.2034  -3.1457  -3.1457  -3.0716  -3.0716  -2.9689  -2.9689
    -2.8906  -2.8906  -2.8367  -2.8367  -2.7589  -2.7588  -2.7136  -2.7136
    -2.4988  -2.4988  -2.4201  -2.4201  -2.0270  -2.0270  -2.0113  -2.0113
    -1.8668  -1.8667  -1.7484  -1.7483  -1.5990  -1.5990  -1.4599  -1.4598
    -1.1496  -1.1496  -1.1037  -1.1037   0.2696   0.2696   0.3028   0.3029
     0.3129   0.3129   0.3326   0.3326   0.6264   0.6264   0.7292   0.7292
     1.1510   1.1510   1.3872   1.3872

          k = 0.0000-0.3123 0.0000 ( 21240 PWs)   bands (ev):

   -20.7066 -20.7065 -20.6641 -20.6639 -20.0465 -20.0464 -20.0432 -20.0432
   -18.8436 -18.8435 -18.8371 -18.8370 -18.0423 -18.0423 -18.0391 -18.0390
   -14.9412 -14.9412 -14.9365 -14.9365 -13.2524 -13.2524 -13.1622 -13.1621
   -12.6897 -12.6897 -12.6048 -12.6048 -12.2172 -12.2171 -12.1945 -12.1945
   -11.8419 -11.8419 -11.8253 -11.8253 -11.3789 -11.3789 -11.3626 -11.3625
   -10.7755 -10.7755 -10.7100 -10.7099  -9.0986  -9.0986  -9.0843  -9.0843
    -8.7734  -8.7734  -8.7158  -8.7158  -8.2965  -8.2965  -8.2526  -8.2526
    -7.3119  -7.3119  -7.2963  -7.2963  -6.9384  -6.9384  -6.8872  -6.8872
    -6.7195  -6.7195  -6.6613  -6.6613  -6.2083  -6.2083  -6.1651  -6.1650
    -5.8327  -5.8327  -5.8151  -5.8150  -5.7144  -5.7144  -5.6927  -5.6927
    -5.4620  -5.4620  -5.3741  -5.3741  -5.1975  -5.1974  -5.0735  -5.0734
    -4.9112  -4.9112  -4.8688  -4.8688  -4.6104  -4.6103  -4.5790  -4.5790
    -4.2593  -4.2593  -4.2136  -4.2135  -4.1780  -4.1780  -4.0517  -4.0517
    -3.9592  -3.9591  -3.8736  -3.8736  -3.6694  -3.6694  -3.5983  -3.5983
    -3.5531  -3.5530  -3.5010  -3.5010  -3.4050  -3.4049  -3.3958  -3.3958
    -3.2200  -3.2200  -3.1157  -3.1156  -3.0164  -3.0164  -2.9953  -2.9952
    -2.9687  -2.9687  -2.8556  -2.8556  -2.7668  -2.7668  -2.7186  -2.7186
    -2.4607  -2.4607  -2.4144  -2.4143  -2.0248  -2.0248  -2.0047  -2.0047
    -1.8178  -1.8178  -1.7603  -1.7603  -1.6417  -1.6417  -1.4572  -1.4571
    -1.2117  -1.2117  -1.0584  -1.0584   0.2453   0.2453   0.3063   0.3063
     0.3122   0.3122   0.3630   0.3630   0.6074   0.6074   0.7591   0.7591
     1.1612   1.1613   1.3650   1.3650

          k = 0.0000-0.3123-0.2891 ( 21216 PWs)   bands (ev):

   -20.7066 -20.7065 -20.6641 -20.6640 -20.0463 -20.0462 -20.0434 -20.0434
   -18.8427 -18.8426 -18.8379 -18.8378 -18.0409 -18.0408 -18.0405 -18.0405
   -14.9416 -14.9416 -14.9358 -14.9358 -13.2550 -13.2549 -13.1684 -13.1683
   -12.6765 -12.6765 -12.6041 -12.6040 -12.2126 -12.2126 -12.1959 -12.1958
   -11.8464 -11.8464 -11.8170 -11.8170 -11.3848 -11.3848 -11.3844 -11.3844
   -10.7440 -10.7440 -10.7282 -10.7282  -9.0929  -9.0929  -9.0773  -9.0773
    -8.7643  -8.7643  -8.7186  -8.7186  -8.2953  -8.2953  -8.2715  -8.2714
    -7.3280  -7.3280  -7.2925  -7.2925  -6.9382  -6.9382  -6.9309  -6.9309
    -6.6711  -6.6711  -6.6593  -6.6593  -6.1462  -6.1462  -6.1442  -6.1442
    -5.9027  -5.9026  -5.8575  -5.8575  -5.7325  -5.7324  -5.6744  -5.6743
    -5.3949  -5.3949  -5.3710  -5.3710  -5.1852  -5.1851  -5.0927  -5.0926
    -4.9311  -4.9311  -4.9188  -4.9188  -4.5798  -4.5798  -4.5684  -4.5684
    -4.2618  -4.2618  -4.2291  -4.2291  -4.1367  -4.1367  -4.1190  -4.1190
    -3.8599  -3.8599  -3.8581  -3.8580  -3.6705  -3.6705  -3.6533  -3.6533
    -3.5371  -3.5371  -3.4958  -3.4958  -3.4500  -3.4500  -3.4181  -3.4181
    -3.1650  -3.1650  -3.1424  -3.1424  -3.0830  -3.0830  -2.9704  -2.9703
    -2.9463  -2.9463  -2.8331  -2.8331  -2.7428  -2.7428  -2.7254  -2.7253
    -2.4889  -2.4889  -2.4098  -2.4098  -2.0263  -2.0263  -2.0066  -2.0066
    -1.7954  -1.7954  -1.7759  -1.7759  -1.6483  -1.6483  -1.4547  -1.4546
    -1.1526  -1.1526  -1.1051  -1.1051   0.2756   0.2756   0.2863   0.2864
     0.3265   0.3266   0.3341   0.3342   0.6231   0.6231   0.7354   0.7354
     1.1515   1.1515   1.3852   1.3853

          k = 0.2500 0.0000 0.0541 ( 21270 PWs)   bands (ev):

   -20.7068 -20.7062 -20.6641 -20.6639 -20.0469 -20.0459 -20.0436 -20.0429
   -18.8433 -18.8417 -18.8403 -18.8357 -18.0419 -18.0412 -18.0411 -18.0381
   -14.9440 -14.9408 -14.9395 -14.9364 -13.2504 -13.2295 -13.1873 -13.1620
   -12.6855 -12.6741 -12.6175 -12.6141 -12.2369 -12.2237 -12.1852 -12.1721
   -11.8605 -11.8485 -11.8220 -11.8067 -11.3993 -11.3804 -11.3526 -11.3470
   -10.7900 -10.7450 -10.7327 -10.7070  -9.1137  -9.1019  -9.0796  -9.0647
    -8.7748  -8.7476  -8.7362  -8.7314  -8.3708  -8.3394  -8.2067  -8.1801
    -7.3789  -7.3705  -7.2381  -7.2215  -6.9671  -6.9312  -6.9068  -6.8716
    -6.7367  -6.6921  -6.6832  -6.6333  -6.2110  -6.1871  -6.1745  -6.1676
    -5.8364  -5.8141  -5.7972  -5.7957  -5.6941  -5.6160  -5.5795  -5.5568
    -5.5109  -5.4708  -5.4267  -5.3560  -5.2369  -5.1912  -5.1258  -5.1063
    -4.9174  -4.9029  -4.8960  -4.8539  -4.6720  -4.6284  -4.5679  -4.5335
    -4.3318  -4.2855  -4.2568  -4.2072  -4.1636  -4.1037  -4.0753  -4.0301
    -3.9554  -3.9515  -3.8998  -3.8450  -3.7190  -3.7113  -3.6664  -3.5809
    -3.5696  -3.5531  -3.5328  -3.5303  -3.4626  -3.4027  -3.3964  -3.3795
    -3.2138  -3.1604  -3.1541  -3.1086  -3.0816  -3.0546  -2.9881  -2.9813
    -2.9294  -2.9163  -2.9030  -2.8516  -2.7663  -2.7562  -2.7429  -2.6963
    -2.5046  -2.4444  -2.4317  -2.4130  -2.0320  -2.0301  -2.0041  -1.9928
    -1.8578  -1.8420  -1.7413  -1.7179  -1.6102  -1.6034  -1.4590  -1.4438
    -1.2142  -1.1730  -1.1134  -1.0706   0.2579   0.2752   0.2823   0.3005
     0.3310   0.3405   0.3504   0.3805   0.5817   0.6657   0.6739   0.7957
     1.1637   1.1727   1.2998   1.3400

          k = 0.2500 0.0000-0.2351 ( 21224 PWs)   bands (ev):

   -20.7067 -20.7063 -20.6640 -20.6639 -20.0469 -20.0457 -20.0438 -20.0429
   -18.8433 -18.8416 -18.8402 -18.8358 -18.0417 -18.0413 -18.0410 -18.0382
   -14.9441 -14.9416 -14.9372 -14.9371 -13.2476 -13.2426 -13.1813 -13.1744
   -12.6755 -12.6653 -12.6153 -12.6082 -12.2342 -12.2220 -12.1806 -12.1742
   -11.8568 -11.8460 -11.8209 -11.8029 -11.4106 -11.3837 -11.3771 -11.3710
   -10.7813 -10.7545 -10.7223 -10.6832  -9.1225  -9.1207  -9.0667  -9.0458
    -8.7614  -8.7597  -8.7225  -8.7032  -8.3509  -8.3210  -8.2536  -8.2239
    -7.3448  -7.3416  -7.3084  -7.3005  -6.9254  -6.9241  -6.9090  -6.8981
    -6.7186  -6.7115  -6.6520  -6.5917  -6.1909  -6.1707  -6.1291  -6.1160
    -5.9360  -5.9188  -5.7866  -5.7861  -5.6735  -5.6169  -5.5829  -5.5420
    -5.4542  -5.4133  -5.4023  -5.3998  -5.2222  -5.2076  -5.1527  -5.1258
    -4.9767  -4.9564  -4.9042  -4.8271  -4.6451  -4.6241  -4.5597  -4.5241
    -4.2996  -4.2670  -4.2073  -4.2054  -4.1939  -4.1437  -4.0992  -4.0484
    -3.9358  -3.9228  -3.8433  -3.8302  -3.7081  -3.6951  -3.6779  -3.6409
    -3.6147  -3.5298  -3.5244  -3.5041  -3.4915  -3.4841  -3.3853  -3.3673
    -3.2460  -3.1803  -3.1382  -3.1327  -3.0597  -3.0418  -2.9948  -2.9719
    -2.9476  -2.9268  -2.8575  -2.8486  -2.7752  -2.7316  -2.7140  -2.6869
    -2.5254  -2.4700  -2.4225  -2.3760  -2.0346  -2.0208  -2.0155  -2.0113
    -1.8636  -1.8518  -1.7685  -1.6928  -1.6015  -1.5911  -1.4862  -1.4206
    -1.2144  -1.1472  -1.1236  -1.0741   0.2696   0.2722   0.3009   0.3062
     0.3213   0.3307   0.3339   0.3740   0.6344   0.6350   0.7119   0.7189
     1.1501   1.1714   1.3292   1.3491

          k = 0.2500-0.3123 0.0541 ( 21232 PWs)   bands (ev):

   -20.7066 -20.7065 -20.6640 -20.6639 -20.0464 -20.0463 -20.0433 -20.0433
   -18.8431 -18.8430 -18.8375 -18.8374 -18.0417 -18.0417 -18.0395 -18.0394
   -14.9419 -14.9419 -14.9385 -14.9384 -13.2401 -13.2400 -13.1749 -13.1748
   -12.6799 -12.6799 -12.6153 -12.6153 -12.2174 -12.2173 -12.1935 -12.1934
   -11.8416 -11.8416 -11.8266 -11.8266 -11.3777 -11.3777 -11.3614 -11.3614
   -10.7670 -10.7670 -10.7207 -10.7207  -9.1041  -9.1040  -9.0796  -9.0796
    -8.7667  -8.7667  -8.7233  -8.7233  -8.2912  -8.2912  -8.2594  -8.2594
    -7.3192  -7.3192  -7.2926  -7.2926  -6.9313  -6.9313  -6.8939  -6.8938
    -6.7225  -6.7225  -6.6618  -6.6618  -6.2032  -6.2032  -6.1727  -6.1727
    -5.8355  -5.8355  -5.7800  -5.7800  -5.6466  -5.6465  -5.6099  -5.6099
    -5.4712  -5.4712  -5.3754  -5.3754  -5.2170  -5.2169  -5.1179  -5.1179
    -4.9054  -4.9054  -4.8734  -4.8734  -4.6072  -4.6072  -4.5842  -4.5841
    -4.2653  -4.2652  -4.2142  -4.2141  -4.1799  -4.1798  -4.0483  -4.0483
    -3.9614  -3.9613  -3.8956  -3.8956  -3.6728  -3.6727  -3.6245  -3.6244
    -3.5870  -3.5870  -3.5540  -3.5540  -3.4326  -3.4326  -3.3675  -3.3675
    -3.2215  -3.2214  -3.1238  -3.1237  -3.0304  -3.0303  -3.0007  -3.0007
    -2.9513  -2.9512  -2.8669  -2.8669  -2.7598  -2.7598  -2.7171  -2.7171
    -2.4800  -2.4800  -2.4076  -2.4076  -2.0276  -2.0275  -2.0018  -2.0017
    -1.8119  -1.8119  -1.7614  -1.7614  -1.6068  -1.6067  -1.4525  -1.4524
    -1.2005  -1.2005  -1.0944  -1.0944   0.2718   0.2718   0.3071   0.3072
     0.3201   0.3202   0.3607   0.3608   0.6280   0.6280   0.7345   0.7345
     1.1663   1.1664   1.3229   1.3230

          k = 0.2500-0.3123-0.2351 ( 21228 PWs)   bands (ev):

   -20.7066 -20.7065 -20.6640 -20.6639 -20.0463 -20.0462 -20.0434 -20.0433
   -18.8431 -18.8430 -18.8375 -18.8374 -18.0416 -18.0416 -18.0396 -18.0395
   -14.9424 -14.9424 -14.9376 -14.9376 -13.2442 -13.2441 -13.1792 -13.1791
   -12.6669 -12.6669 -12.6146 -12.6146 -12.2115 -12.2115 -12.1958 -12.1957
   -11.8466 -11.8466 -11.8173 -11.8173 -11.3937 -11.3936 -11.3755 -11.3755
   -10.7541 -10.7541 -10.7180 -10.7180  -9.0942  -9.0942  -9.0772  -9.0772
    -8.7703  -8.7703  -8.7119  -8.7119  -8.3035  -8.3035  -8.2679  -8.2679
    -7.3274  -7.3274  -7.2971  -7.2971  -6.9394  -6.9394  -6.9307  -6.9307
    -6.6923  -6.6923  -6.6352  -6.6352  -6.1610  -6.1610  -6.1299  -6.1298
    -5.8988  -5.8988  -5.8558  -5.8558  -5.6583  -5.6583  -5.5679  -5.5678
    -5.3960  -5.3960  -5.3659  -5.3659  -5.2295  -5.2294  -5.1401  -5.1400
    -4.9448  -4.9448  -4.9066  -4.9066  -4.5869  -4.5868  -4.5614  -4.5613
    -4.2598  -4.2598  -4.2260  -4.2259  -4.1602  -4.1601  -4.0978  -4.0977
    -3.8861  -3.8861  -3.8414  -3.8413  -3.7084  -3.7083  -3.6510  -3.6509
    -3.5963  -3.5962  -3.5175  -3.5175  -3.4957  -3.4956  -3.3969  -3.3968
    -3.1792  -3.1792  -3.1265  -3.1264  -3.0663  -3.0663  -3.0114  -3.0114
    -2.9145  -2.9145  -2.8812  -2.8811  -2.7620  -2.7620  -2.6862  -2.6862
    -2.4998  -2.4998  -2.3911  -2.3911  -2.0295  -2.0295  -2.0056  -2.0056
    -1.8030  -1.8030  -1.7660  -1.7660  -1.6102  -1.6101  -1.4497  -1.4497
    -1.1953  -1.1953  -1.0943  -1.0943   0.2728   0.2728   0.2986   0.2986
     0.3279   0.3280   0.3576   0.3576   0.6338   0.6338   0.7208   0.7208
     1.1606   1.1606   1.3373   1.3373

          k =-0.5000 0.0000-0.1081 ( 21228 PWs)   bands (ev):

   -20.7065 -20.7064 -20.6640 -20.6639 -20.0464 -20.0463 -20.0433 -20.0432
   -18.8426 -18.8425 -18.8380 -18.8379 -18.0414 -18.0413 -18.0396 -18.0396
   -14.9437 -14.9436 -14.9394 -14.9393 -13.2224 -13.2224 -13.1926 -13.1926
   -12.6646 -12.6646 -12.6316 -12.6315 -12.2312 -12.2312 -12.1769 -12.1768
   -11.8550 -11.8549 -11.8149 -11.8149 -11.3891 -11.3891 -11.3481 -11.3481
   -10.7633 -10.7633 -10.7261 -10.7261  -9.1102  -9.1102  -9.0707  -9.0707
    -8.7544  -8.7544  -8.7406  -8.7406  -8.3552  -8.3552  -8.1954  -8.1954
    -7.3771  -7.3771  -7.2303  -7.2303  -6.9496  -6.9496  -6.8894  -6.8894
    -6.7169  -6.7168  -6.6585  -6.6585  -6.1998  -6.1998  -6.1708  -6.1708
    -5.8198  -5.8197  -5.7923  -5.7923  -5.5423  -5.5423  -5.4845  -5.4845
    -5.4330  -5.4330  -5.3986  -5.3985  -5.2709  -5.2709  -5.2139  -5.2138
    -4.9136  -4.9136  -4.8788  -4.8788  -4.6507  -4.6506  -4.5531  -4.5531
    -4.2888  -4.2888  -4.2556  -4.2556  -4.1223  -4.1223  -4.0446  -4.0446
    -3.9621  -3.9621  -3.8742  -3.8742  -3.7562  -3.7562  -3.6742  -3.6741
    -3.5993  -3.5992  -3.5361  -3.5361  -3.4593  -3.4593  -3.3707  -3.3706
    -3.1667  -3.1667  -3.1380  -3.1380  -3.0914  -3.0914  -2.9615  -2.9615
    -2.9162  -2.9162  -2.8962  -2.8962  -2.7865  -2.7865  -2.7131  -2.7130
    -2.4799  -2.4799  -2.4083  -2.4083  -2.0344  -2.0344  -2.0018  -2.0018
    -1.8454  -1.8454  -1.7136  -1.7136  -1.5964  -1.5964  -1.4418  -1.4418
    -1.1667  -1.1666  -1.1444  -1.1443   0.2812   0.2812   0.3011   0.3012
     0.3490   0.3490   0.3628   0.3628   0.6227   0.6227   0.7284   0.7285
     1.1957   1.1957   1.2579   1.2580

          k =-0.5000 0.0000-0.3972 ( 21278 PWs)   bands (ev):

   -20.7068 -20.7061 -20.6640 -20.6639 -20.0471 -20.0454 -20.0440 -20.0428
   -18.8434 -18.8414 -18.8412 -18.8349 -18.0416 -18.0416 -18.0411 -18.0376
   -14.9454 -14.9405 -14.9404 -14.9390 -13.2354 -13.2177 -13.2065 -13.1861
   -12.6634 -12.6456 -12.6319 -12.6253 -12.2365 -12.2192 -12.1810 -12.1720
   -11.8576 -11.8360 -11.8328 -11.8009 -11.4158 -11.3787 -11.3777 -11.3702
   -10.7869 -10.7487 -10.7302 -10.6748  -9.1228  -9.1206  -9.0725  -9.0423
    -8.7664  -8.7630  -8.7217  -8.6950  -8.3589  -8.3153  -8.2634  -8.2203
    -7.3477  -7.3406  -7.3135  -7.3001  -6.9252  -6.9196  -6.9155  -6.8964
    -6.7210  -6.7096  -6.6642  -6.5779  -6.1907  -6.1638  -6.1358  -6.1177
    -5.9218  -5.9194  -5.8027  -5.7853  -5.5109  -5.4990  -5.4565  -5.4301
    -5.4177  -5.4127  -5.3793  -5.3774  -5.3295  -5.3050  -5.2463  -5.2177
    -4.9840  -4.9643  -4.9282  -4.8088  -4.6503  -4.6204  -4.5692  -4.5158
    -4.3129  -4.3128  -4.1993  -4.1895  -4.1873  -4.1199  -4.1156  -3.9842
    -3.9381  -3.9220  -3.8594  -3.8304  -3.7463  -3.7244  -3.7178  -3.7140
    -3.6118  -3.5827  -3.5560  -3.5372  -3.5008  -3.4879  -3.3676  -3.3657
    -3.2706  -3.1506  -3.1163  -3.1001  -3.0887  -3.0863  -3.0105  -2.9951
    -2.9838  -2.9027  -2.8817  -2.8398  -2.7769  -2.7386  -2.7015  -2.6860
    -2.5287  -2.4481  -2.4155  -2.3546  -2.0345  -2.0229  -2.0202  -2.0134
    -1.8483  -1.8464  -1.7538  -1.6866  -1.6189  -1.5554  -1.4646  -1.4312
    -1.2615  -1.1613  -1.1213  -1.0743   0.2723   0.2807   0.3023   0.3053
     0.3251   0.3430   0.3464   0.4072   0.6417   0.6649   0.6793   0.6919
     1.1841   1.2388   1.2530   1.2556

          k =-0.5000-0.3123-0.1081 ( 21204 PWs)   bands (ev):

   -20.7065 -20.7064 -20.6640 -20.6639 -20.0462 -20.0461 -20.0435 -20.0434
   -18.8426 -18.8425 -18.8380 -18.8378 -18.0405 -18.0405 -18.0404 -18.0404
   -14.9422 -14.9422 -14.9408 -14.9408 -13.2168 -13.2167 -13.1986 -13.1985
   -12.6647 -12.6647 -12.6310 -12.6309 -12.2175 -12.2175 -12.1925 -12.1924
   -11.8412 -11.8412 -11.8279 -11.8279 -11.3765 -11.3765 -11.3603 -11.3603
   -10.7461 -10.7460 -10.7438 -10.7437  -9.1079  -9.1078  -9.0765  -9.0764
    -8.7562  -8.7562  -8.7344  -8.7344  -8.2805  -8.2805  -8.2716  -8.2716
    -7.3250  -7.3250  -7.2903  -7.2903  -6.9175  -6.9175  -6.9071  -6.9071
    -6.7255  -6.7255  -6.6618  -6.6618  -6.1898  -6.1898  -6.1883  -6.1883
    -5.8326  -5.8326  -5.7714  -5.7714  -5.5279  -5.5279  -5.5074  -5.5074
    -5.4287  -5.4287  -5.3964  -5.3964  -5.2688  -5.2687  -5.2238  -5.2237
    -4.8939  -4.8939  -4.8802  -4.8802  -4.6034  -4.6034  -4.5899  -4.5899
    -4.2399  -4.2399  -4.2317  -4.2317  -4.1657  -4.1657  -4.0650  -4.0650
    -3.9443  -3.9443  -3.9334  -3.9334  -3.6883  -3.6883  -3.6813  -3.6813
    -3.6441  -3.6441  -3.5552  -3.5552  -3.4483  -3.4483  -3.3565  -3.3565
    -3.2060  -3.2060  -3.1308  -3.1308  -3.0427  -3.0427  -2.9936  -2.9936
    -2.9249  -2.9248  -2.8948  -2.8948  -2.7461  -2.7460  -2.7253  -2.7253
    -2.5048  -2.5048  -2.4005  -2.4005  -2.0319  -2.0319  -1.9975  -1.9975
    -1.8091  -1.8091  -1.7583  -1.7583  -1.5697  -1.5696  -1.4445  -1.4444
    -1.1692  -1.1691  -1.1588  -1.1587   0.3049   0.3050   0.3074   0.3074
     0.3307   0.3308   0.3510   0.3511   0.6703   0.6703   0.6826   0.6826
     1.1981   1.1982   1.2580   1.2581

          k =-0.5000-0.3123-0.3972 ( 21196 PWs)   bands (ev):

   -20.7065 -20.7064 -20.6640 -20.6639 -20.0463 -20.0462 -20.0434 -20.0433
   -18.8435 -18.8434 -18.8371 -18.8370 -18.0419 -18.0418 -18.0391 -18.0390
   -14.9431 -14.9431 -14.9396 -14.9395 -13.2269 -13.2268 -13.1964 -13.1963
   -12.6485 -12.6484 -12.6341 -12.6341 -12.2104 -12.2104 -12.1957 -12.1957
   -11.8467 -11.8467 -11.8175 -11.8175 -11.3974 -11.3973 -11.3717 -11.3717
   -10.7602 -10.7601 -10.7117 -10.7117  -9.0954  -9.0954  -9.0772  -9.0772
    -8.7751  -8.7751  -8.7064  -8.7064  -8.3102  -8.3102  -8.2657  -8.2657
    -7.3253  -7.3253  -7.3029  -7.3029  -6.9412  -6.9412  -6.9300  -6.9299
    -6.7023  -6.7023  -6.6225  -6.6224  -6.1675  -6.1675  -6.1241  -6.1241
    -5.8964  -5.8964  -5.8576  -5.8576  -5.4811  -5.4811  -5.4637  -5.4637
    -5.3976  -5.3976  -5.3498  -5.3498  -5.3171  -5.3170  -5.2535  -5.2534
    -4.9545  -4.9544  -4.8996  -4.8996  -4.5904  -4.5904  -4.5576  -4.5575
    -4.2396  -4.2395  -4.2357  -4.2357  -4.1826  -4.1826  -4.0639  -4.0639
    -3.9067  -3.9066  -3.8368  -3.8368  -3.7419  -3.7418  -3.7056  -3.7056
    -3.6234  -3.6234  -3.5482  -3.5482  -3.5106  -3.5105  -3.3829  -3.3829
    -3.1862  -3.1862  -3.1210  -3.1210  -3.0585  -3.0585  -3.0095  -3.0094
    -2.9347  -2.9347  -2.8963  -2.8963  -2.7746  -2.7746  -2.6626  -2.6625
    -2.4993  -2.4993  -2.3838  -2.3838  -2.0311  -2.0311  -2.0052  -2.0052
    -1.8035  -1.8035  -1.7617  -1.7617  -1.5680  -1.5679  -1.4503  -1.4502
    -1.2304  -1.2304  -1.0952  -1.0952   0.2744   0.2745   0.3033   0.3033
     0.3365   0.3365   0.3780   0.3780   0.6526   0.6526   0.6919   0.6919
     1.2070   1.2070   1.2566   1.2567

     highest occupied level (ev):     1.3920

!    total energy              =   -1080.02385333 Ry
     Harris-Foulkes estimate   =   -1080.02385334 Ry
     estimated scf accuracy    <       0.00000003 Ry

     The total energy is the sum of the following terms:

     one-electron contribution =    -867.52129476 Ry
     hartree contribution      =     553.10552376 Ry
     xc contribution           =    -315.24812616 Ry
     ewald contribution        =    -449.81231926 Ry
     Dispersion Correction     =      -0.54763691 Ry

     convergence has been achieved in  12 iterations

     Forces acting on atoms (cartesian axes, Ry/au):

     atom    1 type  3   force =    -0.00090054   -0.00004073    0.00007333
     atom    2 type  1   force =    -0.00066588    0.00091895    0.00129623
     atom    3 type  3   force =     0.00054283    0.00035271    0.00061884
     atom    4 type  1   force =    -0.00055568   -0.00120606   -0.00197038
     atom    5 type  1   force =    -0.00011571    0.00064716   -0.00069938
     atom    6 type  1   force =     0.00017667   -0.00154951    0.00150866
     atom    7 type  1   force =     0.00189704   -0.00040753   -0.00163192
     atom    8 type  3   force =     0.00076712   -0.00009090    0.00090918
     atom    9 type  4   force =     0.00195701   -0.00284076    0.00111447
     atom   10 type  1   force =    -0.00022602   -0.00023141    0.00157030
     atom   11 type  1   force =     0.00099925    0.00218846    0.00061012
     atom   12 type  1   force =     0.00108481    0.00274951    0.00118400
     atom   13 type  1   force =    -0.00021751    0.00126434   -0.00118995
     atom   14 type  1   force =    -0.00131295    0.00200213    0.00068420
     atom   15 type  1   force =    -0.00135064   -0.00044340   -0.00125159
     atom   16 type  1   force =     0.00033631   -0.00027160   -0.00056382
     atom   17 type  2   force =     0.00000594   -0.00008095    0.00004762
     atom   18 type  2   force =    -0.00000408    0.00000761   -0.00007491
     atom   19 type  2   force =    -0.00007154   -0.00001246    0.00001164
     atom   20 type  2   force =    -0.00021415    0.00040374    0.00027353
     atom   21 type  2   force =    -0.00022449    0.00032200   -0.00025972
     atom   22 type  2   force =    -0.00047096    0.00054686    0.00046803
     atom   23 type  2   force =    -0.00029547    0.00000967    0.00059555
     atom   24 type  2   force =    -0.00057719   -0.00049476    0.00011831
     atom   25 type  2   force =     0.00009430   -0.00020172   -0.00043848
     atom   26 type  2   force =    -0.00041902   -0.00004797   -0.00031883
     atom   27 type  2   force =     0.00011352    0.00049968   -0.00028896
     atom   28 type  2   force =    -0.00054748   -0.00055036   -0.00023580
     atom   29 type  2   force =    -0.00016879    0.00147958   -0.00034570
     atom   30 type  2   force =     0.00040958    0.00019948    0.00054347
     atom   31 type  2   force =    -0.00032639   -0.00043969   -0.00066495
     atom   32 type  3   force =     0.00090054   -0.00004073   -0.00007333
     atom   33 type  3   force =     0.00090054    0.00004073   -0.00007333
     atom   34 type  3   force =    -0.00090054    0.00004073    0.00007333
     atom   35 type  1   force =     0.00066588    0.00091895   -0.00129623
     atom   36 type  1   force =     0.00066588   -0.00091895   -0.00129623
     atom   37 type  1   force =    -0.00066588   -0.00091895    0.00129623
     atom   38 type  3   force =    -0.00054283    0.00035271   -0.00061884
     atom   39 type  3   force =    -0.00054283   -0.00035271   -0.00061884
     atom   40 type  3   force =     0.00054283   -0.00035271    0.00061884
     atom   41 type  1   force =     0.00055568   -0.00120606    0.00197038
     atom   42 type  1   force =     0.00055568    0.00120606    0.00197038
     atom   43 type  1   force =    -0.00055568    0.00120606   -0.00197038
     atom   44 type  1   force =     0.00011571    0.00064716    0.00069938
     atom   45 type  1   force =     0.00011571   -0.00064716    0.00069938
     atom   46 type  1   force =    -0.00011571   -0.00064716   -0.00069938
     atom   47 type  1   force =    -0.00017667   -0.00154951   -0.00150866
     atom   48 type  1   force =    -0.00017667    0.00154951   -0.00150866
     atom   49 type  1   force =     0.00017667    0.00154951    0.00150866
     atom   50 type  1   force =    -0.00189704   -0.00040753    0.00163192
     atom   51 type  1   force =    -0.00189704    0.00040753    0.00163192
     atom   52 type  1   force =     0.00189704    0.00040753   -0.00163192
     atom   53 type  3   force =    -0.00076712   -0.00009090   -0.00090918
     atom   54 type  3   force =    -0.00076712    0.00009090   -0.00090918
     atom   55 type  3   force =     0.00076712    0.00009090    0.00090918
     atom   56 type  4   force =    -0.00195701   -0.00284076   -0.00111447
     atom   57 type  4   force =    -0.00195701    0.00284076   -0.00111447
     atom   58 type  4   force =     0.00195701    0.00284076    0.00111447
     atom   59 type  1   force =     0.00022602   -0.00023141   -0.00157030
     atom   60 type  1   force =     0.00022602    0.00023141   -0.00157030
     atom   61 type  1   force =    -0.00022602    0.00023141    0.00157030
     atom   62 type  1   force =    -0.00099925    0.00218846   -0.00061012
     atom   63 type  1   force =    -0.00099925   -0.00218846   -0.00061012
     atom   64 type  1   force =     0.00099925   -0.00218846    0.00061012
     atom   65 type  1   force =    -0.00108481    0.00274951   -0.00118400
     atom   66 type  1   force =    -0.00108481   -0.00274951   -0.00118400
     atom   67 type  1   force =     0.00108481   -0.00274951    0.00118400
     atom   68 type  1   force =     0.00021751    0.00126434    0.00118995
     atom   69 type  1   force =     0.00021751   -0.00126434    0.00118995
     atom   70 type  1   force =    -0.00021751   -0.00126434   -0.00118995
     atom   71 type  1   force =     0.00131295    0.00200213   -0.00068420
     atom   72 type  1   force =     0.00131295   -0.00200213   -0.00068420
     atom   73 type  1   force =    -0.00131295   -0.00200213    0.00068420
     atom   74 type  1   force =     0.00135064   -0.00044340    0.00125159
     atom   75 type  1   force =     0.00135064    0.00044340    0.00125159
     atom   76 type  1   force =    -0.00135064    0.00044340   -0.00125159
     atom   77 type  1   force =    -0.00033631   -0.00027160    0.00056382
     atom   78 type  1   force =    -0.00033631    0.00027160    0.00056382
     atom   79 type  1   force =     0.00033631    0.00027160   -0.00056382
     atom   80 type  2   force =    -0.00000594   -0.00008095   -0.00004762
     atom   81 type  2   force =    -0.00000594    0.00008095   -0.00004762
     atom   82 type  2   force =     0.00000594    0.00008095    0.00004762
     atom   83 type  2   force =     0.00000408    0.00000761    0.00007491
     atom   84 type  2   force =     0.00000408   -0.00000761    0.00007491
     atom   85 type  2   force =    -0.00000408   -0.00000761   -0.00007491
     atom   86 type  2   force =     0.00007154   -0.00001246   -0.00001164
     atom   87 type  2   force =     0.00007154    0.00001246   -0.00001164
     atom   88 type  2   force =    -0.00007154    0.00001246    0.00001164
     atom   89 type  2   force =     0.00021415    0.00040374   -0.00027353
     atom   90 type  2   force =     0.00021415   -0.00040374   -0.00027353
     atom   91 type  2   force =    -0.00021415   -0.00040374    0.00027353
     atom   92 type  2   force =     0.00022449    0.00032200    0.00025972
     atom   93 type  2   force =     0.00022449   -0.00032200    0.00025972
     atom   94 type  2   force =    -0.00022449   -0.00032200   -0.00025972
     atom   95 type  2   force =     0.00047096    0.00054686   -0.00046803
     atom   96 type  2   force =     0.00047096   -0.00054686   -0.00046803
     atom   97 type  2   force =    -0.00047096   -0.00054686    0.00046803
     atom   98 type  2   force =     0.00029547    0.00000967   -0.00059555
     atom   99 type  2   force =     0.00029547   -0.00000967   -0.00059555
     atom  100 type  2   force =    -0.00029547   -0.00000967    0.00059555
     atom  101 type  2   force =     0.00057719   -0.00049476   -0.00011831
     atom  102 type  2   force =     0.00057719    0.00049476   -0.00011831
     atom  103 type  2   force =    -0.00057719    0.00049476    0.00011831
     atom  104 type  2   force =    -0.00009430   -0.00020172    0.00043848
     atom  105 type  2   force =    -0.00009430    0.00020172    0.00043848
     atom  106 type  2   force =     0.00009430    0.00020172   -0.00043848
     atom  107 type  2   force =     0.00041902   -0.00004797    0.00031883
     atom  108 type  2   force =     0.00041902    0.00004797    0.00031883
     atom  109 type  2   force =    -0.00041902    0.00004797   -0.00031883
     atom  110 type  2   force =    -0.00011352    0.00049968    0.00028896
     atom  111 type  2   force =    -0.00011352   -0.00049968    0.00028896
     atom  112 type  2   force =     0.00011352   -0.00049968   -0.00028896
     atom  113 type  2   force =     0.00054748   -0.00055036    0.00023580
     atom  114 type  2   force =     0.00054748    0.00055036    0.00023580
     atom  115 type  2   force =    -0.00054748    0.00055036   -0.00023580
     atom  116 type  2   force =     0.00016879    0.00147958    0.00034570
     atom  117 type  2   force =     0.00016879   -0.00147958    0.00034570
     atom  118 type  2   force =    -0.00016879   -0.00147958   -0.00034570
     atom  119 type  2   force =    -0.00040958    0.00019948   -0.00054347
     atom  120 type  2   force =    -0.00040958   -0.00019948   -0.00054347
     atom  121 type  2   force =     0.00040958   -0.00019948    0.00054347
     atom  122 type  2   force =     0.00032639   -0.00043969    0.00066495
     atom  123 type  2   force =     0.00032639    0.00043969    0.00066495
     atom  124 type  2   force =    -0.00032639    0.00043969   -0.00066495

     Total force =     0.017491     Total SCF correction =     0.000311

     BFGS Geometry Optimization

     number of scf cycles    =   1
     number of bfgs steps    =   0

     energy   new            =   -1080.0238533254 Ry

     new trust radius        =       0.0036251728 bohr
     new conv_thr            =       0.0000001000 Ry


ATOMIC_POSITIONS (angstrom)
O        0.770409293  10.929957999   0.955492592
C        0.168675504  10.752778298   5.098130781
O       -0.709435340   8.531246242   4.825807399
C       -0.040479192  10.662890400   6.553419485
C        0.535359139  10.813731680   2.291589552
C       -0.015693982   9.679730254   2.884775739
C       -0.194117734   9.644726247   4.276110556
O       -0.559830564   9.573924151   7.026923023
N        0.459407585   0.671786979   9.681322841
C        0.174443617  11.619543386   8.785812202
C        0.707521082  -0.008410863   4.442757960
C        0.335322793  11.727965895   7.417797476
C        0.898060088   0.038363305   3.075705936
C        0.985234839   1.963944389   9.267139805
C        0.322946048   0.443018970  11.111563255
C        0.408136293   9.826861227   0.118162567
H        1.031979940   8.947422484   0.348693191
H       -2.185894210  10.160539136  11.936335724
H        6.771409111   9.567593685   0.236813108
H       -0.316593134   8.808294742   2.307312335
H       -0.213238158  10.687057285   9.196333701
H        0.757133013   0.742815118   6.993577361
H        1.355423015   0.900907616   2.592897177
H        1.004857859   0.859766840   5.025809323
H       -0.358634945   1.187562390  11.545425795
H        0.309610491   2.425180738   8.532165878
H        1.052062179   2.614704021  10.145379929
H       -0.052906388  11.319992420  11.287672696
H        1.984001452   1.836588973   8.819887911
H        1.307530109   0.539231239  11.595857278
H       -0.742914769   8.779944567   5.862270293
O        1.554380707   4.985457999   5.466627408
O        3.879170707   0.959042001  11.888737408
O        3.095199293   6.903542001   7.377602592
C        2.156114496   4.808278298   1.323989219
C        4.480904496   1.136221702   7.746099219
C        2.493465504   7.080721702  11.520240781
O        3.034225340   2.586746242   1.596302601
O        5.359015340   3.357753758   8.018412601
O        1.615354660   9.302253758  11.247917399
C       -0.411750808   4.718390400  12.712920515
C        4.690059192   1.226109600   6.290810515
C        5.061330808   7.170609600   0.131299485
C        1.789430861   4.869231680   4.130520448
C        4.114220861   1.075268320  10.552630448
C        2.860149139   7.019768320   8.713699552
C        2.340483982   3.735230254   3.537334261
C        4.665273982   2.209269746   9.959444261
C        2.309096018   8.153769746   9.306885739
C        2.518907734   3.700226247   2.145999444
C        4.843697734   2.244273753   8.568109444
C        2.130672266   8.188773753  10.698220556
O        0.107600564   3.629424151  12.239406977
O        5.209410564   2.315075849   5.817296977
O        4.541979436   8.259575849   0.604813023
N       -0.911637585   6.616286979   9.585007159
N        4.190172415  11.217213021   3.162897159
N        5.561217585   5.272713021   3.259212841
C       -0.626673617   5.675043386  10.480517798
C        4.475136383   0.269456614   4.058407798
C        5.276253617   6.213956614   2.363702202
C        1.617268918   5.936089137   1.979352040
C        3.942058918  11.897410863   8.401462040
C        3.032311082   5.952910863  10.864867960
C       -0.787552793   5.783465895  11.848542524
C        4.314257207   0.161034105   5.426432524
C        5.437132793   6.105534105   0.995677476
C        1.426729912   5.982863305   3.346404064
C        3.751519912  11.850636695   9.768514064
C        3.222850088   5.906136695   9.497825936
C       -1.437464839   7.908444389   9.999190195
C        3.664345161   9.925055611   3.577080195
C        6.087044839   3.980555611   2.845029805
C       -0.775176048   6.387518970   8.154766745
C        4.326633952  11.445981030   1.732656745
C        5.424756048   5.501481030   4.689453255
C        1.916653707   3.882361227   6.303947433
C        4.241443707   2.062138773  12.726067433
C        2.732926293   8.006638773   6.540272567
H        1.292810060   3.002922484   6.073426809
H        3.617600060   2.941577516  12.495536809
H        3.356769940   8.886077516   6.770803191
H        1.733664210   4.216039136   7.329994276
H        6.835474210   1.728460864   0.907884276
H        2.915915790   7.672960864   5.514225724
H        2.979980889   3.623093685   6.185306892
H       -2.121829111   2.321406315  12.607416892
H        1.669599111   8.265906315   6.658923108
H        2.641383134   2.863794742   4.114797665
H        4.966173134   3.080705258  10.536907665
H        2.008196866   9.025205258   8.729422335
H       -0.238991842   4.742557285  10.069996299
H        4.862818158   1.201942715   3.647886299
H        4.888571842   7.146442715   2.774223701
H       -1.209363013   6.687315118  12.272762639
H        3.892446987  11.146184882   5.850652639
H        5.858943013   5.201684882   0.571467361
H        0.969366985   6.845407616   3.829212823
H        3.294156985  10.988092384  10.251322823
H        3.680213015   5.043592384   9.015017177
H        1.319932141   6.804266840   1.396300677
H        3.644732141  11.029233160   7.818410677
H        3.329647859   5.084733160  11.447919323
H       -0.093595055   7.132062390   7.720914205
H        5.008214945  10.701437610   1.298804205
H        4.743175055   4.756937610   5.123315795
H       -0.761840491   8.369680738  10.734164122
H        4.339969509   9.463819262   4.312054122
H        5.411420491   3.519319262   2.110055878
H       -1.504282179   8.559204021   9.120960071
H        3.597527821   9.274295979   2.698850071
H        6.153872179   3.329795979   3.723269929
H       -0.399323612   5.375492420   7.978657304
H        4.702486388   0.569007580   1.556547304
H        5.048903612   6.513507580   4.865562696
H        4.990368548   7.781088973  10.446442089
H        2.665578548  10.052411027   4.024332089
H       -0.340788548   4.107911027   2.397777911
H       -1.759760109   6.483731239   7.670482722
H        3.342049891  11.349768761   1.248372722
H        6.409340109   5.405268761   5.173747278
H        3.067704769   2.835444567   0.559839707
H        5.392494769   3.109055433   6.981949707
H        1.581875231   9.053555433  12.284380293



     Writing output data file 2hp_3_422.save
     charge density from previous step

     total cpu time spent up to now is     1992.0 secs

     per-process dynamical memory:  1122.8 Mb

     Self-consistent Calculation

     iteration #  1     ecut=    30.00 Ry     beta=0.70
     Davidson diagonalization with overlap
     ethr =  1.00E-06,  avg # of iterations =  3.5

     total cpu time spent up to now is     2190.4 secs

     total energy              =   -1080.02299981 Ry
     Harris-Foulkes estimate   =   -1080.02513744 Ry
     estimated scf accuracy    <       0.00293922 Ry

     iteration #  2     ecut=    30.00 Ry     beta=0.70
     Davidson diagonalization with overlap
     ethr =  8.54E-07,  avg # of iterations =  4.0

     total cpu time spent up to now is     2368.1 secs

     total energy              =   -1080.02330020 Ry
     Harris-Foulkes estimate   =   -1080.02450413 Ry
     estimated scf accuracy    <       0.00217941 Ry

     iteration #  3     ecut=    30.00 Ry     beta=0.70
     Davidson diagonalization with overlap
     ethr =  6.34E-07,  avg # of iterations =  4.0

     total cpu time spent up to now is     2533.9 secs

     total energy              =   -1080.02382712 Ry
     Harris-Foulkes estimate   =   -1080.02412827 Ry
     estimated scf accuracy    <       0.00073632 Ry

     iteration #  4     ecut=    30.00 Ry     beta=0.70
     Davidson diagonalization with overlap
     ethr =  2.14E-07,  avg # of iterations =  4.0

     total cpu time spent up to now is     2685.0 secs

     total energy              =   -1080.02396691 Ry
     Harris-Foulkes estimate   =   -1080.02398723 Ry
     estimated scf accuracy    <       0.00004396 Ry

     iteration #  5     ecut=    30.00 Ry     beta=0.70
     Davidson diagonalization with overlap
     ethr =  1.28E-08,  avg # of iterations =  4.0

     total cpu time spent up to now is     2851.1 secs

     total energy              =   -1080.02397725 Ry
     Harris-Foulkes estimate   =   -1080.02397903 Ry
     estimated scf accuracy    <       0.00000385 Ry

     iteration #  6     ecut=    30.00 Ry     beta=0.70
     Davidson diagonalization with overlap
     ethr =  1.12E-09,  avg # of iterations =  4.0

     total cpu time spent up to now is     3011.5 secs

     total energy              =   -1080.02397820 Ry
     Harris-Foulkes estimate   =   -1080.02397836 Ry
     estimated scf accuracy    <       0.00000044 Ry

     iteration #  7     ecut=    30.00 Ry     beta=0.70
     Davidson diagonalization with overlap
     ethr =  1.29E-10,  avg # of iterations =  4.0

     total cpu time spent up to now is     3177.3 secs

     End of self-consistent calculation

          k = 0.0000 0.0000 0.0000 ( 21265 PWs)   bands (ev):

   -20.7142 -20.7133 -20.6713 -20.6711 -20.0457 -20.0442 -20.0422 -20.0413
   -18.8429 -18.8407 -18.8406 -18.8341 -18.0430 -18.0427 -18.0419 -18.0384
   -14.9399 -14.9355 -14.9351 -14.9308 -13.2553 -13.2348 -13.1675 -13.1407
   -12.6965 -12.6820 -12.6077 -12.6015 -12.2455 -12.2252 -12.1969 -12.1771
   -11.8597 -11.8431 -11.8217 -11.8001 -11.4048 -11.3779 -11.3574 -11.3496
   -10.7939 -10.7472 -10.7125 -10.6934  -9.1184  -9.1004  -9.0882  -9.0676
    -8.7851  -8.7505  -8.7360  -8.7245  -8.3742  -8.3304  -8.2073  -8.1687
    -7.3801  -7.3699  -7.2431  -7.2210  -6.9756  -6.9243  -6.9164  -6.8667
    -6.7404  -6.6952  -6.6817  -6.6197  -6.2155  -6.1790  -6.1758  -6.1664
    -5.8373  -5.8184  -5.8123  -5.8077  -5.7996  -5.7038  -5.6449  -5.6359
    -5.4999  -5.4668  -5.4255  -5.3537  -5.1957  -5.1921  -5.0824  -5.0715
    -4.9167  -4.8948  -4.8824  -4.8505  -4.6852  -4.6215  -4.5803  -4.5267
    -4.3513  -4.2481  -4.2401  -4.1799  -4.1589  -4.1162  -4.1115  -4.0248
    -3.9677  -3.9499  -3.9051  -3.8295  -3.7013  -3.6621  -3.5934  -3.5914
    -3.5620  -3.5454  -3.5010  -3.4516  -3.4506  -3.4395  -3.4008  -3.3483
    -3.2021  -3.1673  -3.1324  -3.1160  -3.0737  -3.0173  -3.0043  -3.0040
    -2.9627  -2.9140  -2.8904  -2.8275  -2.7764  -2.7609  -2.7240  -2.6871
    -2.5023  -2.4573  -2.4329  -2.4274  -2.0284  -2.0229  -2.0122  -1.9929
    -1.8690  -1.8381  -1.7862  -1.7080  -1.6492  -1.5764  -1.4803  -1.4349
    -1.2227  -1.1951  -1.0934  -1.0224   0.2235   0.2687   0.2835   0.2980
     0.3180   0.3240   0.3489   0.3869   0.5624   0.6511   0.6832   0.8227
     1.1628   1.1804   1.3375   1.3992

          k = 0.0000 0.0000-0.2891 ( 21228 PWs)   bands (ev):

   -20.7138 -20.7137 -20.6712 -20.6711 -20.0449 -20.0449 -20.0419 -20.0418
   -18.8420 -18.8418 -18.8373 -18.8372 -18.0425 -18.0425 -18.0406 -18.0406
   -14.9386 -14.9386 -14.9318 -14.9317 -13.2487 -13.2486 -13.1595 -13.1594
   -12.6793 -12.6793 -12.6004 -12.6004 -12.2347 -12.2346 -12.1846 -12.1845
   -11.8506 -11.8506 -11.8069 -11.8068 -11.3989 -11.3989 -11.3750 -11.3750
   -10.7619 -10.7619 -10.6975 -10.6975  -9.1256  -9.1256  -9.0594  -9.0594
    -8.7572  -8.7572  -8.7195  -8.7195  -8.3315  -8.3315  -8.2327  -8.2327
    -7.3445  -7.3445  -7.3050  -7.3049  -6.9277  -6.9276  -6.9050  -6.9050
    -6.7136  -6.7136  -6.6233  -6.6233  -6.1837  -6.1837  -6.1182  -6.1182
    -5.9393  -5.9393  -5.7721  -5.7721  -5.7376  -5.7376  -5.6556  -5.6556
    -5.4334  -5.4333  -5.4090  -5.4090  -5.1664  -5.1664  -5.1112  -5.1111
    -4.9578  -4.9578  -4.8595  -4.8595  -4.6382  -4.6381  -4.5454  -4.5454
    -4.2477  -4.2477  -4.2192  -4.2192  -4.1750  -4.1750  -4.0813  -4.0813
    -3.9336  -3.9335  -3.8347  -3.8346  -3.6735  -3.6735  -3.6615  -3.6615
    -3.5117  -3.5117  -3.4849  -3.4848  -3.4593  -3.4593  -3.3796  -3.3796
    -3.2076  -3.2076  -3.1472  -3.1472  -3.0747  -3.0747  -2.9731  -2.9731
    -2.8929  -2.8929  -2.8346  -2.8345  -2.7619  -2.7619  -2.7166  -2.7165
    -2.4992  -2.4992  -2.4203  -2.4203  -2.0295  -2.0295  -2.0133  -2.0133
    -1.8667  -1.8666  -1.7483  -1.7483  -1.5987  -1.5986  -1.4601  -1.4600
    -1.1488  -1.1487  -1.1025  -1.1024   0.2694   0.2694   0.3019   0.3020
     0.3133   0.3133   0.3336   0.3336   0.6257   0.6257   0.7292   0.7292
     1.1574   1.1574   1.3942   1.3942

          k = 0.0000-0.3123 0.0000 ( 21240 PWs)   bands (ev):

   -20.7138 -20.7137 -20.6712 -20.6711 -20.0450 -20.0450 -20.0418 -20.0417
   -18.8429 -18.8428 -18.8364 -18.8363 -18.0432 -18.0431 -18.0400 -18.0399
   -14.9377 -14.9376 -14.9330 -14.9330 -13.2452 -13.2451 -13.1543 -13.1542
   -12.6893 -12.6893 -12.6041 -12.6041 -12.2235 -12.2234 -12.2007 -12.2007
   -11.8391 -11.8391 -11.8228 -11.8227 -11.3804 -11.3803 -11.3639 -11.3639
   -10.7698 -10.7698 -10.7040 -10.7040  -9.1030  -9.1030  -9.0882  -9.0881
    -8.7749  -8.7749  -8.7173  -8.7172  -8.2934  -8.2934  -8.2497  -8.2496
    -7.3146  -7.3146  -7.2992  -7.2992  -6.9397  -6.9397  -6.8898  -6.8898
    -6.7193  -6.7193  -6.6605  -6.6605  -6.2082  -6.2082  -6.1646  -6.1646
    -5.8329  -5.8329  -5.8152  -5.8152  -5.7151  -5.7151  -5.6922  -5.6921
    -5.4626  -5.4626  -5.3749  -5.3749  -5.1987  -5.1986  -5.0746  -5.0746
    -4.9081  -4.9081  -4.8663  -4.8663  -4.6159  -4.6159  -4.5840  -4.5839
    -4.2561  -4.2561  -4.2123  -4.2123  -4.1756  -4.1756  -4.0491  -4.0491
    -3.9617  -3.9617  -3.8779  -3.8779  -3.6678  -3.6678  -3.5989  -3.5988
    -3.5500  -3.5499  -3.4970  -3.4970  -3.4046  -3.4045  -3.3974  -3.3974
    -3.2241  -3.2241  -3.1169  -3.1168  -3.0184  -3.0184  -3.0004  -3.0004
    -2.9707  -2.9706  -2.8560  -2.8560  -2.7697  -2.7696  -2.7204  -2.7203
    -2.4601  -2.4600  -2.4154  -2.4153  -2.0272  -2.0272  -2.0070  -2.0070
    -1.8174  -1.8174  -1.7603  -1.7602  -1.6414  -1.6413  -1.4575  -1.4574
    -1.2109  -1.2109  -1.0572  -1.0572   0.2448   0.2449   0.3070   0.3071
     0.3133   0.3134   0.3617   0.3618   0.6063   0.6064   0.7595   0.7595
     1.1677   1.1677   1.3720   1.3720

          k = 0.0000-0.3123-0.2891 ( 21216 PWs)   bands (ev):

   -20.7138 -20.7137 -20.6712 -20.6711 -20.0448 -20.0448 -20.0420 -20.0419
   -18.8420 -18.8419 -18.8372 -18.8371 -18.0417 -18.0417 -18.0414 -18.0413
   -14.9381 -14.9381 -14.9323 -14.9322 -13.2479 -13.2478 -13.1606 -13.1605
   -12.6760 -12.6760 -12.6032 -12.6031 -12.2188 -12.2188 -12.2022 -12.2021
   -11.8435 -11.8435 -11.8145 -11.8145 -11.3862 -11.3862 -11.3858 -11.3857
   -10.7381 -10.7381 -10.7227 -10.7227  -9.0971  -9.0971  -9.0817  -9.0816
    -8.7658  -8.7658  -8.7198  -8.7198  -8.2921  -8.2921  -8.2685  -8.2685
    -7.3308  -7.3307  -7.2954  -7.2954  -6.9401  -6.9400  -6.9327  -6.9326
    -6.6713  -6.6713  -6.6589  -6.6589  -6.1456  -6.1456  -6.1435  -6.1435
    -5.9038  -5.9037  -5.8591  -5.8591  -5.7325  -5.7324  -5.6723  -5.6723
    -5.3958  -5.3958  -5.3719  -5.3719  -5.1857  -5.1856  -5.0937  -5.0937
    -4.9284  -4.9284  -4.9165  -4.9165  -4.5852  -4.5851  -4.5737  -4.5737
    -4.2610  -4.2610  -4.2252  -4.2251  -4.1342  -4.1342  -4.1189  -4.1189
    -3.8627  -3.8627  -3.8592  -3.8592  -3.6703  -3.6703  -3.6542  -3.6542
    -3.5362  -3.5362  -3.4926  -3.4926  -3.4463  -3.4463  -3.4189  -3.4189
    -3.1688  -3.1688  -3.1454  -3.1454  -3.0843  -3.0843  -2.9735  -2.9735
    -2.9502  -2.9502  -2.8323  -2.8323  -2.7454  -2.7453  -2.7281  -2.7281
    -2.4894  -2.4894  -2.4099  -2.4099  -2.0288  -2.0287  -2.0089  -2.0089
    -1.7947  -1.7947  -1.7762  -1.7762  -1.6480  -1.6479  -1.4549  -1.4549
    -1.1518  -1.1518  -1.1039  -1.1038   0.2757   0.2757   0.2859   0.2859
     0.3264   0.3264   0.3350   0.3350   0.6223   0.6223   0.7354   0.7354
     1.1581   1.1581   1.3921   1.3922

          k = 0.2500 0.0000 0.0541 ( 21270 PWs)   bands (ev):

   -20.7140 -20.7134 -20.6712 -20.6711 -20.0455 -20.0444 -20.0421 -20.0415
   -18.8426 -18.8410 -18.8396 -18.8350 -18.0427 -18.0420 -18.0419 -18.0390
   -14.9405 -14.9372 -14.9360 -14.9329 -13.2432 -13.2222 -13.1796 -13.1542
   -12.6850 -12.6736 -12.6167 -12.6135 -12.2433 -12.2300 -12.1914 -12.1783
   -11.8578 -11.8460 -11.8191 -11.8040 -11.4002 -11.3812 -11.3547 -11.3490
   -10.7839 -10.7396 -10.7264 -10.7015  -9.1181  -9.1059  -9.0839  -9.0686
    -8.7762  -8.7490  -8.7381  -8.7328  -8.3679  -8.3370  -8.2037  -8.1764
    -7.3817  -7.3735  -7.2409  -7.2242  -6.9683  -6.9324  -6.9091  -6.8749
    -6.7357  -6.6922  -6.6836  -6.6317  -6.2111  -6.1867  -6.1741  -6.1672
    -5.8363  -5.8148  -5.7983  -5.7970  -5.6936  -5.6160  -5.5785  -5.5559
    -5.5112  -5.4728  -5.4275  -5.3569  -5.2376  -5.1916  -5.1268  -5.1080
    -4.9148  -4.9011  -4.8937  -4.8514  -4.6766  -4.6317  -4.5727  -4.5387
    -4.3278  -4.2847  -4.2542  -4.2056  -4.1611  -4.1022  -4.0749  -4.0299
    -3.9598  -3.9561  -3.8969  -3.8442  -3.7172  -3.7129  -3.6632  -3.5815
    -3.5649  -3.5507  -3.5310  -3.5295  -3.4623  -3.4041  -3.3961  -3.3822
    -3.2158  -3.1639  -3.1573  -3.1122  -3.0839  -3.0561  -2.9898  -2.9859
    -2.9319  -2.9174  -2.9055  -2.8520  -2.7683  -2.7578  -2.7459  -2.6981
    -2.5045  -2.4452  -2.4314  -2.4137  -2.0346  -2.0321  -2.0067  -1.9951
    -1.8580  -1.8416  -1.7409  -1.7180  -1.6099  -1.6027  -1.4592  -1.4440
    -1.2135  -1.1725  -1.1123  -1.0696   0.2577   0.2758   0.2834   0.2995
     0.3296   0.3417   0.3516   0.3791   0.5818   0.6665   0.6727   0.7959
     1.1694   1.1790   1.3060   1.3466

          k = 0.2500 0.0000-0.2351 ( 21224 PWs)   bands (ev):

   -20.7139 -20.7134 -20.6712 -20.6711 -20.0454 -20.0442 -20.0423 -20.0415
   -18.8426 -18.8409 -18.8395 -18.8351 -18.0426 -18.0422 -18.0419 -18.0391
   -14.9406 -14.9381 -14.9337 -14.9336 -13.2405 -13.2354 -13.1735 -13.1667
   -12.6749 -12.6648 -12.6144 -12.6074 -12.2405 -12.2283 -12.1867 -12.1805
   -11.8540 -11.8434 -11.8182 -11.8002 -11.4120 -11.3851 -11.3786 -11.3722
   -10.7754 -10.7487 -10.7169 -10.6774  -9.1268  -9.1247  -9.0711  -9.0499
    -8.7628  -8.7613  -8.7240  -8.7043  -8.3474  -8.3185  -8.2506  -8.2206
    -7.3472  -7.3445  -7.3109  -7.3033  -6.9275  -6.9258  -6.9112  -6.9008
    -6.7178  -6.7103  -6.6527  -6.5916  -6.1904  -6.1701  -6.1284  -6.1154
    -5.9371  -5.9200  -5.7884  -5.7870  -5.6727  -5.6169  -5.5804  -5.5398
    -5.4564  -5.4147  -5.4031  -5.4008  -5.2227  -5.2075  -5.1547  -5.1265
    -4.9741  -4.9545  -4.9012  -4.8240  -4.6509  -4.6291  -4.5647  -4.5287
    -4.2963  -4.2649  -4.2070  -4.2045  -4.1920  -4.1417  -4.0969  -4.0476
    -3.9392  -3.9278  -3.8429  -3.8297  -3.7063  -3.6965  -3.6758  -3.6413
    -3.6118  -3.5272  -3.5206  -3.5020  -3.4910  -3.4842  -3.3870  -3.3682
    -3.2495  -3.1846  -3.1399  -3.1330  -3.0608  -3.0467  -2.9965  -2.9731
    -2.9494  -2.9313  -2.8564  -2.8522  -2.7767  -2.7358  -2.7165  -2.6885
    -2.5256  -2.4710  -2.4220  -2.3769  -2.0369  -2.0233  -2.0176  -2.0135
    -1.8638  -1.8515  -1.7682  -1.6928  -1.6011  -1.5906  -1.4862  -1.4210
    -1.2137  -1.1462  -1.1230  -1.0729   0.2690   0.2725   0.3010   0.3061
     0.3220   0.3300   0.3349   0.3737   0.6341   0.6348   0.7117   0.7195
     1.1560   1.1774   1.3357   1.3555

          k = 0.2500-0.3123 0.0541 ( 21232 PWs)   bands (ev):

   -20.7137 -20.7136 -20.6712 -20.6711 -20.0449 -20.0448 -20.0419 -20.0418
   -18.8424 -18.8423 -18.8368 -18.8367 -18.0426 -18.0425 -18.0403 -18.0403
   -14.9384 -14.9383 -14.9350 -14.9349 -13.2328 -13.2327 -13.1672 -13.1671
   -12.6794 -12.6794 -12.6146 -12.6145 -12.2237 -12.2236 -12.1997 -12.1996
   -11.8388 -11.8387 -11.8241 -11.8241 -11.3791 -11.3790 -11.3629 -11.3629
   -10.7613 -10.7613 -10.7148 -10.7147  -9.1080  -9.1080  -9.0839  -9.0838
    -8.7681  -8.7681  -8.7248  -8.7248  -8.2882  -8.2881  -8.2564  -8.2564
    -7.3220  -7.3220  -7.2954  -7.2954  -6.9328  -6.9328  -6.8962  -6.8962
    -6.7223  -6.7222  -6.6612  -6.6612  -6.2031  -6.2030  -6.1722  -6.1722
    -5.8362  -5.8362  -5.7807  -5.7807  -5.6467  -5.6467  -5.6094  -5.6094
    -5.4719  -5.4719  -5.3757  -5.3757  -5.2180  -5.2180  -5.1192  -5.1192
    -4.9023  -4.9023  -4.8708  -4.8708  -4.6125  -4.6124  -4.5893  -4.5893
    -4.2627  -4.2627  -4.2124  -4.2124  -4.1773  -4.1772  -4.0456  -4.0455
    -3.9640  -3.9640  -3.8996  -3.8996  -3.6715  -3.6715  -3.6212  -3.6211
    -3.5864  -3.5864  -3.5515  -3.5515  -3.4320  -3.4320  -3.3698  -3.3698
    -3.2250  -3.2249  -3.1245  -3.1244  -3.0335  -3.0335  -3.0038  -3.0038
    -2.9540  -2.9539  -2.8675  -2.8675  -2.7629  -2.7628  -2.7188  -2.7188
    -2.4801  -2.4800  -2.4082  -2.4081  -2.0301  -2.0301  -2.0041  -2.0041
    -1.8113  -1.8112  -1.7613  -1.7613  -1.6064  -1.6063  -1.4527  -1.4526
    -1.1999  -1.1999  -1.0933  -1.0933   0.2712   0.2713   0.3082   0.3082
     0.3213   0.3214   0.3592   0.3593   0.6273   0.6273   0.7352   0.7352
     1.1723   1.1723   1.3294   1.3294

          k = 0.2500-0.3123-0.2351 ( 21228 PWs)   bands (ev):

   -20.7137 -20.7136 -20.6712 -20.6711 -20.0448 -20.0448 -20.0419 -20.0419
   -18.8424 -18.8423 -18.8368 -18.8367 -18.0425 -18.0424 -18.0404 -18.0404
   -14.9389 -14.9389 -14.9341 -14.9340 -13.2370 -13.2369 -13.1715 -13.1714
   -12.6664 -12.6664 -12.6138 -12.6138 -12.2177 -12.2177 -12.2021 -12.2021
   -11.8437 -11.8437 -11.8148 -11.8147 -11.3951 -11.3950 -11.3769 -11.3768
   -10.7483 -10.7483 -10.7123 -10.7123  -9.0985  -9.0985  -9.0814  -9.0814
    -8.7718  -8.7718  -8.7131  -8.7131  -8.3002  -8.3002  -8.2651  -8.2651
    -7.3302  -7.3302  -7.2999  -7.2999  -6.9412  -6.9411  -6.9326  -6.9326
    -6.6926  -6.6925  -6.6348  -6.6348  -6.1604  -6.1604  -6.1291  -6.1291
    -5.8999  -5.8998  -5.8577  -5.8577  -5.6576  -5.6576  -5.5660  -5.5660
    -5.3969  -5.3969  -5.3669  -5.3669  -5.2300  -5.2300  -5.1413  -5.1412
    -4.9421  -4.9420  -4.9041  -4.9041  -4.5922  -4.5922  -4.5666  -4.5666
    -4.2591  -4.2590  -4.2221  -4.2221  -4.1591  -4.1591  -4.0962  -4.0962
    -3.8883  -3.8883  -3.8427  -3.8427  -3.7077  -3.7077  -3.6508  -3.6508
    -3.5936  -3.5935  -3.5176  -3.5176  -3.4933  -3.4932  -3.3969  -3.3969
    -3.1822  -3.1822  -3.1282  -3.1282  -3.0682  -3.0682  -3.0143  -3.0143
    -2.9190  -2.9190  -2.8809  -2.8809  -2.7652  -2.7652  -2.6880  -2.6880
    -2.5001  -2.5001  -2.3916  -2.3916  -2.0320  -2.0320  -2.0079  -2.0079
    -1.8023  -1.8023  -1.7662  -1.7662  -1.6097  -1.6097  -1.4500  -1.4500
    -1.1946  -1.1946  -1.0932  -1.0932   0.2725   0.2726   0.2989   0.2989
     0.3284   0.3284   0.3573   0.3574   0.6333   0.6333   0.7211   0.7211
     1.1666   1.1666   1.3437   1.3437

          k =-0.5000 0.0000-0.1081 ( 21228 PWs)   bands (ev):

   -20.7137 -20.7136 -20.6712 -20.6711 -20.0449 -20.0448 -20.0418 -20.0418
   -18.8419 -18.8418 -18.8373 -18.8372 -18.0422 -18.0422 -18.0404 -18.0404
   -14.9402 -14.9401 -14.9358 -14.9357 -13.2150 -13.2149 -13.1850 -13.1850
   -12.6640 -12.6640 -12.6309 -12.6309 -12.2376 -12.2375 -12.1830 -12.1830
   -11.8524 -11.8523 -11.8122 -11.8122 -11.3900 -11.3900 -11.3502 -11.3502
   -10.7571 -10.7571 -10.7207 -10.7207  -9.1143  -9.1143  -9.0749  -9.0748
    -8.7557  -8.7557  -8.7423  -8.7422  -8.3526  -8.3526  -8.1921  -8.1920
    -7.3800  -7.3800  -7.2330  -7.2330  -6.9508  -6.9507  -6.8923  -6.8922
    -6.7162  -6.7162  -6.6581  -6.6581  -6.1995  -6.1995  -6.1704  -6.1704
    -5.8203  -5.8203  -5.7935  -5.7935  -5.5424  -5.5423  -5.4873  -5.4873
    -5.4312  -5.4312  -5.3967  -5.3967  -5.2712  -5.2712  -5.2166  -5.2165
    -4.9118  -4.9117  -4.8763  -4.8762  -4.6546  -4.6545  -4.5582  -4.5582
    -4.2869  -4.2868  -4.2527  -4.2527  -4.1205  -4.1205  -4.0449  -4.0449
    -3.9663  -3.9663  -3.8723  -3.8723  -3.7548  -3.7548  -3.6700  -3.6700
    -3.5983  -3.5982  -3.5367  -3.5367  -3.4591  -3.4591  -3.3733  -3.3732
    -3.1696  -3.1696  -3.1397  -3.1397  -3.0933  -3.0932  -2.9637  -2.9636
    -2.9186  -2.9186  -2.8980  -2.8980  -2.7890  -2.7889  -2.7155  -2.7154
    -2.4805  -2.4805  -2.4085  -2.4085  -2.0366  -2.0366  -2.0044  -2.0043
    -1.8453  -1.8453  -1.7135  -1.7135  -1.5957  -1.5957  -1.4419  -1.4418
    -1.1658  -1.1658  -1.1440  -1.1439   0.2825   0.2825   0.3001   0.3001
     0.3493   0.3493   0.3621   0.3622   0.6234   0.6234   0.7281   0.7282
     1.2019   1.2019   1.2632   1.2633

          k =-0.5000 0.0000-0.3972 ( 21278 PWs)   bands (ev):

   -20.7139 -20.7133 -20.6712 -20.6711 -20.0457 -20.0440 -20.0425 -20.0413
   -18.8427 -18.8407 -18.8405 -18.8342 -18.0425 -18.0424 -18.0419 -18.0385
   -14.9419 -14.9369 -14.9369 -14.9355 -13.2281 -13.2104 -13.1989 -13.1786
   -12.6626 -12.6450 -12.6312 -12.6246 -12.2429 -12.2256 -12.1871 -12.1783
   -11.8548 -11.8337 -11.8298 -11.7982 -11.4172 -11.3803 -11.3791 -11.3713
   -10.7810 -10.7431 -10.7248 -10.6690  -9.1271  -9.1246  -9.0769  -9.0464
    -8.7678  -8.7646  -8.7233  -8.6960  -8.3552  -8.3130  -8.2603  -8.2170
    -7.3500  -7.3438  -7.3160  -7.3029  -6.9275  -6.9213  -6.9175  -6.8993
    -6.7203  -6.7082  -6.6652  -6.5775  -6.1902  -6.1631  -6.1351  -6.1170
    -5.9233  -5.9205  -5.8028  -5.7878  -5.5133  -5.4965  -5.4551  -5.4305
    -5.4161  -5.4128  -5.3792  -5.3759  -5.3305  -5.3060  -5.2475  -5.2215
    -4.9814  -4.9624  -4.9250  -4.8055  -4.6561  -4.6252  -4.5741  -4.5204
    -4.3113  -4.3096  -4.1977  -4.1887  -4.1862  -4.1193  -4.1130  -3.9838
    -3.9410  -3.9275  -3.8583  -3.8296  -3.7439  -3.7190  -3.7146  -3.7140
    -3.6151  -3.5789  -3.5533  -3.5383  -3.5012  -3.4866  -3.3688  -3.3674
    -3.2735  -3.1552  -3.1151  -3.1032  -3.0882  -3.0864  -3.0160  -2.9936
    -2.9890  -2.9070  -2.8822  -2.8442  -2.7777  -2.7432  -2.7038  -2.6872
    -2.5291  -2.4495  -2.4148  -2.3558  -2.0364  -2.0254  -2.0227  -2.0157
    -1.8487  -1.8461  -1.7533  -1.6867  -1.6182  -1.5545  -1.4645  -1.4316
    -1.2611  -1.1608  -1.1210  -1.0731   0.2728   0.2799   0.3033   0.3049
     0.3258   0.3437   0.3458   0.4063   0.6426   0.6655   0.6799   0.6909
     1.1896   1.2451   1.2589   1.2606

          k =-0.5000-0.3123-0.1081 ( 21204 PWs)   bands (ev):

   -20.7137 -20.7136 -20.6712 -20.6711 -20.0447 -20.0446 -20.0420 -20.0419
   -18.8419 -18.8418 -18.8373 -18.8371 -18.0414 -18.0414 -18.0413 -18.0412
   -14.9386 -14.9386 -14.9373 -14.9372 -13.2093 -13.2092 -13.1911 -13.1910
   -12.6642 -12.6642 -12.6303 -12.6303 -12.2238 -12.2238 -12.1986 -12.1986
   -11.8384 -11.8383 -11.8254 -11.8254 -11.3777 -11.3777 -11.3619 -11.3619
   -10.7404 -10.7404 -10.7379 -10.7378  -9.1116  -9.1116  -9.0810  -9.0809
    -8.7575  -8.7575  -8.7361  -8.7361  -8.2778  -8.2777  -8.2684  -8.2684
    -7.3278  -7.3278  -7.2930  -7.2930  -6.9195  -6.9195  -6.9088  -6.9088
    -6.7252  -6.7252  -6.6614  -6.6614  -6.1897  -6.1897  -6.1878  -6.1878
    -5.8333  -5.8333  -5.7724  -5.7723  -5.5281  -5.5281  -5.5097  -5.5097
    -5.4269  -5.4269  -5.3949  -5.3949  -5.2694  -5.2693  -5.2263  -5.2262
    -4.8910  -4.8910  -4.8774  -4.8774  -4.6082  -4.6082  -4.5956  -4.5956
    -4.2372  -4.2372  -4.2303  -4.2303  -4.1635  -4.1635  -4.0617  -4.0617
    -3.9469  -3.9469  -3.9373  -3.9373  -3.6852  -3.6851  -3.6776  -3.6776
    -3.6432  -3.6432  -3.5554  -3.5554  -3.4484  -3.4484  -3.3592  -3.3592
    -3.2088  -3.2087  -3.1313  -3.1313  -3.0462  -3.0462  -2.9960  -2.9960
    -2.9262  -2.9261  -2.8972  -2.8971  -2.7483  -2.7483  -2.7277  -2.7276
    -2.5054  -2.5054  -2.4009  -2.4009  -2.0345  -2.0345  -1.9999  -1.9999
    -1.8084  -1.8084  -1.7583  -1.7583  -1.5691  -1.5691  -1.4446  -1.4446
    -1.1688  -1.1688  -1.1579  -1.1579   0.3060   0.3061   0.3067   0.3067
     0.3320   0.3321   0.3494   0.3494   0.6714   0.6714   0.6819   0.6819
     1.2044   1.2044   1.2633   1.2633

          k =-0.5000-0.3123-0.3972 ( 21196 PWs)   bands (ev):

   -20.7137 -20.7135 -20.6712 -20.6711 -20.0448 -20.0447 -20.0419 -20.0418
   -18.8427 -18.8426 -18.8364 -18.8363 -18.0427 -18.0427 -18.0399 -18.0399
   -14.9396 -14.9395 -14.9360 -14.9360 -13.2196 -13.2195 -13.1889 -13.1888
   -12.6477 -12.6476 -12.6335 -12.6335 -12.2166 -12.2166 -12.2021 -12.2020
   -11.8439 -11.8438 -11.8150 -11.8150 -11.3988 -11.3987 -11.3731 -11.3730
   -10.7545 -10.7545 -10.7060 -10.7060  -9.0998  -9.0998  -9.0812  -9.0812
    -8.7766  -8.7766  -8.7076  -8.7076  -8.3067  -8.3067  -8.2631  -8.2630
    -7.3281  -7.3280  -7.3057  -7.3057  -6.9428  -6.9428  -6.9320  -6.9320
    -6.7026  -6.7026  -6.6220  -6.6220  -6.1670  -6.1669  -6.1233  -6.1233
    -5.8973  -5.8973  -5.8597  -5.8596  -5.4788  -5.4788  -5.4646  -5.4646
    -5.3960  -5.3960  -5.3495  -5.3495  -5.3183  -5.3183  -5.2566  -5.2565
    -4.9515  -4.9515  -4.8971  -4.8971  -4.5957  -4.5957  -4.5628  -4.5628
    -4.2388  -4.2388  -4.2334  -4.2334  -4.1802  -4.1801  -4.0628  -4.0628
    -3.9088  -3.9088  -3.8375  -3.8375  -3.7397  -3.7396  -3.7030  -3.7029
    -3.6234  -3.6234  -3.5493  -3.5493  -3.5089  -3.5088  -3.3834  -3.3833
[...]
    -6.7017  -6.7017  -6.6198  -6.6197  -6.1632  -6.1632  -6.1197  -6.1196
    -5.8882  -5.8882  -5.8528  -5.8527  -5.4716  -5.4716  -5.4598  -5.4598
    -5.3925  -5.3925  -5.3458  -5.3458  -5.3130  -5.3129  -5.2500  -5.2499
    -4.9557  -4.9557  -4.9035  -4.9035  -4.5931  -4.5931  -4.5611  -4.5611
    -4.2396  -4.2396  -4.2352  -4.2352  -4.1776  -4.1775  -4.0621  -4.0621
    -3.9047  -3.9047  -3.8350  -3.8350  -3.7406  -3.7406  -3.7019  -3.7018
    -3.6200  -3.6200  -3.5437  -3.5437  -3.5068  -3.5068  -3.3751  -3.3751
    -3.1894  -3.1894  -3.1242  -3.1242  -3.0672  -3.0672  -3.0053  -3.0052
    -2.9375  -2.9375  -2.8982  -2.8982  -2.7755  -2.7755  -2.6630  -2.6630
    -2.5006  -2.5006  -2.3886  -2.3886  -2.0314  -2.0314  -2.0040  -2.0040
    -1.8028  -1.8027  -1.7598  -1.7598  -1.5622  -1.5622  -1.4475  -1.4474
    -1.2375  -1.2375  -1.0991  -1.0991   0.2766   0.2767   0.3073   0.3073
     0.3399   0.3399   0.3800   0.3800   0.6513   0.6513   0.6980   0.6980
     1.2070   1.2070   1.2621   1.2622

     highest occupied level (ev):     1.4026

!    total energy              =   -1080.02490735 Ry
     Harris-Foulkes estimate   =   -1080.02490735 Ry
     estimated scf accuracy    <          3.2E-10 Ry

     The total energy is the sum of the following terms:

     one-electron contribution =    -866.06680306 Ry
     hartree contribution      =     552.38427126 Ry
     xc contribution           =    -315.22980455 Ry
     ewald contribution        =    -450.56508103 Ry
     Dispersion Correction     =      -0.54748997 Ry

     convergence has been achieved in   9 iterations

     Forces acting on atoms (cartesian axes, Ry/au):

     atom    1 type  3   force =    -0.00008367   -0.00007554   -0.00001660
     atom    2 type  1   force =    -0.00033308    0.00012880   -0.00041578
     atom    3 type  3   force =    -0.00030044    0.00016999    0.00023880
     atom    4 type  1   force =    -0.00019338    0.00037604    0.00051401
     atom    5 type  1   force =    -0.00066236   -0.00046414    0.00000615
     atom    6 type  1   force =    -0.00003070    0.00042799    0.00014771
     atom    7 type  1   force =     0.00022865    0.00023663   -0.00019556
     atom    8 type  3   force =     0.00002804    0.00001210   -0.00009339
     atom    9 type  4   force =     0.00095584    0.00013492    0.00027528
     atom   10 type  1   force =    -0.00007495   -0.00011270   -0.00005724
     atom   11 type  1   force =     0.00053647   -0.00005838   -0.00020068
     atom   12 type  1   force =    -0.00006045   -0.00055140   -0.00021016
     atom   13 type  1   force =    -0.00000164    0.00001458   -0.00000252
     atom   14 type  1   force =    -0.00040825    0.00000642    0.00007381
     atom   15 type  1   force =    -0.00019604   -0.00013794    0.00023246
     atom   16 type  1   force =     0.00011457   -0.00015035    0.00012089
     atom   17 type  2   force =     0.00023309   -0.00014721    0.00021618
     atom   18 type  2   force =     0.00012262    0.00023881   -0.00003277
     atom   19 type  2   force =     0.00025770    0.00043068    0.00048770
     atom   20 type  2   force =     0.00019384   -0.00044294   -0.00054419
     atom   21 type  2   force =     0.00066443   -0.00028984    0.00027192
     atom   22 type  2   force =     0.00019457   -0.00000202   -0.00075721
     atom   23 type  2   force =    -0.00024360    0.00038922   -0.00001999
     atom   24 type  2   force =    -0.00036093    0.00030843   -0.00003093
     atom   25 type  2   force =    -0.00024948    0.00020565    0.00045027
     atom   26 type  2   force =    -0.00041908    0.00066302   -0.00023740
     atom   27 type  2   force =    -0.00018639    0.00018472    0.00050128
     atom   28 type  2   force =    -0.00008461   -0.00018235   -0.00017319
     atom   29 type  2   force =    -0.00083816   -0.00006351    0.00040231
     atom   30 type  2   force =    -0.00043675    0.00019525   -0.00027453
     atom   31 type  2   force =     0.00041993    0.00014360    0.00035454
     atom   32 type  3   force =     0.00008367   -0.00007554    0.00001660
     atom   33 type  3   force =     0.00008367    0.00007554    0.00001660
     atom   34 type  3   force =    -0.00008367    0.00007554   -0.00001660
     atom   35 type  1   force =     0.00033308    0.00012880    0.00041578
     atom   36 type  1   force =     0.00033308   -0.00012880    0.00041578
     atom   37 type  1   force =    -0.00033308   -0.00012880   -0.00041578
     atom   38 type  3   force =     0.00030044    0.00016999   -0.00023880
     atom   39 type  3   force =     0.00030044   -0.00016999   -0.00023880
     atom   40 type  3   force =    -0.00030044   -0.00016999    0.00023880
     atom   41 type  1   force =     0.00019338    0.00037604   -0.00051401
     atom   42 type  1   force =     0.00019338   -0.00037604   -0.00051401
     atom   43 type  1   force =    -0.00019338   -0.00037604    0.00051401
     atom   44 type  1   force =     0.00066236   -0.00046414   -0.00000615
     atom   45 type  1   force =     0.00066236    0.00046414   -0.00000615
     atom   46 type  1   force =    -0.00066236    0.00046414    0.00000615
     atom   47 type  1   force =     0.00003070    0.00042799   -0.00014771
     atom   48 type  1   force =     0.00003070   -0.00042799   -0.00014771
     atom   49 type  1   force =    -0.00003070   -0.00042799    0.00014771
     atom   50 type  1   force =    -0.00022865    0.00023663    0.00019556
     atom   51 type  1   force =    -0.00022865   -0.00023663    0.00019556
     atom   52 type  1   force =     0.00022865   -0.00023663   -0.00019556
     atom   53 type  3   force =    -0.00002804    0.00001210    0.00009339
     atom   54 type  3   force =    -0.00002804   -0.00001210    0.00009339
     atom   55 type  3   force =     0.00002804   -0.00001210   -0.00009339
     atom   56 type  4   force =    -0.00095584    0.00013492   -0.00027528
     atom   57 type  4   force =    -0.00095584   -0.00013492   -0.00027528
     atom   58 type  4   force =     0.00095584   -0.00013492    0.00027528
     atom   59 type  1   force =     0.00007495   -0.00011270    0.00005724
     atom   60 type  1   force =     0.00007495    0.00011270    0.00005724
     atom   61 type  1   force =    -0.00007495    0.00011270   -0.00005724
     atom   62 type  1   force =    -0.00053647   -0.00005838    0.00020068
     atom   63 type  1   force =    -0.00053647    0.00005838    0.00020068
     atom   64 type  1   force =     0.00053647    0.00005838   -0.00020068
     atom   65 type  1   force =     0.00006045   -0.00055140    0.00021016
     atom   66 type  1   force =     0.00006045    0.00055140    0.00021016
     atom   67 type  1   force =    -0.00006045    0.00055140   -0.00021016
     atom   68 type  1   force =     0.00000164    0.00001458    0.00000252
     atom   69 type  1   force =     0.00000164   -0.00001458    0.00000252
     atom   70 type  1   force =    -0.00000164   -0.00001458   -0.00000252
     atom   71 type  1   force =     0.00040825    0.00000642   -0.00007381
     atom   72 type  1   force =     0.00040825   -0.00000642   -0.00007381
     atom   73 type  1   force =    -0.00040825   -0.00000642    0.00007381
     atom   74 type  1   force =     0.00019604   -0.00013794   -0.00023246
     atom   75 type  1   force =     0.00019604    0.00013794   -0.00023246
     atom   76 type  1   force =    -0.00019604    0.00013794    0.00023246
     atom   77 type  1   force =    -0.00011457   -0.00015035   -0.00012089
     atom   78 type  1   force =    -0.00011457    0.00015035   -0.00012089
     atom   79 type  1   force =     0.00011457    0.00015035    0.00012089
     atom   80 type  2   force =    -0.00023309   -0.00014721   -0.00021618
     atom   81 type  2   force =    -0.00023309    0.00014721   -0.00021618
     atom   82 type  2   force =     0.00023309    0.00014721    0.00021618
     atom   83 type  2   force =    -0.00012262    0.00023881    0.00003277
     atom   84 type  2   force =    -0.00012262   -0.00023881    0.00003277
     atom   85 type  2   force =     0.00012262   -0.00023881   -0.00003277
     atom   86 type  2   force =    -0.00025770    0.00043068   -0.00048770
     atom   87 type  2   force =    -0.00025770   -0.00043068   -0.00048770
     atom   88 type  2   force =     0.00025770   -0.00043068    0.00048770
     atom   89 type  2   force =    -0.00019384   -0.00044294    0.00054419
     atom   90 type  2   force =    -0.00019384    0.00044294    0.00054419
     atom   91 type  2   force =     0.00019384    0.00044294   -0.00054419
     atom   92 type  2   force =    -0.00066443   -0.00028984   -0.00027192
     atom   93 type  2   force =    -0.00066443    0.00028984   -0.00027192
     atom   94 type  2   force =     0.00066443    0.00028984    0.00027192
     atom   95 type  2   force =    -0.00019457   -0.00000202    0.00075721
     atom   96 type  2   force =    -0.00019457    0.00000202    0.00075721
     atom   97 type  2   force =     0.00019457    0.00000202   -0.00075721
     atom   98 type  2   force =     0.00024360    0.00038922    0.00001999
     atom   99 type  2   force =     0.00024360   -0.00038922    0.00001999
     atom  100 type  2   force =    -0.00024360   -0.00038922   -0.00001999
     atom  101 type  2   force =     0.00036093    0.00030843    0.00003093
     atom  102 type  2   force =     0.00036093   -0.00030843    0.00003093
     atom  103 type  2   force =    -0.00036093   -0.00030843   -0.00003093
     atom  104 type  2   force =     0.00024948    0.00020565   -0.00045027
     atom  105 type  2   force =     0.00024948   -0.00020565   -0.00045027
     atom  106 type  2   force =    -0.00024948   -0.00020565    0.00045027
     atom  107 type  2   force =     0.00041908    0.00066302    0.00023740
     atom  108 type  2   force =     0.00041908   -0.00066302    0.00023740
     atom  109 type  2   force =    -0.00041908   -0.00066302   -0.00023740
     atom  110 type  2   force =     0.00018639    0.00018472   -0.00050128
     atom  111 type  2   force =     0.00018639   -0.00018472   -0.00050128
     atom  112 type  2   force =    -0.00018639   -0.00018472    0.00050128
     atom  113 type  2   force =     0.00008461   -0.00018235    0.00017319
     atom  114 type  2   force =     0.00008461    0.00018235    0.00017319
     atom  115 type  2   force =    -0.00008461    0.00018235   -0.00017319
     atom  116 type  2   force =     0.00083816   -0.00006351   -0.00040231
     atom  117 type  2   force =     0.00083816    0.00006351   -0.00040231
     atom  118 type  2   force =    -0.00083816    0.00006351    0.00040231
     atom  119 type  2   force =     0.00043675    0.00019525    0.00027453
     atom  120 type  2   force =     0.00043675   -0.00019525    0.00027453
     atom  121 type  2   force =    -0.00043675   -0.00019525   -0.00027453
     atom  122 type  2   force =    -0.00041993    0.00014360   -0.00035454
     atom  123 type  2   force =    -0.00041993   -0.00014360   -0.00035454
     atom  124 type  2   force =     0.00041993   -0.00014360    0.00035454

     Total force =     0.006237     Total SCF correction =     0.000038

     bfgs converged in  11 scf cycles and  10 bfgs steps
     (criteria: energy <  1.0E-04 Ry, force <  1.0E-03 Ry/Bohr)

     End of BFGS Geometry Optimization

     Final energy   =   -1080.0249073500 Ry
Begin final coordinates

ATOMIC_POSITIONS (angstrom)
O        0.766966230  10.932004596   0.954832159
C        0.170876763  10.758124139   5.099555524
O       -0.698534821   8.530799677   4.826034016
C       -0.037950739  10.669350995   6.556030974
C        0.535774800  10.818239320   2.292190508
C       -0.008708515   9.682774894   2.887605337
C       -0.186103962   9.647660403   4.279291865
O       -0.553284967   9.578833704   7.030544483
N        0.477761551   0.668819130   9.685480975
C        0.182334712  11.621626535   8.787316214
C        0.703906093  -0.001633948   4.442763192
C        0.336291712  11.735330861   7.419796284
C        0.893336209   0.045618196   3.075456638
C        0.981706862   1.969466289   9.270410838
C        0.323665945   0.438886161  11.113656586
C        0.407437217   9.826659300   0.118168919
H        1.032984046   8.948860785   0.349912461
H       -2.185685408  10.159371807  11.936003587
H        6.771199759   9.563375197   0.233415523
H       -0.314399040   8.811575536   2.312834005
H       -0.212485156  10.690222617   9.194119640
H        0.751113790   0.757181117   7.001388790
H        1.349265780   0.909705331   2.593061864
H        0.998926911   0.867346329   5.027624664
H       -0.364822339   1.183626474  11.535513652
H        0.291111168   2.417104497   8.540452245
H        1.042305841   2.623048569  10.147611021
H       -0.058249422  11.316572079  11.283087991
H        1.979214720   1.866876503   8.814283532
H        1.299992008   0.533258893  11.613869545
H       -0.738345742   8.776078733   5.858884745
O        1.557823770   4.987504596   5.467287841
O        3.882613770   0.956995404  11.889397841
O        3.091756230   6.901495404   7.376942159
C        2.153913237   4.813624139   1.322564476
C        4.478703237   1.130875861   7.744674476
C        2.495666763   7.075375861  11.521665524
O        3.023324821   2.586299677   1.596075984
O        5.348114821   3.358200323   8.018185984
O        1.626255179   9.302700323  11.248144016
C       -0.414279261   4.724850995  12.710309026
C        4.687530739   1.219649005   6.288199026
C        5.063859261   7.164149005   0.133910974
C        1.789015200   4.873739320   4.129919492
C        4.113805200   1.070760680  10.552029492
C        2.860564800   7.015260680   8.714300508
C        2.333498515   3.738274894   3.534504663
C        4.658288515   2.206225106   9.956614663
C        2.316081485   8.150725106   9.309715337
C        2.510893962   3.703160403   2.142818135
C        4.835683962   2.241339597   8.564928135
C        2.138686038   8.185839597  10.701401865
O        0.101054967   3.634333704  12.235785517
O        5.202864967   2.310166296   5.813675517
O        4.548525033   8.254666296   0.608434483
N       -0.929991551   6.613319130   9.580849025
N        4.171818449  11.220180870   3.158739025
N        5.579571551   5.275680870   3.263370975
C       -0.634564712   5.677126535  10.479013786
C        4.467245288   0.267373465   4.056903786
C        5.284144712   6.211873465   2.365206214
C        1.620883907   5.942866052   1.979346808
C        3.945673907  11.890633948   8.401456808
C        3.028696093   5.946133948  10.864873192
C       -0.788521712   5.790830861  11.846543716
C        4.313288288   0.153669139   5.424433716
C        5.438101712   6.098169139   0.997676284
C        1.431453791   5.990118196   3.346653362
C        3.756243791  11.843381804   9.768763362
C        3.218126209   5.898881804   9.497576638
C       -1.433936862   7.913966289   9.995919162
C        3.667873138   9.919533711   3.573809162
C        6.083516862   3.975033711   2.848300838
C       -0.775895945   6.383386161   8.152673414
C        4.325914055  11.450113839   1.730563414
C        5.425475945   5.505613839   4.691546586
C        1.917352783   3.882159300   6.303941081
C        4.242142783   2.062340700  12.726061081
C        2.732227217   8.006840700   6.540278919
H        1.291805954   3.004360785   6.072207539
H        3.616595954   2.940139215  12.494317539
H        3.357774046   8.884639215   6.772022461
H        1.733455408   4.214871807   7.330326413
H        6.835265408   1.729628193   0.908216413
H        2.916124592   7.674128193   5.513893587
H        2.980190241   3.618875197   6.188704477
H       -2.121619759   2.325624803  12.610814477
H        1.669389759   8.270124803   6.655525523
H        2.639189040   2.867075536   4.109275995
H        4.963979040   3.077424464  10.531385995
H        2.010390960   9.021924464   8.734944005
H       -0.239744844   4.745722617  10.072210360
H        4.862065156   1.198777383   3.650100360
H        4.889324844   7.143277383   2.772009640
H       -1.203343790   6.701681117  12.264951210
H        3.898466210  11.131818883   5.842841210
H        5.852923790   5.187318883   0.579278790
H        0.975524220   6.854205331   3.829048136
H        3.300314220  10.979294669  10.251158136
H        3.674055780   5.034794669   9.015181864
H        1.325863089   6.811846329   1.394485336
H        3.650663089  11.021653671   7.816595336
H        3.323716911   5.077153671  11.449734664
H       -0.087407661   7.128126474   7.730826348
H        5.014402339  10.705373526   1.308716348
H        4.736987661   4.760873526   5.113403652
H       -0.743341168   8.361604497  10.725877755
H        4.358468832   9.471895503   4.303767755
H        5.392921168   3.527395503   2.118342245
H       -1.494525841   8.567548569   9.118728979
H        3.607284159   9.265951431   2.696618979
H        6.144115841   3.321451431   3.725501021
H       -0.393980578   5.372072079   7.983242009
H        4.707829422   0.572427921   1.561132009
H        5.043560578   6.516927921   4.860977991
H        4.995155280   7.811376503  10.452046468
H        2.670365280  10.022123497   4.029936468
H       -0.345575280   4.077623497   2.392173532
H       -1.752222008   6.477758893   7.652470455
H        3.349587992  11.355741107   1.230360455
H        6.401802008   5.411241107   5.191759545
H        3.063135742   2.831578733   0.563225255
H        5.387925742   3.112921267   6.985335255
H        1.586444258   9.057421267  12.280994745
End final coordinates



     Writing output data file 2hp_3_422.save
 
     init_run     :     71.81s CPU     73.29s WALL (       1 calls)
     electrons    :  17132.00s CPU  17354.82s WALL (      11 calls)
     update_pot   :      4.47s CPU      4.48s WALL (      10 calls)
     forces       :    431.53s CPU    435.16s WALL (      11 calls)

     Called by init_run:
     wfcinit      :     68.71s CPU     69.97s WALL (       1 calls)
     potinit      :      1.26s CPU      1.28s WALL (       1 calls)

     Called by electrons:
     c_bands      :  15364.51s CPU  15559.21s WALL (     105 calls)
     sum_band     :   1621.19s CPU   1635.47s WALL (     105 calls)
     v_of_rho     :     17.90s CPU     17.93s WALL (     116 calls)
     newd         :     40.81s CPU     55.59s WALL (     116 calls)
     mix_rho      :      3.46s CPU      3.56s WALL (     105 calls)

     Called by c_bands:
     init_us_2    :    141.49s CPU    141.54s WALL (    2664 calls)
     cegterg      :  14854.68s CPU  15049.01s WALL (    1260 calls)

     Called by sum_band:
     sum_band:bec :      0.94s CPU      0.94s WALL (    1260 calls)
     addusdens    :     42.70s CPU     56.21s WALL (     105 calls)

     Called by *egterg:
     h_psi        :   8506.60s CPU   8510.71s WALL (    5909 calls)
     s_psi        :   2009.41s CPU   2009.37s WALL (    5909 calls)
     g_psi        :     51.23s CPU     51.23s WALL (    4637 calls)
     cdiaghg      :    477.30s CPU    477.78s WALL (    5777 calls)

     Called by h_psi:
     h_psi:pot    :   8425.17s CPU   8428.97s WALL (    5909 calls)
     h_psi:calbec :   1904.91s CPU   1904.93s WALL (    5909 calls)
     vloc_psi     :   4511.67s CPU   4515.46s WALL (    5909 calls)
     add_vuspsi   :   2008.59s CPU   2008.55s WALL (    5909 calls)

     General routines
     calbec       :   2807.75s CPU   2807.74s WALL (    7697 calls)
     fft          :      7.12s CPU      7.19s WALL (    1509 calls)
     fftw         :   4634.06s CPU   4637.67s WALL ( 1485088 calls)
     davcio       :      0.01s CPU      0.53s WALL (      12 calls)
 
     Parallel routines
     fft_scatter  :    519.30s CPU    520.08s WALL ( 1486597 calls)
 
     PWSCF        :     4h54m CPU        4h57m WALL

 
   This run was terminated on:  14:52:23   9Oct2017            

=------------------------------------------------------------------------------=
   JOB DONE.
=------------------------------------------------------------------------------=
