
     Program PWSCF v.6.1 (svn rev. 13369) starts on  6Nov2017 at 13:18: 0 

     This program is part of the open-source Quantum ESPRESSO suite
     for quantum simulation of materials; please cite
         "P. Giannozzi et al., J. Phys.:Condens. Matter 21 395502 (2009);
          URL http://www.quantum-espresso.org", 
     in publications or presentations arising from this work. More details at
     http://www.quantum-espresso.org/quote

     Parallel version (MPI), running on     1 processors
     Waiting for input...
     Reading input from standard input

     Current dimensions of program PWSCF are:
     Max number of different atomic species (ntypx) = 10
     Max number of k-points (npk) =  40000
     Max angular momentum in pseudopotentials (lmaxx) =  3
     Message from routine iosys:
     london is obsolete, use "vdw_corr='grimme-d2'" instead

     IMPORTANT: XC functional enforced from input :
     Exchange-correlation      = PBE ( 1  4  3  4 0 0)
     Any further DFT definition will be discarded
     Please, verify this is what you really want

               file C.pbe-rrkjus.UPF: wavefunction(s)  2S 2P renormalized
               file H.pbe-rrkjus.UPF: wavefunction(s)  1S renormalized
               file O.pbe-rrkjus.UPF: wavefunction(s)  2S renormalized
               file N.pbe-rrkjus.UPF: wavefunction(s)  2S renormalized

     -------------------------------------
     Parameters for Dispersion Correction:
     -------------------------------------
       atom      VdW radius       C_6     

        C          2.744         60.710
        H          1.892          4.857
        O          2.536         24.284
        N          2.640         42.670

     Subspace diagonalization in iterative solution of the eigenvalue problem:
     a serial algorithm will be used

 
     G-vector sticks info
     --------------------
     sticks:   dense  smooth     PW     G-vecs:    dense   smooth      PW
     Sum        4249    4249   1181               209979   209979   30803
 


     bravais-lattice index     =            0
     lattice parameter (alat)  =      22.9035  a.u.
     unit-cell volume          =    9458.7131 (a.u.)^3
     number of atoms/cell      =          148
     number of atomic types    =            4
     number of electrons       =       408.00
     number of Kohn-Sham states=          204
     kinetic-energy cutoff     =      30.0000  Ry
     charge density cutoff     =     120.0000  Ry
     convergence threshold     =      1.0E-07
     mixing beta               =       0.7000
     number of iterations used =            8  plain     mixing
     Exchange-correlation      = PBE ( 1  4  3  4 0 0)
     nstep                     =           50


     celldm(1)=  22.903481  celldm(2)=   0.000000  celldm(3)=   0.000000
     celldm(4)=   0.000000  celldm(5)=   0.000000  celldm(6)=   0.000000

     crystal axes: (cart. coord. in units of alat)
               a(1) = (   1.000000   0.000000   0.000000 )  
               a(2) = (   0.000000   0.848597   0.000000 )  
               a(3) = (  -0.451487   0.000000   0.927739 )  

     reciprocal axes: (cart. coord. in units 2 pi/alat)
               b(1) = (  1.000000  0.000000  0.486653 )  
               b(2) = (  0.000000  1.178415  0.000000 )  
               b(3) = (  0.000000  0.000000  1.077889 )  


     PseudoPot. # 1 for C  read from file:
     /data/home/btx156/espresso/pseudo/C.pbe-rrkjus.UPF
     MD5 check sum: 00fb224312de0c5b6853bd333518df6f
     Pseudo is Ultrasoft, Zval =  4.0
     Generated by new atomic code, or converted to UPF format
     Using radial grid of  627 points,  4 beta functions with: 
                l(1) =   0
                l(2) =   0
                l(3) =   1
                l(4) =   1
     Q(r) pseudized with 0 coefficients 


     PseudoPot. # 2 for H  read from file:
     /data/home/btx156/espresso/pseudo/H.pbe-rrkjus.UPF
     MD5 check sum: 7cc9d459525c9a0585f487a71c3c9563
     Pseudo is Ultrasoft, Zval =  1.0
     Generated by new atomic code, or converted to UPF format
     Using radial grid of 1061 points,  2 beta functions with: 
                l(1) =   0
                l(2) =   0
     Q(r) pseudized with 0 coefficients 


     PseudoPot. # 3 for O  read from file:
     /data/home/btx156/espresso/pseudo/O.pbe-rrkjus.UPF
     MD5 check sum: 390ba29e75625707450f3bd3f0eb6be9
     Pseudo is Ultrasoft, Zval =  6.0
     Generated by new atomic code, or converted to UPF format
     Using radial grid of 1269 points,  4 beta functions with: 
                l(1) =   0
                l(2) =   0
                l(3) =   1
                l(4) =   1
     Q(r) pseudized with 0 coefficients 


     PseudoPot. # 4 for N  read from file:
     /data/home/btx156/espresso/pseudo/N.pbe-rrkjus.UPF
     MD5 check sum: 0c3fbe5807a93f9ba59d5a7019aa238b
     Pseudo is Ultrasoft, Zval =  5.0
     Generated by new atomic code, or converted to UPF format
     Using radial grid of 1257 points,  4 beta functions with: 
                l(1) =   0
                l(2) =   0
                l(3) =   1
                l(4) =   1
     Q(r) pseudized with 0 coefficients 


     atomic species   valence    mass     pseudopotential
        C              4.00    12.00000     C ( 1.00)
        H              1.00     1.00790     H ( 1.00)
        O              6.00    15.99940     O ( 1.00)
        N              5.00    14.00670     N ( 1.00)

      4 Sym. Ops., with inversion, found ( 2 have fractional translation)



   Cartesian axes

     site n.     atom                  positions (alat units)
         1           C   tau(   1) = (   0.4068102   0.2841955   0.3725248  )
         2           C   tau(   2) = (   0.3056279   0.2347219   0.3517335  )
         3           H   tau(   3) = (   0.2472830   0.2456691   0.4003193  )
         4           C   tau(   4) = (   0.2909852   0.1697195   0.2601749  )
         5           H   tau(   5) = (   0.2229142   0.1369637   0.2469645  )
         6           C   tau(   6) = (   0.3772046   0.1529175   0.1875982  )
         7           H   tau(   7) = (   0.3676073   0.1076873   0.1263581  )
         8           C   tau(   8) = (   0.4769150   0.2030017   0.2059670  )
         9           H   tau(   9) = (   0.5340050   0.1920380   0.1559530  )
        10           C   tau(  10) = (   0.4949381   0.2701931   0.2981015  )
        11           C   tau(  11) = (   0.6006271   0.3262178   0.3198845  )
        12           C   tau(  12) = (   0.6940421   0.3103573   0.2466394  )
        13           H   tau(  13) = (   0.6875190   0.2615380   0.1877748  )
        14           C   tau(  14) = (   0.7897624   0.3643028   0.2615578  )
        15           H   tau(  15) = (   0.7909241   0.4153036   0.3188639  )
        16           C   tau(  16) = (   0.8909678   0.3529233   0.1997979  )
        17           C   tau(  17) = (   0.9052434   0.2768036   0.1141394  )
        18           H   tau(  18) = (   0.8460454   0.2325157   0.0936089  )
        19           C   tau(  19) = (   0.0033441   0.2654926   0.0597467  )
        20           H   tau(  20) = (   0.0097583   0.2131675   0.0039893  )
        21           C   tau(  21) = (   0.0952244   0.3319711   0.0867063  )
        22           C   tau(  22) = (   0.0813837   0.4080140   0.1729488  )
        23           H   tau(  23) = (   0.1400396   0.4528119   0.1938977  )
        24           C   tau(  24) = (  -0.0177937   0.4170008   0.2267393  )
        25           H   tau(  25) = (  -0.0242195   0.4680866   0.2836097  )
        26           C   tau(  26) = (  -0.2459480   0.2433779   0.8705347  )
        27           H   tau(  27) = (  -0.2587649   0.1703985   0.8985157  )
        28           H   tau(  28) = (  -0.1723441   0.2479604   0.8415520  )
        29           H   tau(  29) = (  -0.2980380   0.2590767   0.8129777  )
        30           C   tau(  30) = (   0.2838201   0.3968045   0.0529736  )
        31           H   tau(  31) = (   0.2597995   0.4717352   0.0439752  )
        32           H   tau(  32) = (   0.3427162   0.3816988   0.0022269  )
        33           H   tau(  33) = (   0.3094010   0.3860272   0.1271931  )
        34           N   tau(  34) = (   0.1925322   0.3227979   0.0312087  )
        35           O   tau(  35) = (   0.4163490   0.3447508   0.4652616  )
        36           H   tau(  36) = (   0.4775314   0.3734678   0.4672096  )
        37           O   tau(  37) = (   0.6092715   0.3868589   0.4032418  )
        38           C   tau(  38) = (   0.3674464   0.7084942   0.0913449  )
        39           C   tau(  39) = (   0.1417030   0.5644018   0.5552145  )
        40           C   tau(  40) = (   0.1810668   0.1401031   0.8363944  )
        41           C   tau(  41) = (   0.4686287   0.6590206   0.1121361  )
        42           C   tau(  42) = (   0.2428853   0.6138754   0.5760058  )
        43           C   tau(  43) = (   0.0798845   0.1895767   0.8156031  )
        44           H   tau(  44) = (   0.5269728   0.6699678   0.0635503  )
        45           H   tau(  45) = (   0.3012294   0.6029282   0.5274200  )
        46           H   tau(  46) = (   0.0215396   0.1786295   0.8641890  )
        47           C   tau(  47) = (   0.4832715   0.5940182   0.2036947  )
        48           C   tau(  48) = (   0.2575281   0.6788779   0.6675644  )
        49           C   tau(  49) = (   0.0652417   0.2545792   0.7240446  )
        50           H   tau(  50) = (   0.5513424   0.5612624   0.2169051  )
        51           H   tau(  51) = (   0.3255990   0.7116337   0.6807748  )
        52           H   tau(  52) = (  -0.0028292   0.2873350   0.7108342  )
        53           C   tau(  53) = (   0.3970520   0.5772162   0.2762715  )
        54           C   tau(  54) = (   0.1713086   0.6956799   0.7401411  )
        55           C   tau(  55) = (   0.1514612   0.2713812   0.6514678  )
        56           H   tau(  56) = (   0.4066493   0.5319860   0.3375116  )
        57           H   tau(  57) = (   0.1809059   0.7409101   0.8013812  )
        58           H   tau(  58) = (   0.1418639   0.3166114   0.5902277  )
        59           C   tau(  59) = (   0.2973408   0.6273003   0.2579018  )
        60           C   tau(  60) = (   0.0715974   0.6455957   0.7217715  )
        61           C   tau(  61) = (   0.2511716   0.2212970   0.6698366  )
        62           H   tau(  62) = (   0.2402517   0.6163366   0.3079167  )
        63           H   tau(  63) = (   0.0145083   0.6565594   0.7717863  )
        64           H   tau(  64) = (   0.3082616   0.2322607   0.6198226  )
        65           C   tau(  65) = (   0.2793185   0.6944918   0.1657682  )
        66           C   tau(  66) = (   0.0535751   0.5784043   0.6296378  )
        67           C   tau(  67) = (   0.2691947   0.1541056   0.7619711  )
        68           C   tau(  68) = (   0.1736295   0.7505165   0.1439851  )
        69           C   tau(  69) = (  -0.0521139   0.5223795   0.6078548  )
        70           C   tau(  70) = (   0.3748837   0.0980809   0.7837541  )
        71           C   tau(  71) = (   0.0802145   0.7346559   0.2172302  )
        72           C   tau(  72) = (  -0.1455289   0.5382401   0.6810998  )
        73           C   tau(  73) = (   0.4682987   0.1139414   0.7105091  )
        74           H   tau(  74) = (   0.0867376   0.6858366   0.2760949  )
        75           H   tau(  75) = (  -0.1390058   0.5870594   0.7399645  )
        76           H   tau(  76) = (   0.4617756   0.1627607   0.6516444  )
        77           C   tau(  77) = (  -0.0155058   0.7886015   0.2023119  )
        78           C   tau(  78) = (  -0.2412492   0.4842946   0.6661815  )
        79           C   tau(  79) = (   0.5640190   0.0599959   0.7254274  )
        80           H   tau(  80) = (  -0.0166675   0.8396023   0.1450058  )
        81           H   tau(  81) = (  -0.2424109   0.4332937   0.6088754  )
        82           H   tau(  82) = (   0.5651807   0.0089950   0.7827335  )
        83           C   tau(  83) = (  -0.1167112   0.7772220   0.2640718  )
        84           C   tau(  84) = (  -0.3424546   0.4956741   0.7279414  )
        85           C   tau(  85) = (   0.6652244   0.0713754   0.6636675  )
        86           H   tau(  86) = (   0.4648556   0.8103259   0.3366766  )
        87           H   tau(  87) = (   0.2391122   0.4625701   0.8005462  )
        88           H   tau(  88) = (   0.0836576   0.0382715   0.5910627  )
        89           C   tau(  89) = (  -0.1309868   0.7011023   0.3497302  )
        90           C   tau(  90) = (  -0.3567302   0.5717937   0.8135998  )
        91           C   tau(  91) = (   0.6795000   0.1474951   0.5780091  )
        92           H   tau(  92) = (  -0.0717888   0.6568144   0.3702607  )
        93           H   tau(  93) = (  -0.2975322   0.6160817   0.8341304  )
        94           H   tau(  94) = (   0.6203012   0.1917830   0.5574786  )
        95           C   tau(  95) = (   0.7709125   0.6897913   0.4041229  )
        96           C   tau(  96) = (   0.5451691   0.5831048   0.8679926  )
        97           C   tau(  97) = (  -0.2223993   0.1588061   0.5236163  )
        98           H   tau(  98) = (   0.7644984   0.6374662   0.4598804  )
        99           H   tau(  99) = (   0.5387541   0.6354299   0.9237500  )
       100           H   tau( 100) = (  -0.2159852   0.2111312   0.4678589  )
       101           C   tau( 101) = (   0.6790322   0.7562698   0.3771634  )
       102           C   tau( 102) = (   0.4532888   0.5166262   0.8410330  )
       103           C   tau( 103) = (  -0.1305198   0.0923276   0.5505759  )
       104           C   tau( 104) = (   0.6928729   0.8323127   0.2909208  )
       105           C   tau( 105) = (   0.4671295   0.4405833   0.7547904  )
       106           C   tau( 106) = (  -0.1443597   0.0162847   0.6368185  )
       107           H   tau( 107) = (   0.6342170   0.0285132   0.2699719  )
       108           H   tau( 108) = (   0.4084736   0.3957855   0.7338416  )
       109           H   tau( 109) = (  -0.0857038   0.8200842   0.6577673  )
       110           C   tau( 110) = (   0.7920503   0.8412995   0.2371304  )
       111           C   tau( 111) = (   0.5663069   0.4315965   0.7010000  )
       112           C   tau( 112) = (  -0.2435371   0.0072979   0.6906089  )
       113           H   tau( 113) = (   0.7984761   0.0437880   0.1802599  )
       114           H   tau( 114) = (   0.5727327   0.3805107   0.6441295  )
       115           H   tau( 115) = (  -0.2499629   0.8048094   0.7474794  )
       116           C   tau( 116) = (   0.5687178   0.6676766   0.5210743  )
       117           C   tau( 117) = (   0.7944612   0.6052195   0.0572046  )
       118           C   tau( 118) = (  -0.0202046   0.1809208   0.4066650  )
       119           H   tau( 119) = (   0.5815347   0.5946972   0.4930932  )
       120           H   tau( 120) = (   0.8072781   0.6781989   0.0292236  )
       121           H   tau( 121) = (  -0.0330215   0.2539002   0.4346460  )
       122           H   tau( 122) = (   0.4951130   0.6722591   0.5500569  )
       123           H   tau( 123) = (   0.7208573   0.6006370   0.0861873  )
       124           H   tau( 124) = (   0.0533993   0.1763383   0.3776823  )
       125           H   tau( 125) = (   0.6208078   0.6833754   0.5786312  )
       126           H   tau( 126) = (   0.8465512   0.5895206   0.1147616  )
       127           H   tau( 127) = (  -0.0722946   0.1652219   0.3491081  )
       128           C   tau( 128) = (   0.4904365   0.8211031   0.4108960  )
       129           C   tau( 129) = (   0.2646931   0.4517929   0.8747657  )
       130           C   tau( 130) = (   0.0580767   0.0274942   0.5168432  )
       131           H   tau( 131) = (   0.5144571   0.0474365   0.4198944  )
       132           H   tau( 132) = (   0.2887137   0.3768622   0.8837640  )
       133           H   tau( 133) = (   0.0340561   0.8011609   0.5078441  )
       134           H   tau( 134) = (   0.4315404   0.8059975   0.4616427  )
       135           H   tau( 135) = (   0.2057970   0.4668985   0.9255124  )
       136           H   tau( 136) = (   0.1169728   0.0425998   0.4660965  )
       137           N   tau( 137) = (   0.5817244   0.7470965   0.4326601  )
       138           N   tau( 138) = (   0.3559810   0.5257995   0.8965297  )
       139           N   tau( 139) = (  -0.0332112   0.1015008   0.4950784  )
       140           O   tau( 140) = (  -0.0935800   0.7690495   0.9263474  )
       141           O   tau( 141) = (   0.1321642   0.5038465   0.4624777  )
       142           O   tau( 142) = (   0.6420924   0.0795479   0.0013919  )
       143           H   tau( 143) = (  -0.1547616   0.7977665   0.9243993  )
       144           H   tau( 144) = (   0.0709818   0.4751295   0.4605297  )
       145           H   tau( 145) = (   0.7032748   0.0508309   0.0033399  )
       146           O   tau( 146) = (   0.1649852   0.8111576   0.0606279  )
       147           O   tau( 147) = (  -0.0607583   0.4617385   0.5244975  )
       148           O   tau( 148) = (   0.3835281   0.0374398   0.8671114  )

     number of k points=    30
                       cart. coord. in units 2pi/alat
        k(    1) = (   0.0000000   0.0000000   0.0000000), wk =   0.0312500
        k(    2) = (   0.0000000   0.0000000   0.2694723), wk =   0.0625000
        k(    3) = (   0.0000000   0.0000000  -0.5389445), wk =   0.0312500
        k(    4) = (   0.0000000   0.2946038   0.0000000), wk =   0.0625000
        k(    5) = (   0.0000000   0.2946038   0.2694723), wk =   0.1250000
        k(    6) = (   0.0000000   0.2946038  -0.5389445), wk =   0.0625000
        k(    7) = (   0.0000000  -0.5892076   0.0000000), wk =   0.0312500
        k(    8) = (   0.0000000  -0.5892076   0.2694723), wk =   0.0625000
        k(    9) = (   0.0000000  -0.5892076  -0.5389445), wk =   0.0312500
        k(   10) = (   0.2500000   0.0000000   0.1216632), wk =   0.0625000
        k(   11) = (   0.2500000   0.0000000   0.3911355), wk =   0.0625000
        k(   12) = (   0.2500000   0.0000000  -0.4172814), wk =   0.0625000
        k(   13) = (   0.2500000   0.0000000  -0.1478091), wk =   0.0625000
        k(   14) = (   0.2500000   0.2946038   0.1216632), wk =   0.1250000
        k(   15) = (   0.2500000   0.2946038   0.3911355), wk =   0.1250000
        k(   16) = (   0.2500000   0.2946038  -0.4172814), wk =   0.1250000
        k(   17) = (   0.2500000   0.2946038  -0.1478091), wk =   0.1250000
        k(   18) = (   0.2500000  -0.5892076   0.1216632), wk =   0.0625000
        k(   19) = (   0.2500000  -0.5892076   0.3911355), wk =   0.0625000
        k(   20) = (   0.2500000  -0.5892076  -0.4172814), wk =   0.0625000
        k(   21) = (   0.2500000  -0.5892076  -0.1478091), wk =   0.0625000
        k(   22) = (  -0.5000000   0.0000000  -0.2433264), wk =   0.0312500
        k(   23) = (  -0.5000000   0.0000000   0.0261459), wk =   0.0625000
        k(   24) = (  -0.5000000   0.0000000  -0.7822709), wk =   0.0312500
        k(   25) = (  -0.5000000   0.2946038  -0.2433264), wk =   0.0625000
        k(   26) = (  -0.5000000   0.2946038   0.0261459), wk =   0.1250000
        k(   27) = (  -0.5000000   0.2946038  -0.7822709), wk =   0.0625000
        k(   28) = (  -0.5000000  -0.5892076  -0.2433264), wk =   0.0312500
        k(   29) = (  -0.5000000  -0.5892076   0.0261459), wk =   0.0625000
        k(   30) = (  -0.5000000  -0.5892076  -0.7822709), wk =   0.0312500

     Dense  grid:   209979 G-vectors     FFT dimensions: (  80,  72,  90)

     Estimated max dynamical RAM per process >    3649.06MB

     Initial potential from superposition of free atoms

     starting charge  401.45449, renormalised to  408.00000
     Starting wfc are  388 randomized atomic wfcs

     total cpu time spent up to now is      370.5 secs

     Self-consistent Calculation

     iteration #  1     ecut=    30.00 Ry     beta=0.70
     Davidson diagonalization with overlap
     ethr =  1.00E-02,  avg # of iterations =  2.0

     total cpu time spent up to now is     1077.0 secs

     total energy              =   -1177.02973982 Ry
     Harris-Foulkes estimate   =   -1201.65753600 Ry
     estimated scf accuracy    <      37.10863763 Ry

     iteration #  2     ecut=    30.00 Ry     beta=0.70
     Davidson diagonalization with overlap
     ethr =  9.10E-03,  avg # of iterations =  4.0

     total cpu time spent up to now is     1825.2 secs

     total energy              =   -1180.63345109 Ry
     Harris-Foulkes estimate   =   -1191.98050921 Ry
     estimated scf accuracy    <      19.91200337 Ry

     iteration #  3     ecut=    30.00 Ry     beta=0.70
     Davidson diagonalization with overlap
     ethr =  4.88E-03,  avg # of iterations =  4.0

     total cpu time spent up to now is     2519.7 secs

     total energy              =   -1185.69559115 Ry
     Harris-Foulkes estimate   =   -1188.05414585 Ry
     estimated scf accuracy    <       4.88481194 Ry

     iteration #  4     ecut=    30.00 Ry     beta=0.70
     Davidson diagonalization with overlap
     ethr =  1.20E-03,  avg # of iterations =  4.0

     total cpu time spent up to now is     3168.4 secs

     total energy              =   -1186.67632657 Ry
     Harris-Foulkes estimate   =   -1187.00804187 Ry
     estimated scf accuracy    <       0.68158215 Ry

     iteration #  5     ecut=    30.00 Ry     beta=0.70
     Davidson diagonalization with overlap
     ethr =  1.67E-04,  avg # of iterations =  5.0

     total cpu time spent up to now is     3842.9 secs

     total energy              =   -1186.81771503 Ry
     Harris-Foulkes estimate   =   -1186.87616879 Ry
     estimated scf accuracy    <       0.12484710 Ry

     iteration #  6     ecut=    30.00 Ry     beta=0.70
     Davidson diagonalization with overlap
     ethr =  3.06E-05,  avg # of iterations =  5.0

     total cpu time spent up to now is     4505.8 secs

     total energy              =   -1186.84556153 Ry
     Harris-Foulkes estimate   =   -1186.85262779 Ry
     estimated scf accuracy    <       0.01607074 Ry

     iteration #  7     ecut=    30.00 Ry     beta=0.70
     Davidson diagonalization with overlap
     ethr =  3.94E-06,  avg # of iterations =  4.6

     total cpu time spent up to now is     5182.4 secs

     total energy              =   -1186.84897266 Ry
     Harris-Foulkes estimate   =   -1186.85009170 Ry
     estimated scf accuracy    <       0.00249519 Ry

     iteration #  8     ecut=    30.00 Ry     beta=0.70
     Davidson diagonalization with overlap
     ethr =  6.12E-07,  avg # of iterations =  4.0

     total cpu time spent up to now is     5861.8 secs

     total energy              =   -1186.84950598 Ry
     Harris-Foulkes estimate   =   -1186.84971396 Ry
     estimated scf accuracy    <       0.00045882 Ry

     iteration #  9     ecut=    30.00 Ry     beta=0.70
     Davidson diagonalization with overlap
     ethr =  1.12E-07,  avg # of iterations =  4.0

     total cpu time spent up to now is     6549.1 secs

     total energy              =   -1186.84961107 Ry
     Harris-Foulkes estimate   =   -1186.84963417 Ry
     estimated scf accuracy    <       0.00004917 Ry

     iteration # 10     ecut=    30.00 Ry     beta=0.70
     Davidson diagonalization with overlap
     ethr =  1.21E-08,  avg # of iterations =  4.0

     total cpu time spent up to now is     7228.5 secs

     total energy              =   -1186.84962272 Ry
     Harris-Foulkes estimate   =   -1186.84962554 Ry
     estimated scf accuracy    <       0.00000612 Ry

     iteration # 11     ecut=    30.00 Ry     beta=0.70
     Davidson diagonalization with overlap
     ethr =  1.50E-09,  avg # of iterations =  3.8

     total cpu time spent up to now is     7871.2 secs

     total energy              =   -1186.84962411 Ry
     Harris-Foulkes estimate   =   -1186.84962434 Ry
     estimated scf accuracy    <       0.00000056 Ry

     iteration # 12     ecut=    30.00 Ry     beta=0.70
     Davidson diagonalization with overlap
     ethr =  1.36E-10,  avg # of iterations =  4.0

     total cpu time spent up to now is     8552.4 secs

     total energy              =   -1186.84962424 Ry
     Harris-Foulkes estimate   =   -1186.84962432 Ry
     estimated scf accuracy    <       0.00000021 Ry

     iteration # 13     ecut=    30.00 Ry     beta=0.70
     Davidson diagonalization with overlap
     ethr =  5.09E-11,  avg # of iterations =  4.0

     total cpu time spent up to now is     9202.0 secs

     End of self-consistent calculation

          k = 0.0000 0.0000 0.0000 ( 26273 PWs)   bands (ev):

   -21.6277 -21.6271 -21.6242 -21.6239 -19.4101 -19.4098 -19.4080 -19.4076
   -17.9359 -17.9323 -17.9218 -17.9193 -15.6021 -15.5948 -15.5917 -15.5798
   -15.3261 -15.3103 -15.3014 -15.2918 -13.9327 -13.9029 -13.8955 -13.8834
   -13.2940 -13.2816 -13.2750 -13.2731 -13.0750 -13.0691 -13.0189 -12.9972
   -12.9206 -12.9063 -12.8874 -12.8682 -12.5415 -12.5340 -12.5257 -12.5131
   -12.5035 -12.4890 -12.4744 -12.4477 -11.1010 -11.0952 -11.0939 -11.0931
   -10.4252 -10.4071 -10.4023 -10.3994  -9.7668  -9.7484  -9.7151  -9.6866
    -9.6291  -9.6144  -9.6088  -9.5923  -9.4995  -9.4501  -9.4270  -9.3931
    -8.6787  -8.6132  -8.5946  -8.5726  -8.1499  -8.1417  -8.1252  -8.0864
    -7.5043  -7.4676  -7.4527  -7.4241  -7.4201  -7.4078  -7.3910  -7.3709
    -7.0389  -7.0306  -7.0212  -6.9918  -6.2356  -6.2027  -6.1841  -6.1337
    -6.1253  -6.0956  -6.0931  -6.0842  -5.9618  -5.9429  -5.9000  -5.8910
    -5.6726  -5.6520  -5.6265  -5.6236  -5.5735  -5.5690  -5.5059  -5.4954
    -5.4088  -5.3603  -5.2033  -5.1984  -4.9699  -4.9357  -4.8999  -4.8261
    -4.8004  -4.7807  -4.7638  -4.7492  -4.7384  -4.6814  -4.6777  -4.6142
    -4.6127  -4.5682  -4.5207  -4.5164  -4.5018  -4.4458  -4.4214  -4.3974
    -4.1743  -4.1672  -4.1307  -4.1082  -4.0399  -4.0306  -4.0057  -3.9708
    -3.7198  -3.7033  -3.7007  -3.6824  -3.6491  -3.6453  -3.5837  -3.5448
    -3.4692  -3.4647  -3.4568  -3.4454  -3.4416  -3.3837  -3.3814  -3.3649
    -3.2169  -3.2103  -3.1593  -3.1277  -3.1077  -3.0961  -3.0505  -3.0251
    -2.8472  -2.7865  -2.7735  -2.7526  -2.4978  -2.4743  -2.4723  -2.4581
    -2.3978  -2.3533  -2.3076  -2.2252  -2.0931  -2.0513  -2.0096  -1.9968
    -1.7943  -1.7586  -1.7102  -1.6127  -0.6532  -0.6022  -0.5915  -0.4949
    -0.4472  -0.3550  -0.3260  -0.2982  -0.2871  -0.1854  -0.0837  -0.0576
     0.1473   0.1707   0.3075   0.3115   0.3345   0.3638   0.3745   0.3861
     1.3376   1.3591   1.5497   1.5512

          k = 0.0000 0.0000 0.2695 ( 26210 PWs)   bands (ev):

   -21.6276 -21.6272 -21.6242 -21.6239 -19.4101 -19.4099 -19.4080 -19.4077
   -17.9353 -17.9328 -17.9214 -17.9196 -15.6010 -15.5958 -15.5899 -15.5816
   -15.3238 -15.3127 -15.3000 -15.2932 -13.9315 -13.9143 -13.8868 -13.8821
   -13.2910 -13.2803 -13.2761 -13.2754 -13.0746 -13.0714 -13.0131 -12.9989
   -12.9168 -12.9009 -12.8926 -12.8746 -12.5445 -12.5330 -12.5255 -12.5111
   -12.5010 -12.4904 -12.4719 -12.4526 -11.1034 -11.1015 -11.0914 -11.0868
   -10.4214 -10.4054 -10.4036 -10.3981  -9.7614  -9.7385  -9.7243  -9.6950
    -9.6316  -9.6268  -9.5991  -9.5926  -9.4885  -9.4521  -9.4263  -9.4000
    -8.6717  -8.6140  -8.6019  -8.5714  -8.1537  -8.1528  -8.1105  -8.0881
    -7.4999  -7.4759  -7.4433  -7.4229  -7.4168  -7.4045  -7.3923  -7.3802
    -7.0404  -7.0345  -7.0162  -6.9955  -6.2194  -6.1955  -6.1808  -6.1486
    -6.1185  -6.0983  -6.0934  -6.0837  -5.9633  -5.9501  -5.8977  -5.8914
    -5.6725  -5.6348  -5.6321  -5.6150  -5.5810  -5.5761  -5.5032  -5.4934
    -5.3817  -5.3450  -5.2367  -5.2286  -4.9588  -4.9241  -4.9044  -4.8522
    -4.8098  -4.7808  -4.7653  -4.7530  -4.7366  -4.7040  -4.6423  -4.6135
    -4.6023  -4.5591  -4.5257  -4.5205  -4.5008  -4.4686  -4.4058  -4.3937
    -4.1785  -4.1525  -4.1449  -4.1137  -4.0299  -4.0264  -4.0075  -3.9796
    -3.7187  -3.7028  -3.6963  -3.6822  -3.6443  -3.6244  -3.5940  -3.5498
    -3.4720  -3.4713  -3.4608  -3.4543  -3.4268  -3.3780  -3.3748  -3.3601
    -3.2510  -3.2244  -3.1680  -3.1138  -3.0988  -3.0910  -3.0544  -3.0046
    -2.8341  -2.7823  -2.7778  -2.7552  -2.4957  -2.4787  -2.4528  -2.4515
    -2.4038  -2.3360  -2.3296  -2.2456  -2.0870  -2.0571  -2.0082  -1.9986
    -1.8001  -1.7690  -1.6880  -1.6236  -0.6459  -0.6097  -0.5791  -0.5131
    -0.4428  -0.4022  -0.3013  -0.2997  -0.2501  -0.1810  -0.0825  -0.0653
     0.1501   0.1668   0.3108   0.3176   0.3291   0.3560   0.3764   0.3852
     1.3407   1.3571   1.5462   1.5464

          k = 0.0000 0.0000-0.5389 ( 26180 PWs)   bands (ev):

   -21.6274 -21.6273 -21.6241 -21.6239 -19.4100 -19.4099 -19.4079 -19.4078
   -17.9342 -17.9340 -17.9206 -17.9205 -15.5983 -15.5983 -15.5858 -15.5858
   -15.3183 -15.3183 -15.2966 -15.2966 -13.9258 -13.9258 -13.8816 -13.8816
   -13.2838 -13.2838 -13.2771 -13.2771 -13.0739 -13.0738 -13.0041 -13.0041
   -12.9053 -12.9052 -12.8885 -12.8884 -12.5420 -12.5420 -12.5153 -12.5153
   -12.4949 -12.4948 -12.4635 -12.4634 -11.1051 -11.1051 -11.0864 -11.0864
   -10.4131 -10.4131 -10.3985 -10.3985  -9.7447  -9.7447  -9.7162  -9.7162
    -9.6341  -9.6340  -9.5938  -9.5938  -9.4668  -9.4668  -9.4155  -9.4155
    -8.6475  -8.6475  -8.5820  -8.5820  -8.1582  -8.1582  -8.0954  -8.0954
    -7.4890  -7.4889  -7.4290  -7.4290  -7.4054  -7.4053  -7.3935  -7.3934
    -7.0400  -7.0399  -7.0054  -7.0054  -6.1846  -6.1846  -6.1814  -6.1814
    -6.1080  -6.1080  -6.0864  -6.0863  -5.9616  -5.9615  -5.8938  -5.8938
    -5.6552  -5.6552  -5.6021  -5.6021  -5.5962  -5.5962  -5.4955  -5.4955
    -5.3123  -5.3123  -5.2939  -5.2939  -4.9265  -4.9264  -4.8968  -4.8967
    -4.8050  -4.8050  -4.7470  -4.7470  -4.7363  -4.7363  -4.6118  -4.6118
    -4.5705  -4.5705  -4.5343  -4.5342  -4.4889  -4.4889  -4.3937  -4.3937
    -4.1680  -4.1680  -4.1310  -4.1310  -4.0201  -4.0201  -4.0004  -4.0004
    -3.7103  -3.7102  -3.6887  -3.6887  -3.6197  -3.6197  -3.5806  -3.5806
    -3.4764  -3.4764  -3.4586  -3.4586  -3.3917  -3.3917  -3.3621  -3.3621
    -3.2750  -3.2750  -3.1368  -3.1368  -3.0750  -3.0750  -3.0265  -3.0265
    -2.8065  -2.8065  -2.7637  -2.7637  -2.4871  -2.4870  -2.4407  -2.4407
    -2.3794  -2.3794  -2.2930  -2.2930  -2.0721  -2.0721  -2.0035  -2.0035
    -1.7911  -1.7911  -1.6516  -1.6515  -0.6279  -0.6279  -0.5483  -0.5483
    -0.4321  -0.4321  -0.3024  -0.3024  -0.1920  -0.1920  -0.0791  -0.0791
     0.1579   0.1579   0.3189   0.3189   0.3352   0.3352   0.3816   0.3817
     1.3496   1.3496   1.5420   1.5421

          k = 0.0000 0.2946 0.0000 ( 26230 PWs)   bands (ev):

   -21.6276 -21.6272 -21.6242 -21.6239 -19.4101 -19.4099 -19.4080 -19.4077
   -17.9354 -17.9329 -17.9214 -17.9196 -15.6006 -15.5932 -15.5925 -15.5819
   -15.3226 -15.3076 -15.3052 -15.2945 -13.9290 -13.9083 -13.8932 -13.8843
   -13.2917 -13.2827 -13.2749 -13.2733 -13.0745 -13.0703 -13.0163 -13.0010
   -12.9192 -12.9088 -12.8831 -12.8698 -12.5423 -12.5401 -12.5153 -12.5121
   -12.5032 -12.4907 -12.4721 -12.4529 -11.1003 -11.0965 -11.0934 -11.0932
   -10.4230 -10.4107 -10.4011 -10.3985  -9.7647  -9.7518  -9.7128  -9.6934
    -9.6268  -9.6117  -9.6061  -9.5922  -9.4940  -9.4588  -9.4225  -9.3985
    -8.6698  -8.6269  -8.5852  -8.5729  -8.1491  -8.1328  -8.1306  -8.0948
    -7.4988  -7.4632  -7.4584  -7.4208  -7.4177  -7.4153  -7.3872  -7.3732
    -7.0364  -7.0242  -7.0238  -6.9969  -6.2330  -6.2108  -6.1765  -6.1464
    -6.1114  -6.0942  -6.0922  -6.0851  -5.9608  -5.9490  -5.8956  -5.8919
    -5.6679  -5.6555  -5.6321  -5.6015  -5.5862  -5.5607  -5.5320  -5.5036
    -5.4041  -5.3708  -5.2021  -5.1981  -4.9614  -4.9376  -4.8846  -4.8287
    -4.7922  -4.7783  -4.7688  -4.7526  -4.7298  -4.7002  -4.6729  -4.6254
    -4.6003  -4.5601  -4.5367  -4.5196  -4.4834  -4.4402  -4.4159  -4.4056
    -4.1758  -4.1685  -4.1270  -4.1057  -4.0360  -4.0317  -3.9986  -3.9745
    -3.7275  -3.7101  -3.6974  -3.6789  -3.6666  -3.6492  -3.5785  -3.5437
    -3.4894  -3.4864  -3.4672  -3.4412  -3.4225  -3.3853  -3.3611  -3.3452
    -3.2131  -3.2094  -3.1605  -3.1482  -3.1230  -3.1022  -3.0279  -3.0164
    -2.8383  -2.7942  -2.7696  -2.7557  -2.4965  -2.4811  -2.4715  -2.4533
    -2.3933  -2.3569  -2.2910  -2.2326  -2.0816  -2.0433  -2.0227  -2.0045
    -1.7943  -1.7754  -1.6867  -1.6235  -0.6422  -0.5984  -0.5889  -0.5143
    -0.4322  -0.3655  -0.3239  -0.2952  -0.2780  -0.1986  -0.0836  -0.0654
     0.1696   0.2011   0.2825   0.3139   0.3297   0.3441   0.3673   0.3839
     1.3426   1.3579   1.5482   1.5498

          k = 0.0000 0.2946 0.2695 ( 26242 PWs)   bands (ev):

   -21.6276 -21.6272 -21.6242 -21.6240 -19.4101 -19.4099 -19.4079 -19.4077
   -17.9350 -17.9333 -17.9211 -17.9199 -15.5994 -15.5938 -15.5915 -15.5836
   -15.3204 -15.3099 -15.3035 -15.2960 -13.9283 -13.9155 -13.8880 -13.8833
   -13.2891 -13.2814 -13.2761 -13.2749 -13.0744 -13.0719 -13.0122 -13.0021
   -12.9148 -12.9035 -12.8887 -12.8761 -12.5437 -12.5366 -12.5199 -12.5112
   -12.4998 -12.4913 -12.4707 -12.4568 -11.1031 -11.1017 -11.0910 -11.0877
   -10.4191 -10.4071 -10.4037 -10.3983  -9.7593  -9.7438  -9.7206  -9.7009
    -9.6291  -9.6227  -9.5989  -9.5928  -9.4840  -9.4571  -9.4249  -9.4053
    -8.6644  -8.6281  -8.5898  -8.5727  -8.1531  -8.1489  -8.1121  -8.0948
    -7.4939  -7.4703  -7.4499  -7.4247  -7.4145  -7.4079  -7.3899  -7.3812
    -7.0379  -7.0320  -7.0158  -6.9994  -6.2177  -6.2015  -6.1758  -6.1548
    -6.1126  -6.0987  -6.0919  -6.0847  -5.9613  -5.9508  -5.8962  -5.8926
    -5.6653  -5.6469  -5.6190  -5.6080  -5.5865  -5.5709  -5.5324  -5.5072
    -5.3781  -5.3529  -5.2354  -5.2294  -4.9490  -4.9244  -4.8905  -4.8513
    -4.7992  -4.7786  -4.7638  -4.7515  -4.7303  -4.7096  -4.6495  -4.6369
    -4.5848  -4.5503  -4.5330  -4.5207  -4.4914  -4.4557  -4.4152  -4.4039
    -4.1760  -4.1587  -4.1396  -4.1137  -4.0275  -4.0261  -4.0013  -3.9824
    -3.7262  -3.7084  -3.6940  -3.6766  -3.6538  -3.6293  -3.5895  -3.5530
    -3.4894  -3.4878  -3.4697  -3.4540  -3.4097  -3.3723  -3.3598  -3.3431
    -3.2590  -3.2392  -3.1543  -3.1184  -3.1030  -3.0925  -3.0480  -3.0092
    -2.8269  -2.7911  -2.7722  -2.7578  -2.4915  -2.4743  -2.4648  -2.4477
    -2.3930  -2.3451  -2.3110  -2.2535  -2.0760  -2.0491  -2.0198  -2.0068
    -1.7977  -1.7770  -1.6759  -1.6317  -0.6348  -0.5983  -0.5862  -0.5295
    -0.4347  -0.4059  -0.2964  -0.2858  -0.2570  -0.1985  -0.0819  -0.0686
     0.1734   0.1956   0.2897   0.3156   0.3267   0.3321   0.3720   0.3825
     1.3441   1.3561   1.5442   1.5466

          k = 0.0000 0.2946-0.5389 ( 26220 PWs)   bands (ev):

   -21.6275 -21.6273 -21.6241 -21.6240 -19.4100 -19.4099 -19.4079 -19.4078
   -17.9342 -17.9340 -17.9206 -17.9205 -15.5965 -15.5965 -15.5876 -15.5875
   -15.3152 -15.3152 -15.2998 -15.2998 -13.9243 -13.9242 -13.8834 -13.8834
   -13.2832 -13.2832 -13.2770 -13.2770 -13.0738 -13.0738 -13.0058 -13.0057
   -12.9023 -12.9023 -12.8903 -12.8902 -12.5403 -12.5403 -12.5162 -12.5161
   -12.4942 -12.4942 -12.4650 -12.4650 -11.1048 -11.1048 -11.0869 -11.0868
   -10.4109 -10.4109 -10.4006 -10.4005  -9.7439  -9.7439  -9.7191  -9.7191
    -9.6306  -9.6306  -9.5945  -9.5944  -9.4650  -9.4650  -9.4194  -9.4194
    -8.6464  -8.6464  -8.5811  -8.5811  -8.1562  -8.1562  -8.0990  -8.0990
    -7.4822  -7.4822  -7.4356  -7.4356  -7.4032  -7.4032  -7.3939  -7.3939
    -7.0378  -7.0378  -7.0066  -7.0066  -6.1849  -6.1848  -6.1824  -6.1824
    -6.1072  -6.1072  -6.0884  -6.0883  -5.9572  -5.9572  -5.8949  -5.8949
    -5.6497  -5.6497  -5.6053  -5.6053  -5.5910  -5.5910  -5.5206  -5.5206
    -5.3104  -5.3104  -5.2975  -5.2975  -4.9161  -4.9160  -4.8926  -4.8926
    -4.7948  -4.7948  -4.7477  -4.7477  -4.7277  -4.7277  -4.6377  -4.6377
    -4.5541  -4.5541  -4.5285  -4.5284  -4.4848  -4.4848  -4.4085  -4.4085
    -4.1640  -4.1640  -4.1349  -4.1349  -4.0178  -4.0178  -3.9994  -3.9994
    -3.7166  -3.7166  -3.6831  -3.6831  -3.6189  -3.6189  -3.5868  -3.5868
    -3.4822  -3.4822  -3.4755  -3.4755  -3.3781  -3.3781  -3.3469  -3.3469
    -3.2802  -3.2802  -3.1382  -3.1382  -3.0742  -3.0741  -3.0335  -3.0335
    -2.8045  -2.8045  -2.7651  -2.7651  -2.4808  -2.4808  -2.4463  -2.4463
    -2.3655  -2.3655  -2.2999  -2.2999  -2.0627  -2.0627  -2.0129  -2.0129
    -1.7900  -1.7900  -1.6523  -1.6523  -0.6166  -0.6166  -0.5599  -0.5599
    -0.4320  -0.4320  -0.2884  -0.2883  -0.2107  -0.2107  -0.0767  -0.0767
     0.1837   0.1838   0.3090   0.3091   0.3206   0.3206   0.3783   0.3783
     1.3500   1.3500   1.5418   1.5418

          k = 0.0000-0.5892 0.0000 ( 26222 PWs)   bands (ev):

   -21.6275 -21.6273 -21.6241 -21.6240 -19.4100 -19.4100 -19.4078 -19.4078
   -17.9344 -17.9342 -17.9204 -17.9203 -15.5970 -15.5969 -15.5872 -15.5872
   -15.3140 -15.3139 -15.3010 -15.3010 -13.9194 -13.9193 -13.8882 -13.8882
   -13.2867 -13.2866 -13.2740 -13.2740 -13.0728 -13.0728 -13.0093 -13.0092
   -12.9145 -12.9145 -12.8753 -12.8752 -12.5430 -12.5430 -12.5106 -12.5105
   -12.4967 -12.4967 -12.4642 -12.4642 -11.0986 -11.0986 -11.0933 -11.0932
   -10.4173 -10.4173 -10.3991 -10.3991  -9.7590  -9.7589  -9.7053  -9.7052
    -9.6192  -9.6191  -9.5957  -9.5957  -9.4780  -9.4780  -9.4110  -9.4110
    -8.6491  -8.6491  -8.5762  -8.5762  -8.1417  -8.1416  -8.1140  -8.1140
    -7.4830  -7.4830  -7.4371  -7.4371  -7.4157  -7.4157  -7.3796  -7.3795
    -7.0301  -7.0301  -7.0100  -7.0099  -6.2241  -6.2241  -6.1622  -6.1622
    -6.0964  -6.0964  -6.0902  -6.0902  -5.9569  -5.9569  -5.8922  -5.8922
    -5.6595  -5.6595  -5.6187  -5.6186  -5.5674  -5.5674  -5.5350  -5.5350
    -5.3901  -5.3900  -5.1996  -5.1995  -4.9461  -4.9461  -4.8497  -4.8497
    -4.7826  -4.7826  -4.7626  -4.7625  -4.7194  -4.7193  -4.6553  -4.6553
    -4.5684  -4.5684  -4.5381  -4.5381  -4.4477  -4.4476  -4.4135  -4.4135
    -4.1741  -4.1741  -4.1136  -4.1136  -4.0324  -4.0324  -3.9848  -3.9847
    -3.7258  -3.7257  -3.6911  -3.6910  -3.6611  -3.6610  -3.5598  -3.5597
    -3.5020  -3.5020  -3.4591  -3.4591  -3.3969  -3.3969  -3.3339  -3.3339
    -3.2107  -3.2107  -3.1717  -3.1717  -3.1116  -3.1116  -3.0124  -3.0123
    -2.8154  -2.8154  -2.7620  -2.7620  -2.4918  -2.4917  -2.4608  -2.4608
    -2.3735  -2.3735  -2.2572  -2.2572  -2.0531  -2.0531  -2.0238  -2.0238
    -1.7905  -1.7905  -1.6515  -1.6515  -0.6183  -0.6182  -0.5544  -0.5544
    -0.3972  -0.3971  -0.3115  -0.3115  -0.2356  -0.2355  -0.0782  -0.0782
     0.2249   0.2249   0.2723   0.2723   0.3211   0.3212   0.3756   0.3757
     1.3522   1.3522   1.5475   1.5476

          k = 0.0000-0.5892 0.2695 ( 26258 PWs)   bands (ev):

   -21.6275 -21.6273 -21.6241 -21.6240 -19.4100 -19.4099 -19.4079 -19.4078
   -17.9343 -17.9341 -17.9205 -17.9204 -15.5956 -15.5955 -15.5885 -15.5885
   -15.3122 -15.3121 -15.3029 -15.3029 -13.9210 -13.9210 -13.8867 -13.8867
   -13.2849 -13.2849 -13.2752 -13.2751 -13.0733 -13.0733 -13.0083 -13.0083
   -12.9093 -12.9093 -12.8813 -12.8813 -12.5409 -12.5409 -12.5138 -12.5137
   -12.4950 -12.4950 -12.4654 -12.4654 -11.1023 -11.1023 -11.0896 -11.0895
   -10.4134 -10.4134 -10.4005 -10.4005  -9.7528  -9.7527  -9.7120  -9.7119
    -9.6230  -9.6230  -9.5956  -9.5956  -9.4712  -9.4712  -9.4166  -9.4165
    -8.6473  -8.6473  -8.5782  -8.5782  -8.1486  -8.1486  -8.1076  -8.1076
    -7.4783  -7.4783  -7.4407  -7.4407  -7.4104  -7.4103  -7.3849  -7.3849
    -7.0328  -7.0328  -7.0091  -7.0091  -6.2113  -6.2113  -6.1660  -6.1660
    -6.1032  -6.1031  -6.0883  -6.0883  -5.9552  -5.9551  -5.8941  -5.8940
    -5.6542  -5.6542  -5.6079  -5.6079  -5.5756  -5.5755  -5.5447  -5.5447
    -5.3674  -5.3673  -5.2322  -5.2321  -4.9320  -4.9320  -4.8629  -4.8629
    -4.7836  -4.7836  -4.7552  -4.7552  -4.7190  -4.7190  -4.6565  -4.6565
    -4.5587  -4.5587  -4.5319  -4.5319  -4.4568  -4.4568  -4.4221  -4.4221
    -4.1691  -4.1690  -4.1250  -4.1250  -4.0253  -4.0252  -3.9899  -3.9899
    -3.7227  -3.7226  -3.6860  -3.6860  -3.6443  -3.6443  -3.5725  -3.5725
    -3.5009  -3.5009  -3.4668  -3.4667  -3.3812  -3.3812  -3.3365  -3.3365
    -3.2576  -3.2575  -3.1407  -3.1407  -3.0963  -3.0963  -3.0265  -3.0265
    -2.8091  -2.8091  -2.7640  -2.7640  -2.4803  -2.4802  -2.4596  -2.4596
    -2.3658  -2.3658  -2.2783  -2.2783  -2.0500  -2.0500  -2.0262  -2.0262
    -1.7897  -1.7897  -1.6523  -1.6523  -0.6101  -0.6100  -0.5646  -0.5645
    -0.4179  -0.4178  -0.2839  -0.2839  -0.2382  -0.2381  -0.0765  -0.0765
     0.2298   0.2298   0.2655   0.2655   0.3209   0.3210   0.3754   0.3755
     1.3512   1.3512   1.5445   1.5445

          k = 0.0000-0.5892-0.5389 ( 26256 PWs)   bands (ev):

   -21.6275 -21.6273 -21.6241 -21.6240 -19.4100 -19.4099 -19.4079 -19.4078
   -17.9342 -17.9341 -17.9206 -17.9205 -15.5930 -15.5930 -15.5911 -15.5911
   -15.3086 -15.3086 -15.3065 -15.3065 -13.9225 -13.9225 -13.8853 -13.8853
   -13.2826 -13.2826 -13.2770 -13.2770 -13.0738 -13.0737 -13.0075 -13.0074
   -12.8970 -12.8970 -12.8944 -12.8943 -12.5384 -12.5383 -12.5172 -12.5172
   -12.4935 -12.4934 -12.4667 -12.4667 -11.1045 -11.1045 -11.0873 -11.0873
   -10.4066 -10.4066 -10.4047 -10.4047  -9.7429  -9.7429  -9.7222  -9.7222
    -9.6270  -9.6270  -9.5954  -9.5953  -9.4627  -9.4627  -9.4237  -9.4237
    -8.6454  -8.6454  -8.5802  -8.5802  -8.1539  -8.1539  -8.1029  -8.1029
    -7.4723  -7.4722  -7.4454  -7.4454  -7.4011  -7.4011  -7.3942  -7.3942
    -7.0354  -7.0354  -7.0081  -7.0081  -6.1850  -6.1850  -6.1835  -6.1835
    -6.1060  -6.1060  -6.0908  -6.0907  -5.9525  -5.9525  -5.8961  -5.8960
    -5.6459  -5.6459  -5.6027  -5.6027  -5.5721  -5.5721  -5.5635  -5.5635
    -5.3056  -5.3055  -5.3038  -5.3038  -4.9042  -4.9042  -4.8909  -4.8909
    -4.7834  -4.7834  -4.7420  -4.7420  -4.7222  -4.7222  -4.6603  -4.6603
    -4.5464  -4.5464  -4.5265  -4.5265  -4.4646  -4.4646  -4.4336  -4.4336
    -4.1572  -4.1572  -4.1424  -4.1423  -4.0155  -4.0155  -3.9981  -3.9980
    -3.7196  -3.7196  -3.6804  -3.6803  -3.6099  -3.6099  -3.6036  -3.6035
    -3.4902  -3.4902  -3.4855  -3.4855  -3.3537  -3.3537  -3.3452  -3.3451
    -3.2842  -3.2842  -3.1448  -3.1447  -3.0667  -3.0667  -3.0434  -3.0434
    -2.8022  -2.8022  -2.7667  -2.7667  -2.4710  -2.4710  -2.4561  -2.4560
    -2.3444  -2.3444  -2.3136  -2.3136  -2.0460  -2.0460  -2.0297  -2.0297
    -1.7888  -1.7888  -1.6531  -1.6531  -0.5960  -0.5960  -0.5805  -0.5804
    -0.4320  -0.4320  -0.2599  -0.2599  -0.2437  -0.2437  -0.0747  -0.0747
     0.2380   0.2380   0.2555   0.2555   0.3208   0.3209   0.3753   0.3754
     1.3503   1.3503   1.5415   1.5416

          k = 0.2500 0.0000 0.1217 ( 26232 PWs)   bands (ev):

   -21.6277 -21.6270 -21.6242 -21.6239 -19.4100 -19.4097 -19.4081 -19.4077
   -17.9357 -17.9324 -17.9219 -17.9192 -15.6030 -15.5945 -15.5917 -15.5805
   -15.3259 -15.3096 -15.3013 -15.2909 -13.9280 -13.9069 -13.8957 -13.8818
   -13.3027 -13.2889 -13.2844 -13.2630 -13.0743 -13.0705 -13.0199 -12.9965
   -12.9158 -12.9014 -12.8868 -12.8641 -12.5510 -12.5436 -12.5230 -12.5033
   -12.4951 -12.4870 -12.4734 -12.4478 -11.1219 -11.1103 -11.0867 -11.0792
   -10.4286 -10.4130 -10.3870 -10.3844  -9.7745  -9.7595  -9.7084  -9.6822
    -9.6293  -9.6169  -9.6066  -9.6021  -9.4954  -9.4508  -9.4224  -9.3988
    -8.6659  -8.6057  -8.6016  -8.5828  -8.1441  -8.1439  -8.1279  -8.0856
    -7.5065  -7.4707  -7.4597  -7.4430  -7.4104  -7.3982  -7.3852  -7.3687
    -7.0394  -7.0333  -7.0103  -6.9872  -6.2449  -6.1965  -6.1823  -6.1469
    -6.1132  -6.0943  -6.0903  -6.0862  -5.9624  -5.9424  -5.8955  -5.8942
    -5.6724  -5.6534  -5.6361  -5.6277  -5.5874  -5.5660  -5.5247  -5.4892
    -5.3887  -5.3553  -5.2182  -5.1987  -4.9115  -4.9051  -4.8884  -4.8814
    -4.8129  -4.7800  -4.7603  -4.7459  -4.7422  -4.7024  -4.6678  -4.6416
    -4.6040  -4.5471  -4.5411  -4.5100  -4.4854  -4.4709  -4.4052  -4.4019
    -4.1606  -4.1501  -4.1367  -4.1262  -4.0383  -4.0267  -4.0016  -3.9876
    -3.7172  -3.7056  -3.6977  -3.6976  -3.6458  -3.6290  -3.5859  -3.5363
    -3.4975  -3.4833  -3.4608  -3.4433  -3.4078  -3.3783  -3.3503  -3.3454
    -3.2643  -3.2364  -3.1484  -3.1166  -3.0992  -3.0962  -3.0621  -3.0343
    -2.8387  -2.7927  -2.7820  -2.7468  -2.5099  -2.4755  -2.4595  -2.4557
    -2.3959  -2.3584  -2.3075  -2.2281  -2.0917  -2.0515  -2.0095  -1.9959
    -1.7846  -1.7463  -1.6995  -1.6040  -0.6463  -0.6011  -0.5781  -0.5235
    -0.4166  -0.3836  -0.3215  -0.3094  -0.2903  -0.1885  -0.0902  -0.0578
     0.1287   0.1549   0.3086   0.3207   0.3241   0.3624   0.3756   0.3849
     1.3605   1.3623   1.5540   1.5710

          k = 0.2500 0.0000 0.3911 ( 26220 PWs)   bands (ev):

   -21.6276 -21.6271 -21.6242 -21.6239 -19.4100 -19.4098 -19.4080 -19.4078
   -17.9352 -17.9329 -17.9216 -17.9195 -15.6019 -15.5955 -15.5897 -15.5826
   -15.3233 -15.3123 -15.2996 -15.2925 -13.9305 -13.9119 -13.8879 -13.8822
   -13.2945 -13.2912 -13.2796 -13.2735 -13.0750 -13.0720 -13.0138 -12.9988
   -12.9129 -12.8975 -12.8912 -12.8688 -12.5472 -12.5348 -12.5259 -12.5094
   -12.4973 -12.4876 -12.4696 -12.4532 -11.1113 -11.1028 -11.0929 -11.0905
   -10.4158 -10.4009 -10.4005 -10.3954  -9.7550  -9.7465  -9.7221  -9.6974
    -9.6314  -9.6246  -9.6017  -9.5979  -9.4870  -9.4581  -9.4192  -9.4051
    -8.6707  -8.6140  -8.6015  -8.5727  -8.1528  -8.1483  -8.1099  -8.0923
    -7.5026  -7.4779  -7.4527  -7.4394  -7.4056  -7.3986  -7.3908  -7.3730
    -7.0479  -7.0236  -7.0030  -6.9967  -6.2313  -6.1956  -6.1820  -6.1527
    -6.1202  -6.0915  -6.0863  -6.0818  -5.9682  -5.9471  -5.8995  -5.8896
    -5.6595  -5.6387  -5.6324  -5.6234  -5.5931  -5.5765  -5.5050  -5.5027
    -5.3736  -5.3506  -5.2417  -5.2167  -4.9502  -4.9196  -4.8772  -4.8510
    -4.8172  -4.7908  -4.7652  -4.7569  -4.7241  -4.6998  -4.6649  -4.6424
    -4.5814  -4.5562  -4.5393  -4.5226  -4.5017  -4.4643  -4.4050  -4.3921
    -4.1763  -4.1432  -4.1319  -4.1131  -4.0319  -4.0293  -4.0107  -3.9815
    -3.7189  -3.7048  -3.7026  -3.6979  -3.6304  -3.6081  -3.6021  -3.5417
    -3.4980  -3.4799  -3.4502  -3.4430  -3.4391  -3.3928  -3.3692  -3.3299
    -3.2300  -3.1985  -3.1848  -3.1452  -3.1103  -3.1034  -3.0625  -2.9957
    -2.8280  -2.7815  -2.7808  -2.7575  -2.5052  -2.4790  -2.4495  -2.4452
    -2.3806  -2.3601  -2.3363  -2.2409  -2.0843  -2.0589  -2.0082  -1.9976
    -1.7911  -1.7573  -1.6764  -1.6149  -0.6348  -0.6128  -0.5550  -0.5441
    -0.4359  -0.4076  -0.3149  -0.3037  -0.2462  -0.1873  -0.0877  -0.0677
     0.1310   0.1513   0.3160   0.3161   0.3288   0.3544   0.3687   0.3889
     1.3611   1.3629   1.5529   1.5637

          k = 0.2500 0.0000-0.4173 ( 26232 PWs)   bands (ev):

   -21.6275 -21.6273 -21.6241 -21.6240 -19.4099 -19.4098 -19.4080 -19.4079
   -17.9342 -17.9339 -17.9207 -17.9205 -15.5989 -15.5983 -15.5868 -15.5857
   -15.3183 -15.3175 -15.2962 -15.2958 -13.9285 -13.9202 -13.8833 -13.8806
   -13.2971 -13.2872 -13.2842 -13.2692 -13.0746 -13.0730 -13.0057 -13.0049
   -12.9021 -12.9016 -12.8865 -12.8822 -12.5498 -12.5378 -12.5241 -12.5055
   -12.4937 -12.4904 -12.4632 -12.4617 -11.1203 -11.1069 -11.0981 -11.0715
   -10.4180 -10.4066 -10.3980 -10.3856  -9.7503  -9.7326  -9.7256  -9.7153
    -9.6338  -9.6312  -9.6012  -9.5939  -9.4700  -9.4642  -9.4196  -9.4140
    -8.6592  -8.6369  -8.5909  -8.5712  -8.1565  -8.1562  -8.1016  -8.0907
    -7.4912  -7.4898  -7.4430  -7.4389  -7.4045  -7.3992  -7.3893  -7.3821
    -7.0508  -7.0226  -7.0079  -6.9939  -6.1992  -6.1872  -6.1853  -6.1774
    -6.1176  -6.0957  -6.0834  -6.0822  -5.9660  -5.9565  -5.9014  -5.8882
    -5.6584  -5.6513  -5.6084  -5.6065  -5.5999  -5.5976  -5.5247  -5.4803
    -5.3175  -5.3047  -5.3009  -5.2754  -4.9696  -4.9347  -4.8567  -4.8410
    -4.8029  -4.7831  -4.7736  -4.7688  -4.7239  -4.6962  -4.6430  -4.6296
    -4.5879  -4.5693  -4.5499  -4.5156  -4.4934  -4.4527  -4.4221  -4.3999
    -4.1958  -4.1501  -4.1265  -4.1137  -4.0222  -4.0207  -4.0123  -3.9875
    -3.7119  -3.7103  -3.6935  -3.6867  -3.6324  -3.5981  -3.5806  -3.5727
    -3.5209  -3.4773  -3.4560  -3.4407  -3.4114  -3.3911  -3.3706  -3.3234
    -3.2792  -3.2423  -3.1403  -3.1394  -3.0955  -3.0913  -3.0454  -3.0191
    -2.8086  -2.7977  -2.7718  -2.7607  -2.4873  -2.4809  -2.4433  -2.4425
    -2.3915  -2.3626  -2.3102  -2.2839  -2.0730  -2.0684  -2.0036  -2.0031
    -1.7805  -1.7795  -1.6424  -1.6403  -0.6299  -0.6157  -0.5682  -0.5262
    -0.4590  -0.4060  -0.3206  -0.3052  -0.1996  -0.1900  -0.0861  -0.0840
     0.1386   0.1412   0.3122   0.3335   0.3361   0.3400   0.3635   0.3867
     1.3596   1.3649   1.5544   1.5555

          k = 0.2500 0.0000-0.1478 ( 26230 PWs)   bands (ev):

   -21.6276 -21.6271 -21.6242 -21.6239 -19.4100 -19.4098 -19.4081 -19.4078
   -17.9353 -17.9328 -17.9215 -17.9197 -15.6015 -15.5959 -15.5906 -15.5818
   -15.3239 -15.3118 -15.2998 -15.2922 -13.9249 -13.9191 -13.8885 -13.8800
   -13.3026 -13.2931 -13.2806 -13.2619 -13.0733 -13.0722 -13.0156 -12.9987
   -12.9108 -12.8958 -12.8915 -12.8719 -12.5555 -12.5394 -12.5268 -12.4983
   -12.4928 -12.4895 -12.4711 -12.4520 -11.1253 -11.1172 -11.0884 -11.0665
   -10.4294 -10.4142 -10.3861 -10.3790  -9.7735  -9.7508  -9.7142  -9.6886
    -9.6306  -9.6285  -9.6033  -9.5968  -9.4862  -9.4470  -9.4289  -9.4040
    -8.6556  -8.6309  -8.5852  -8.5838  -8.1544  -8.1502  -8.1157  -8.0829
    -7.5015  -7.4780  -7.4508  -7.4397  -7.4148  -7.3904  -7.3852  -7.3793
    -7.0451  -7.0297  -7.0127  -6.9867  -6.2243  -6.1872  -6.1827  -6.1635
    -6.1066  -6.1008  -6.0915  -6.0855  -5.9587  -5.9523  -5.8993  -5.8908
    -5.6762  -5.6496  -5.6388  -5.6115  -5.5872  -5.5791  -5.5321  -5.4784
    -5.3569  -5.3318  -5.2536  -5.2348  -4.9487  -4.9230  -4.8672  -4.8477
    -4.7990  -4.7762  -4.7725  -4.7707  -4.7289  -4.6747  -4.6659  -4.6325
    -4.6087  -4.5634  -4.5288  -4.5224  -4.4779  -4.4542  -4.4262  -4.4084
    -4.1919  -4.1437  -4.1325  -4.1268  -4.0324  -4.0116  -4.0032  -3.9964
    -3.7141  -3.7051  -3.6876  -3.6856  -3.6512  -3.6177  -3.5848  -3.5482
    -3.5215  -3.4756  -3.4624  -3.4470  -3.3805  -3.3803  -3.3566  -3.3246
    -3.3079  -3.2477  -3.1422  -3.1240  -3.0847  -3.0801  -3.0691  -3.0320
    -2.8257  -2.7913  -2.7853  -2.7480  -2.4926  -2.4764  -2.4569  -2.4520
    -2.4104  -2.3286  -2.3242  -2.2552  -2.0868  -2.0540  -2.0084  -1.9984
    -1.7891  -1.7565  -1.6781  -1.6139  -0.6436  -0.6017  -0.5824  -0.5159
    -0.4416  -0.3902  -0.3170  -0.3097  -0.2595  -0.1799  -0.0901  -0.0680
     0.1324   0.1487   0.3123   0.3192   0.3323   0.3623   0.3673   0.3821
     1.3588   1.3643   1.5530   1.5654

          k = 0.2500 0.2946 0.1217 ( 26270 PWs)   bands (ev):

   -21.6276 -21.6272 -21.6242 -21.6240 -19.4100 -19.4098 -19.4080 -19.4078
   -17.9353 -17.9330 -17.9214 -17.9195 -15.6014 -15.5935 -15.5923 -15.5825
   -15.3224 -15.3069 -15.3050 -15.2936 -13.9253 -13.9103 -13.8935 -13.8836
   -13.3009 -13.2919 -13.2797 -13.2653 -13.0746 -13.0719 -13.0166 -13.0002
   -12.9144 -12.9041 -12.8821 -12.8663 -12.5514 -12.5479 -12.5132 -12.5023
   -12.4960 -12.4891 -12.4713 -12.4530 -11.1200 -11.1118 -11.0858 -11.0805
   -10.4265 -10.4156 -10.3864 -10.3845  -9.7727  -9.7621  -9.7055  -9.6877
    -9.6273  -9.6123  -9.6090  -9.5995  -9.4914  -9.4591  -9.4206  -9.4033
    -8.6584  -8.6212  -8.5902  -8.5819  -8.1472  -8.1323  -8.1307  -8.0930
    -7.5000  -7.4677  -7.4611  -7.4364  -7.4145  -7.4052  -7.3830  -7.3716
    -7.0357  -7.0268  -7.0150  -6.9941  -6.2393  -6.2068  -6.1746  -6.1515
    -6.1068  -6.0945  -6.0910  -6.0874  -5.9607  -5.9475  -5.8953  -5.8924
    -5.6713  -5.6538  -5.6283  -5.6182  -5.5915  -5.5644  -5.5411  -5.5022
    -5.3874  -5.3641  -5.2143  -5.2009  -4.9105  -4.9040  -4.8940  -4.8812
    -4.8028  -4.7762  -4.7588  -4.7520  -4.7293  -4.6912  -4.6843  -4.6519
    -4.5921  -4.5435  -4.5338  -4.5229  -4.4741  -4.4613  -4.4126  -4.3987
    -4.1608  -4.1525  -4.1371  -4.1276  -4.0338  -4.0253  -3.9993  -3.9894
    -3.7249  -3.7161  -3.6976  -3.6889  -3.6483  -3.6406  -3.5783  -3.5415
    -3.5002  -3.4780  -3.4614  -3.4488  -3.4086  -3.3789  -3.3671  -3.3370
    -3.2570  -3.2329  -3.1565  -3.1213  -3.1114  -3.0972  -3.0425  -3.0273
    -2.8313  -2.7989  -2.7746  -2.7502  -2.5051  -2.4742  -2.4699  -2.4525
    -2.3928  -2.3672  -2.2864  -2.2340  -2.0797  -2.0438  -2.0220  -2.0042
    -1.7834  -1.7619  -1.6773  -1.6152  -0.6345  -0.5887  -0.5857  -0.5306
    -0.4148  -0.3868  -0.3321  -0.3032  -0.2794  -0.2005  -0.0889  -0.0655
     0.1530   0.1865   0.2797   0.3210   0.3245   0.3380   0.3727   0.3770
     1.3631   1.3667   1.5557   1.5681

          k = 0.2500 0.2946 0.3911 ( 26227 PWs)   bands (ev):

   -21.6275 -21.6272 -21.6242 -21.6240 -19.4100 -19.4098 -19.4080 -19.4078
   -17.9349 -17.9333 -17.9213 -17.9198 -15.6001 -15.5937 -15.5914 -15.5844
   -15.3199 -15.3095 -15.3031 -15.2954 -13.9276 -13.9139 -13.8881 -13.8832
   -13.2925 -13.2893 -13.2804 -13.2751 -13.0750 -13.0729 -13.0124 -13.0017
   -12.9109 -12.9000 -12.8868 -12.8712 -12.5460 -12.5379 -12.5206 -12.5098
   -12.4962 -12.4884 -12.4689 -12.4571 -11.1097 -11.1034 -11.0931 -11.0913
   -10.4139 -10.4038 -10.3993 -10.3956  -9.7536  -9.7475  -9.7201  -9.7031
    -9.6286  -9.6211  -9.6026  -9.5967  -9.4834  -9.4618  -9.4210  -9.4101
    -8.6641  -8.6289  -8.5884  -8.5728  -8.1517  -8.1445  -8.1114  -8.0969
    -7.4954  -7.4718  -7.4564  -7.4339  -7.4124  -7.4041  -7.3879  -7.3756
    -7.0423  -7.0195  -7.0109  -6.9995  -6.2266  -6.2019  -6.1781  -6.1585
    -6.1135  -6.0931  -6.0876  -6.0834  -5.9638  -5.9492  -5.8981  -5.8913
    -5.6504  -5.6466  -5.6231  -5.6160  -5.5972  -5.5711  -5.5288  -5.5191
    -5.3726  -5.3568  -5.2376  -5.2204  -4.9457  -4.9236  -4.8664  -4.8547
    -4.8076  -4.7844  -4.7596  -4.7503  -4.7254  -4.6999  -4.6720  -4.6552
    -4.5703  -4.5567  -4.5279  -4.5212  -4.4901  -4.4593  -4.4207  -4.3959
    -4.1753  -4.1541  -4.1259  -4.1128  -4.0303  -4.0282  -4.0048  -3.9851
    -3.7273  -3.7180  -3.6940  -3.6863  -3.6286  -3.6251  -3.5927  -3.5522
    -3.4906  -3.4854  -3.4519  -3.4505  -3.4327  -3.3949  -3.3737  -3.3356
    -3.2302  -3.2052  -3.1730  -3.1381  -3.1205  -3.1002  -3.0523  -3.0049
    -2.8202  -2.7872  -2.7760  -2.7595  -2.4992  -2.4748  -2.4577  -2.4472
    -2.3847  -2.3613  -2.3117  -2.2494  -2.0732  -2.0506  -2.0189  -2.0063
    -1.7872  -1.7648  -1.6653  -1.6233  -0.6225  -0.6012  -0.5658  -0.5515
    -0.4339  -0.4118  -0.3124  -0.2905  -0.2511  -0.2036  -0.0861  -0.0708
     0.1564   0.1811   0.2872   0.3178   0.3237   0.3321   0.3686   0.3809
     1.3616   1.3676   1.5547   1.5622

          k = 0.2500 0.2946-0.4173 ( 26241 PWs)   bands (ev):

   -21.6275 -21.6273 -21.6241 -21.6240 -19.4099 -19.4098 -19.4080 -19.4079
   -17.9342 -17.9340 -17.9207 -17.9205 -15.5971 -15.5965 -15.5885 -15.5875
   -15.3152 -15.3144 -15.2994 -15.2989 -13.9263 -13.9201 -13.8844 -13.8821
   -13.2956 -13.2886 -13.2811 -13.2707 -13.0746 -13.0733 -13.0072 -13.0062
   -12.8994 -12.8984 -12.8881 -12.8844 -12.5473 -12.5382 -12.5221 -12.5087
   -12.4922 -12.4900 -12.4645 -12.4633 -11.1193 -11.1113 -11.0917 -11.0744
   -10.4164 -10.4083 -10.3962 -10.3874  -9.7484  -9.7360  -9.7242  -9.7169
    -9.6307  -9.6289  -9.6009  -9.5952  -9.4688  -9.4636  -9.4236  -9.4178
    -8.6555  -8.6396  -8.5867  -8.5727  -8.1545  -8.1528  -8.1034  -8.0956
    -7.4844  -7.4814  -7.4466  -7.4403  -7.4084  -7.4033  -7.3877  -7.3830
    -7.0451  -7.0185  -7.0147  -6.9979  -6.1970  -6.1890  -6.1851  -6.1796
    -6.1146  -6.0984  -6.0848  -6.0832  -5.9618  -5.9551  -5.8984  -5.8900
    -5.6511  -5.6508  -5.6100  -5.6048  -5.6005  -5.5886  -5.5412  -5.5010
    -5.3164  -5.3072  -5.2973  -5.2793  -4.9655  -4.9400  -4.8535  -4.8442
    -4.7943  -4.7787  -4.7644  -4.7574  -4.7242  -4.7050  -4.6581  -4.6411
    -4.5825  -4.5594  -4.5385  -4.5239  -4.4808  -4.4412  -4.4354  -4.3963
    -4.1929  -4.1611  -4.1220  -4.1135  -4.0215  -4.0197  -4.0062  -3.9896
    -3.7202  -3.7167  -3.6899  -3.6824  -3.6238  -3.6060  -3.5867  -3.5787
    -3.5153  -3.4755  -3.4701  -3.4396  -3.4146  -3.3842  -3.3697  -3.3359
    -3.2698  -3.2460  -3.1381  -3.1322  -3.0981  -3.0901  -3.0478  -3.0235
    -2.8046  -2.7932  -2.7731  -2.7627  -2.4860  -2.4760  -2.4531  -2.4485
    -2.3741  -2.3535  -2.3103  -2.2901  -2.0636  -2.0595  -2.0130  -2.0128
    -1.7814  -1.7788  -1.6426  -1.6407  -0.6188  -0.6033  -0.5747  -0.5392
    -0.4586  -0.4202  -0.3012  -0.2874  -0.2168  -0.2060  -0.0850  -0.0828
     0.1664   0.1685   0.3039   0.3085   0.3173   0.3329   0.3650   0.3820
     1.3616   1.3660   1.5550   1.5569

          k = 0.2500 0.2946-0.1478 ( 26273 PWs)   bands (ev):

   -21.6276 -21.6272 -21.6242 -21.6240 -19.4100 -19.4098 -19.4080 -19.4078
   -17.9350 -17.9332 -17.9212 -17.9199 -15.5999 -15.5938 -15.5922 -15.5838
   -15.3205 -15.3090 -15.3033 -15.2950 -13.9233 -13.9187 -13.8887 -13.8822
   -13.3012 -13.2946 -13.2769 -13.2639 -13.0740 -13.0724 -13.0141 -13.0021
   -12.9091 -12.8985 -12.8871 -12.8737 -12.5545 -12.5450 -12.5177 -12.4986
   -12.4939 -12.4900 -12.4698 -12.4561 -11.1244 -11.1188 -11.0847 -11.0694
   -10.4273 -10.4165 -10.3849 -10.3799  -9.7712  -9.7556  -9.7098  -9.6924
    -9.6297  -9.6240  -9.6036  -9.5972  -9.4830  -9.4549  -9.4262  -9.4081
    -8.6500  -8.6325  -8.5854  -8.5839  -8.1522  -8.1468  -8.1154  -8.0905
    -7.4946  -7.4710  -7.4557  -7.4383  -7.4161  -7.3985  -7.3835  -7.3794
    -7.0401  -7.0244  -7.0174  -6.9936  -6.2208  -6.1972  -6.1763  -6.1644
    -6.1056  -6.1006  -6.0904  -6.0856  -5.9587  -5.9533  -5.8955  -5.8911
    -5.6729  -5.6531  -5.6254  -5.6122  -5.5891  -5.5775  -5.5439  -5.4926
    -5.3554  -5.3373  -5.2498  -5.2369  -4.9472  -4.9294  -4.8681  -4.8550
    -4.7905  -4.7712  -4.7681  -4.7624  -4.7254  -4.6924  -4.6689  -4.6401
    -4.5959  -4.5635  -4.5319  -4.5246  -4.4673  -4.4523  -4.4196  -4.3992
    -4.1889  -4.1533  -4.1302  -4.1268  -4.0272  -4.0133  -4.0013  -3.9951
    -3.7210  -3.7111  -3.6927  -3.6814  -3.6543  -3.6230  -3.5820  -3.5498
    -3.5179  -3.4796  -3.4670  -3.4409  -3.3864  -3.3835  -3.3483  -3.3370
    -3.3003  -3.2612  -3.1406  -3.1117  -3.0817  -3.0770  -3.0696  -3.0354
    -2.8206  -2.7959  -2.7770  -2.7513  -2.4907  -2.4764  -2.4683  -2.4505
    -2.3961  -2.3481  -2.2994  -2.2586  -2.0758  -2.0468  -2.0203  -2.0068
    -1.7874  -1.7664  -1.6653  -1.6218  -0.6323  -0.5905  -0.5870  -0.5249
    -0.4443  -0.4054  -0.3031  -0.2927  -0.2630  -0.1976  -0.0894  -0.0728
     0.1574   0.1794   0.2872   0.3172   0.3267   0.3343   0.3668   0.3800
     1.3621   1.3660   1.5543   1.5645

          k = 0.2500-0.5892 0.1217 ( 26266 PWs)   bands (ev):

   -21.6275 -21.6273 -21.6242 -21.6240 -19.4099 -19.4099 -19.4079 -19.4079
   -17.9343 -17.9342 -17.9205 -17.9203 -15.5974 -15.5974 -15.5874 -15.5874
   -15.3138 -15.3138 -15.3002 -15.3002 -13.9182 -13.9181 -13.8884 -13.8883
   -13.2965 -13.2964 -13.2717 -13.2716 -13.0741 -13.0740 -13.0087 -13.0087
   -12.9098 -12.9098 -12.8731 -12.8731 -12.5512 -12.5512 -12.5015 -12.5015
   -12.4956 -12.4956 -12.4638 -12.4638 -11.1158 -11.1158 -11.0833 -11.0832
   -10.4213 -10.4213 -10.3852 -10.3851  -9.7678  -9.7678  -9.6978  -9.6978
    -9.6201  -9.6200  -9.6006  -9.6006  -9.4777  -9.4777  -9.4131  -9.4131
    -8.6408  -8.6408  -8.5830  -8.5830  -8.1413  -8.1413  -8.1111  -8.1110
    -7.4839  -7.4839  -7.4404  -7.4403  -7.4161  -7.4161  -7.3778  -7.3778
    -7.0259  -7.0259  -7.0106  -7.0106  -6.2246  -6.2246  -6.1622  -6.1622
    -6.0962  -6.0961  -6.0918  -6.0918  -5.9554  -5.9554  -5.8929  -5.8928
    -5.6638  -5.6638  -5.6058  -5.6058  -5.5913  -5.5913  -5.5316  -5.5316
    -5.3793  -5.3792  -5.2068  -5.2068  -4.9044  -4.9043  -4.8927  -4.8927
    -4.7791  -4.7791  -4.7546  -4.7546  -4.7171  -4.7171  -4.6682  -4.6682
    -4.5628  -4.5628  -4.5282  -4.5282  -4.4574  -4.4573  -4.4077  -4.4077
    -4.1581  -4.1581  -4.1335  -4.1335  -4.0266  -4.0266  -3.9940  -3.9939
    -3.7295  -3.7295  -3.6841  -3.6840  -3.6560  -3.6560  -3.5591  -3.5590
    -3.4952  -3.4951  -3.4512  -3.4511  -3.3942  -3.3942  -3.3564  -3.3564
    -3.2416  -3.2416  -3.1466  -3.1466  -3.1032  -3.1032  -3.0255  -3.0255
    -2.8143  -2.8142  -2.7607  -2.7607  -2.4902  -2.4902  -2.4623  -2.4623
    -2.3801  -2.3800  -2.2541  -2.2541  -2.0514  -2.0514  -2.0241  -2.0241
    -1.7774  -1.7774  -1.6432  -1.6432  -0.6084  -0.6083  -0.5575  -0.5574
    -0.4009  -0.4008  -0.3244  -0.3244  -0.2355  -0.2355  -0.0806  -0.0806
     0.2141   0.2141   0.2619   0.2619   0.3242   0.3243   0.3723   0.3724
     1.3683   1.3683   1.5613   1.5614

          k = 0.2500-0.5892 0.3911 ( 26256 PWs)   bands (ev):

   -21.6275 -21.6273 -21.6241 -21.6240 -19.4099 -19.4098 -19.4080 -19.4079
   -17.9343 -17.9341 -17.9206 -17.9204 -15.5959 -15.5959 -15.5889 -15.5889
   -15.3117 -15.3116 -15.3024 -15.3024 -13.9204 -13.9204 -13.8862 -13.8861
   -13.2889 -13.2888 -13.2791 -13.2790 -13.0745 -13.0745 -13.0079 -13.0078
   -12.9057 -12.9056 -12.8781 -12.8780 -12.5425 -12.5424 -12.5133 -12.5133
   -12.4920 -12.4919 -12.4648 -12.4647 -11.1061 -11.1060 -11.0926 -11.0926
   -10.4091 -10.4091 -10.3972 -10.3972  -9.7505  -9.7504  -9.7133  -9.7133
    -9.6226  -9.6226  -9.5989  -9.5988  -9.4728  -9.4728  -9.4188  -9.4188
    -8.6482  -8.6482  -8.5767  -8.5767  -8.1460  -8.1459  -8.1070  -8.1070
    -7.4794  -7.4794  -7.4423  -7.4423  -7.4138  -7.4138  -7.3818  -7.3817
    -7.0278  -7.0278  -7.0088  -7.0088  -6.2149  -6.2149  -6.1691  -6.1691
    -6.1015  -6.1015  -6.0866  -6.0865  -5.9552  -5.9552  -5.8949  -5.8948
    -5.6491  -5.6491  -5.6066  -5.6066  -5.5808  -5.5808  -5.5503  -5.5503
    -5.3672  -5.3672  -5.2289  -5.2289  -4.9330  -4.9330  -4.8591  -4.8591
    -4.7876  -4.7876  -4.7468  -4.7468  -4.7172  -4.7172  -4.6700  -4.6700
    -4.5549  -4.5549  -4.5269  -4.5268  -4.4602  -4.4601  -4.4203  -4.4203
    -4.1682  -4.1682  -4.1180  -4.1180  -4.0275  -4.0275  -3.9940  -3.9939
    -3.7292  -3.7292  -3.6789  -3.6788  -3.6411  -3.6411  -3.5713  -3.5713
    -3.4818  -3.4817  -3.4644  -3.4644  -3.4146  -3.4146  -3.3550  -3.3549
    -3.2179  -3.2178  -3.1527  -3.1527  -3.1113  -3.1113  -3.0268  -3.0267
    -2.8029  -2.8029  -2.7664  -2.7663  -2.4811  -2.4810  -2.4599  -2.4599
    -2.3719  -2.3719  -2.2746  -2.2746  -2.0483  -2.0483  -2.0264  -2.0264
    -1.7774  -1.7774  -1.6434  -1.6434  -0.5946  -0.5946  -0.5732  -0.5731
    -0.4244  -0.4244  -0.2942  -0.2942  -0.2369  -0.2368  -0.0794  -0.0794
     0.2183   0.2183   0.2555   0.2555   0.3243   0.3244   0.3721   0.3722
     1.3672   1.3672   1.5586   1.5587

          k = 0.2500-0.5892-0.4173 ( 26252 PWs)   bands (ev):

   -21.6275 -21.6273 -21.6241 -21.6240 -19.4099 -19.4098 -19.4080 -19.4079
   -17.9342 -17.9340 -17.9206 -17.9205 -15.5931 -15.5931 -15.5917 -15.5917
   -15.3084 -15.3083 -15.3057 -15.3057 -13.9221 -13.9221 -13.8846 -13.8846
   -13.2920 -13.2919 -13.2753 -13.2752 -13.0741 -13.0741 -13.0081 -13.0081
   -12.8945 -12.8945 -12.8897 -12.8897 -12.5418 -12.5418 -12.5158 -12.5157
   -12.4902 -12.4902 -12.4654 -12.4654 -11.1163 -11.1162 -11.0821 -11.0820
   -10.4124 -10.4124 -10.3918 -10.3917  -9.7429  -9.7428  -9.7208  -9.7207
    -9.6270  -9.6270  -9.5987  -9.5987  -9.4652  -9.4652  -9.4247  -9.4247
    -8.6470  -8.6470  -8.5782  -8.5782  -8.1506  -8.1505  -8.1032  -8.1032
    -7.4719  -7.4719  -7.4498  -7.4498  -7.4095  -7.4095  -7.3850  -7.3850
    -7.0305  -7.0305  -7.0080  -7.0080  -6.1926  -6.1926  -6.1836  -6.1836
    -6.1066  -6.1066  -6.0851  -6.0850  -5.9555  -5.9554  -5.8936  -5.8935
    -5.6488  -5.6488  -5.6075  -5.6075  -5.5834  -5.5833  -5.5449  -5.5449
    -5.3125  -5.3125  -5.2885  -5.2885  -4.9519  -4.9518  -4.8509  -4.8509
    -4.7805  -4.7805  -4.7432  -4.7431  -4.7268  -4.7268  -4.6602  -4.6602
    -4.5637  -4.5637  -4.5334  -4.5334  -4.4534  -4.4533  -4.4138  -4.4137
    -4.1806  -4.1806  -4.1163  -4.1163  -4.0195  -4.0195  -3.9961  -3.9961
    -3.7247  -3.7247  -3.6823  -3.6822  -3.6102  -3.6102  -3.5936  -3.5936
    -3.4976  -3.4976  -3.4594  -3.4594  -3.4004  -3.4004  -3.3504  -3.3504
    -3.2569  -3.2568  -3.1299  -3.1299  -3.0975  -3.0975  -3.0371  -3.0371
    -2.7950  -2.7950  -2.7692  -2.7692  -2.4728  -2.4728  -2.4634  -2.4634
    -2.3486  -2.3486  -2.3057  -2.3057  -2.0449  -2.0449  -2.0301  -2.0301
    -1.7803  -1.7803  -1.6420  -1.6420  -0.5955  -0.5954  -0.5709  -0.5708
    -0.4451  -0.4451  -0.2625  -0.2625  -0.2422  -0.2422  -0.0825  -0.0825
     0.2251   0.2251   0.2471   0.2471   0.3234   0.3235   0.3727   0.3728
     1.3653   1.3654   1.5568   1.5569

          k = 0.2500-0.5892-0.1478 ( 26258 PWs)   bands (ev):

   -21.6275 -21.6273 -21.6242 -21.6240 -19.4099 -19.4099 -19.4079 -19.4079
   -17.9342 -17.9341 -17.9206 -17.9204 -15.5961 -15.5960 -15.5888 -15.5887
   -15.3121 -15.3121 -15.3019 -15.3019 -13.9201 -13.9200 -13.8866 -13.8866
   -13.2979 -13.2978 -13.2696 -13.2695 -13.0737 -13.0736 -13.0089 -13.0089
   -12.9041 -12.9041 -12.8793 -12.8793 -12.5510 -12.5510 -12.5053 -12.5053
   -12.4921 -12.4921 -12.4645 -12.4644 -11.1220 -11.1219 -11.0767 -11.0767
   -10.4220 -10.4220 -10.3822 -10.3822  -9.7646  -9.7645  -9.7010  -9.7010
    -9.6244  -9.6244  -9.6004  -9.6003  -9.4714  -9.4714  -9.4177  -9.4177
    -8.6392  -8.6392  -8.5848  -8.5848  -8.1468  -8.1468  -8.1064  -8.1064
    -7.4781  -7.4780  -7.4469  -7.4468  -7.4112  -7.4112  -7.3810  -7.3810
    -7.0287  -7.0287  -7.0097  -7.0097  -6.2109  -6.2109  -6.1689  -6.1689
    -6.1027  -6.1026  -6.0874  -6.0874  -5.9562  -5.9562  -5.8917  -5.8916
    -5.6630  -5.6630  -5.6071  -5.6071  -5.5925  -5.5925  -5.5278  -5.5278
    -5.3479  -5.3479  -5.2427  -5.2427  -4.9392  -4.9391  -4.8674  -4.8674
    -4.7705  -4.7705  -4.7572  -4.7572  -4.7234  -4.7234  -4.6583  -4.6583
    -4.5674  -4.5674  -4.5385  -4.5384  -4.4488  -4.4487  -4.4033  -4.4032
    -4.1747  -4.1747  -4.1274  -4.1274  -4.0188  -4.0188  -3.9964  -3.9963
    -3.7248  -3.7248  -3.6874  -3.6873  -3.6385  -3.6385  -3.5679  -3.5678
    -3.5052  -3.5052  -3.4481  -3.4481  -3.3749  -3.3749  -3.3563  -3.3563
    -3.2864  -3.2864  -3.1199  -3.1199  -3.0759  -3.0759  -3.0528  -3.0528
    -2.8077  -2.8077  -2.7619  -2.7618  -2.4833  -2.4832  -2.4638  -2.4638
    -2.3692  -2.3691  -2.2736  -2.2736  -2.0492  -2.0491  -2.0266  -2.0266
    -1.7803  -1.7803  -1.6418  -1.6417  -0.6081  -0.6080  -0.5562  -0.5561
    -0.4310  -0.4310  -0.2845  -0.2845  -0.2402  -0.2402  -0.0831  -0.0831
     0.2188   0.2188   0.2557   0.2557   0.3234   0.3235   0.3730   0.3730
     1.3665   1.3665   1.5596   1.5596

          k =-0.5000 0.0000-0.2433 ( 26244 PWs)   bands (ev):

   -21.6277 -21.6270 -21.6242 -21.6239 -19.4100 -19.4096 -19.4082 -19.4079
   -17.9356 -17.9324 -17.9221 -17.9191 -15.6038 -15.5941 -15.5918 -15.5812
   -15.3258 -15.3089 -15.3011 -15.2899 -13.9231 -13.9102 -13.8963 -13.8804
   -13.3096 -13.3043 -13.2845 -13.2558 -13.0735 -13.0720 -13.0204 -12.9959
   -12.9112 -12.8973 -12.8861 -12.8597 -12.5606 -12.5528 -12.5208 -12.4943
   -12.4858 -12.4856 -12.4727 -12.4474 -11.1400 -11.1272 -11.0775 -11.0671
   -10.4317 -10.4198 -10.3727 -10.3697  -9.7821  -9.7702  -9.6999  -9.6782
    -9.6279  -9.6189  -9.6151  -9.6048  -9.4911  -9.4492  -9.4199  -9.4047
    -8.6532  -8.6165  -8.5933  -8.5901  -8.1462  -8.1383  -8.1307  -8.0852
    -7.5082  -7.4736  -7.4659  -7.4536  -7.4031  -7.3954  -7.3761  -7.3710
    -7.0369  -7.0348  -7.0020  -6.9837  -6.2536  -6.1901  -6.1715  -6.1705
    -6.0978  -6.0915  -6.0912  -6.0885  -5.9652  -5.9403  -5.9021  -5.8863
    -5.6780  -5.6552  -5.6477  -5.6226  -5.5930  -5.5670  -5.5418  -5.4900
    -5.3555  -5.3530  -5.2261  -5.1995  -4.9573  -4.9281  -4.8393  -4.8385
    -4.7983  -4.7711  -4.7630  -4.7524  -4.7337  -4.6977  -4.6922  -4.6682
    -4.5792  -4.5669  -4.5447  -4.5167  -4.4942  -4.4420  -4.4197  -4.3924
    -4.1959  -4.1516  -4.1261  -4.1161  -4.0378  -4.0047  -4.0033  -3.9986
    -3.7144  -3.7132  -3.7036  -3.6986  -3.6442  -3.6149  -3.5909  -3.5295
    -3.5190  -3.4754  -3.4605  -3.4565  -3.3744  -3.3618  -3.3375  -3.3365
    -3.3003  -3.2546  -3.1556  -3.1227  -3.0830  -3.0824  -3.0744  -3.0502
    -2.8256  -2.8032  -2.7876  -2.7438  -2.5177  -2.4764  -2.4536  -2.4522
    -2.3902  -2.3665  -2.3071  -2.2314  -2.0900  -2.0516  -2.0095  -1.9953
    -1.7750  -1.7339  -1.6887  -1.5953  -0.6383  -0.5996  -0.5605  -0.5421
    -0.4124  -0.3960  -0.3231  -0.3200  -0.2937  -0.1927  -0.0973  -0.0587
     0.1128   0.1412   0.3087   0.3162   0.3383   0.3569   0.3607   0.3920
     1.3654   1.3833   1.5582   1.5904

          k =-0.5000 0.0000 0.0261 ( 26240 PWs)   bands (ev):

   -21.6276 -21.6271 -21.6242 -21.6240 -19.4099 -19.4097 -19.4081 -19.4079
   -17.9351 -17.9329 -17.9216 -17.9196 -15.6024 -15.5955 -15.5903 -15.5828
   -15.3233 -15.3115 -15.2994 -15.2915 -13.9239 -13.9168 -13.8894 -13.8801
   -13.3061 -13.2969 -13.2881 -13.2629 -13.0737 -13.0729 -13.0160 -12.9987
   -12.9070 -12.8929 -12.8900 -12.8658 -12.5579 -12.5394 -12.5283 -12.4960
   -12.4902 -12.4873 -12.4692 -12.4523 -11.1331 -11.1162 -11.0905 -11.0720
   -10.4230 -10.4119 -10.3811 -10.3766  -9.7686  -9.7572  -9.7103  -9.6925
    -9.6299  -9.6271  -9.6096  -9.5988  -9.4841  -9.4530  -9.4215  -9.4093
    -8.6545  -8.6308  -8.5850  -8.5849  -8.1543  -8.1451  -8.1152  -8.0869
    -7.5037  -7.4797  -7.4588  -7.4494  -7.4069  -7.3886  -7.3843  -7.3735
    -7.0378  -7.0358  -6.9986  -6.9862  -6.2357  -6.1871  -6.1801  -6.1720
    -6.1021  -6.0994  -6.0850  -6.0835  -5.9662  -5.9488  -5.8997  -5.8888
    -5.6670  -5.6498  -5.6406  -5.6215  -5.5933  -5.5832  -5.5303  -5.4900
    -5.3461  -5.3398  -5.2552  -5.2263  -4.9441  -4.9088  -4.8579  -4.8430
    -4.7993  -4.7806  -4.7711  -4.7605  -4.7207  -4.6971  -4.6709  -4.6612
    -4.5917  -4.5688  -4.5499  -4.5070  -4.4886  -4.4440  -4.4279  -4.4040
    -4.1799  -4.1439  -4.1342  -4.1146  -4.0358  -4.0088  -4.0041  -4.0035
    -3.7143  -3.7099  -3.6989  -3.6945  -3.6320  -3.6071  -3.5978  -3.5423
    -3.5201  -3.4700  -3.4681  -3.4531  -3.3993  -3.3755  -3.3535  -3.3334
    -3.2664  -3.2239  -3.1477  -3.1393  -3.1223  -3.0978  -3.0701  -3.0155
    -2.8168  -2.7907  -2.7902  -2.7503  -2.5033  -2.4764  -2.4500  -2.4483
    -2.3951  -2.3449  -2.3317  -2.2498  -2.0841  -2.0558  -2.0084  -1.9976
    -1.7801  -1.7448  -1.6665  -1.6051  -0.6319  -0.6046  -0.5589  -0.5469
    -0.4256  -0.4061  -0.3220  -0.3213  -0.2562  -0.1868  -0.0958  -0.0712
     0.1160   0.1356   0.3157   0.3181   0.3346   0.3559   0.3625   0.3847
     1.3679   1.3802   1.5602   1.5828

          k =-0.5000 0.0000-0.7823 ( 26276 PWs)   bands (ev):

   -21.6275 -21.6273 -21.6242 -21.6240 -19.4098 -19.4097 -19.4081 -19.4080
   -17.9341 -17.9339 -17.9207 -17.9205 -15.5989 -15.5989 -15.5867 -15.5867
   -15.3175 -15.3174 -15.2954 -15.2954 -13.9230 -13.9230 -13.8822 -13.8822
   -13.2971 -13.2971 -13.2798 -13.2798 -13.0738 -13.0738 -13.0066 -13.0065
   -12.8985 -12.8984 -12.8802 -12.8801 -12.5446 -12.5446 -12.5147 -12.5147
   -12.4898 -12.4897 -12.4615 -12.4615 -11.1140 -11.1139 -11.0920 -11.0919
   -10.4019 -10.4019 -10.3938 -10.3937  -9.7376  -9.7375  -9.7257  -9.7257
    -9.6321  -9.6321  -9.6003  -9.6003  -9.4671  -9.4671  -9.4183  -9.4183
    -8.6486  -8.6486  -8.5802  -8.5801  -8.1547  -8.1547  -8.0965  -8.0965
    -7.4917  -7.4917  -7.4494  -7.4494  -7.4002  -7.4001  -7.3802  -7.3802
    -7.0377  -7.0377  -6.9921  -6.9921  -6.2004  -6.2004  -6.1815  -6.1815
    -6.1056  -6.1055  -6.0798  -6.0797  -5.9627  -5.9626  -5.8942  -5.8941
    -5.6534  -5.6534  -5.6125  -5.6125  -5.6065  -5.6065  -5.5069  -5.5068
    -5.3112  -5.3112  -5.2879  -5.2879  -4.9041  -4.9041  -4.8711  -4.8711
    -4.7897  -4.7896  -4.7726  -4.7726  -4.7054  -4.7054  -4.6524  -4.6523
    -4.5909  -4.5909  -4.5266  -4.5266  -4.4630  -4.4629  -4.4239  -4.4239
    -4.1534  -4.1534  -4.1243  -4.1243  -4.0249  -4.0249  -4.0055  -4.0054
    -3.7113  -3.7113  -3.6903  -3.6903  -3.6132  -3.6132  -3.5782  -3.5782
    -3.4987  -3.4987  -3.4564  -3.4564  -3.4014  -3.4014  -3.3482  -3.3481
    -3.2288  -3.2288  -3.1414  -3.1414  -3.1236  -3.1236  -3.0341  -3.0341
    -2.8005  -2.8005  -2.7680  -2.7680  -2.4809  -2.4809  -2.4454  -2.4454
    -2.3787  -2.3787  -2.2969  -2.2969  -2.0695  -2.0694  -2.0033  -2.0033
    -1.7688  -1.7688  -1.6310  -1.6310  -0.6176  -0.6176  -0.5548  -0.5548
    -0.4241  -0.4241  -0.3239  -0.3239  -0.1981  -0.1981  -0.0917  -0.0917
     0.1246   0.1247   0.3223   0.3224   0.3403   0.3403   0.3723   0.3723
     1.3738   1.3738   1.5686   1.5686

          k =-0.5000 0.2946-0.2433 ( 26236 PWs)   bands (ev):

   -21.6276 -21.6271 -21.6242 -21.6240 -19.4099 -19.4097 -19.4081 -19.4079
   -17.9352 -17.9330 -17.9215 -17.9195 -15.6021 -15.5936 -15.5921 -15.5831
   -15.3222 -15.3062 -15.3048 -15.2927 -13.9216 -13.9125 -13.8938 -13.8825
   -13.3091 -13.3051 -13.2792 -13.2590 -13.0745 -13.0734 -13.0166 -12.9995
   -12.9100 -12.9000 -12.8809 -12.8626 -12.5605 -12.5561 -12.5117 -12.4932
   -12.4880 -12.4871 -12.4706 -12.4525 -11.1378 -11.1288 -11.0760 -11.0687
   -10.4301 -10.4217 -10.3721 -10.3701  -9.7804  -9.7720  -9.6971  -9.6820
    -9.6265  -9.6167  -9.6127  -9.6042  -9.4888  -9.4588  -9.4191  -9.4083
    -8.6476  -8.6223  -8.5907  -8.5880  -8.1468  -8.1340  -8.1272  -8.0915
    -7.5007  -7.4718  -7.4636  -7.4454  -7.4077  -7.4054  -7.3765  -7.3729
    -7.0333  -7.0279  -7.0082  -6.9921  -6.2455  -6.2029  -6.1683  -6.1658
    -6.0976  -6.0947  -6.0913  -6.0880  -5.9615  -5.9450  -5.8996  -5.8884
    -5.6723  -5.6592  -5.6406  -5.6071  -5.5994  -5.5621  -5.5573  -5.5028
    -5.3611  -5.3595  -5.2211  -5.2029  -4.9555  -4.9366  -4.8439  -4.8372
    -4.7986  -4.7761  -4.7503  -4.7417  -4.7382  -4.6918  -4.6872  -4.6786
    -4.5760  -4.5544  -4.5369  -4.5155  -4.4835  -4.4343  -4.4310  -4.3927
    -4.1914  -4.1632  -4.1272  -4.1180  -4.0312  -4.0130  -3.9974  -3.9972
    -3.7279  -3.7219  -3.6981  -3.6907  -3.6342  -3.6316  -3.5803  -3.5442
    -3.5039  -3.4733  -3.4631  -3.4488  -3.3912  -3.3601  -3.3600  -3.3500
    -3.2930  -3.2606  -3.1525  -3.1121  -3.0912  -3.0799  -3.0644  -3.0451
    -2.8213  -2.8056  -2.7780  -2.7468  -2.5111  -2.4739  -2.4646  -2.4518
    -2.3866  -2.3822  -2.2824  -2.2356  -2.0778  -2.0439  -2.0215  -2.0039
    -1.7725  -1.7485  -1.6678  -1.6068  -0.6254  -0.5877  -0.5702  -0.5442
    -0.4111  -0.3995  -0.3428  -0.3093  -0.2823  -0.2032  -0.0946  -0.0663
     0.1386   0.1733   0.2763   0.3196   0.3273   0.3405   0.3599   0.3804
     1.3735   1.3851   1.5634   1.5860

          k =-0.5000 0.2946 0.0261 ( 26258 PWs)   bands (ev):

   -21.6275 -21.6272 -21.6242 -21.6240 -19.4099 -19.4097 -19.4081 -19.4079
   -17.9349 -17.9333 -17.9213 -17.9198 -15.6006 -15.5936 -15.5921 -15.5847
   -15.3199 -15.3087 -15.3029 -15.2944 -13.9225 -13.9172 -13.8888 -13.8820
   -13.3049 -13.2983 -13.2833 -13.2657 -13.0745 -13.0736 -13.0140 -13.0018
   -12.9054 -12.8955 -12.8852 -12.8685 -12.5564 -12.5454 -12.5188 -12.4975
   -12.4907 -12.4872 -12.4683 -12.4562 -11.1308 -11.1191 -11.0871 -11.0743
   -10.4216 -10.4137 -10.3804 -10.3772  -9.7670  -9.7589  -9.7078  -9.6954
    -9.6280  -9.6238  -9.6085  -9.5998  -9.4821  -9.4593  -9.4224  -9.4132
    -8.6498  -8.6329  -8.5853  -8.5830  -8.1513  -8.1420  -8.1147  -8.0925
    -7.4957  -7.4725  -7.4617  -7.4441  -7.4130  -7.3992  -7.3813  -7.3750
    -7.0336  -7.0299  -7.0048  -6.9941  -6.2298  -6.1974  -6.1762  -6.1700
    -6.1027  -6.1001  -6.0852  -6.0841  -5.9625  -5.9508  -5.8976  -5.8899
    -5.6632  -5.6534  -5.6302  -5.6131  -5.5966  -5.5784  -5.5433  -5.5039
    -5.3487  -5.3436  -5.2504  -5.2304  -4.9421  -4.9187  -4.8615  -4.8480
    -4.8038  -4.7861  -4.7535  -4.7465  -4.7281  -4.6951  -4.6764  -4.6692
    -4.5873  -4.5553  -4.5390  -4.5208  -4.4759  -4.4450  -4.4206  -4.3960
    -4.1773  -4.1560  -4.1296  -4.1172  -4.0299  -4.0127  -4.0042  -4.0008
    -3.7242  -3.7192  -3.6946  -3.6878  -3.6338  -3.6144  -3.5877  -3.5500
    -3.5079  -3.4700  -3.4633  -3.4453  -3.4167  -3.3881  -3.3619  -3.3497
    -3.2634  -3.2360  -3.1472  -3.1263  -3.1083  -3.0886  -3.0672  -3.0258
    -2.8116  -2.7936  -2.7811  -2.7531  -2.5002  -2.4742  -2.4617  -2.4502
    -2.3899  -2.3614  -2.3017  -2.2541  -2.0730  -2.0482  -2.0194  -2.0063
    -1.7770  -1.7541  -1.6547  -1.6132  -0.6193  -0.5927  -0.5670  -0.5499
    -0.4344  -0.4191  -0.3195  -0.2944  -0.2601  -0.2032  -0.0941  -0.0752
     0.1425   0.1665   0.2840   0.3185   0.3244   0.3344   0.3643   0.3774
     1.3740   1.3823   1.5645   1.5805

          k =-0.5000 0.2946-0.7823 ( 26282 PWs)   bands (ev):

   -21.6275 -21.6273 -21.6242 -21.6240 -19.4098 -19.4097 -19.4081 -19.4080
   -17.9341 -17.9340 -17.9207 -17.9205 -15.5971 -15.5971 -15.5884 -15.5884
   -15.3144 -15.3143 -15.2986 -15.2986 -13.9222 -13.9221 -13.8833 -13.8832
   -13.2945 -13.2945 -13.2814 -13.2814 -13.0741 -13.0741 -13.0078 -13.0078
   -12.8956 -12.8956 -12.8822 -12.8822 -12.5425 -12.5425 -12.5162 -12.5162
   -12.4891 -12.4890 -12.4629 -12.4629 -11.1131 -11.1131 -11.0925 -11.0925
   -10.4009 -10.4009 -10.3950 -10.3950  -9.7364  -9.7364  -9.7268  -9.7268
    -9.6291  -9.6291  -9.6013  -9.6012  -9.4674  -9.4673  -9.4221  -9.4221
    -8.6467  -8.6467  -8.5801  -8.5801  -8.1510  -8.1510  -8.0999  -8.0998
    -7.4835  -7.4835  -7.4502  -7.4502  -7.4067  -7.4067  -7.3800  -7.3800
    -7.0328  -7.0328  -6.9989  -6.9989  -6.1977  -6.1977  -6.1843  -6.1843
    -6.1053  -6.1052  -6.0814  -6.0814  -5.9600  -5.9599  -5.8934  -5.8933
    -5.6517  -5.6516  -5.6124  -5.6124  -5.5975  -5.5975  -5.5208  -5.5208
    -5.3084  -5.3084  -5.2917  -5.2917  -4.9045  -4.9045  -4.8802  -4.8802
    -4.8002  -4.8002  -4.7545  -4.7545  -4.7083  -4.7083  -4.6632  -4.6632
    -4.5816  -4.5816  -4.5282  -4.5282  -4.4619  -4.4619  -4.4061  -4.4061
    -4.1559  -4.1559  -4.1243  -4.1243  -4.0209  -4.0209  -4.0076  -4.0075
    -3.7184  -3.7184  -3.6887  -3.6887  -3.6151  -3.6151  -3.5758  -3.5758
    -3.4927  -3.4927  -3.4508  -3.4508  -3.4214  -3.4213  -3.3555  -3.3555
    -3.2279  -3.2279  -3.1433  -3.1433  -3.1120  -3.1120  -3.0363  -3.0363
    -2.7935  -2.7935  -2.7703  -2.7703  -2.4815  -2.4815  -2.4548  -2.4548
    -2.3653  -2.3653  -2.2975  -2.2975  -2.0606  -2.0605  -2.0129  -2.0129
    -1.7703  -1.7703  -1.6309  -1.6309  -0.6054  -0.6054  -0.5598  -0.5597
    -0.4411  -0.4411  -0.3003  -0.3003  -0.2130  -0.2130  -0.0912  -0.0912
     0.1531   0.1531   0.3028   0.3029   0.3268   0.3268   0.3713   0.3713
     1.3770   1.3770   1.5702   1.5703

          k =-0.5000-0.5892-0.2433 ( 26304 PWs)   bands (ev):

   -21.6275 -21.6273 -21.6242 -21.6240 -19.4098 -19.4098 -19.4081 -19.4080
   -17.9343 -17.9342 -17.9205 -17.9204 -15.5979 -15.5978 -15.5876 -15.5876
   -15.3136 -15.3136 -15.2995 -15.2994 -13.9174 -13.9174 -13.8880 -13.8879
   -13.3073 -13.3072 -13.2682 -13.2681 -13.0751 -13.0751 -13.0080 -13.0080
   -12.9057 -12.9057 -12.8707 -12.8707 -12.5596 -12.5596 -12.4970 -12.4969
   -12.4901 -12.4901 -12.4633 -12.4632 -11.1331 -11.1330 -11.0725 -11.0724
   -10.4262 -10.4262 -10.3711 -10.3710  -9.7763  -9.7762  -9.6900  -9.6900
    -9.6215  -9.6215  -9.6053  -9.6052  -9.4775  -9.4775  -9.4153  -9.4152
    -8.6349  -8.6349  -8.5872  -8.5872  -8.1414  -8.1414  -8.1079  -8.1079
    -7.4849  -7.4848  -7.4431  -7.4431  -7.4169  -7.4169  -7.3761  -7.3760
    -7.0219  -7.0219  -7.0110  -7.0110  -6.2257  -6.2257  -6.1642  -6.1641
    -6.0974  -6.0974  -6.0895  -6.0895  -5.9538  -5.9537  -5.8939  -5.8938
    -5.6656  -5.6656  -5.6162  -5.6161  -5.5865  -5.5865  -5.5350  -5.5350
    -5.3662  -5.3662  -5.2113  -5.2112  -4.9492  -4.9492  -4.8420  -4.8420
    -4.7895  -4.7894  -4.7465  -4.7464  -4.7092  -4.7092  -4.6783  -4.6782
    -4.5585  -4.5585  -4.5265  -4.5264  -4.4548  -4.4548  -4.4080  -4.4080
    -4.1816  -4.1816  -4.1240  -4.1239  -4.0213  -4.0213  -3.9955  -3.9954
    -3.7352  -3.7352  -3.6815  -3.6814  -3.6445  -3.6445  -3.5593  -3.5592
    -3.4822  -3.4822  -3.4554  -3.4554  -3.3940  -3.3940  -3.3658  -3.3657
    -3.2694  -3.2694  -3.1353  -3.1352  -3.0838  -3.0838  -3.0457  -3.0457
    -2.8126  -2.8126  -2.7594  -2.7593  -2.4892  -2.4891  -2.4638  -2.4638
    -2.3861  -2.3861  -2.2514  -2.2514  -2.0497  -2.0497  -2.0245  -2.0245
    -1.7645  -1.7644  -1.6348  -1.6348  -0.5964  -0.5963  -0.5613  -0.5612
    -0.4069  -0.4068  -0.3357  -0.3357  -0.2363  -0.2363  -0.0832  -0.0832
     0.2040   0.2040   0.2520   0.2520   0.3281   0.3282   0.3681   0.3682
     1.3841   1.3841   1.5750   1.5750

          k =-0.5000-0.5892 0.0261 ( 26260 PWs)   bands (ev):

[...]
     atom   19 type  1   force =    -0.00015644   -0.00033115   -0.00015611
     atom   20 type  2   force =     0.00030548   -0.00032840   -0.00063498
     atom   21 type  1   force =    -0.00018078   -0.00037325   -0.00043964
     atom   22 type  1   force =     0.00051711   -0.00019734   -0.00023477
     atom   23 type  2   force =     0.00040850    0.00012831   -0.00010738
     atom   24 type  1   force =     0.00023772   -0.00005101   -0.00033305
     atom   25 type  2   force =     0.00002647    0.00010611   -0.00001959
     atom   26 type  1   force =     0.00011262    0.00033641    0.00007124
     atom   27 type  2   force =    -0.00011717    0.00033071   -0.00073369
     atom   28 type  2   force =    -0.00008394    0.00041208    0.00024574
     atom   29 type  2   force =     0.00031624   -0.00034706   -0.00004605
     atom   30 type  1   force =    -0.00004542   -0.00006758   -0.00011936
     atom   31 type  2   force =     0.00014475    0.00000692    0.00038494
     atom   32 type  2   force =    -0.00021996   -0.00022637   -0.00029820
     atom   33 type  2   force =    -0.00017521    0.00038265    0.00001731
     atom   34 type  4   force =    -0.00005448    0.00014046   -0.00024822
     atom   35 type  3   force =    -0.00041813    0.00095942    0.00055103
     atom   36 type  2   force =    -0.00050287   -0.00013737   -0.00012823
     atom   37 type  3   force =    -0.00013396   -0.00006623    0.00082047
     atom   38 type  1   force =     0.00000793    0.00074896   -0.00030007
     atom   39 type  1   force =     0.00000793   -0.00074896   -0.00030007
     atom   40 type  1   force =    -0.00000793   -0.00074896    0.00030007
     atom   41 type  1   force =    -0.00027448    0.00046083   -0.00003096
     atom   42 type  1   force =    -0.00027448   -0.00046083   -0.00003096
     atom   43 type  1   force =     0.00027448   -0.00046083    0.00003096
     atom   44 type  2   force =    -0.00008496    0.00001201   -0.00016081
     atom   45 type  2   force =    -0.00008496   -0.00001201   -0.00016081
     atom   46 type  2   force =     0.00008496   -0.00001201    0.00016081
     atom   47 type  1   force =     0.00019244    0.00036654   -0.00021868
     atom   48 type  1   force =     0.00019244   -0.00036654   -0.00021868
     atom   49 type  1   force =    -0.00019244   -0.00036654    0.00021868
     atom   50 type  2   force =     0.00011622    0.00008565    0.00020206
     atom   51 type  2   force =     0.00011622   -0.00008565    0.00020206
     atom   52 type  2   force =    -0.00011622   -0.00008565   -0.00020206
     atom   53 type  1   force =     0.00023762   -0.00036375    0.00021096
     atom   54 type  1   force =     0.00023762    0.00036375    0.00021096
     atom   55 type  1   force =    -0.00023762    0.00036375   -0.00021096
     atom   56 type  2   force =     0.00000641   -0.00036748    0.00048122
     atom   57 type  2   force =     0.00000641    0.00036748    0.00048122
     atom   58 type  2   force =    -0.00000641    0.00036748   -0.00048122
     atom   59 type  1   force =     0.00019553   -0.00017000    0.00011167
     atom   60 type  1   force =     0.00019553    0.00017000    0.00011167
     atom   61 type  1   force =    -0.00019553    0.00017000   -0.00011167
     atom   62 type  2   force =    -0.00012018   -0.00036421    0.00042989
     atom   63 type  2   force =    -0.00012018    0.00036421    0.00042989
     atom   64 type  2   force =     0.00012018    0.00036421   -0.00042989
     atom   65 type  1   force =    -0.00002217    0.00016795    0.00006705
     atom   66 type  1   force =    -0.00002217   -0.00016795    0.00006705
     atom   67 type  1   force =     0.00002217   -0.00016795   -0.00006705
     atom   68 type  1   force =    -0.00011866   -0.00000682   -0.00018257
     atom   69 type  1   force =    -0.00011866    0.00000682   -0.00018257
     atom   70 type  1   force =     0.00011866    0.00000682    0.00018257
     atom   71 type  1   force =     0.00012401   -0.00015652   -0.00010489
     atom   72 type  1   force =     0.00012401    0.00015652   -0.00010489
     atom   73 type  1   force =    -0.00012401    0.00015652    0.00010489
     atom   74 type  2   force =    -0.00023411    0.00001503   -0.00019556
     atom   75 type  2   force =    -0.00023411   -0.00001503   -0.00019556
     atom   76 type  2   force =     0.00023411   -0.00001503    0.00019556
     atom   77 type  1   force =    -0.00004866    0.00004273    0.00011002
     atom   78 type  1   force =    -0.00004866   -0.00004273    0.00011002
     atom   79 type  1   force =     0.00004866   -0.00004273   -0.00011002
     atom   80 type  2   force =    -0.00072356    0.00029081    0.00076687
     atom   81 type  2   force =    -0.00072356   -0.00029081    0.00076687
     atom   82 type  2   force =     0.00072356   -0.00029081   -0.00076687
     atom   83 type  1   force =    -0.00028180    0.00011717    0.00011639
     atom   84 type  1   force =    -0.00028180   -0.00011717    0.00011639
     atom   85 type  1   force =     0.00028180   -0.00011717   -0.00011639
     atom   86 type  2   force =     0.00017521    0.00038265   -0.00001731
     atom   87 type  2   force =     0.00017521   -0.00038265   -0.00001731
     atom   88 type  2   force =    -0.00017521   -0.00038265    0.00001731
     atom   89 type  1   force =     0.00014216    0.00000233   -0.00020093
     atom   90 type  1   force =     0.00014216   -0.00000233   -0.00020093
     atom   91 type  1   force =    -0.00014216   -0.00000233    0.00020093
     atom   92 type  2   force =    -0.00025463   -0.00051059    0.00069231
     atom   93 type  2   force =    -0.00025463    0.00051059    0.00069231
     atom   94 type  2   force =     0.00025463    0.00051059   -0.00069231
     atom   95 type  1   force =     0.00015644   -0.00033115    0.00015611
     atom   96 type  1   force =     0.00015644    0.00033115    0.00015611
     atom   97 type  1   force =    -0.00015644    0.00033115   -0.00015611
     atom   98 type  2   force =    -0.00030548   -0.00032840    0.00063498
     atom   99 type  2   force =    -0.00030548    0.00032840    0.00063498
     atom  100 type  2   force =     0.00030548    0.00032840   -0.00063498
     atom  101 type  1   force =     0.00018078   -0.00037325    0.00043964
     atom  102 type  1   force =     0.00018078    0.00037325    0.00043964
     atom  103 type  1   force =    -0.00018078    0.00037325   -0.00043964
     atom  104 type  1   force =    -0.00051711   -0.00019734    0.00023477
     atom  105 type  1   force =    -0.00051711    0.00019734    0.00023477
     atom  106 type  1   force =     0.00051711    0.00019734   -0.00023477
     atom  107 type  2   force =    -0.00040850    0.00012831    0.00010738
     atom  108 type  2   force =    -0.00040850   -0.00012831    0.00010738
     atom  109 type  2   force =     0.00040850   -0.00012831   -0.00010738
     atom  110 type  1   force =    -0.00023772   -0.00005101    0.00033305
     atom  111 type  1   force =    -0.00023772    0.00005101    0.00033305
     atom  112 type  1   force =     0.00023772    0.00005101   -0.00033305
     atom  113 type  2   force =    -0.00002647    0.00010611    0.00001959
     atom  114 type  2   force =    -0.00002647   -0.00010611    0.00001959
     atom  115 type  2   force =     0.00002647   -0.00010611   -0.00001959
     atom  116 type  1   force =    -0.00011262    0.00033641   -0.00007124
     atom  117 type  1   force =    -0.00011262   -0.00033641   -0.00007124
     atom  118 type  1   force =     0.00011262   -0.00033641    0.00007124
     atom  119 type  2   force =     0.00011717    0.00033071    0.00073369
     atom  120 type  2   force =     0.00011717   -0.00033071    0.00073369
     atom  121 type  2   force =    -0.00011717   -0.00033071   -0.00073369
     atom  122 type  2   force =     0.00008394    0.00041208   -0.00024574
     atom  123 type  2   force =     0.00008394   -0.00041208   -0.00024574
     atom  124 type  2   force =    -0.00008394   -0.00041208    0.00024574
     atom  125 type  2   force =    -0.00031624   -0.00034706    0.00004605
     atom  126 type  2   force =    -0.00031624    0.00034706    0.00004605
     atom  127 type  2   force =     0.00031624    0.00034706   -0.00004605
     atom  128 type  1   force =     0.00004542   -0.00006758    0.00011936
     atom  129 type  1   force =     0.00004542    0.00006758    0.00011936
     atom  130 type  1   force =    -0.00004542    0.00006758   -0.00011936
     atom  131 type  2   force =    -0.00014475    0.00000692   -0.00038494
     atom  132 type  2   force =    -0.00014475   -0.00000692   -0.00038494
     atom  133 type  2   force =     0.00014475   -0.00000692    0.00038494
     atom  134 type  2   force =     0.00021996   -0.00022637    0.00029820
     atom  135 type  2   force =     0.00021996    0.00022637    0.00029820
     atom  136 type  2   force =    -0.00021996    0.00022637   -0.00029820
     atom  137 type  4   force =     0.00005448    0.00014046    0.00024822
     atom  138 type  4   force =     0.00005448   -0.00014046    0.00024822
     atom  139 type  4   force =    -0.00005448   -0.00014046   -0.00024822
     atom  140 type  3   force =     0.00041813    0.00095942   -0.00055103
     atom  141 type  3   force =     0.00041813   -0.00095942   -0.00055103
     atom  142 type  3   force =    -0.00041813   -0.00095942    0.00055103
     atom  143 type  2   force =     0.00050287   -0.00013737    0.00012823
     atom  144 type  2   force =     0.00050287    0.00013737    0.00012823
     atom  145 type  2   force =    -0.00050287    0.00013737   -0.00012823
     atom  146 type  3   force =     0.00013396   -0.00006623   -0.00082047
     atom  147 type  3   force =     0.00013396    0.00006623   -0.00082047
     atom  148 type  3   force =    -0.00013396    0.00006623    0.00082047

     Total force =     0.006578     Total SCF correction =     0.000024

     bfgs converged in  36 scf cycles and  35 bfgs steps
     (criteria: energy <  1.0E-04 Ry, force <  1.0E-03 Ry/Bohr)

     End of BFGS Geometry Optimization

     Final energy   =   -1189.6649270822 Ry
Begin final coordinates

ATOMIC_POSITIONS (angstrom)
C        4.917289190   3.442249676   4.507440973
C        3.665788440   2.856592714   4.258843205
H        2.856971644   3.060688214   4.960236814
C        3.475861633   2.060721769   3.138974123
H        2.499597857   1.612709230   2.947331249
C        4.529479489   1.834473274   2.243892514
H        4.385095470   1.197407789   1.373096297
C        5.763065319   2.421552273   2.473647016
H        6.562688042   2.229322067   1.760269482
C        5.996405867   3.241896397   3.596673077
C        7.285862904   3.904429798   3.863585931
C        8.405669342   3.723424487   2.979777818
H        8.301675765   3.030804081   2.147209550
C        9.585346271   4.393145971   3.169757582
H        9.619764629   5.091982574   4.012715828
C       10.789446149   4.266105835   2.411829936
C       10.969055338   3.331022011   1.362744336
H       10.145373920   2.676811405   1.076238797
C        0.042610961   3.210001636   0.690683080
H        0.122372534   2.473065048  -0.104065925
C        1.155991056   4.039378503   1.018234546
C        0.985959364   4.977180337   2.074977028
H        1.811870876   5.617825679   2.374402522
C       -0.216237233   5.073133210   2.741575310
H       -0.319451658   5.788526312   3.558145371
C       -2.996947260   2.951111137  10.525271748
H       -3.188719955   1.933750108  10.901493185
H       -1.977032036   2.990192941  10.131694411
H       -3.696587376   3.153646285   9.700115989
C        3.439985116   4.823128693   0.657608044
H        3.136822413   5.877186849   0.561894708
H        4.261631317   4.631712076  -0.039151801
H        3.805453838   4.658785017   1.683363015
N        2.330090565   3.934664324   0.344316319
O        5.076525220   4.196825348   5.612031637
H        6.065977074   4.534210176   5.528447134
O        7.386742936   4.648414680   4.906171139
C        4.466700810   8.584749676   1.114659027
C        1.730690810   6.842750324   6.736759027
C        2.181279190   1.700250324  10.129540973
C        5.718201560   7.999092714   1.363256795
C        2.982191560   7.428407286   6.985356795
C        0.929778440   2.285907286   9.880943205
H        6.527008356   8.203188214   0.661863186
H        3.790998356   7.224311786   6.283963186
H        0.120961644   2.081811786  10.582336814
C        5.908128367   7.203221769   2.483125877
C        3.172118367   8.224278231   8.105225877
C        0.739851633   3.081778231   8.761074123
H        6.884392143   6.755209230   2.674768751
H        4.148382143   8.672290770   8.296868751
H       -0.236412143   3.529790770   8.569431249
C        4.854510511   6.976973274   3.378207486
C        2.118500511   8.450526726   9.000307486
C        1.793469489   3.308026726   7.865992514
H        4.998894530   6.339907789   4.249003703
H        2.262884530   9.087592211   9.871103703
H        1.649085470   3.945092211   6.995196297
C        3.620914681   7.564052273   3.148442984
C        0.884904681   7.863447727   8.770542984
C        3.027055319   2.720947727   8.095747016
H        2.821301958   7.371822067   3.861830518
H        0.085291958   8.055677933   9.483930518
H        3.826678042   2.913177933   7.382369482
C        3.387584133   8.384396397   2.025426923
C        0.651574133   7.043103603   7.647526923
C        3.260395867   1.900603603   9.218773077
C        2.098127096   9.046929798   1.758514069
C       -0.637882904   6.380570202   7.380614069
C        4.549852904   1.238070202   9.485685931
C        0.978320658   8.865924487   2.642322182
C       -1.757689342   6.561575513   8.264422182
C        5.669659342   1.419075513   8.601877818
H        1.082314235   8.173304081   3.474890450
H       -1.653695765   7.254195919   9.096990450
H        5.565665765   2.111695919   7.769309550
C       -0.201356271   9.535645971   2.452342418
C       -2.937366271   5.891854029   8.074442418
C        6.849336271   0.749354029   8.791857582
H       -0.235774629  10.234482574   1.609384172
H       -2.971784629   5.193017426   7.231484172
H        6.883754629   0.050517426   9.634815828
C       -1.405456149   9.408605835   3.210270064
C       -4.141466149   6.018894165   8.832370064
C        8.053436149   0.876394165   8.033929936
H        5.578536162   9.801285017   3.938736985
H        2.842526162   5.626214984   9.560836985
H        1.069443838   0.483714984   7.305463015
C       -1.585065338   8.473522011   4.259355664
C       -4.321075338   6.953977989   9.881455664
C        8.233045338   1.811477989   6.984844336
H       -0.761383920   7.819311405   4.545861203
H       -3.497393920   7.608188595  10.167961203
H        7.409353920   2.465688595   6.698338797
C        9.341379039   8.352501636   4.931416920
C        6.605369039   7.074998364  10.553516920
C       -2.693399039   1.932498364   6.312783080
H        9.261617466   7.615565048   5.726165925
H        6.525597466   7.811934952  11.348265925
H       -2.613637466   2.669434952   5.518034075
C        8.227998944   9.181878503   4.603865454
C        5.491988944   6.245621497  10.225965454
C       -1.580028944   1.103121497   6.640334546
C        8.398030636  10.119680337   3.547122972
C        5.662020636   5.307819663   9.169222972
C       -1.750050636   0.165319663   7.697077028
H        7.572119124   0.475325679   3.247697478
H        4.836109124   4.667174321   8.869797478
H       -0.924139124   9.809674321   7.996502522
C        9.600227233  10.215633210   2.880524690
C        6.864217233   5.211866790   8.502624690
C       -2.952247233   0.069366790   8.363675310
H        9.703441658   0.646026312   2.063954629
H        6.967431658   4.496473688   7.686054629
H       -3.055461658   9.638973688   9.180245371
C        6.908917260   8.093611137   6.341028252
C        9.644927260   7.333888863   0.718928252
C       -0.260937260   2.191388863   4.903171748
H        7.100689955   7.076250108   5.964806815
H        9.836699955   8.351249892   0.342706815
H       -0.452709955   3.208749892   5.279393185
H        5.888992036   8.132692941   6.734605589
H        8.625012036   7.294807059   1.112505589
H        0.758977964   2.152307059   4.509594411
H        7.608557376   8.296146285   7.166184011
H       10.344567376   7.131353715   1.544084011
H       -0.960577376   1.988853715   4.078015989
C        5.944004884   9.965628693   4.964491956
C        3.207994884   5.461871307  10.586591956
C        0.703975116   0.319371307   6.279708044
H        6.247167587   0.734686849   5.060205292
H        3.511157587   4.407813151  10.682305292
H        0.400812413   9.550313151   6.183984708
H        5.122358683   9.774212076   5.661251801
H        2.386348683   5.653287924  11.283351801
H        1.525621317   0.510787924   5.582948199
N        7.053899435   9.077164324   5.277773681
N        4.317889435   6.350335676  10.899873681
N       -0.405919435   1.207835676   5.966416319
O       -1.164565220   9.339325348  11.254268363
O        1.571454780   6.088174652   5.632168363
O        7.812535220   0.945674652  -0.010068363
H       -2.154007074   9.676710176  11.337852866
H        0.582002926   5.750789824   5.715752866
H        8.801987074   0.608289824  -0.093652866
O        1.997247064   9.790914680   0.715928861
O       -0.738762936   5.636585320   6.338028861
O        4.650732936   0.494085320  10.528271139
End final coordinates



     Writing output data file 2hc_1_444.save
 
     init_run     :    364.72s CPU    369.55s WALL (       1 calls)
     electrons    : 276716.39s CPU 279421.00s WALL (      36 calls)
     update_pot   :     25.38s CPU     25.46s WALL (      35 calls)
     forces       :   4449.62s CPU   4466.89s WALL (      36 calls)

     Called by init_run:
     wfcinit      :    359.28s CPU    362.85s WALL (       1 calls)
     potinit      :      2.08s CPU      2.12s WALL (       1 calls)

     Called by electrons:
     c_bands      : 250769.99s CPU 253323.89s WALL (     384 calls)
     sum_band     :  25343.58s CPU  25423.73s WALL (     384 calls)
     v_of_rho     :    103.71s CPU    103.83s WALL (     420 calls)
     newd         :    195.67s CPU    266.26s WALL (     420 calls)
     mix_rho      :     18.21s CPU     19.42s WALL (     384 calls)

     Called by c_bands:
     init_us_2    :   2107.23s CPU   2108.23s WALL (   24150 calls)
     cegterg      : 243479.24s CPU 246026.24s WALL (   11520 calls)

     Called by sum_band:
     sum_band:bec :     11.38s CPU     11.43s WALL (   11520 calls)
     addusdens    :    204.32s CPU    268.83s WALL (     384 calls)

     Called by *egterg:
     h_psi        : 141741.50s CPU 141830.70s WALL (   61385 calls)
     s_psi        :  31926.23s CPU  31934.25s WALL (   61385 calls)
     g_psi        :    904.23s CPU    904.55s WALL (   49835 calls)
     cdiaghg      :   7633.62s CPU   7636.85s WALL (   60305 calls)

     Called by h_psi:
     h_psi:pot    : 140691.15s CPU 140777.97s WALL (   61385 calls)
     h_psi:calbec :  29237.97s CPU  29244.13s WALL (   61385 calls)
     vloc_psi     :  79540.60s CPU  79612.80s WALL (   61385 calls)
     add_vuspsi   :  31912.45s CPU  31920.68s WALL (   61385 calls)

     General routines
     calbec       :  42244.74s CPU  42253.88s WALL (   77225 calls)
     fft          :     41.58s CPU     42.49s WALL (    5461 calls)
     fftw         :  80668.17s CPU  80690.97s WALL (16490802 calls)
     davcio       :      0.06s CPU     16.58s WALL (      30 calls)
 
     Parallel routines
     fft_scatter  :  10085.53s CPU  10149.71s WALL (16496263 calls)
 
     PWSCF        :     3d    6h13m CPU        3d    6h59m WALL

 
   This run was terminated on:  20:17:16   9Nov2017            

=------------------------------------------------------------------------------=
   JOB DONE.
=------------------------------------------------------------------------------=
