
     Program PWSCF v.6.1 (svn rev. 13369) starts on 20Oct2017 at 11:43:33 

     This program is part of the open-source Quantum ESPRESSO suite
     for quantum simulation of materials; please cite
         "P. Giannozzi et al., J. Phys.:Condens. Matter 21 395502 (2009);
          URL http://www.quantum-espresso.org", 
     in publications or presentations arising from this work. More details at
     http://www.quantum-espresso.org/quote

     Parallel version (MPI), running on     1 processors
     Waiting for input...
     Reading input from standard input

     Current dimensions of program PWSCF are:
     Max number of different atomic species (ntypx) = 10
     Max number of k-points (npk) =  40000
     Max angular momentum in pseudopotentials (lmaxx) =  3
     Message from routine iosys:
     london is obsolete, use "vdw_corr='grimme-d2'" instead

     IMPORTANT: XC functional enforced from input :
     Exchange-correlation      = PBE ( 1  4  3  4 0 0)
     Any further DFT definition will be discarded
     Please, verify this is what you really want

               file C.pbe-rrkjus.UPF: wavefunction(s)  2S 2P renormalized
               file H.pbe-rrkjus.UPF: wavefunction(s)  1S renormalized
               file O.pbe-rrkjus.UPF: wavefunction(s)  2S renormalized
               file N.pbe-rrkjus.UPF: wavefunction(s)  2S renormalized

     -------------------------------------
     Parameters for Dispersion Correction:
     -------------------------------------
       atom      VdW radius       C_6     

        C          2.744         60.710
        H          1.892          4.857
        O          2.536         24.284
        N          2.640         42.670

     Subspace diagonalization in iterative solution of the eigenvalue problem:
     a serial algorithm will be used

 
     G-vector sticks info
     --------------------
     sticks:   dense  smooth     PW     G-vecs:    dense   smooth      PW
     Sum        4821    4821   1301               469205   469205   65467
 


     bravais-lattice index     =            0
     lattice parameter (alat)  =      20.3146  a.u.
     unit-cell volume          =   21137.7230 (a.u.)^3
     number of atoms/cell      =          320
     number of atomic types    =            4
     number of electrons       =       864.00
     number of Kohn-Sham states=          432
     kinetic-energy cutoff     =      30.0000  Ry
     charge density cutoff     =     120.0000  Ry
     convergence threshold     =      1.0E-07
     mixing beta               =       0.7000
     number of iterations used =            8  plain     mixing
     Exchange-correlation      = PBE ( 1  4  3  4 0 0)
     nstep                     =           50


     celldm(1)=  20.314556  celldm(2)=   0.000000  celldm(3)=   0.000000
     celldm(4)=   0.000000  celldm(5)=   0.000000  celldm(6)=   0.000000

     crystal axes: (cart. coord. in units of alat)
               a(1) = (   1.000000   0.000000   0.000000 )  
               a(2) = (   0.000000   1.224186   0.000000 )  
               a(3) = (   0.000000   0.000000   2.059628 )  

     reciprocal axes: (cart. coord. in units 2 pi/alat)
               b(1) = (  1.000000  0.000000  0.000000 )  
               b(2) = (  0.000000  0.816869  0.000000 )  
               b(3) = (  0.000000  0.000000  0.485525 )  


     PseudoPot. # 1 for C  read from file:
     /data/home/btx156/espresso/pseudo/C.pbe-rrkjus.UPF
     MD5 check sum: 00fb224312de0c5b6853bd333518df6f
     Pseudo is Ultrasoft, Zval =  4.0
     Generated by new atomic code, or converted to UPF format
     Using radial grid of  627 points,  4 beta functions with: 
                l(1) =   0
                l(2) =   0
                l(3) =   1
                l(4) =   1
     Q(r) pseudized with 0 coefficients 


     PseudoPot. # 2 for H  read from file:
     /data/home/btx156/espresso/pseudo/H.pbe-rrkjus.UPF
     MD5 check sum: 7cc9d459525c9a0585f487a71c3c9563
     Pseudo is Ultrasoft, Zval =  1.0
     Generated by new atomic code, or converted to UPF format
     Using radial grid of 1061 points,  2 beta functions with: 
                l(1) =   0
                l(2) =   0
     Q(r) pseudized with 0 coefficients 


     PseudoPot. # 3 for O  read from file:
     /data/home/btx156/espresso/pseudo/O.pbe-rrkjus.UPF
     MD5 check sum: 390ba29e75625707450f3bd3f0eb6be9
     Pseudo is Ultrasoft, Zval =  6.0
     Generated by new atomic code, or converted to UPF format
     Using radial grid of 1269 points,  4 beta functions with: 
                l(1) =   0
                l(2) =   0
                l(3) =   1
                l(4) =   1
     Q(r) pseudized with 0 coefficients 


     PseudoPot. # 4 for N  read from file:
     /data/home/btx156/espresso/pseudo/N.pbe-rrkjus.UPF
     MD5 check sum: 0c3fbe5807a93f9ba59d5a7019aa238b
     Pseudo is Ultrasoft, Zval =  5.0
     Generated by new atomic code, or converted to UPF format
     Using radial grid of 1257 points,  4 beta functions with: 
                l(1) =   0
                l(2) =   0
                l(3) =   1
                l(4) =   1
     Q(r) pseudized with 0 coefficients 


     atomic species   valence    mass     pseudopotential
        C              4.00    12.00000     C ( 1.00)
        H              1.00     1.00790     H ( 1.00)
        O              6.00    15.99940     O ( 1.00)
        N              5.00    14.00670     N ( 1.00)

      8 Sym. Ops., with inversion, found ( 6 have fractional translation)



   Cartesian axes

     site n.     atom                  positions (alat units)
         1           O   tau(   1) = (   0.1580987   0.1964727   0.3372673  )
         2           O   tau(   2) = (   0.0665173   0.0361308   0.1987617  )
         3           C   tau(   3) = (   0.1365068   1.1746640   0.2439735  )
         4           C   tau(   4) = (   0.0908575   0.9059542   0.0166436  )
         5           C   tau(   5) = (   0.2089221   1.2029435   0.3571736  )
         6           C   tau(   6) = (   0.1475052   1.0547307   0.1859611  )
         7           C   tau(   7) = (   0.2175626   0.1042244   0.3987033  )
         8           C   tau(   8) = (   0.1824318   0.7005859   2.0435901  )
         9           N   tau(   9) = (   0.1188967   0.5752072   1.8674587  )
        10           C   tau(  10) = (   0.1089081   0.6814526   1.9348512  )
        11           C   tau(  11) = (   0.0817496   1.0213654   0.0820967  )
        12           C   tau(  12) = (   0.2709377   1.1108326   0.4268493  )
        13           C   tau(  13) = (   0.1731294   0.8088947   0.0513138  )
        14           C   tau(  14) = (   0.3491029   0.0391961   0.5695215  )
        15           C   tau(  15) = (   0.2899922   0.1329348   0.5034425  )
        16           C   tau(  16) = (   0.3394942   1.1379331   0.5329107  )
        17           C   tau(  17) = (   0.0171412   0.8855620   1.9690409  )
        18           C   tau(  18) = (   0.0250328   0.7777809   1.8998141  )
        19           C   tau(  19) = (   0.0428751   0.5568071   1.7570199  )
        20           C   tau(  20) = (   0.2057527   0.4783135   1.9055642  )
        21           C   tau(  21) = (   0.4025322   1.0359765   0.6051902  )
        22           H   tau(  22) = (   0.3629895   1.0268942   0.6993255  )
        23           H   tau(  23) = (   0.5021212   1.0555871   0.6173280  )
        24           H   tau(  24) = (   0.3934828   0.9463881   0.5569563  )
        25           H   tau(  25) = (   0.2658017   1.0140616   0.3974197  )
        26           H   tau(  26) = (   0.9524541   0.9582840   1.9407508  )
        27           H   tau(  27) = (   0.0169503   1.0898357   0.0434201  )
        28           H   tau(  28) = (   0.2472111   0.6292239   0.0146896  )
        29           H   tau(  29) = (   0.2979579   0.2299012   0.5320156  )
        30           H   tau(  30) = (   0.4039388   0.0628292   0.6517245  )
        31           H   tau(  31) = (   0.2314021   0.8192189   0.1335972  )
        32           H   tau(  32) = (   0.2129860   0.9889707   0.2263953  )
        33           H   tau(  33) = (   0.9432334   0.5641323   1.7789971  )
        34           H   tau(  34) = (   0.9665243   0.7670958   1.8179113  )
        35           H   tau(  35) = (   0.2028328   0.4023532   1.8378492  )
        36           H   tau(  36) = (   0.1812687   0.4408950   1.9976743  )
        37           H   tau(  37) = (   0.0607786   0.4641529   1.7190697  )
        38           H   tau(  38) = (   0.3015915   0.5142763   1.9099252  )
        39           H   tau(  39) = (   0.1059437   0.1479757   0.2712949  )
        40           H   tau(  40) = (   0.0647930   0.6258673   1.6845965  )
        41           O   tau(  41) = (   0.3419023   1.0277133   1.3670812  )
        42           O   tau(  42) = (   0.8419013   0.8085658   0.6925467  )
        43           O   tau(  43) = (   0.6580987   0.4156203   1.7223606  )
        44           O   tau(  44) = (   0.8419023   1.0277133   1.7223606  )
        45           O   tau(  45) = (   0.6580987   0.1964727   0.6925467  )
        46           O   tau(  46) = (   0.1580987   0.4156203   1.3670812  )
        47           O   tau(  47) = (   0.3419023   0.8085658   0.3372673  )
        48           O   tau(  48) = (   0.4334827   1.1880553   1.2285757  )
        49           O   tau(  49) = (   0.9334827   0.6482238   0.8310522  )
        50           O   tau(  50) = (   0.5665173   0.5759623   1.8608662  )
        51           O   tau(  51) = (   0.9334827   1.1880553   1.8608662  )
        52           O   tau(  52) = (   0.5665173   0.0361308   0.8310522  )
        53           O   tau(  53) = (   0.0665173   0.5759623   1.2285757  )
        54           O   tau(  54) = (   0.4334827   0.6482238   0.1987617  )
        55           C   tau(  55) = (   0.3634932   0.0495220   1.2737874  )
        56           C   tau(  56) = (   0.8634932   0.5625710   0.7858405  )
        57           C   tau(  57) = (   0.6365068   0.6616151   1.8156544  )
        58           C   tau(  58) = (   0.8634932   0.0495220   1.8156544  )
        59           C   tau(  59) = (   0.6365068   1.1746640   0.7858405  )
        60           C   tau(  60) = (   0.1365068   0.6616151   1.2737874  )
        61           C   tau(  61) = (   0.3634932   0.5625710   0.2439735  )
        62           C   tau(  62) = (   0.4091425   0.3182319   1.0464576  )
        63           C   tau(  63) = (   0.9091425   0.2938611   1.0131703  )
        64           C   tau(  64) = (   0.5908575   0.9303249   2.0429843  )
        65           C   tau(  65) = (   0.9091425   0.3182319   2.0429843  )
        66           C   tau(  66) = (   0.5908575   0.9059542   1.0131703  )
        67           C   tau(  67) = (   0.0908575   0.9303249   1.0464576  )
        68           C   tau(  68) = (   0.4091425   0.2938611   0.0166436  )
        69           C   tau(  69) = (   0.2910779   0.0212425   1.3869875  )
        70           C   tau(  70) = (   0.7910779   0.5908505   0.6726404  )
        71           C   tau(  71) = (   0.7089221   0.6333355   1.7024543  )
        72           C   tau(  72) = (   0.7910779   0.0212425   1.7024543  )
        73           C   tau(  73) = (   0.7089221   1.2029435   0.6726404  )
        74           C   tau(  74) = (   0.2089221   0.6333355   1.3869875  )
        75           C   tau(  75) = (   0.2910779   0.5908505   0.3571736  )
        76           C   tau(  76) = (   0.3524948   0.1694554   1.2157751  )
        77           C   tau(  77) = (   0.8524948   0.4426377   0.8438528  )
        78           C   tau(  78) = (   0.6475052   0.7815484   1.8736668  )
        79           C   tau(  79) = (   0.8524948   0.1694554   1.8736668  )
        80           C   tau(  80) = (   0.6475052   1.0547307   0.8438528  )
        81           C   tau(  81) = (   0.1475052   0.7815484   1.2157751  )
        82           C   tau(  82) = (   0.3524948   0.4426377   0.1859611  )
        83           C   tau(  83) = (   0.2824374   1.1199616   1.4285172  )
        84           C   tau(  84) = (   0.7824374   0.7163175   0.6311107  )
        85           C   tau(  85) = (   0.7175626   0.5078686   1.6609246  )
        86           C   tau(  86) = (   0.7824374   1.1199616   1.6609246  )
        87           C   tau(  87) = (   0.7175626   0.1042244   0.6311107  )
        88           C   tau(  88) = (   0.2175626   0.5078686   1.4285172  )
        89           C   tau(  89) = (   0.2824374   0.7163175   0.3987033  )
        90           C   tau(  90) = (   0.3175691   0.5236001   1.0137761  )
        91           C   tau(  91) = (   0.8175682   0.0884929   1.0458518  )
        92           C   tau(  92) = (   0.6824318   1.1356932   0.0160378  )
        93           C   tau(  93) = (   0.8175682   0.5236001   0.0160378  )
        94           C   tau(  94) = (   0.6824318   0.7005859   1.0458518  )
        95           C   tau(  95) = (   0.1824318   1.1356932   1.0137761  )
        96           C   tau(  96) = (   0.3175691   0.0884929   2.0435901  )
        97           N   tau(  97) = (   0.3811033   0.6489788   0.8376447  )
        98           N   tau(  98) = (   0.8811033   1.1873003   1.2219832  )
        99           N   tau(  99) = (   0.6188967   0.0368858   0.1921692  )
       100           N   tau( 100) = (   0.8811033   0.6489788   0.1921692  )
       101           N   tau( 101) = (   0.6188967   0.5752072   1.2219832  )
       102           N   tau( 102) = (   0.1188967   0.0368858   0.8376447  )
       103           N   tau( 103) = (   0.3811033   1.1873003   1.8674587  )
       104           C   tau( 104) = (   0.3910919   0.5427335   0.9050372  )
       105           C   tau( 105) = (   0.8910919   0.0693596   1.1545907  )
       106           C   tau( 106) = (   0.6089081   1.1548265   0.1247767  )
       107           C   tau( 107) = (   0.8910919   0.5427335   0.1247767  )
       108           C   tau( 108) = (   0.6089081   0.6814526   1.1545907  )
       109           C   tau( 109) = (   0.1089081   1.1548265   0.9050372  )
       110           C   tau( 110) = (   0.3910919   0.0693596   1.9348512  )
       111           C   tau( 111) = (   0.4182513   0.2028206   1.1119107  )
       112           C   tau( 112) = (   0.9182504   0.4092724   0.9477173  )
       113           C   tau( 113) = (   0.5817496   0.8149137   1.9775312  )
       114           C   tau( 114) = (   0.9182513   0.2028206   1.9775312  )
       115           C   tau( 115) = (   0.5817496   1.0213654   0.9477173  )
       116           C   tau( 116) = (   0.0817496   0.8149137   1.1119107  )
       117           C   tau( 117) = (   0.4182504   0.4092724   0.0820967  )
       118           C   tau( 118) = (   0.2290632   0.1133534   1.4566633  )
       119           C   tau( 119) = (   0.7290623   0.4987396   0.6029646  )
       120           C   tau( 120) = (   0.7709377   0.7254464   1.6327786  )
       121           C   tau( 121) = (   0.7290623   0.1133534   1.6327786  )
       122           C   tau( 122) = (   0.7709377   1.1108326   0.6029646  )
       123           C   tau( 123) = (   0.2709377   0.7254464   1.4566633  )
       124           C   tau( 124) = (   0.2290632   0.4987396   0.4268493  )
       125           C   tau( 125) = (   0.3268706   0.4152913   1.0811277  )
       126           C   tau( 126) = (   0.8268706   0.1968017   0.9785002  )
       127           C   tau( 127) = (   0.6731294   1.0273844   2.0083142  )
       128           C   tau( 128) = (   0.8268706   0.4152913   2.0083142  )
       129           C   tau( 129) = (   0.6731294   0.8088947   0.9785002  )
       130           C   tau( 130) = (   0.1731294   1.0273844   1.0811277  )
       131           C   tau( 131) = (   0.3268706   0.1968017   0.0513138  )
       132           C   tau( 132) = (   0.1508980   1.1849899   1.5993355  )
       133           C   tau( 133) = (   0.6508980   0.6512892   0.4602924  )
       134           C   tau( 134) = (   0.8491029   0.5728969   1.4901064  )
       135           C   tau( 135) = (   0.6508980   1.1849899   1.4901064  )
       136           C   tau( 136) = (   0.8491020   0.0391961   0.4602924  )
       137           C   tau( 137) = (   0.3491029   0.5728969   1.5993355  )
       138           C   tau( 138) = (   0.1508980   0.6512892   0.5695215  )
       139           C   tau( 139) = (   0.2100088   1.0912512   1.5332564  )
       140           C   tau( 140) = (   0.7100088   0.7450279   0.5263715  )
       141           C   tau( 141) = (   0.7899922   0.4791582   1.5561854  )
       142           C   tau( 142) = (   0.7100088   1.0912512   1.5561854  )
       143           C   tau( 143) = (   0.7899922   0.1329348   0.5263715  )
       144           C   tau( 144) = (   0.2899922   0.4791582   1.5332564  )
       145           C   tau( 145) = (   0.2100088   0.7450279   0.5034425  )
       146           C   tau( 146) = (   0.1605058   0.0862530   1.5627247  )
       147           C   tau( 147) = (   0.6605058   0.5258400   0.4969032  )
       148           C   tau( 148) = (   0.8394942   0.6983460   1.5267172  )
       149           C   tau( 149) = (   0.6605058   0.0862530   1.5267172  )
       150           C   tau( 150) = (   0.8394942   1.1379331   0.4969032  )
       151           C   tau( 151) = (   0.3394942   0.6983460   1.5627247  )
       152           C   tau( 152) = (   0.1605058   0.5258400   0.5329107  )
       153           H   tau( 153) = (   0.5567666   0.6600538   0.7491831  )
       154           H   tau( 154) = (   0.0567666   1.1762253   1.3104448  )
       155           H   tau( 155) = (   0.4432334   0.0479608   0.2806308  )
       156           H   tau( 156) = (   0.0567666   0.6600538   0.2806308  )
       157           H   tau( 157) = (   0.4432334   0.5641323   1.3104448  )
       158           H   tau( 158) = (   0.9432334   0.0479608   0.7491831  )
       159           H   tau( 159) = (   0.5567666   1.1762253   1.7789971  )
       160           C   tau( 160) = (   0.4828597   0.3386240   0.9392269  )
       161           C   tau( 161) = (   0.9828597   0.2734690   1.1204010  )
       162           C   tau( 162) = (   0.5171412   0.9507171   0.0905870  )
       163           C   tau( 163) = (   0.9828597   0.3386240   0.0905870  )
       164           C   tau( 164) = (   0.5171412   0.8855620   1.1204010  )
       165           C   tau( 165) = (   0.0171412   0.9507171   0.9392269  )
       166           C   tau( 166) = (   0.4828597   0.2734690   1.9690409  )
       167           C   tau( 167) = (   0.4749681   0.4464051   0.8700001  )
       168           C   tau( 168) = (   0.9749672   0.1656879   1.1896278  )
       169           C   tau( 169) = (   0.5250328   1.0584981   0.1598139  )
       170           C   tau( 170) = (   0.9749672   0.4464051   0.1598139  )
       171           C   tau( 171) = (   0.5250328   0.7777809   1.1896278  )
       172           C   tau( 172) = (   0.0250328   1.0584981   0.8700001  )
       173           C   tau( 173) = (   0.4749681   0.1656879   1.8998141  )
       174           C   tau( 174) = (   0.4571249   0.6673789   0.7272060  )
       175           C   tau( 175) = (   0.9571249   1.1689002   1.3324219  )
       176           C   tau( 176) = (   0.5428751   0.0552859   0.3026080  )
       177           C   tau( 177) = (   0.9571249   0.6673789   0.3026080  )
       178           C   tau( 178) = (   0.5428751   0.5568071   1.3324219  )
       179           C   tau( 179) = (   0.0428751   0.0552859   0.7272060  )
       180           C   tau( 180) = (   0.4571249   1.1689002   1.7570199  )
       181           C   tau( 181) = (   0.2942473   0.7458725   0.8757502  )
       182           C   tau( 182) = (   0.7942473   1.0904066   1.1838777  )
       183           C   tau( 183) = (   0.7057527   0.1337795   0.1540638  )
       184           C   tau( 184) = (   0.7942473   0.7458725   0.1540638  )
       185           C   tau( 185) = (   0.7057527   0.4783135   1.1838777  )
       186           C   tau( 186) = (   0.2057527   0.1337795   0.8757502  )
       187           C   tau( 187) = (   0.2942473   1.0904066   1.9055642  )
       188           C   tau( 188) = (   0.0974687   0.1882096   1.6350042  )
       189           C   tau( 189) = (   0.5974687   0.4238834   0.4246237  )
       190           C   tau( 190) = (   0.9025322   0.8003026   1.4544377  )
       191           C   tau( 191) = (   0.5974687   0.1882096   1.4544377  )
       192           C   tau( 192) = (   0.9025322   1.0359765   0.4246237  )
       193           C   tau( 193) = (   0.4025322   0.8003026   1.6350042  )
       194           C   tau( 194) = (   0.0974687   0.4238834   0.6051902  )
       195           H   tau( 195) = (   0.1370105   0.1972919   1.7291395  )
       196           H   tau( 196) = (   0.6370105   0.4148012   0.3304884  )
       197           H   tau( 197) = (   0.8629895   0.8093849   1.3603024  )
       198           H   tau( 198) = (   0.6370105   0.1972919   1.3603024  )
       199           H   tau( 199) = (   0.8629895   1.0268942   0.3304884  )
       200           H   tau( 200) = (   0.3629895   0.8093849   1.7291395  )
       201           H   tau( 201) = (   0.1370105   0.4148012   0.6993255  )
       202           H   tau( 202) = (  -0.0021203   0.1685990   1.6471420  )
       203           H   tau( 203) = (   0.4978797   0.4434940   0.4124859  )
       204           H   tau( 204) = (   1.0021212   0.7806920   1.4422999  )
       205           H   tau( 205) = (   0.4978797   0.1685990   1.4422999  )
       206           H   tau( 206) = (   1.0021203   1.0555871   0.4124859  )
       207           H   tau( 207) = (   0.5021212   0.7806920   1.6471420  )
       208           H   tau( 208) = (  -0.0021203   0.4434940   0.6173280  )
       209           H   tau( 209) = (   0.1065181   0.2777979   1.5867702  )
       210           H   tau( 210) = (   0.6065181   0.3342951   0.4728577  )
       211           H   tau( 211) = (   0.8934828   0.8898910   1.5026717  )
       212           H   tau( 212) = (   0.6065181   0.2777979   1.5026717  )
       213           H   tau( 213) = (   0.8934819   0.9463881   0.4728577  )
       214           H   tau( 214) = (   0.3934828   0.8898910   1.5867702  )
       215           H   tau( 215) = (   0.1065181   0.3342951   0.5569563  )
       216           H   tau( 216) = (   0.2341983   0.2101244   1.4272336  )
       217           H   tau( 217) = (   0.7341983   0.4019686   0.6323943  )
       218           H   tau( 218) = (   0.7658017   0.8222175   1.6622083  )
       219           H   tau( 219) = (   0.7341983   0.2101244   1.6622083  )
       220           H   tau( 220) = (   0.7658017   1.0140616   0.6323943  )
       221           H   tau( 221) = (   0.2658017   0.8222175   1.4272336  )
       222           H   tau( 222) = (   0.2341983   0.4019686   0.3974197  )
       223           H   tau( 223) = (   0.5475459   0.2659020   0.9109368  )
       224           H   tau( 224) = (   0.0475459   0.3461910   1.1486911  )
       225           H   tau( 225) = (   0.4524541   0.8779950   0.1188771  )
       226           H   tau( 226) = (   0.0475459   0.2659020   0.1188771  )
       227           H   tau( 227) = (   0.4524541   0.9582840   1.1486911  )
       228           H   tau( 228) = (   0.9524541   0.8779950   0.9109368  )
       229           H   tau( 229) = (   0.5475459   0.3461910   1.9407508  )
       230           H   tau( 230) = (   0.4830497   0.1343504   1.0732341  )
       231           H   tau( 231) = (   0.9830497   0.4777426   0.9863938  )
       232           H   tau( 232) = (   0.5169503   0.7464434   2.0162078  )
       233           H   tau( 233) = (   0.9830497   0.1343504   2.0162078  )
       234           H   tau( 234) = (   0.5169503   1.0898357   0.9863938  )
       235           H   tau( 235) = (   0.0169503   0.7464434   1.0732341  )
       236           H   tau( 236) = (   0.4830497   0.4777426   0.0434201  )
       237           H   tau( 237) = (   0.2527889   0.5949621   1.0445036  )
       238           H   tau( 238) = (   0.7527889   0.0171309   1.0151243  )
       239           H   tau( 239) = (   0.7472111   1.2070552   2.0449383  )
       240           H   tau( 240) = (   0.7527889   0.5949621   2.0449383  )
       241           H   tau( 241) = (   0.7472111   0.6292239   1.0151243  )
       242           H   tau( 242) = (   0.2472111   1.2070552   1.0445036  )
       243           H   tau( 243) = (   0.2527889   0.0171309   0.0146896  )
       244           H   tau( 244) = (   0.2020421   0.9942849   1.5618295  )
       245           H   tau( 245) = (   0.7020421   0.8419942   0.4977984  )
       246           H   tau( 246) = (   0.7979579   0.3821919   1.5276123  )
       247           H   tau( 247) = (   0.7020421   0.9942849   1.5276123  )
       248           H   tau( 248) = (   0.7979579   0.2299012   0.4977984  )
       249           H   tau( 249) = (   0.2979579   0.3821919   1.5618295  )
       250           H   tau( 250) = (   0.2020421   0.8419942   0.5320156  )
       251           H   tau( 251) = (   0.0960612   1.1613568   1.6815384  )
       252           H   tau( 252) = (   0.5960612   0.6749222   0.3780895  )
       253           H   tau( 253) = (   0.9039388   0.5492638   1.4079034  )
       254           H   tau( 254) = (   0.5960612   1.1613568   1.4079034  )
       255           H   tau( 255) = (   0.9039388   0.0628292   0.3780895  )
       256           H   tau( 256) = (   0.4039388   0.5492638   1.6815384  )
       257           H   tau( 257) = (   0.0960612   0.6749222   0.6517245  )
       258           H   tau( 258) = (   0.2685979   0.4049672   1.1634111  )
       259           H   tau( 259) = (   0.7685979   0.2071258   0.8962168  )
       260           H   tau( 260) = (   0.7314021   1.0170602   1.9260307  )
       261           H   tau( 261) = (   0.7685979   0.4049672   1.9260307  )
       262           H   tau( 262) = (   0.7314021   0.8192189   0.8962168  )
       263           H   tau( 263) = (   0.2314021   1.0170602   1.1634111  )
       264           H   tau( 264) = (   0.2685979   0.2071258   0.1335972  )
       265           H   tau( 265) = (   0.2870140   0.2352153   1.2562092  )
       266           H   tau( 266) = (   0.7870140   0.3768777   0.8034187  )
       267           H   tau( 267) = (   0.7129860   0.8473084   1.8332327  )
       268           H   tau( 268) = (   0.7870140   0.2352153   1.8332327  )
       269           H   tau( 269) = (   0.7129860   0.9889707   0.8034187  )
       270           H   tau( 270) = (   0.2129860   0.8473084   1.2562092  )
       271           H   tau( 271) = (   0.2870140   0.3768777   0.2263953  )
       272           H   tau( 272) = (   0.5334757   0.4570903   0.7880973  )
       273           H   tau( 273) = (   0.0334757   0.1550028   1.2715306  )
       274           H   tau( 274) = (   0.4665243   1.0691833   0.2417166  )
       275           H   tau( 275) = (   0.0334757   0.4570903   0.2417166  )
       276           H   tau( 276) = (   0.4665243   0.7670958   1.2715306  )
       277           H   tau( 277) = (   0.9665243   1.0691833   0.7880973  )
       278           H   tau( 278) = (   0.5334757   0.1550028   1.8179113  )
       279           H   tau( 279) = (   0.2971672   0.8218328   0.8080353  )
       280           H   tau( 280) = (   0.7971672   1.0144462   1.2515926  )
       281           H   tau( 281) = (   0.7028328   0.2097398   0.2217787  )
       282           H   tau( 282) = (   0.7971672   0.8218328   0.2217787  )
       283           H   tau( 283) = (   0.7028328   0.4023532   1.2515926  )
       284           H   tau( 284) = (   0.2028328   0.2097398   0.8080353  )
       285           H   tau( 285) = (   0.2971672   1.0144462   1.8378492  )
       286           H   tau( 286) = (   0.3187313   0.7832911   0.9678604  )
       287           H   tau( 287) = (   0.8187313   1.0529880   1.0917675  )
       288           H   tau( 288) = (   0.6812687   0.1711980   0.0619536  )
       289           H   tau( 289) = (   0.8187313   0.7832911   0.0619536  )
       290           H   tau( 290) = (   0.6812687   0.4408950   1.0917675  )
       291           H   tau( 291) = (   0.1812687   0.1711980   0.9678604  )
       292           H   tau( 292) = (   0.3187313   1.0529880   1.9976743  )
       293           H   tau( 293) = (   0.4392214   0.7600332   0.6892557  )
       294           H   tau( 294) = (   0.9392214   1.0762459   1.3703722  )
       295           H   tau( 295) = (   0.5607786   0.1479402   0.3405582  )
       296           H   tau( 296) = (   0.9392214   0.7600332   0.3405582  )
       297           H   tau( 297) = (   0.5607786   0.4641529   1.3703722  )
       298           H   tau( 298) = (   0.0607786   0.1479402   0.6892557  )
       299           H   tau( 299) = (   0.4392214   1.0762459   1.7190697  )
       300           H   tau( 300) = (   0.1984085   0.7099097   0.8801112  )
       301           H   tau( 301) = (   0.6984085   1.1263693   1.1795167  )
       302           H   tau( 302) = (   0.8015915   0.0978167   0.1497027  )
       303           H   tau( 303) = (   0.6984085   0.7099097   0.1497027  )
       304           H   tau( 304) = (   0.8015915   0.5142763   1.1795167  )
       305           H   tau( 305) = (   0.3015915   0.0978167   0.8801112  )
       306           H   tau( 306) = (   0.1984085   1.1263693   1.9099252  )
       307           H   tau( 307) = (   0.3940563   1.0762104   1.3011088  )
       308           H   tau( 308) = (   0.8940563   0.7600687   0.7585191  )
       309           H   tau( 309) = (   0.6059437   0.4641173   1.7883330  )
       310           H   tau( 310) = (   0.8940563   1.0762104   1.7883330  )
       311           H   tau( 311) = (   0.6059437   0.1479757   0.7585191  )
       312           H   tau( 312) = (   0.1059437   0.4641173   1.3011088  )
       313           H   tau( 313) = (   0.3940563   0.7600687   0.2712949  )
       314           H   tau( 314) = (   0.4352070   0.5983187   0.6547825  )
       315           H   tau( 315) = (   0.9352070   0.0137743   1.4048454  )
       316           H   tau( 316) = (   0.5647930   1.2104117   0.3750314  )
       317           H   tau( 317) = (   0.9352070   0.5983187   0.3750314  )
       318           H   tau( 318) = (   0.5647930   0.6258673   1.4048454  )
       319           H   tau( 319) = (   0.0647930   1.2104117   0.6547825  )
       320           H   tau( 320) = (   0.4352070   0.0137743   1.6845965  )

     number of k points=    32
                       cart. coord. in units 2pi/alat
        k(    1) = (   0.0000000   0.0000000   0.0000000), wk =   0.0185185
        k(    2) = (   0.0000000   0.0000000   0.1618415), wk =   0.0370370
        k(    3) = (   0.0000000   0.1361449   0.0000000), wk =   0.0370370
        k(    4) = (   0.0000000   0.1361449   0.1618415), wk =   0.0740741
        k(    5) = (   0.0000000   0.2722898   0.0000000), wk =   0.0370370
        k(    6) = (   0.0000000   0.2722898   0.1618415), wk =   0.0740741
        k(    7) = (   0.0000000  -0.4084347   0.0000000), wk =   0.0185185
        k(    8) = (   0.0000000  -0.4084347   0.1618415), wk =   0.0370370
        k(    9) = (   0.1666667   0.0000000   0.0000000), wk =   0.0370370
        k(   10) = (   0.1666667   0.0000000   0.1618415), wk =   0.0740741
        k(   11) = (   0.1666667   0.1361449   0.0000000), wk =   0.0740741
        k(   12) = (   0.1666667   0.1361449   0.1618415), wk =   0.1481481
        k(   13) = (   0.1666667   0.2722898   0.0000000), wk =   0.0740741
        k(   14) = (   0.1666667   0.2722898   0.1618415), wk =   0.1481481
        k(   15) = (   0.1666667  -0.4084347   0.0000000), wk =   0.0370370
        k(   16) = (   0.1666667  -0.4084347   0.1618415), wk =   0.0740741
        k(   17) = (   0.3333333   0.0000000   0.0000000), wk =   0.0370370
        k(   18) = (   0.3333333   0.0000000   0.1618415), wk =   0.0740741
        k(   19) = (   0.3333333   0.1361449   0.0000000), wk =   0.0740741
        k(   20) = (   0.3333333   0.1361449   0.1618415), wk =   0.1481481
        k(   21) = (   0.3333333   0.2722898   0.0000000), wk =   0.0740741
        k(   22) = (   0.3333333   0.2722898   0.1618415), wk =   0.1481481
        k(   23) = (   0.3333333  -0.4084347   0.0000000), wk =   0.0370370
        k(   24) = (   0.3333333  -0.4084347   0.1618415), wk =   0.0740741
        k(   25) = (  -0.5000000   0.0000000   0.0000000), wk =   0.0185185
        k(   26) = (  -0.5000000   0.0000000   0.1618415), wk =   0.0370370
        k(   27) = (  -0.5000000   0.1361449   0.0000000), wk =   0.0370370
        k(   28) = (  -0.5000000   0.1361449   0.1618415), wk =   0.0740741
        k(   29) = (  -0.5000000   0.2722898   0.0000000), wk =   0.0370370
        k(   30) = (  -0.5000000   0.2722898   0.1618415), wk =   0.0740741
        k(   31) = (  -0.5000000  -0.4084347   0.0000000), wk =   0.0185185
        k(   32) = (  -0.5000000  -0.4084347   0.1618415), wk =   0.0370370

     Dense  grid:   469205 G-vectors     FFT dimensions: (  72,  90, 150)

     Estimated max dynamical RAM per process >   17704.84MB

     Initial potential from superposition of free atoms

     starting charge  849.36928, renormalised to  864.00000
     Starting wfc are  824 randomized atomic wfcs

     total cpu time spent up to now is     2840.7 secs

     Self-consistent Calculation

     iteration #  1     ecut=    30.00 Ry     beta=0.70
     Davidson diagonalization with overlap
     ethr =  1.00E-02,  avg # of iterations =  2.0

     total cpu time spent up to now is     8280.4 secs

     total energy              =   -2475.13952662 Ry
     Harris-Foulkes estimate   =   -2511.60170077 Ry
     estimated scf accuracy    <      56.67630331 Ry

     iteration #  2     ecut=    30.00 Ry     beta=0.70
     Davidson diagonalization with overlap
     ethr =  6.56E-03,  avg # of iterations =  3.0

     total cpu time spent up to now is    13770.4 secs

     total energy              =   -2481.77473598 Ry
     Harris-Foulkes estimate   =   -2496.87035029 Ry
     estimated scf accuracy    <      26.54916396 Ry

     iteration #  3     ecut=    30.00 Ry     beta=0.70
     Davidson diagonalization with overlap
     ethr =  3.07E-03,  avg # of iterations =  4.0

     total cpu time spent up to now is    19289.7 secs

     total energy              =   -2488.24999762 Ry
     Harris-Foulkes estimate   =   -2490.71011351 Ry
     estimated scf accuracy    <       4.71294346 Ry

     iteration #  4     ecut=    30.00 Ry     beta=0.70
     Davidson diagonalization with overlap
     ethr =  5.45E-04,  avg # of iterations =  4.0

     total cpu time spent up to now is    24734.3 secs

     total energy              =   -2489.32397672 Ry
     Harris-Foulkes estimate   =   -2489.74843374 Ry
     estimated scf accuracy    <       0.87762768 Ry

     iteration #  5     ecut=    30.00 Ry     beta=0.70
     Davidson diagonalization with overlap
     ethr =  1.02E-04,  avg # of iterations =  4.0

     total cpu time spent up to now is    29954.4 secs

     total energy              =   -2489.50514143 Ry
     Harris-Foulkes estimate   =   -2489.55566704 Ry
     estimated scf accuracy    <       0.11094042 Ry

     iteration #  6     ecut=    30.00 Ry     beta=0.70
     Davidson diagonalization with overlap
     ethr =  1.28E-05,  avg # of iterations =  5.0

     total cpu time spent up to now is    35270.3 secs

     total energy              =   -2489.53000142 Ry
     Harris-Foulkes estimate   =   -2489.53574119 Ry
     estimated scf accuracy    <       0.01332020 Ry

     iteration #  7     ecut=    30.00 Ry     beta=0.70
     Davidson diagonalization with overlap
     ethr =  1.54E-06,  avg # of iterations =  5.0

     total cpu time spent up to now is    40725.7 secs

     total energy              =   -2489.53261629 Ry
     Harris-Foulkes estimate   =   -2489.53462680 Ry
     estimated scf accuracy    <       0.00486332 Ry

     iteration #  8     ecut=    30.00 Ry     beta=0.70
     Davidson diagonalization with overlap
     ethr =  5.63E-07,  avg # of iterations =  4.4

     total cpu time spent up to now is    45725.9 secs

     total energy              =   -2489.53355494 Ry
     Harris-Foulkes estimate   =   -2489.53375479 Ry
     estimated scf accuracy    <       0.00044457 Ry

     iteration #  9     ecut=    30.00 Ry     beta=0.70
     Davidson diagonalization with overlap
     ethr =  5.15E-08,  avg # of iterations =  4.0

     total cpu time spent up to now is    51196.4 secs

     total energy              =   -2489.53366909 Ry
     Harris-Foulkes estimate   =   -2489.53371317 Ry
     estimated scf accuracy    <       0.00010338 Ry

     iteration # 10     ecut=    30.00 Ry     beta=0.70
     Davidson diagonalization with overlap
     ethr =  1.20E-08,  avg # of iterations =  4.0

     total cpu time spent up to now is    56239.7 secs

     total energy              =   -2489.53369020 Ry
     Harris-Foulkes estimate   =   -2489.53369477 Ry
     estimated scf accuracy    <       0.00000978 Ry

     iteration # 11     ecut=    30.00 Ry     beta=0.70
     Davidson diagonalization with overlap
     ethr =  1.13E-09,  avg # of iterations =  4.0

     total cpu time spent up to now is    61656.5 secs

     total energy              =   -2489.53369268 Ry
     Harris-Foulkes estimate   =   -2489.53369306 Ry
     estimated scf accuracy    <       0.00000102 Ry

     iteration # 12     ecut=    30.00 Ry     beta=0.70
     Davidson diagonalization with overlap
     ethr =  1.18E-10,  avg # of iterations =  4.0

     total cpu time spent up to now is    66950.4 secs

     total energy              =   -2489.53369291 Ry
     Harris-Foulkes estimate   =   -2489.53369300 Ry
     estimated scf accuracy    <       0.00000022 Ry

     iteration # 13     ecut=    30.00 Ry     beta=0.70
     Davidson diagonalization with overlap
     ethr =  2.59E-11,  avg # of iterations =  4.0

     total cpu time spent up to now is    72163.4 secs

     End of self-consistent calculation

          k = 0.0000 0.0000 0.0000 ( 58633 PWs)   bands (ev):

   -20.6300 -20.6297 -20.6293 -20.6290 -20.6281 -20.6279 -20.6275 -20.6273
   -19.5002 -19.5001 -19.4988 -19.4987 -19.4985 -19.4983 -19.4971 -19.4969
   -18.1928 -18.1927 -18.1912 -18.1911 -18.1795 -18.1794 -18.1782 -18.1780
   -15.5285 -15.5248 -15.5244 -15.5227 -15.5128 -15.5081 -15.5069 -15.5061
   -15.4078 -15.4030 -15.3906 -15.3880 -15.3828 -15.3815 -15.3788 -15.3784
   -13.9517 -13.9480 -13.9453 -13.9445 -13.9440 -13.9369 -13.9258 -13.9206
   -13.3237 -13.3213 -13.3206 -13.3075 -13.2940 -13.2708 -13.2630 -13.2610
   -13.0835 -13.0628 -13.0441 -13.0358 -13.0182 -13.0062 -12.9932 -12.9875
   -12.8518 -12.8497 -12.8346 -12.8337 -12.8128 -12.8117 -12.7835 -12.7822
   -12.4324 -12.4120 -12.4060 -12.4034 -12.3970 -12.3927 -12.3827 -12.3702
   -12.0219 -12.0193 -12.0193 -12.0167 -11.9886 -11.9863 -11.9628 -11.9612
   -11.0747 -11.0574 -11.0552 -11.0546 -11.0419 -11.0395 -11.0232 -10.9998
   -10.8861 -10.8704 -10.8588 -10.8546 -10.8529 -10.8444 -10.8393 -10.8087
   -10.1035 -10.1011 -10.0967 -10.0700 -10.0656 -10.0627 -10.0611 -10.0343
    -9.4954  -9.4917  -9.4814  -9.4754  -9.3833  -9.3828  -9.3684  -9.3550
    -9.1840  -9.1826  -9.1159  -9.1147  -9.1146  -9.1127  -9.0783  -9.0772
    -8.6806  -8.6719  -8.6502  -8.6070  -8.5920  -8.5707  -8.5236  -8.5064
    -8.3617  -8.3308  -8.2535  -8.2328  -8.1754  -8.1617  -8.1539  -8.1510
    -7.6044  -7.5891  -7.5756  -7.5430  -7.5088  -7.5010  -7.4894  -7.4721
    -7.2086  -7.1982  -7.1741  -7.1613  -7.1557  -7.1529  -7.0843  -7.0745
    -6.8149  -6.7972  -6.7899  -6.7799  -6.7798  -6.7411  -6.7401  -6.7286
    -6.6080  -6.6049  -6.6009  -6.5973  -6.5950  -6.5944  -6.5709  -6.5644
    -6.1819  -6.1618  -6.1281  -6.1125  -6.0862  -6.0851  -6.0824  -6.0792
    -6.0791  -6.0747  -6.0689  -6.0308  -5.9938  -5.9884  -5.9801  -5.9693
    -5.7049  -5.6937  -5.6881  -5.6849  -5.5897  -5.5870  -5.5724  -5.5656
    -5.5553  -5.5516  -5.5486  -5.5451  -5.4372  -5.4001  -5.3824  -5.3663
    -5.2859  -5.2679  -5.2601  -5.2512  -5.1366  -5.1243  -5.1136  -5.1038
    -5.0953  -5.0769  -5.0635  -5.0596  -5.0347  -5.0166  -4.9989  -4.9754
    -4.9533  -4.9450  -4.9230  -4.8299  -4.8256  -4.8201  -4.8152  -4.6754
    -4.6698  -4.6554  -4.6544  -4.6279  -4.6221  -4.6111  -4.5974  -4.5909
    -4.5842  -4.5748  -4.5734  -4.5656  -4.5518  -4.5442  -4.5263  -4.5152
    -4.4997  -4.4497  -4.4406  -4.4186  -4.3821  -4.3769  -4.3635  -4.2868
    -4.2850  -4.2825  -4.2749  -4.2726  -4.2437  -4.2399  -4.2375  -4.2334
    -4.2304  -4.2026  -4.1875  -4.1790  -4.1311  -4.1258  -4.0979  -4.0772
    -3.9847  -3.9679  -3.9674  -3.9624  -3.9620  -3.9565  -3.9539  -3.9508
    -3.9502  -3.9224  -3.9029  -3.8645  -3.8497  -3.8475  -3.8396  -3.8391
    -3.8339  -3.8268  -3.8087  -3.7977  -3.7819  -3.7682  -3.7666  -3.7152
    -3.6465  -3.6016  -3.5694  -3.5423  -3.5354  -3.5257  -3.4957  -3.4893
    -3.4155  -3.4100  -3.3833  -3.3812  -3.3762  -3.3657  -3.3516  -3.3186
    -3.3104  -3.2982  -3.2982  -3.2796  -3.2745  -3.2645  -3.2574  -3.2448
    -3.2056  -3.2040  -3.1959  -3.1939  -3.1916  -3.1702  -3.1648  -3.1576
    -3.1408  -3.1255  -3.1204  -3.1069  -3.0902  -3.0873  -3.0635  -3.0603
    -3.0460  -3.0389  -2.9615  -2.9427  -2.9158  -2.8939  -2.8745  -2.8697
    -2.8065  -2.8017  -2.7330  -2.7297  -2.7212  -2.6906  -2.6784  -2.6780
    -2.5470  -2.5371  -2.4780  -2.4746  -2.2365  -2.2160  -2.2135  -2.1680
    -2.1605  -2.1340  -2.0814  -2.0708  -2.0497  -2.0495  -2.0232  -2.0178
    -2.0124  -2.0039  -1.9970  -1.9896  -1.9859  -1.9747  -1.9746  -1.9665
    -1.9322  -1.9268  -1.9157  -1.8889  -1.8631  -1.8581  -1.8015  -1.7930
    -0.7817  -0.7732  -0.7622  -0.7616  -0.7562  -0.7154  -0.6928  -0.6571
    -0.6551  -0.6506  -0.6427  -0.6239  -0.5846  -0.5828  -0.5350  -0.5258
    -0.5249  -0.5225  -0.4853  -0.4835  -0.4604  -0.4510  -0.4505  -0.4501
    -0.2478  -0.2182  -0.2152  -0.1985  -0.1843  -0.1660  -0.1655  -0.1321
     0.3245   0.3362   0.3505   0.3563   0.3855   0.3883   0.3933   0.4223
     1.0409   1.0420   1.0452   1.0635   1.0749   1.0862   1.1740   1.1926

          k = 0.0000 0.0000 0.1618 ( 58649 PWs)   bands (ev):

   -20.6299 -20.6298 -20.6292 -20.6291 -20.6280 -20.6279 -20.6274 -20.6273
   -19.5002 -19.5001 -19.4988 -19.4987 -19.4984 -19.4983 -19.4971 -19.4970
   -18.1928 -18.1927 -18.1912 -18.1911 -18.1795 -18.1794 -18.1781 -18.1781
   -15.5272 -15.5248 -15.5246 -15.5243 -15.5110 -15.5077 -15.5076 -15.5070
   -15.4066 -15.4042 -15.3900 -15.3887 -15.3818 -15.3807 -15.3798 -15.3792
   -13.9514 -13.9500 -13.9469 -13.9462 -13.9373 -13.9318 -13.9293 -13.9241
   -13.3242 -13.3236 -13.3177 -13.3113 -13.2840 -13.2683 -13.2680 -13.2644
   -13.0786 -13.0683 -13.0419 -13.0377 -13.0155 -13.0096 -12.9918 -12.9889
   -12.8512 -12.8502 -12.8344 -12.8339 -12.8125 -12.8120 -12.7832 -12.7825
   -12.4250 -12.4105 -12.4082 -12.4007 -12.4002 -12.3885 -12.3870 -12.3758
   -12.0212 -12.0199 -12.0187 -12.0174 -11.9880 -11.9869 -11.9624 -11.9616
   -11.0733 -11.0673 -11.0500 -11.0462 -11.0422 -11.0344 -11.0265 -11.0063
   -10.8846 -10.8766 -10.8558 -10.8518 -10.8509 -10.8484 -10.8313 -10.8162
   -10.1059 -10.1033 -10.0850 -10.0713 -10.0694 -10.0682 -10.0518 -10.0393
    -9.4933  -9.4865  -9.4861  -9.4786  -9.3842  -9.3842  -9.3639  -9.3574
    -9.1836  -9.1830  -9.1157  -9.1152  -9.1140  -9.1132  -9.0779  -9.0774
    -8.6833  -8.6772  -8.6262  -8.6038  -8.5964  -8.5883  -8.5185  -8.5101
    -8.3538  -8.3384  -8.2484  -8.2381  -8.1692  -8.1590  -8.1585  -8.1537
    -7.6007  -7.5931  -7.5690  -7.5533  -7.5067  -7.5028  -7.4830  -7.4749
    -7.2060  -7.2008  -7.1690  -7.1601  -7.1582  -7.1571  -7.0818  -7.0770
    -6.8104  -6.8015  -6.7875  -6.7825  -6.7716  -6.7530  -6.7363  -6.7298
    -6.6073  -6.6058  -6.6000  -6.5982  -6.5946  -6.5943  -6.5688  -6.5656
    -6.1797  -6.1706  -6.1197  -6.1074  -6.0883  -6.0859  -6.0840  -6.0816
    -6.0773  -6.0718  -6.0615  -6.0413  -5.9922  -5.9849  -5.9832  -5.9740
    -5.7026  -5.6970  -5.6876  -5.6860  -5.5896  -5.5885  -5.5665  -5.5613
    -5.5566  -5.5561  -5.5469  -5.5453  -5.4296  -5.4126  -5.3749  -5.3683
    -5.2925  -5.2877  -5.2426  -5.2425  -5.1320  -5.1239  -5.1116  -5.1066
    -5.0914  -5.0846  -5.0752  -5.0705  -5.0155  -5.0115  -4.9880  -4.9711
    -4.9509  -4.9400  -4.9344  -4.8920  -4.8284  -4.8207  -4.7481  -4.6896
    -4.6581  -4.6500  -4.6455  -4.6374  -4.6339  -4.6292  -4.6040  -4.5932
    -4.5920  -4.5833  -4.5572  -4.5514  -4.5423  -4.5335  -4.5282  -4.5123
    -4.5026  -4.4764  -4.4364  -4.4333  -4.3629  -4.3608  -4.3458  -4.2992
    -4.2926  -4.2918  -4.2751  -4.2578  -4.2483  -4.2476  -4.2442  -4.2293
    -4.2284  -4.2066  -4.1956  -4.1853  -4.1147  -4.1139  -4.0994  -4.0881
    -3.9848  -3.9752  -3.9649  -3.9629  -3.9597  -3.9563  -3.9509  -3.9503
    -3.9461  -3.9308  -3.8868  -3.8613  -3.8498  -3.8439  -3.8424  -3.8421
    -3.8335  -3.8268  -3.8098  -3.8033  -3.8015  -3.7759  -3.7459  -3.7240
    -3.6212  -3.6011  -3.5706  -3.5491  -3.5418  -3.5384  -3.4952  -3.4926
    -3.4112  -3.4106  -3.3806  -3.3789  -3.3771  -3.3718  -3.3305  -3.3086
    -3.3048  -3.3013  -3.2994  -3.2864  -3.2724  -3.2704  -3.2651  -3.2566
    -3.2076  -3.2017  -3.2012  -3.1829  -3.1815  -3.1718  -3.1688  -3.1490
    -3.1470  -3.1317  -3.1156  -3.1080  -3.0845  -3.0754  -3.0702  -3.0588
    -3.0497  -3.0493  -2.9561  -2.9469  -2.9107  -2.8997  -2.8732  -2.8708
    -2.8056  -2.8032  -2.7322  -2.7306  -2.7136  -2.6983  -2.6783  -2.6782
    -2.5452  -2.5402  -2.4763  -2.4746  -2.2324  -2.2217  -2.2085  -2.1885
    -2.1426  -2.1064  -2.1025  -2.0603  -2.0481  -2.0459  -2.0393  -2.0224
    -2.0212  -2.0169  -2.0015  -1.9983  -1.9799  -1.9755  -1.9621  -1.9474
    -1.9415  -1.9248  -1.9090  -1.8933  -1.8609  -1.8584  -1.7997  -1.7954
    -0.7806  -0.7753  -0.7702  -0.7623  -0.7384  -0.7096  -0.7016  -0.6754
    -0.6502  -0.6501  -0.6348  -0.6265  -0.5846  -0.5837  -0.5332  -0.5289
    -0.5244  -0.5233  -0.4784  -0.4736  -0.4660  -0.4580  -0.4503  -0.4499
    -0.2437  -0.2325  -0.2006  -0.1942  -0.1886  -0.1822  -0.1492  -0.1368
     0.3289   0.3382   0.3426   0.3450   0.3916   0.3937   0.4007   0.4169
     1.0379   1.0483   1.0515   1.0644   1.0653   1.0821   1.1794   1.1888

          k = 0.0000 0.1361 0.0000 ( 58649 PWs)   bands (ev):

   -20.6298 -20.6296 -20.6292 -20.6289 -20.6282 -20.6280 -20.6276 -20.6274
   -19.5001 -19.4999 -19.4987 -19.4986 -19.4986 -19.4984 -19.4972 -19.4970
   -18.1927 -18.1926 -18.1913 -18.1912 -18.1794 -18.1793 -18.1783 -18.1781
   -15.5283 -15.5253 -15.5239 -15.5227 -15.5124 -15.5085 -15.5067 -15.5061
   -15.4070 -15.4025 -15.3924 -15.3902 -15.3816 -15.3812 -15.3783 -15.3782
   -13.9523 -13.9486 -13.9482 -13.9454 -13.9407 -13.9363 -13.9249 -13.9206
   -13.3239 -13.3211 -13.3201 -13.3083 -13.2922 -13.2705 -13.2651 -13.2617
   -13.0790 -13.0586 -13.0407 -13.0323 -13.0226 -13.0094 -12.9973 -12.9899
   -12.8514 -12.8496 -12.8371 -12.8363 -12.8093 -12.8085 -12.7846 -12.7836
   -12.4303 -12.4118 -12.4076 -12.4004 -12.4002 -12.3910 -12.3832 -12.3724
   -12.0220 -12.0201 -12.0194 -12.0174 -11.9865 -11.9842 -11.9644 -11.9627
   -11.0728 -11.0568 -11.0568 -11.0539 -11.0403 -11.0376 -11.0249 -11.0016
   -10.8842 -10.8703 -10.8608 -10.8603 -10.8471 -10.8424 -10.8413 -10.8099
   -10.1022 -10.0973 -10.0942 -10.0727 -10.0671 -10.0634 -10.0603 -10.0358
    -9.4864  -9.4837  -9.4744  -9.4669  -9.3898  -9.3894  -9.3757  -9.3622
    -9.1808  -9.1793  -9.1207  -9.1190  -9.1133  -9.1123  -9.0806  -9.0798
    -8.6761  -8.6716  -8.6365  -8.6190  -8.5942  -8.5707  -8.5291  -8.5178
    -8.3570  -8.3337  -8.2608  -8.2529  -8.1638  -8.1519  -8.1505  -8.1471
    -7.6062  -7.5909  -7.5811  -7.5525  -7.5052  -7.4942  -7.4880  -7.4669
    -7.2051  -7.1954  -7.1674  -7.1632  -7.1577  -7.1469  -7.0895  -7.0791
    -6.8090  -6.7959  -6.7893  -6.7809  -6.7742  -6.7529  -6.7343  -6.7335
    -6.6092  -6.6018  -6.6012  -6.5969  -6.5945  -6.5934  -6.5728  -6.5671
    -6.1680  -6.1518  -6.1174  -6.1029  -6.0998  -6.0942  -6.0920  -6.0736
    -6.0717  -6.0603  -6.0597  -6.0317  -5.9990  -5.9987  -5.9839  -5.9724
    -5.7047  -5.6938  -5.6914  -5.6862  -5.5832  -5.5781  -5.5721  -5.5545
    -5.5534  -5.5520  -5.5379  -5.5330  -5.4380  -5.4164  -5.3875  -5.3788
    -5.2788  -5.2564  -5.2517  -5.2395  -5.1454  -5.1444  -5.1184  -5.1116
    -5.1101  -5.0945  -5.0585  -5.0506  -5.0278  -5.0161  -5.0000  -4.9812
    -4.9760  -4.9576  -4.9025  -4.8259  -4.8203  -4.8194  -4.8047  -4.6878
    -4.6670  -4.6559  -4.6490  -4.6193  -4.6151  -4.6117  -4.6100  -4.6077
    -4.5962  -4.5870  -4.5855  -4.5650  -4.5593  -4.5380  -4.5210  -4.5098
    -4.5054  -4.4522  -4.4304  -4.4126  -4.3826  -4.3822  -4.3665  -4.3104
    -4.2967  -4.2937  -4.2803  -4.2750  -4.2493  -4.2413  -4.2331  -4.2248
    -4.2172  -4.2136  -4.1912  -4.1719  -4.1239  -4.1233  -4.0953  -4.0765
    -3.9837  -3.9698  -3.9665  -3.9663  -3.9629  -3.9587  -3.9541  -3.9513
    -3.9449  -3.9082  -3.8935  -3.8649  -3.8517  -3.8480  -3.8356  -3.8263
    -3.8233  -3.8199  -3.8046  -3.7903  -3.7760  -3.7707  -3.7632  -3.7280
    -3.6345  -3.6026  -3.5540  -3.5499  -3.5453  -3.5283  -3.4958  -3.4952
    -3.4317  -3.4252  -3.3947  -3.3763  -3.3751  -3.3727  -3.3502  -3.3202
    -3.3136  -3.3083  -3.2990  -3.2741  -3.2687  -3.2622  -3.2496  -3.2417
    -3.2061  -3.2035  -3.1915  -3.1905  -3.1893  -3.1676  -3.1578  -3.1523
    -3.1442  -3.1258  -3.1237  -3.1120  -3.1068  -3.0927  -3.0694  -3.0544
    -3.0368  -3.0218  -2.9580  -2.9352  -2.9252  -2.8996  -2.8807  -2.8766
    -2.8055  -2.7938  -2.7403  -2.7351  -2.7227  -2.7082  -2.6927  -2.6846
    -2.4976  -2.4908  -2.4382  -2.4368  -2.2484  -2.2200  -2.2082  -2.1667
    -2.1602  -2.1295  -2.0836  -2.0728  -2.0704  -2.0533  -2.0502  -2.0361
    -2.0280  -2.0170  -1.9960  -1.9921  -1.9909  -1.9909  -1.9549  -1.9381
    -1.9312  -1.9312  -1.9193  -1.8961  -1.8614  -1.8556  -1.8042  -1.7957
    -0.7822  -0.7750  -0.7607  -0.7605  -0.7564  -0.7223  -0.6937  -0.6683
    -0.6622  -0.6528  -0.6401  -0.6305  -0.5716  -0.5695  -0.5306  -0.5250
    -0.5226  -0.5174  -0.4875  -0.4781  -0.4579  -0.4573  -0.4501  -0.4490
    -0.2447  -0.2147  -0.2124  -0.2021  -0.1812  -0.1699  -0.1691  -0.1361
     0.3259   0.3369   0.3483   0.3546   0.3856   0.3905   0.3926   0.4197
     1.0335   1.0379   1.0406   1.0709   1.0816   1.0939   1.1681   1.1853

          k = 0.0000 0.1361 0.1618 ( 58689 PWs)   bands (ev):

   -20.6298 -20.6297 -20.6291 -20.6290 -20.6282 -20.6280 -20.6276 -20.6274
   -19.5001 -19.5000 -19.4987 -19.4986 -19.4986 -19.4984 -19.4972 -19.4971
   -18.1927 -18.1926 -18.1913 -18.1912 -18.1794 -18.1793 -18.1782 -18.1782
   -15.5271 -15.5251 -15.5244 -15.5243 -15.5108 -15.5079 -15.5076 -15.5070
   -15.4058 -15.4036 -15.3918 -15.3907 -15.3808 -15.3804 -15.3791 -15.3789
   -13.9519 -13.9502 -13.9485 -13.9469 -13.9359 -13.9315 -13.9283 -13.9240
   -13.3240 -13.3223 -13.3182 -13.3119 -13.2831 -13.2687 -13.2682 -13.2661
   -13.0742 -13.0641 -13.0384 -13.0343 -13.0197 -13.0133 -12.9952 -12.9916
   -12.8509 -12.8500 -12.8369 -12.8365 -12.8091 -12.8087 -12.7843 -12.7838
   -12.4231 -12.4096 -12.4081 -12.4014 -12.3995 -12.3888 -12.3881 -12.3779
   -12.0214 -12.0201 -12.0194 -12.0181 -11.9859 -11.9847 -11.9640 -11.9631
   -11.0709 -11.0646 -11.0513 -11.0461 -11.0395 -11.0358 -11.0284 -11.0091
   -10.8824 -10.8755 -10.8578 -10.8534 -10.8509 -10.8453 -10.8330 -10.8175
   -10.1036 -10.1006 -10.0824 -10.0736 -10.0703 -10.0670 -10.0537 -10.0410
    -9.4850  -9.4791  -9.4777  -9.4702  -9.3908  -9.3907  -9.3711  -9.3647
    -9.1804  -9.1797  -9.1203  -9.1195  -9.1130  -9.1125  -9.0803  -9.0799
    -8.6782  -8.6721  -8.6196  -8.6134  -8.6011  -8.5867  -8.5256  -8.5200
    -8.3506  -8.3389  -8.2585  -8.2545  -8.1605  -8.1545  -8.1500  -8.1483
    -7.6026  -7.5949  -7.5753  -7.5613  -7.5022  -7.4967  -7.4811  -7.4709
    -7.2027  -7.1979  -7.1629  -7.1614  -7.1590  -7.1520  -7.0869  -7.0817
    -6.8056  -6.7990  -6.7858  -6.7783  -6.7735  -6.7585  -6.7370  -6.7332
    -6.6075  -6.6037  -6.6006  -6.5982  -6.5937  -6.5932  -6.5709  -6.5682
    -6.1668  -6.1592  -6.1127  -6.1002  -6.0976  -6.0937  -6.0875  -6.0760
    -6.0685  -6.0625  -6.0565  -6.0413  -5.9972  -5.9935  -5.9866  -5.9783
    -5.7024  -5.6970  -5.6903  -5.6877  -5.5821  -5.5797  -5.5664  -5.5564
    -5.5540  -5.5535  -5.5352  -5.5328  -5.4327  -5.4221  -5.3847  -5.3805
    -5.2842  -5.2785  -5.2316  -5.2312  -5.1422  -5.1346  -5.1204  -5.1167
    -5.1125  -5.1064  -5.0598  -5.0581  -5.0224  -5.0148  -4.9984  -4.9875
    -4.9473  -4.9431  -4.9159  -4.8877  -4.8221  -4.8120  -4.7531  -4.7034
    -4.6551  -4.6538  -4.6443  -4.6417  -4.6266  -4.6217  -4.6025  -4.5922
    -4.5876  -4.5865  -4.5770  -4.5584  -4.5563  -4.5466  -4.5313  -4.5272
    -4.4896  -4.4678  -4.4273  -4.4226  -4.3744  -4.3649  -4.3529  -4.3120
    -4.3086  -4.2986  -4.2758  -4.2713  -4.2546  -4.2374  -4.2345  -4.2295
    -4.2189  -4.2068  -4.2010  -4.1805  -4.1140  -4.1095  -4.1000  -4.0862
    -3.9834  -3.9750  -3.9648  -3.9636  -3.9604  -3.9586  -3.9529  -3.9515
    -3.9382  -3.9201  -3.8793  -3.8580  -3.8509  -3.8412  -3.8358  -3.8334
    -3.8286  -3.8127  -3.8096  -3.7999  -3.7959  -3.7778  -3.7468  -3.7320
    -3.6129  -3.5965  -3.5579  -3.5533  -3.5492  -3.5478  -3.4953  -3.4934
    -3.4268  -3.4225  -3.3916  -3.3818  -3.3754  -3.3728  -3.3407  -3.3262
    -3.3117  -3.3062  -3.2907  -3.2777  -3.2630  -3.2627  -3.2545  -3.2519
    -3.2042  -3.2002  -3.1992  -3.1814  -3.1801  -3.1740  -3.1605  -3.1553
    -3.1471  -3.1313  -3.1170  -3.1098  -3.0974  -3.0857  -3.0743  -3.0721
    -3.0291  -3.0235  -2.9525  -2.9411  -2.9201  -2.9072  -2.8794  -2.8773
    -2.8025  -2.7967  -2.7324  -2.7320  -2.7258  -2.7168  -2.6901  -2.6863
    -2.4962  -2.4924  -2.4383  -2.4364  -2.2409  -2.2222  -2.2098  -2.1845
    -2.1477  -2.1120  -2.0990  -2.0619  -2.0566  -2.0545  -2.0466  -2.0465
    -2.0340  -2.0287  -2.0194  -2.0137  -1.9658  -1.9640  -1.9559  -1.9429
    -1.9384  -1.9268  -1.9134  -1.8998  -1.8594  -1.8563  -1.8025  -1.7982
    -0.7807  -0.7745  -0.7718  -0.7634  -0.7375  -0.7097  -0.7083  -0.6839
    -0.6539  -0.6452  -0.6448  -0.6347  -0.5709  -0.5699  -0.5289  -0.5252
    -0.5226  -0.5189  -0.4779  -0.4729  -0.4630  -0.4628  -0.4501  -0.4496
    -0.2406  -0.2294  -0.1978  -0.1975  -0.1859  -0.1856  -0.1530  -0.1407
     0.3299   0.3384   0.3424   0.3438   0.3929   0.3936   0.3995   0.4147
     1.0334   1.0418   1.0451   1.0616   1.0820   1.0916   1.1731   1.1818

          k = 0.0000 0.2723 0.0000 ( 58680 PWs)   bands (ev):

   -20.6295 -20.6292 -20.6289 -20.6286 -20.6286 -20.6283 -20.6280 -20.6277
   -19.4998 -19.4996 -19.4989 -19.4987 -19.4984 -19.4982 -19.4976 -19.4974
   -18.1924 -18.1923 -18.1916 -18.1915 -18.1792 -18.1791 -18.1785 -18.1784
   -15.5278 -15.5261 -15.5233 -15.5227 -15.5115 -15.5093 -15.5065 -15.5061
   -15.4047 -15.4008 -15.3965 -15.3941 -15.3805 -15.3803 -15.3777 -15.3775
   -13.9532 -13.9516 -13.9485 -13.9470 -13.9376 -13.9356 -13.9231 -13.9207
   -13.3239 -13.3222 -13.3174 -13.3106 -13.2872 -13.2727 -13.2676 -13.2634
   -13.0669 -13.0474 -13.0345 -13.0315 -13.0230 -13.0189 -13.0069 -12.9979
   -12.8498 -12.8487 -12.8419 -12.8413 -12.8020 -12.8016 -12.7881 -12.7876
   -12.4246 -12.4114 -12.4093 -12.4076 -12.3940 -12.3887 -12.3845 -12.3783
   -12.0223 -12.0215 -12.0195 -12.0186 -11.9813 -11.9789 -11.9688 -11.9668
   -11.0692 -11.0614 -11.0536 -11.0486 -11.0432 -11.0305 -11.0276 -11.0072
   -10.8790 -10.8687 -10.8658 -10.8599 -10.8544 -10.8468 -10.8303 -10.8137
   -10.0968 -10.0892 -10.0875 -10.0796 -10.0720 -10.0697 -10.0543 -10.0401
    -9.4622  -9.4619  -9.4557  -9.4438  -9.4079  -9.4075  -9.3967  -9.3829
    -9.1711  -9.1694  -9.1357  -9.1353  -9.1061  -9.1057  -9.0871  -9.0868
    -8.6769  -8.6468  -8.6447  -8.6085  -8.5998  -8.5716  -8.5472  -8.5457
    -8.3405  -8.3326  -8.2875  -8.2824  -8.1486  -8.1483  -8.1417  -8.1296
    -7.6078  -7.5930  -7.5916  -7.5705  -7.4972  -7.4870  -7.4791  -7.4615
    -7.1953  -7.1872  -7.1702  -7.1642  -7.1491  -7.1311  -7.1043  -7.0920
    -6.7961  -6.7893  -6.7863  -6.7840  -6.7668  -6.7599  -6.7496  -6.7343
    -6.6088  -6.6040  -6.5959  -6.5941  -6.5940  -6.5901  -6.5780  -6.5747
    -6.1352  -6.1325  -6.1123  -6.1071  -6.1033  -6.0915  -6.0771  -6.0679
    -6.0565  -6.0546  -6.0365  -6.0298  -6.0252  -6.0158  -5.9952  -5.9849
    -5.7049  -5.6985  -5.6941  -5.6895  -5.5765  -5.5719  -5.5541  -5.5529
    -5.5464  -5.5186  -5.5107  -5.4912  -5.4552  -5.4459  -5.4150  -5.4059
    -5.2551  -5.2416  -5.2105  -5.2067  -5.1783  -5.1683  -5.1602  -5.1432
    -5.1148  -5.0998  -5.0717  -5.0578  -5.0366  -5.0278  -5.0122  -5.0043
    -4.9707  -4.9494  -4.8819  -4.8373  -4.8110  -4.8080  -4.7857  -4.7218
    -4.6593  -4.6566  -4.6461  -4.6319  -4.6274  -4.6234  -4.6161  -4.6069
    -4.6044  -4.5900  -4.5761  -4.5647  -4.5546  -4.5314  -4.5268  -4.5207
    -4.5106  -4.4549  -4.4525  -4.4094  -4.3936  -4.3809  -4.3698  -4.3191
    -4.3153  -4.2960  -4.2912  -4.2816  -4.2585  -4.2451  -4.2362  -4.2304
    -4.2112  -4.2006  -4.1879  -4.1729  -4.1131  -4.1101  -4.0937  -4.0785
    -3.9806  -3.9693  -3.9676  -3.9670  -3.9642  -3.9614  -3.9600  -3.9554
    -3.9283  -3.8872  -3.8726  -3.8567  -3.8479  -3.8474  -3.8269  -3.8268
    -3.8173  -3.8002  -3.7790  -3.7783  -3.7722  -3.7719  -3.7647  -3.7488
    -3.6081  -3.5999  -3.5733  -3.5705  -3.5441  -3.5257  -3.5210  -3.4958
    -3.4358  -3.4241  -3.3979  -3.3759  -3.3698  -3.3675  -3.3664  -3.3362
    -3.3326  -3.3322  -3.3129  -3.2803  -3.2499  -3.2472  -3.2359  -3.2349
    -3.2020  -3.1933  -3.1857  -3.1814  -3.1783  -3.1659  -3.1589  -3.1553
    -3.1453  -3.1350  -3.1287  -3.1146  -3.1082  -3.1007  -3.0815  -3.0701
    -3.0111  -2.9784  -2.9484  -2.9452  -2.9241  -2.9146  -2.8971  -2.8967
    -2.7991  -2.7776  -2.7676  -2.7364  -2.7336  -2.7127  -2.7125  -2.6958
    -2.3961  -2.3882  -2.3585  -2.3440  -2.2739  -2.2128  -2.2101  -2.1942
    -2.1496  -2.1358  -2.1197  -2.1139  -2.0925  -2.0809  -2.0709  -2.0680
    -2.0591  -2.0300  -1.9995  -1.9976  -1.9917  -1.9903  -1.9386  -1.9364
    -1.9288  -1.9265  -1.9201  -1.9110  -1.8477  -1.8453  -1.8130  -1.8057
    -0.7834  -0.7792  -0.7590  -0.7569  -0.7568  -0.7374  -0.6941  -0.6809
    -0.6707  -0.6671  -0.6349  -0.6342  -0.5483  -0.5474  -0.5251  -0.5205
    -0.5201  -0.5023  -0.4971  -0.4662  -0.4658  -0.4540  -0.4522  -0.4520
    -0.2361  -0.2116  -0.2053  -0.2043  -0.1798  -0.1790  -0.1726  -0.1465
     0.3301   0.3397   0.3428   0.3501   0.3863   0.3907   0.3966   0.4131
     1.0245   1.0308   1.0417   1.0608   1.1096   1.1114   1.1526   1.1657

          k = 0.0000 0.2723 0.1618 ( 58638 PWs)   bands (ev):

   -20.6294 -20.6293 -20.6288 -20.6287 -20.6285 -20.6284 -20.6279 -20.6278
   -19.4998 -19.4997 -19.4989 -19.4988 -19.4984 -19.4983 -19.4975 -19.4974
   -18.1924 -18.1923 -18.1916 -18.1915 -18.1792 -18.1791 -18.1785 -18.1784
   -15.5266 -15.5255 -15.5241 -15.5241 -15.5101 -15.5085 -15.5074 -15.5071
   -15.4036 -15.4017 -15.3958 -15.3946 -15.3798 -15.3796 -15.3784 -15.3782
   -13.9525 -13.9509 -13.9504 -13.9487 -13.9335 -13.9312 -13.9264 -13.9240
   -13.3228 -13.3196 -13.3194 -13.3137 -13.2804 -13.2712 -13.2687 -13.2686
   -13.0624 -13.0528 -13.0311 -13.0291 -13.0249 -13.0235 -13.0043 -12.9999
   -12.8495 -12.8489 -12.8417 -12.8414 -12.8019 -12.8017 -12.7880 -12.7877
   -12.4180 -12.4080 -12.4078 -12.4046 -12.3966 -12.3899 -12.3895 -12.3835
   -12.0217 -12.0208 -12.0202 -12.0193 -11.9806 -11.9794 -11.9682 -11.9672
   -11.0655 -11.0572 -11.0548 -11.0441 -11.0402 -11.0332 -11.0331 -11.0160
   -10.8768 -10.8718 -10.8631 -10.8573 -10.8509 -10.8380 -10.8366 -10.8216
   -10.0973 -10.0937 -10.0800 -10.0762 -10.0756 -10.0607 -10.0591 -10.0457
    -9.4631  -9.4593  -9.4546  -9.4471  -9.4091  -9.4086  -9.3921  -9.3855
    -9.1706  -9.1698  -9.1356  -9.1354  -9.1060  -9.1058  -9.0870  -9.0869
    -8.6692  -8.6537  -8.6349  -8.6130  -8.6005  -8.5816  -8.5451  -8.5445
    -8.3377  -8.3337  -8.2861  -8.2835  -8.1467  -8.1439  -8.1434  -8.1344
    -7.6042  -7.5962  -7.5884  -7.5774  -7.4922  -7.4832  -7.4794  -7.4669
    -7.1932  -7.1892  -7.1687  -7.1657  -7.1447  -7.1357  -7.1013  -7.0951
    -6.7956  -6.7925  -6.7791  -6.7781  -6.7701  -6.7658  -6.7470  -6.7391
    -6.6062  -6.6020  -6.6001  -6.5979  -6.5906  -6.5897  -6.5767  -6.5751
    -6.1380  -6.1353  -6.1113  -6.1087  -6.1000  -6.0930  -6.0652  -6.0631
    -6.0591  -6.0535  -6.0415  -6.0382  -6.0159  -6.0131  -5.9982  -5.9916
    -5.7025  -5.6971  -5.6965  -5.6921  -5.5722  -5.5665  -5.5624  -5.5571
    -5.5391  -5.5284  -5.5006  -5.4928  -5.4535  -5.4490  -5.4112  -5.4069
    -5.2585  -5.2534  -5.2005  -5.2001  -5.1769  -5.1699  -5.1511  -5.1318
    -5.1271  -5.1101  -5.0720  -5.0645  -5.0368  -5.0321  -5.0182  -5.0151
    -4.9376  -4.9253  -4.8931  -4.8813  -4.8067  -4.7956  -4.7725  -4.7382
    -4.6553  -4.6498  -4.6486  -4.6427  -4.6214  -4.6126  -4.6097  -4.5992
    -4.5979  -4.5803  -4.5801  -4.5623  -4.5529  -4.5498  -4.5420  -4.5333
    -4.4879  -4.4653  -4.4479  -4.4295  -4.3861  -4.3738  -4.3655  -4.3371
    -4.3071  -4.2955  -4.2867  -4.2769  -4.2578  -4.2397  -4.2337  -4.2272
    -4.2131  -4.1993  -4.1966  -4.1822  -4.1086  -4.1012  -4.0993  -4.0858
    -3.9785  -3.9724  -3.9648  -3.9637  -3.9626  -3.9620  -3.9573  -3.9552
    -3.9183  -3.8921  -3.8738  -3.8520  -3.8485  -3.8379  -3.8315  -3.8279
    -3.8171  -3.7993  -3.7976  -3.7899  -3.7819  -3.7741  -3.7519  -3.7474
    -3.6000  -3.5899  -3.5745  -3.5738  -3.5490  -3.5316  -3.5120  -3.4979
    -3.4327  -3.4260  -3.4001  -3.3903  -3.3687  -3.3644  -3.3585  -3.3464
    -3.3284  -3.3128  -3.3099  -3.2870  -3.2453  -3.2451  -3.2436  -3.2351
    -3.1971  -3.1922  -3.1888  -3.1824  -3.1742  -3.1705  -3.1692  -3.1576
    -3.1427  -3.1318  -3.1248  -3.1162  -3.1064  -3.0900  -3.0843  -3.0834
    -3.0009  -2.9858  -2.9426  -2.9395  -2.9294  -2.9263  -2.8956  -2.8947
    -2.7936  -2.7831  -2.7602  -2.7451  -2.7278  -2.7174  -2.7071  -2.6991
    -2.3945  -2.3900  -2.3549  -2.3472  -2.2627  -2.2352  -2.2002  -2.1758
    -2.1740  -2.1512  -2.1005  -2.0951  -2.0925  -2.0840  -2.0793  -2.0666
    -2.0458  -2.0456  -2.0197  -2.0182  -1.9666  -1.9649  -1.9446  -1.9430
    -1.9273  -1.9236  -1.9204  -1.9129  -1.8474  -1.8459  -1.8117  -1.8080
    -0.7809  -0.7759  -0.7729  -0.7665  -0.7354  -0.7217  -0.7095  -0.6975
    -0.6580  -0.6568  -0.6425  -0.6423  -0.5477  -0.5473  -0.5240  -0.5219
    -0.5144  -0.5056  -0.4878  -0.4727  -0.4632  -0.4573  -0.4522  -0.4520
    -0.2319  -0.2205  -0.2072  -0.1956  -0.1887  -0.1769  -0.1630  -0.1509
     0.3326   0.3391   0.3407   0.3416   0.3937   0.3967   0.3968   0.4091
     1.0282   1.0374   1.0380   1.0526   1.1079   1.1124   1.1562   1.1631

          k = 0.0000-0.4084 0.0000 ( 58700 PWs)   bands (ev):

   -20.6290 -20.6290 -20.6288 -20.6288 -20.6284 -20.6284 -20.6282 -20.6282
   -19.4994 -19.4993 -19.4992 -19.4992 -19.4980 -19.4980 -19.4978 -19.4978
   -18.1920 -18.1920 -18.1919 -18.1919 -18.1789 -18.1788 -18.1787 -18.1787
   -15.5270 -15.5269 -15.5229 -15.5228 -15.5104 -15.5104 -15.5063 -15.5062
   -15.4010 -15.4009 -15.3979 -15.3978 -15.3801 -15.3800 -15.3773 -15.3773
   -13.9532 -13.9532 -13.9482 -13.9482 -13.9359 -13.9359 -13.9215 -13.9214
   -13.3233 -13.3233 -13.3139 -13.3139 -13.2800 -13.2799 -13.2658 -13.2658
   -13.0507 -13.0506 -13.0328 -13.0327 -13.0192 -13.0192 -13.0102 -13.0102
   -12.8463 -12.8463 -12.8461 -12.8461 -12.7943 -12.7943 -12.7940 -12.7940
   -12.4164 -12.4163 -12.4106 -12.4105 -12.3864 -12.3864 -12.3862 -12.3862
   -12.0223 -12.0223 -12.0193 -12.0193 -11.9749 -11.9749 -11.9725 -11.9725
   -11.0657 -11.0657 -11.0483 -11.0483 -11.0395 -11.0395 -11.0164 -11.0164
   -10.8722 -10.8722 -10.8631 -10.8630 -10.8542 -10.8542 -10.8204 -10.8204
   -10.0885 -10.0885 -10.0799 -10.0799 -10.0785 -10.0785 -10.0468 -10.0468
    -9.4343  -9.4343  -9.4322  -9.4322  -9.4276  -9.4276  -9.4127  -9.4127
    -9.1548  -9.1548  -9.1538  -9.1537  -9.0965  -9.0964  -9.0964  -9.0964
    -8.6668  -8.6668  -8.6161  -8.6161  -8.5759  -8.5759  -8.5684  -8.5683
    -8.3168  -8.3168  -8.3127  -8.3127  -8.1470  -8.1470  -8.1273  -8.1272
    -7.6036  -7.6036  -7.5852  -7.5852  -7.4901  -7.4901  -7.4657  -7.4657
    -7.1821  -7.1821  -7.1753  -7.1753  -7.1259  -7.1259  -7.1109  -7.1109
    -6.7891  -6.7891  -6.7788  -6.7788  -6.7701  -6.7701  -6.7442  -6.7441
    -6.6066  -6.6066  -6.5946  -6.5945  -6.5848  -6.5847  -6.5846  -6.5846
    -6.1191  -6.1191  -6.1189  -6.1189  -6.0824  -6.0823  -6.0634  -6.0634
    -6.0550  -6.0550  -6.0379  -6.0379  -6.0146  -6.0146  -6.0082  -6.0082
    -5.7039  -5.7039  -5.6929  -5.6929  -5.5729  -5.5729  -5.5538  -5.5538
    -5.5023  -5.5023  -5.4744  -5.4744  -5.4644  -5.4643  -5.4422  -5.4422
    -5.2161  -5.2161  -5.2137  -5.2137  -5.1791  -5.1791  -5.1583  -5.1583
    -5.1247  -5.1247  -5.0832  -5.0832  -5.0381  -5.0381  -5.0132  -5.0132
    -4.9497  -4.9497  -4.8637  -4.8637  -4.8014  -4.8014  -4.7588  -4.7588
    -4.6579  -4.6579  -4.6414  -4.6414  -4.6355  -4.6355  -4.6110  -4.6110
    -4.6028  -4.6028  -4.5461  -4.5461  -4.5362  -4.5362  -4.5255  -4.5254
    -4.5100  -4.5100  -4.4461  -4.4461  -4.3819  -4.3819  -4.3452  -4.3452
    -4.3084  -4.3084  -4.2805  -4.2805  -4.2541  -4.2541  -4.2391  -4.2391
    -4.2039  -4.2039  -4.1781  -4.1781  -4.1073  -4.1072  -4.0859  -4.0859
    -3.9751  -3.9751  -3.9660  -3.9660  -3.9625  -3.9625  -3.9612  -3.9612
    -3.9049  -3.9049  -3.8463  -3.8463  -3.8381  -3.8381  -3.8241  -3.8241
    -3.8203  -3.8203  -3.7791  -3.7791  -3.7621  -3.7620  -3.7589  -3.7589
    -3.5927  -3.5927  -3.5840  -3.5840  -3.5557  -3.5556  -3.5025  -3.5025
    -3.3999  -3.3999  -3.3991  -3.3991  -3.3736  -3.3736  -3.3583  -3.3583
    -3.3506  -3.3506  -3.2997  -3.2997  -3.2364  -3.2364  -3.2355  -3.2355
    -3.1908  -3.1908  -3.1776  -3.1776  -3.1670  -3.1670  -3.1656  -3.1656
    -3.1408  -3.1408  -3.1221  -3.1220  -3.1099  -3.1099  -3.0800  -3.0800
    -2.9788  -2.9787  -2.9409  -2.9409  -2.9227  -2.9227  -2.9130  -2.9130
    -2.7870  -2.7870  -2.7586  -2.7586  -2.7266  -2.7266  -2.7041  -2.7041
    -2.3139  -2.3138  -2.2750  -2.2750  -2.2708  -2.2708  -2.2333  -2.2333
    -2.1639  -2.1639  -2.1360  -2.1360  -2.1128  -2.1128  -2.0683  -2.0683
    -2.0519  -2.0519  -1.9999  -1.9999  -1.9900  -1.9900  -1.9357  -1.9357
    -1.9285  -1.9285  -1.9187  -1.9187  -1.8282  -1.8282  -1.8243  -1.8243
    -0.7828  -0.7828  -0.7577  -0.7577  -0.7502  -0.7502  -0.6899  -0.6899
    -0.6735  -0.6735  -0.6340  -0.6340  -0.5306  -0.5306  -0.5293  -0.5293
    -0.5088  -0.5088  -0.4819  -0.4819  -0.4571  -0.4570  -0.4533  -0.4532
    -0.2240  -0.2240  -0.1926  -0.1926  -0.1921  -0.1921  -0.1600  -0.1600
     0.3361   0.3361   0.3444   0.3445   0.3882   0.3882   0.4047   0.4047
     1.0245   1.0246   1.0492   1.0492   1.1323   1.1323   1.1388   1.1388

          k = 0.0000-0.4084 0.1618 ( 58630 PWs)   bands (ev):

   -20.6290 -20.6290 -20.6288 -20.6288 -20.6283 -20.6283 -20.6282 -20.6282
   -19.4993 -19.4993 -19.4992 -19.4992 -19.4980 -19.4979 -19.4978 -19.4978
   -18.1920 -18.1920 -18.1919 -18.1919 -18.1788 -18.1788 -18.1788 -18.1787
   -15.5261 -15.5260 -15.5240 -15.5240 -15.5093 -15.5093 -15.5072 -15.5072
   -15.4002 -15.4001 -15.3986 -15.3985 -15.3794 -15.3793 -15.3781 -15.3780
   -13.9524 -13.9523 -13.9500 -13.9500 -13.9318 -13.9317 -13.9247 -13.9247
   -13.3211 -13.3211 -13.3165 -13.3165 -13.2761 -13.2761 -13.2691 -13.2690
   -13.0467 -13.0466 -13.0379 -13.0378 -13.0166 -13.0165 -13.0122 -13.0122
   -12.8462 -12.8462 -12.8461 -12.8461 -12.7942 -12.7942 -12.7941 -12.7940
   -12.4110 -12.4110 -12.4075 -12.4075 -12.3908 -12.3908 -12.3900 -12.3900
   -12.0216 -12.0216 -12.0201 -12.0201 -11.9742 -11.9742 -11.9731 -11.9731
   -11.0597 -11.0597 -11.0479 -11.0478 -11.0393 -11.0393 -11.0248 -11.0247
   -10.8699 -10.8699 -10.8653 -10.8653 -10.8449 -10.8448 -10.8282 -10.8282
   -10.0887 -10.0886 -10.0848 -10.0848 -10.0670 -10.0670 -10.0528 -10.0528
    -9.4352  -9.4352  -9.4334  -9.4334  -9.4228  -9.4228  -9.4157  -9.4157
    -9.1546  -9.1546  -9.1540  -9.1540  -9.0965  -9.0964  -9.0964  -9.0964
    -8.6555  -8.6555  -8.6306  -8.6306  -8.5732  -8.5731  -8.5684  -8.5684
    -8.3155  -8.3155  -8.3134  -8.3134  -8.1421  -8.1421  -8.1322  -8.1322
    -7.5997  -7.5997  -7.5906  -7.5906  -7.4831  -7.4831  -7.4711  -7.4711
    -7.1803  -7.1803  -7.1769  -7.1769  -7.1222  -7.1222  -7.1147  -7.1147
    -6.7871  -6.7870  -6.7822  -6.7822  -6.7630  -6.7630  -6.7504  -6.7504
    -6.6039  -6.6039  -6.5981  -6.5981  -6.5841  -6.5841  -6.5838  -6.5837
    -6.1206  -6.1206  -6.1206  -6.1205  -6.0784  -6.0784  -6.0714  -6.0714
    -6.0397  -6.0397  -6.0338  -6.0338  -6.0201  -6.0201  -6.0151  -6.0151
    -5.7014  -5.7014  -5.6960  -5.6959  -5.5679  -5.5679  -5.5584  -5.5584
    -5.4981  -5.4981  -5.4866  -5.4866  -5.4527  -5.4527  -5.4441  -5.4441
    -5.2180  -5.2180  -5.2166  -5.2166  -5.1717  -5.1717  -5.1599  -5.1599
    -5.1145  -5.1144  -5.0937  -5.0937  -5.0391  -5.0390  -5.0287  -5.0287
    -4.9217  -4.9217  -4.8815  -4.8815  -4.7912  -4.7911  -4.7723  -4.7723
    -4.6476  -4.6476  -4.6443  -4.6443  -4.6326  -4.6325  -4.6120  -4.6120
    -4.5909  -4.5909  -4.5560  -4.5560  -4.5390  -4.5389  -4.5280  -4.5280
    -4.4948  -4.4947  -4.4629  -4.4628  -4.3766  -4.3766  -4.3595  -4.3595
    -4.2950  -4.2950  -4.2808  -4.2808  -4.2491  -4.2491  -4.2414  -4.2414
    -4.2006  -4.2006  -4.1860  -4.1860  -4.1023  -4.1023  -4.0921  -4.0921
    -3.9716  -3.9716  -3.9673  -3.9673  -3.9608  -3.9608  -3.9600  -3.9599
    -3.8913  -3.8913  -3.8611  -3.8611  -3.8379  -3.8379  -3.8327  -3.8326
    -3.8083  -3.8083  -3.7866  -3.7866  -3.7653  -3.7653  -3.7591  -3.7591
    -3.5937  -3.5936  -3.5861  -3.5861  -3.5373  -3.5373  -3.5099  -3.5099
    -3.4083  -3.4083  -3.4062  -3.4061  -3.3684  -3.3684  -3.3599  -3.3599
    -3.3318  -3.3318  -3.3043  -3.3043  -3.2394  -3.2394  -3.2336  -3.2336
    -3.1890  -3.1890  -3.1844  -3.1844  -3.1687  -3.1687  -3.1652  -3.1651
    -3.1362  -3.1362  -3.1262  -3.1262  -3.1010  -3.1010  -3.0864  -3.0864
    -2.9709  -2.9709  -2.9528  -2.9528  -2.9181  -2.9181  -2.9143  -2.9142
    -2.7803  -2.7803  -2.7665  -2.7665  -2.7197  -2.7197  -2.7088  -2.7088
    -2.3056  -2.3056  -2.2882  -2.2882  -2.2584  -2.2584  -2.2427  -2.2426
    -2.1600  -2.1600  -2.1470  -2.1470  -2.0983  -2.0983  -2.0749  -2.0749
    -2.0482  -2.0482  -2.0192  -2.0192  -1.9663  -1.9663  -1.9436  -1.9435
    -1.9246  -1.9246  -1.9203  -1.9203  -1.8278  -1.8278  -1.8258  -1.8258
    -0.7797  -0.7797  -0.7703  -0.7703  -0.7312  -0.7312  -0.7064  -0.7064
    -0.6603  -0.6603  -0.6430  -0.6430  -0.5301  -0.5301  -0.5296  -0.5295
    -0.5004  -0.5004  -0.4871  -0.4871  -0.4564  -0.4564  -0.4546  -0.4546
    -0.2197  -0.2197  -0.2083  -0.2083  -0.1762  -0.1762  -0.1643  -0.1643
     0.3365   0.3365   0.3404   0.3404   0.3945   0.3945   0.4025   0.4025
     1.0301   1.0301   1.0428   1.0429   1.1333   1.1334   1.1379   1.1380

          k = 0.1667 0.0000 0.0000 ( 58683 PWs)   bands (ev):

   -20.6299 -20.6297 -20.6294 -20.6291 -20.6280 -20.6278 -20.6275 -20.6273
   -19.5002 -19.5000 -19.4991 -19.4989 -19.4982 -19.4981 -19.4972 -19.4970
   -18.1927 -18.1926 -18.1913 -18.1912 -18.1794 -18.1793 -18.1782 -18.1781
   -15.5273 -15.5239 -15.5234 -15.5214 -15.5137 -15.5094 -15.5082 -15.5070
   -15.4064 -15.4017 -15.3898 -15.3871 -15.3856 -15.3817 -15.3810 -15.3778
   -13.9500 -13.9480 -13.9444 -13.9438 -13.9436 -13.9372 -13.9276 -13.9222
   -13.3218 -13.3205 -13.3150 -13.3045 -13.2966 -13.2746 -13.2669 -13.2644
   -13.0804 -13.0606 -13.0464 -13.0373 -13.0158 -13.0047 -12.9943 -12.9886
   -12.8505 -12.8488 -12.8356 -12.8349 -12.8109 -12.8100 -12.7855 -12.7843
   -12.4316 -12.4155 -12.4031 -12.4029 -12.3977 -12.3930 -12.3816 -12.3709
   -12.0216 -12.0194 -12.0194 -12.0172 -11.9868 -11.9848 -11.9644 -11.9631
   -11.0731 -11.0578 -11.0564 -11.0533 -11.0451 -11.0408 -11.0208 -10.9997
   -10.8850 -10.8695 -10.8572 -10.8565 -10.8541 -10.8415 -10.8399 -10.8107
   -10.1032 -10.0983 -10.0973 -10.0696 -10.0651 -10.0632 -10.0619 -10.0361
    -9.4950  -9.4919  -9.4810  -9.4758  -9.3819  -9.3818  -9.3693  -9.3573
    -9.1804  -9.1790  -9.1218  -9.1207  -9.1120  -9.1103  -9.0801  -9.0791
    -8.6812  -8.6675  -8.6603  -8.6011  -8.5920  -8.5633  -8.5253  -8.5103
    -8.3533  -8.3253  -8.2586  -8.2434  -8.1706  -8.1603  -8.1534  -8.1512
    -7.6021  -7.5883  -7.5763  -7.5507  -7.5073  -7.4979  -7.4892  -7.4752
    -7.2078  -7.1961  -7.1747  -7.1594  -7.1543  -7.1503  -7.0887  -7.0794
    -6.8137  -6.7961  -6.7917  -6.7813  -6.7750  -6.7415  -6.7411  -6.7307
    -6.6105  -6.6035  -6.5989  -6.5955  -6.5948  -6.5937  -6.5701  -6.5658
    -6.1785  -6.1578  -6.1320  -6.1119  -6.0905  -6.0888  -6.0822  -6.0811
    -6.0768  -6.0762  -6.0696  -6.0371  -5.9886  -5.9862  -5.9789  -5.9690
    -5.7033  -5.6932  -5.6894  -5.6866  -5.5948  -5.5821  -5.5689  -5.5648
    -5.5576  -5.5512  -5.5495  -5.5492  -5.4336  -5.4035  -5.3893  -5.3764
    -5.2741  -5.2566  -5.2526  -5.2416  -5.1446  -5.1354  -5.1118  -5.1062
    -5.1021  -5.0978  -5.0537  -5.0443  -5.0300  -5.0262  -4.9990  -4.9709
    -4.9443  -4.9411  -4.9211  -4.8411  -4.8213  -4.8176  -4.8154  -4.7080
    -4.6629  -4.6591  -4.6544  -4.6298  -4.6137  -4.6084  -4.5985  -4.5958
    -4.5820  -4.5737  -4.5729  -4.5599  -4.5521  -4.5398  -4.5223  -4.5067
    -4.5021  -4.4571  -4.4289  -4.4280  -4.3881  -4.3806  -4.3742  -4.2987
    -4.2883  -4.2783  -4.2691  -4.2611  -4.2588  -4.2429  -4.2411  -4.2367
    -4.2319  -4.1900  -4.1773  -4.1694  -4.1348  -4.1289  -4.0988  -4.0829
    -3.9874  -3.9690  -3.9682  -3.9608  -3.9597  -3.9552  -3.9530  -3.9409
    -3.9339  -3.9283  -3.8953  -3.8606  -3.8597  -3.8561  -3.8480  -3.8298
    -3.8280  -3.8214  -3.8021  -3.7821  -3.7719  -3.7652  -3.7626  -3.7189
    -3.6465  -3.6079  -3.5777  -3.5484  -3.5411  -3.5282  -3.4999  -3.4884
    -3.4217  -3.4195  -3.4098  -3.4056  -3.3626  -3.3545  -3.3357  -3.3278
    -3.3039  -3.2984  -3.2927  -3.2779  -3.2754  -3.2593  -3.2566  -3.2444
    -3.2122  -3.2059  -3.2031  -3.1866  -3.1835  -3.1686  -3.1544  -3.1525
    -3.1415  -3.1361  -3.1106  -3.1031  -3.0925  -3.0887  -3.0660  -3.0524
    -3.0449  -3.0406  -2.9652  -2.9525  -2.9102  -2.8908  -2.8729  -2.8713
    -2.8039  -2.7990  -2.7404  -2.7362  -2.7168  -2.6926  -2.6827  -2.6778
    -2.5406  -2.5330  -2.4803  -2.4781  -2.2272  -2.2032  -2.2017  -2.1655
    -2.1576  -2.1336  -2.0738  -2.0724  -2.0475  -2.0467  -2.0281  -2.0235
    -2.0203  -2.0195  -2.0037  -1.9904  -1.9871  -1.9777  -1.9740  -1.9533
    -1.9350  -1.9322  -1.9269  -1.8966  -1.8554  -1.8545  -1.8050  -1.7982
    -0.7778  -0.7657  -0.7599  -0.7596  -0.7535  -0.7168  -0.7000  -0.6671
    -0.6520  -0.6477  -0.6369  -0.6219  -0.5886  -0.5876  -0.5524  -0.5454
    -0.5113  -0.5037  -0.4833  -0.4823  -0.4627  -0.4531  -0.4525  -0.4514
    -0.2444  -0.2189  -0.2189  -0.1911  -0.1906  -0.1653  -0.1630  -0.1356
     0.3305   0.3395   0.3526   0.3596   0.3815   0.3848   0.3928   0.4157
     1.0292   1.0405   1.0633   1.0666   1.0673   1.1026   1.1684   1.1883

          k = 0.1667 0.0000 0.1618 ( 58634 PWs)   bands (ev):

   -20.6299 -20.6297 -20.6293 -20.6291 -20.6280 -20.6279 -20.6275 -20.6274
   -19.5001 -19.5000 -19.4991 -19.4990 -19.4982 -19.4981 -19.4971 -19.4970
   -18.1927 -18.1926 -18.1913 -18.1912 -18.1794 -18.1793 -18.1782 -18.1782
   -15.5261 -15.5239 -15.5236 -15.5230 -15.5119 -15.5091 -15.5084 -15.5083
   -15.4052 -15.4028 -15.3892 -15.3878 -15.3846 -15.3827 -15.3802 -15.3786
   -13.9500 -13.9492 -13.9460 -13.9447 -13.9380 -13.9327 -13.9308 -13.9255
   -13.3216 -13.3212 -13.3145 -13.3085 -13.2869 -13.2734 -13.2698 -13.2681
   -13.0757 -13.0659 -13.0440 -13.0395 -13.0133 -13.0078 -12.9928 -12.9900
   -12.8501 -12.8492 -12.8354 -12.8351 -12.8106 -12.8102 -12.7852 -12.7846
   -12.4244 -12.4108 -12.4101 -12.4020 -12.3978 -12.3874 -12.3871 -12.3764
   -12.0211 -12.0200 -12.0189 -12.0177 -11.9862 -11.9852 -11.9641 -11.9634
   -11.0717 -11.0662 -11.0505 -11.0463 -11.0453 -11.0320 -11.0285 -11.0075
   -10.8826 -10.8746 -10.8541 -10.8537 -10.8524 -10.8458 -10.8325 -10.8180
   -10.1045 -10.1009 -10.0865 -10.0716 -10.0701 -10.0661 -10.0531 -10.0411
    -9.4928  -9.4869  -9.4856  -9.4790  -9.3829  -9.3827  -9.3653  -9.3595
    -9.1800  -9.1793  -9.1215  -9.1210  -9.1116  -9.1107  -9.0798  -9.0793
    -8.6823  -8.6737  -8.6397  -8.6114  -8.5873  -8.5735  -8.5209  -8.5135
    -8.3460  -8.3321  -8.2545  -8.2469  -8.1659  -8.1580  -8.1572  -8.1535
    -7.5987  -7.5919  -7.5708  -7.5582  -7.5051  -7.5008  -7.4839  -7.4775
    -7.2050  -7.1993  -7.1707  -7.1632  -7.1531  -7.1512  -7.0864  -7.0818
    -6.8092  -6.8003  -6.7895  -6.7843  -6.7678  -6.7516  -6.7378  -6.7317
    -6.6091  -6.6058  -6.5974  -6.5950  -6.5942  -6.5941  -6.5692  -6.5671
    -6.1761  -6.1667  -6.1241  -6.1106  -6.0903  -6.0891  -6.0842  -6.0832
    -6.0742  -6.0719  -6.0637  -6.0459  -5.9880  -5.9826  -5.9819  -5.9736
    -5.7011  -5.6961  -5.6887  -5.6875  -5.5906  -5.5847  -5.5665  -5.5655
    -5.5569  -5.5539  -5.5488  -5.5473  -5.4273  -5.4132  -5.3847  -5.3791
    -5.2759  -5.2712  -5.2382  -5.2371  -5.1425  -5.1373  -5.1114  -5.1055
    -5.1001  -5.1001  -5.0608  -5.0594  -5.0209  -5.0132  -4.9900  -4.9749
    -4.9391  -4.9328  -4.9275  -4.8880  -4.8268  -4.8241  -4.7604  -4.7175
    -4.6584  -4.6501  -4.6474  -4.6373  -4.6273  -4.6229  -4.5971  -4.5920
    -4.5906  -4.5784  -4.5603  -4.5506  -4.5432  -4.5324  -4.5244  -4.5139
    -4.4970  -4.4792  -4.4380  -4.4324  -4.3712  -4.3707  -4.3553  -4.3142
    -4.2921  -4.2874  -4.2666  -4.2651  -4.2518  -4.2427  -4.2360  -4.2335
    -4.2306  -4.1961  -4.1876  -4.1782  -4.1211  -4.1172  -4.0986  -4.0924
    -3.9848  -3.9742  -3.9636  -3.9615  -3.9595  -3.9572  -3.9506  -3.9431
    -3.9331  -3.9302  -3.8847  -3.8671  -3.8574  -3.8528  -3.8436  -3.8393
    -3.8294  -3.8112  -3.8029  -3.7924  -3.7793  -3.7771  -3.7453  -3.7253
    -3.6255  -3.6082  -3.5785  -3.5622  -3.5396  -3.5322  -3.5001  -3.4980
    -3.4214  -3.4213  -3.4059  -3.4042  -3.3611  -3.3495  -3.3320  -3.3149
    -3.3057  -3.2930  -3.2925  -3.2860  -3.2698  -3.2651  -3.2632  -3.2545
    -3.2059  -3.2050  -3.1935  -3.1819  -3.1793  -3.1729  -3.1593  -3.1500
    -3.1498  -3.1431  -3.1071  -3.1028  -3.0865  -3.0786  -3.0718  -3.0591
    -3.0463  -3.0429  -2.9611  -2.9549  -2.9058  -2.8962  -2.8726  -2.8718
    -2.8026  -2.8001  -2.7400  -2.7378  -2.7105  -2.6985  -2.6813  -2.6790
    -2.5391  -2.5353  -2.4793  -2.4781  -2.2220  -2.2101  -2.1982  -2.1831
    -2.1377  -2.1079  -2.1015  -2.0693  -2.0521  -2.0430  -2.0351  -2.0294
    -2.0211  -2.0088  -2.0065  -1.9963  -1.9840  -1.9798  -1.9748  -1.9507
    -1.9421  -1.9306  -1.9127  -1.8995  -1.8548  -1.8543  -1.8037  -1.8003
    -0.7765  -0.7717  -0.7639  -0.7583  -0.7388  -0.7136  -0.7046  -0.6813
    -0.6488  -0.6476  -0.6312  -0.6242  -0.5885  -0.5880  -0.5509  -0.5475
    -0.5103  -0.5071  -0.4773  -0.4734  -0.4677  -0.4592  -0.4517  -0.4513
    -0.2408  -0.2311  -0.2072  -0.1965  -0.1857  -0.1759  -0.1506  -0.1397
     0.3346   0.3414   0.3471   0.3476   0.3879   0.3890   0.3988   0.4114
     1.0325   1.0486   1.0500   1.0641   1.0770   1.0945   1.1741   1.1841

          k = 0.1667 0.1361 0.0000 ( 58644 PWs)   bands (ev):

   -20.6298 -20.6295 -20.6292 -20.6290 -20.6282 -20.6279 -20.6277 -20.6274
   -19.5001 -19.4999 -19.4990 -19.4989 -19.4983 -19.4981 -19.4973 -19.4971
   -18.1926 -18.1925 -18.1914 -18.1913 -18.1793 -18.1792 -18.1783 -18.1782
   -15.5271 -15.5243 -15.5229 -15.5214 -15.5134 -15.5097 -15.5080 -15.5070
   -15.4056 -15.4012 -15.3917 -15.3898 -15.3837 -15.3808 -15.3808 -15.3777
   -13.9507 -13.9482 -13.9477 -13.9447 -13.9403 -13.9366 -13.9266 -13.9221
   -13.3224 -13.3188 -13.3157 -13.3053 -13.2949 -13.2742 -13.2691 -13.2649
   -13.0760 -13.0565 -13.0429 -13.0339 -13.0202 -13.0080 -12.9983 -12.9911
   -12.8502 -12.8486 -12.8376 -12.8369 -12.8081 -12.8074 -12.7865 -12.7856
[...]
     atom  301 type  2   force =    -0.00030636   -0.00048901    0.00013438
     atom  302 type  2   force =     0.00030636    0.00048901    0.00013438
     atom  303 type  2   force =    -0.00030636    0.00048901    0.00013438
     atom  304 type  2   force =     0.00030636   -0.00048901    0.00013438
     atom  305 type  2   force =     0.00030636    0.00048901   -0.00013438
     atom  306 type  2   force =    -0.00030636   -0.00048901   -0.00013438
     atom  307 type  2   force =     0.00045923   -0.00036888    0.00015303
     atom  308 type  2   force =     0.00045923    0.00036888   -0.00015303
     atom  309 type  2   force =    -0.00045923   -0.00036888   -0.00015303
     atom  310 type  2   force =     0.00045923   -0.00036888   -0.00015303
     atom  311 type  2   force =    -0.00045923    0.00036888   -0.00015303
     atom  312 type  2   force =    -0.00045923   -0.00036888    0.00015303
     atom  313 type  2   force =     0.00045923    0.00036888    0.00015303
     atom  314 type  2   force =    -0.00035208   -0.00031397   -0.00008664
     atom  315 type  2   force =    -0.00035208    0.00031397    0.00008664
     atom  316 type  2   force =     0.00035208   -0.00031397    0.00008664
     atom  317 type  2   force =    -0.00035208   -0.00031397    0.00008664
     atom  318 type  2   force =     0.00035208    0.00031397    0.00008664
     atom  319 type  2   force =     0.00035208   -0.00031397   -0.00008664
     atom  320 type  2   force =    -0.00035208    0.00031397   -0.00008664

     Total force =     0.008438     Total SCF correction =     0.000350

     BFGS Geometry Optimization

     bfgs converged in   1 scf cycles and   0 bfgs steps
     (criteria: energy <  1.0E-04 Ry, force <  1.0E-03 Ry/Bohr)

     End of BFGS Geometry Optimization

     Final energy   =   -2489.5336929561 Ry
Begin final coordinates

ATOMIC_POSITIONS (angstrom)
O        1.699560739   2.112081958   3.625623370
O        0.715060588   0.388405600   2.136688790
C        1.467448611  12.627638088   2.622714713
C        0.976718179   9.739007145   0.178918755
C        2.245912500  12.931642993   3.839616063
C        1.585680603  11.338354870   1.999082349
C        2.338798365   1.120412635   4.286060267
C        1.961141746   7.531298541  21.968593254
N        1.278139992   6.183477743  20.075180971
C        1.170761722   7.325615315  20.799650299
C        0.878808402  10.979678158   0.882539506
C        2.912580582  11.941450859   4.588630323
C        1.861141476   8.695618013   0.551622816
C        3.752856127   0.421358513   6.122356454
C        3.117415706   1.429049606   5.412006551
C        3.649562919  12.232780500   5.728790392
C        0.184268307   9.519791645  21.167189693
C        0.269102597   8.361145006  20.423001066
C        0.460907811   5.985676807  18.887964053
C        2.211841161   5.141870586  20.484814685
C        4.327221632  11.136747087   6.505794856
H        3.902137280  11.039112415   7.517749569
H        5.397803089  11.347560845   6.636276042
H        4.229940231  10.173672201   5.987279722
H        2.857368414  10.901162257   4.272261287
H       10.238881971  10.301553289  20.863071085
H        0.182215234  11.715733369   0.466766146
H        2.657519740   6.764156937   0.157913393
H        3.203047041   2.471437544   5.719167342
H        4.342342289   0.675413913   7.006038108
H        2.487572597   8.806602748   1.436169477
H        2.289599921  10.631435104   2.433748960
H       10.139758581   6.064421800  19.124218407
H       10.390136155   8.246279692  19.542546477
H        2.180452909   4.325297021  19.756879435
H        1.948638810   4.739621029  21.474999008
H        0.653369531   4.989643334  18.479998858
H        3.242108432   5.528470494  20.531695801
H        1.138895207   1.590738679   2.916419903
H        0.696524765   6.728073878  18.109411998
O        3.675449261  11.047918042  14.696123370
O        9.050439261   8.692081958   7.444876630
O        7.074560739   4.467918042  18.515376630
O        9.050449261  11.047918042  18.515376630
O        7.074560739   2.112081958   7.444876630
O        1.699560739   4.467918042  14.696123370
O        3.675449261   8.692081958   3.625623370
O        4.659939412  12.771594400  13.207188790
O       10.034939412   6.968405600   8.933811210
O        6.090060588   6.191594400  20.004311210
O       10.034939412  12.771594400  20.004311210
O        6.090060588   0.388405600   8.933811210
O        0.715060588   6.191594400  13.207188790
O        4.659939412   6.968405600   2.136688790
C        3.907551389   0.532361912  13.693214713
C        9.282551389   6.047638088   8.447785287
C        6.842448611   7.112361912  19.518285287
C        9.282551389   0.532361912  19.518285287
C        6.842448611  12.627638088   8.447785287
C        1.467448611   7.112361912  13.693214713
C        3.907551389   6.047638088   2.622714713
C        4.398281821   3.420992855  11.249418755
C        9.773281821   3.159007145  10.891581245
C        6.351718179  10.000992855  21.962081245
C        9.773281821   3.420992855  21.962081245
C        6.351718179   9.739007145  10.891581245
C        0.976718179  10.000992855  11.249418755
C        4.398281821   3.159007145   0.178918755
C        3.129087500   0.228357007  14.910116063
C        8.504087500   6.351642993   7.230883937
C        7.620912500   6.808357007  18.301383937
C        8.504087500   0.228357007  18.301383937
C        7.620912500  12.931642993   7.230883937
C        2.245912500   6.808357007  14.910116063
C        3.129087500   6.351642993   3.839616063
C        3.789319397   1.821645130  13.069582349
C        9.164319397   4.758354870   9.071417651
C        6.960680603   8.401645130  20.141917651
C        9.164319397   1.821645130  20.141917651
C        6.960680603  11.338354870   9.071417651
C        1.585680603   8.401645130  13.069582349
C        3.789319397   4.758354870   1.999082349
C        3.036201635  12.039587365  15.356560267
C        8.411201635   7.700412635   6.784439733
C        7.713798365   5.459587365  17.854939733
C        8.411201635  12.039587365  17.854939733
C        7.713798365   1.120412635   6.784439733
C        2.338798365   5.459587365  15.356560267
C        3.036201635   7.700412635   4.286060267
C        3.413868254   5.628701459  10.898093254
C        8.788858254   0.951298541  11.242906746
C        7.336141746  12.208701459   0.172406746
C        8.788858254   5.628701459   0.172406746
C        7.336141746   7.531298541  11.242906746
C        1.961141746  12.208701459  10.898093254
C        3.413868254   0.951298541  21.968593254
N        4.096860008   6.976522257   9.004680971
N        9.471860008  12.763477743  13.136319029
N        6.653139992   0.396522257   2.065819029
N        9.471860008   6.976522257   2.065819029
N        6.653139992   6.183477743  13.136319029
N        1.278139992   0.396522257   9.004680971
N        4.096860008  12.763477743  20.075180971
C        4.204238278   5.834384685   9.729150299
C        9.579238278   0.745615315  12.411849701
C        6.545761722  12.414384685   1.341349701
C        9.579238278   5.834384685   1.341349701
C        6.545761722   7.325615315  12.411849701
C        1.170761722  12.414384685   9.729150299
C        4.204238278   0.745615315  20.799650299
C        4.496201598   2.180321842  11.953039506
C        9.871191598   4.399678158  10.187960494
C        6.253808402   8.760321842  21.258460494
C        9.871201598   2.180321842  21.258460494
C        6.253808402  10.979678158  10.187960494
C        0.878808402   8.760321842  11.953039506
C        4.496191598   4.399678158   0.882539506
C        2.462429418   1.218549141  15.659130323
C        7.837419418   5.361450859   6.481869677
C        8.287580582   7.798549141  17.552369677
C        7.837419418   1.218549141  17.552369677
C        8.287580582  11.941450859   6.481869677
C        2.912580582   7.798549141  15.659130323
C        2.462429418   5.361450859   4.588630323
C        3.513858524   4.464381987  11.622122816
C        8.888858524   2.115618013  10.518877184
C        7.236141476  11.044381987  21.589377184
C        8.888858524   4.464381987  21.589377184
C        7.236141476   8.695618013  10.518877184
C        1.861141476  11.044381987  11.622122816
C        3.513858524   2.115618013   0.551622816
C        1.622153873  12.738641487  17.192856454
C        6.997153873   7.001358513   4.948143546
C        9.127856127   6.158641487  16.018643546
C        6.997153873  12.738641487  16.018643546
C        9.127846127   0.421358513   4.948143546
C        3.752856127   6.158641487  17.192856454
C        1.622153873   7.001358513   6.122356454
C        2.257594294  11.730950394  16.482506551
C        7.632594294   8.009049606   5.658493449
C        8.492415706   5.150950394  16.728993449
C        7.632594294  11.730950394  16.728993449
C        8.492415706   1.429049606   5.658493449
C        3.117415706   5.150950394  16.482506551
C        2.257594294   8.009049606   5.412006551
C        1.725437081   0.927219500  16.799290392
C        7.100437081   5.652780500   5.341709608
C        9.024562919   7.507219500  16.412209608
C        7.100437081   0.927219500  16.412209608
C        9.024562919  12.232780500   5.341709608
C        3.649562919   7.507219500  16.799290392
C        1.725437081   5.652780500   5.728790392
H        5.985241419   7.095578200   8.053718407
H        0.610241419  12.644421800  14.087281593
H        4.764758581   0.515578200   3.016781593
H        0.610241419   7.095578200   3.016781593
H        4.764758581   6.064421800  14.087281593
H       10.139758581   0.515578200   8.053718407
H        5.985241419  12.644421800  19.124218407
C        5.190741693   3.640208355  10.096689693
C       10.565741693   2.939791645  12.044310307
C        5.559268307  10.220208355   0.973810307
C       10.565741693   3.640208355   0.973810307
C        5.559268307   9.519791645  12.044310307
C        0.184268307  10.220208355  10.096689693
C        5.190741693   2.939791645  21.167189693
C        5.105907403   4.798854994   9.352501066
C       10.480897403   1.781145006  12.788498934
C        5.644102597  11.378854994   1.717998934
C       10.480897403   4.798854994   1.717998934
C        5.644102597   8.361145006  12.788498934
C        0.269102597  11.378854994   9.352501066
C        5.105907403   1.781145006  20.423001066
C        4.914092189   7.174323193   7.817464053
C       10.289092189  12.565676807  14.323535947
C        5.835907811   0.594323193   3.253035947
C       10.289092189   7.174323193   3.253035947
C        5.835907811   5.985676807  14.323535947
C        0.460907811   0.594323193   7.817464053
C        4.914092189  12.565676807  18.887964053
C        3.163158839   8.018129414   9.414314685
C        8.538158839  11.721870586  12.726685315
C        7.586841161   1.438129414   1.656185315
C        8.538158839   8.018129414   1.656185315
C        7.586841161   5.141870586  12.726685315
C        2.211841161   1.438129414   9.414314685
C        3.163158839  11.721870586  20.484814685
C        1.047788368   2.023252913  17.576294856
C        6.422788368   4.556747087   4.564705144
C        9.702221632   8.603252913  15.635205144
C        6.422788368   2.023252913  15.635205144
C        9.702221632  11.136747087   4.564705144
C        4.327221632   8.603252913  17.576294856
C        1.047788368   4.556747087   6.505794856
H        1.472862720   2.120887585  18.588249569
H        6.847862720   4.459112415   3.552750431
H        9.277137280   8.700887585  14.623250431
H        6.847862720   2.120887585  14.623250431
H        9.277137280  11.039112415   3.552750431
H        3.902137280   8.700887585  18.588249569
H        1.472862720   4.459112415   7.517749569
H       -0.022793089   1.812439155  17.706776042
H        5.352206911   4.767560845   4.434223958
H       10.772803089   8.392439155  15.504723958
H        5.352206911   1.812439155  15.504723958
H       10.772793089  11.347560845   4.434223958
H        5.397803089   8.392439155  17.706776042
H       -0.022793089   4.767560845   6.636276042
H        1.145069769   2.986327799  17.057779722
H        6.520069769   3.593672201   5.083220278
H        9.604940231   9.566327799  16.153720278
H        6.520069769   2.986327799  16.153720278
H        9.604930231  10.173672201   5.083220278
H        4.229940231   9.566327799  17.057779722
H        1.145069769   3.593672201   5.987279722
H        2.517631586   2.258837743  15.342761287
H        7.892631586   4.321162257   6.798238713
H        8.232368414   8.838837743  17.868738713
H        7.892631586   2.258837743  17.868738713
H        8.232368414  10.901162257   6.798238713
H        2.857368414   8.838837743  15.342761287
H        2.517631586   4.321162257   4.272261287
H        5.886118029   2.858446711   9.792571085
H        0.511118029   3.721553289  12.348428915
H        4.863881971   9.438446711   1.277928915
H        0.511118029   2.858446711   1.277928915
H        4.863881971  10.301553289  12.348428915
H       10.238881971   9.438446711   9.792571085
H        5.886118029   3.721553289  20.863071085
H        5.192784766   1.444266631  11.537266146
H       10.567784766   5.135733369  10.603733854
H        5.557215234   8.024266631  21.674233854
H       10.567784766   1.444266631  21.674233854
H        5.557215234  11.715733369  10.603733854
H        0.182215234   8.024266631  11.537266146
H        5.192784766   5.135733369   0.466766146
H        2.717480260   6.395843063  11.228413393
H        8.092480260   0.184156937  10.912586607
H        8.032519740  12.975843063  21.983086607
H        8.092480260   6.395843063  21.983086607
H        8.032519740   6.764156937  10.912586607
H        2.657519740  12.975843063  11.228413393
H        2.717480260   0.184156937   0.157913393
H        2.171952959  10.688562456  16.789667342
H        7.546952959   9.051437544   5.351332658
H        8.578047041   4.108562456  16.421832658
H        7.546952959  10.688562456  16.421832658
H        8.578047041   2.471437544   5.351332658
H        3.203047041   4.108562456  16.789667342
H        2.171952959   9.051437544   5.719167342
H        1.032657711  12.484586087  18.076538108
H        6.407657711   7.255413913   4.064461892
H        9.717342289   5.904586087  15.134961892
H        6.407657711  12.484586087  15.134961892
H        9.717342289   0.675413913   4.064461892
H        4.342342289   5.904586087  18.076538108
H        1.032657711   7.255413913   7.006038108
H        2.887427403   4.353397252  12.506669477
H        8.262427403   2.226602748   9.634330523
H        7.862572597  10.933397252  20.704830523
H        8.262427403   4.353397252  20.704830523
H        7.862572597   8.806602748   9.634330523
H        2.487572597  10.933397252  12.506669477
H        2.887427403   2.226602748   1.436169477
H        3.085400079   2.528564896  13.504248960
H        8.460400079   4.051435104   8.636751040
H        7.664599921   9.108564896  19.707251040
H        8.460400079   2.528564896  19.707251040
H        7.664599921  10.631435104   8.636751040
H        2.289599921   9.108564896  13.504248960
H        3.085400079   4.051435104   2.433748960
H        5.734863845   4.913720308   8.472046477
H        0.359863845   1.666279692  13.668953523
H        5.015136155  11.493720308   2.598453523
H        0.359863845   4.913720308   2.598453523
H        5.015136155   8.246279692  13.668953523
H       10.390136155  11.493720308   8.472046477
H        5.734863845   1.666279692  19.542546477
H        3.194547091   8.834702979   8.686379435
H        8.569547091  10.905297021  13.454620565
H        7.555452909   2.254702979   2.384120565
H        8.569547091   8.834702979   2.384120565
H        7.555452909   4.325297021  13.454620565
H        2.180452909   2.254702979   8.686379435
H        3.194547091  10.905297021  19.756879435
H        3.426361190   8.420378971  10.404499008
H        8.801361190  11.319621029  11.736500992
H        7.323638810   1.840378971   0.666000992
H        8.801361190   8.420378971   0.666000992
H        7.323638810   4.739621029  11.736500992
H        1.948638810   1.840378971  10.404499008
H        3.426361190  11.319621029  21.474999008
H        4.721630469   8.170356666   7.409498858
H       10.096630469  11.569643334  14.731501142
H        6.028369531   1.590356666   3.661001142
H       10.096630469   8.170356666   3.661001142
H        6.028369531   4.989643334  14.731501142
H        0.653369531   1.590356666   7.409498858
H        4.721630469  11.569643334  18.479998858
H        2.132891568   7.631529506   9.461195801
H        7.507891568  12.108470494  12.679804199
H        8.617108432   1.051529506   1.609304199
H        7.507891568   7.631529506   1.609304199
H        8.617108432   5.528470494  12.679804199
H        3.242108432   1.051529506   9.461195801
H        2.132891568  12.108470494  20.531695801
H        4.236104793  11.569261321  13.986919903
H        9.611104793   8.170738679   8.154080097
H        6.513895207   4.989261321  19.224580097
H        9.611104793  11.569261321  19.224580097
H        6.513895207   1.590738679   8.154080097
H        1.138895207   4.989261321  13.986919903
H        4.236104793   8.170738679   2.916419903
H        4.678475235   6.431926122   7.038911998
H       10.053475235   0.148073878  15.102088002
H        6.071524765  13.011926122   4.031588002
H       10.053475235   6.431926122   4.031588002
H        6.071524765   6.728073878  15.102088002
H        0.696524765  13.011926122   7.038911998
H        4.678475235   0.148073878  18.109411998
End final coordinates



     Writing output data file 2hc_2_663.save
 
     init_run     :   2826.57s CPU   2840.47s WALL (       1 calls)
     electrons    :  68896.71s CPU  69322.97s WALL (       1 calls)
     forces       :   1099.71s CPU   1101.69s WALL (       1 calls)

     Called by init_run:
     wfcinit      :   2817.64s CPU   2830.81s WALL (       1 calls)
     potinit      :      2.45s CPU      2.49s WALL (       1 calls)

     Called by electrons:
     c_bands      :  62965.41s CPU  63374.17s WALL (      13 calls)
     sum_band     :   5884.14s CPU   5893.35s WALL (      13 calls)
     v_of_rho     :      6.69s CPU      6.73s WALL (      14 calls)
     newd         :     24.52s CPU     33.07s WALL (      14 calls)
     mix_rho      :      1.52s CPU      1.61s WALL (      13 calls)

     Called by c_bands:
     init_us_2    :    343.11s CPU    343.62s WALL (     896 calls)
     cegterg      :  61744.71s CPU  62152.97s WALL (     416 calls)

     Called by sum_band:
     sum_band:bec :      1.61s CPU      1.61s WALL (     416 calls)
     addusdens    :     24.16s CPU     32.09s WALL (      13 calls)

     Called by *egterg:
     h_psi        :  33819.11s CPU  33830.53s WALL (    2093 calls)
     s_psi        :  10369.33s CPU  10369.75s WALL (    2093 calls)
     g_psi        :    143.14s CPU    143.15s WALL (    1645 calls)
     cdiaghg      :   1758.20s CPU   1758.80s WALL (    2061 calls)

     Called by h_psi:
     h_psi:pot    :  33648.97s CPU  33655.24s WALL (    2093 calls)
     h_psi:calbec :  10028.45s CPU  10029.62s WALL (    2093 calls)
     vloc_psi     :  13250.75s CPU  13255.38s WALL (    2093 calls)
     add_vuspsi   :  10369.76s CPU  10370.21s WALL (    2093 calls)

     General routines
     calbec       :  14334.78s CPU  14336.22s WALL (    2637 calls)
     fft          :      2.99s CPU      3.01s WALL (     183 calls)
     fftw         :  13485.11s CPU  13488.88s WALL ( 1260634 calls)
     davcio       :      0.30s CPU      9.25s WALL (      32 calls)
 
     Parallel routines
     fft_scatter  :   1280.31s CPU   1281.40s WALL ( 1260817 calls)
 
     PWSCF        :    20h13m CPU       20h21m WALL

 
   This run was terminated on:   8: 4:52  21Oct2017            

=------------------------------------------------------------------------------=
   JOB DONE.
=------------------------------------------------------------------------------=
