 Entering Gaussian System, Link 0=g09
 Input=2hc_2_424-mega_dimer_0_mon-0.com
 Output=2hc_2_424-mega_dimer_0_mon-0.out
 Initial command:
 /share/apps/gaussian/g09_D01/g09/l1.exe "/tmp/169928.1.all.q/Gau-17771.inp" -scrdir="/tmp/169928.1.all.q/"
 Entering Link 1 = /share/apps/gaussian/g09_D01/g09/l1.exe PID=     17772.
  
 Copyright (c) 1988,1990,1992,1993,1995,1998,2003,2009,2013,
            Gaussian, Inc.  All Rights Reserved.
  
 This is part of the Gaussian(R) 09 program.  It is based on
 the Gaussian(R) 03 system (copyright 2003, Gaussian, Inc.),
 the Gaussian(R) 98 system (copyright 1998, Gaussian, Inc.),
 the Gaussian(R) 94 system (copyright 1995, Gaussian, Inc.),
 the Gaussian 92(TM) system (copyright 1992, Gaussian, Inc.),
 the Gaussian 90(TM) system (copyright 1990, Gaussian, Inc.),
 the Gaussian 88(TM) system (copyright 1988, Gaussian, Inc.),
 the Gaussian 86(TM) system (copyright 1986, Carnegie Mellon
 University), and the Gaussian 82(TM) system (copyright 1983,
 Carnegie Mellon University). Gaussian is a federally registered
 trademark of Gaussian, Inc.
  
 This software contains proprietary and confidential information,
 including trade secrets, belonging to Gaussian, Inc.
  
 This software is provided under written license and may be
 used, copied, transmitted, or stored only in accord with that
 written license.
  
 The following legend is applicable only to US Government
 contracts under FAR:
  
                    RESTRICTED RIGHTS LEGEND
  
 Use, reproduction and disclosure by the US Government is
 subject to restrictions as set forth in subparagraphs (a)
 and (c) of the Commercial Computer Software - Restricted
 Rights clause in FAR 52.227-19.
  
 Gaussian, Inc.
 340 Quinnipiac St., Bldg. 40, Wallingford CT 06492
  
  
 ---------------------------------------------------------------
 Warning -- This program may not be used in any manner that
 competes with the business of Gaussian, Inc. or will provide
 assistance to any competitor of Gaussian, Inc.  The licensee
 of this program is prohibited from giving any competitor of
 Gaussian, Inc. access to this program.  By using this program,
 the user acknowledges that Gaussian, Inc. is engaged in the
 business of creating and licensing software in the field of
 computational chemistry and represents and warrants to the
 licensee that it is not a competitor of Gaussian, Inc. and that
 it will not use this program in any manner prohibited above.
 ---------------------------------------------------------------
  

 Cite this work as:
 Gaussian 09, Revision D.01,
 M. J. Frisch, G. W. Trucks, H. B. Schlegel, G. E. Scuseria, 
 M. A. Robb, J. R. Cheeseman, G. Scalmani, V. Barone, B. Mennucci, 
 G. A. Petersson, H. Nakatsuji, M. Caricato, X. Li, H. P. Hratchian, 
 A. F. Izmaylov, J. Bloino, G. Zheng, J. L. Sonnenberg, M. Hada, 
 M. Ehara, K. Toyota, R. Fukuda, J. Hasegawa, M. Ishida, T. Nakajima, 
 Y. Honda, O. Kitao, H. Nakai, T. Vreven, J. A. Montgomery, Jr., 
 J. E. Peralta, F. Ogliaro, M. Bearpark, J. J. Heyd, E. Brothers, 
 K. N. Kudin, V. N. Staroverov, T. Keith, R. Kobayashi, J. Normand, 
 K. Raghavachari, A. Rendell, J. C. Burant, S. S. Iyengar, J. Tomasi, 
 M. Cossi, N. Rega, J. M. Millam, M. Klene, J. E. Knox, J. B. Cross, 
 V. Bakken, C. Adamo, J. Jaramillo, R. Gomperts, R. E. Stratmann, 
 O. Yazyev, A. J. Austin, R. Cammi, C. Pomelli, J. W. Ochterski, 
 R. L. Martin, K. Morokuma, V. G. Zakrzewski, G. A. Voth, 
 P. Salvador, J. J. Dannenberg, S. Dapprich, A. D. Daniels, 
 O. Farkas, J. B. Foresman, J. V. Ortiz, J. Cioslowski, 
 and D. J. Fox, Gaussian, Inc., Wallingford CT, 2013.
 
 ******************************************
 Gaussian 09:  ES64L-G09RevD.01 24-Apr-2013
                13-Nov-2017 
 ******************************************
 %chk=2hc_2_424-mega_dimer_0_mon-0.chk
 %nproc=4
 Will use up to    4 processors via shared memory.
 %mem=28GB
 ------------------------------------------
 #p wb97xd 6-311++G** td=(nstates=4) nosymm
 ------------------------------------------
 1/38=1/1;
 2/12=2,15=1,17=6,18=5,40=1/2;
 3/5=4,6=6,7=1111,11=9,16=1,25=1,30=1,74=-58/1,2,8,3;
 4//1;
 5/5=2,38=5/2;
 8/6=1,10=2,108=4/1;
 9/41=4,42=1,70=2/14;
 6/7=2,8=2,9=2,10=2/1;
 99/5=1,9=1/99;
 Leave Link    1 at Mon Nov 13 15:11:18 2017, MaxMem=  3758096384 cpu:         0.2
 (Enter /share/apps/gaussian/g09_D01/g09/l101.exe)
 -----
 Title
 -----
 Symbolic Z-matrix:
 Charge =  0 Multiplicity = 1
 C                     2.5532   -2.65878  -4.60518 
 C                     2.00374  -1.59198  -5.37505 
 C                     2.36449  -2.72763  -3.24404 
 H                     3.13566  -3.43572  -5.09468 
 C                     1.24711  -0.60792  -4.68 
 N                     2.19725  -1.52485  -6.71719 
 C                     1.62821  -1.74253  -2.54485 
 H                     2.81017  -3.5582   -2.69707 
 C                     1.07116  -0.6941   -3.31512 
 H                     0.80043   0.22307  -5.22049 
 C                     3.04151  -2.50186  -7.38769 
 C                     1.61848  -0.43253  -7.48352 
 C                     1.45327  -1.74084  -1.12785 
 H                     0.49603   0.07439  -2.79771 
 H                     2.63868  -3.52041  -7.27408 
 H                     3.08789  -2.26603  -8.45505 
 H                     4.06796  -2.48129  -6.985 
 H                     1.80919  -0.59836  -8.54864 
 H                     0.52904  -0.38991  -7.33404 
 H                     2.05439   0.53903  -7.19912 
 C                     1.99571  -2.61447  -0.22679 
 H                     0.82478  -0.94281  -0.72233 
 H                     2.64373  -3.41683  -0.57191 
 C                     1.75454  -2.48481   1.18726 
 C                     2.33198  -3.44425   2.1385 
 O                     1.02137  -1.53131   1.63951 
 C                     3.12507  -4.54262   1.74945 
 C                     2.06171  -3.29026   3.53235 
 H                     1.04794  -1.76082   3.105 
 C                     3.60935  -5.45114   2.67397 
 H                     3.36441  -4.70579   0.70001 
 O                     1.30627  -2.26608   3.97936 
 C                     2.55642  -4.21675   4.45523 
 C                     3.31594  -5.30882   4.0439 
 H                     4.22554  -6.28563   2.34032 
 H                     2.33028  -4.05945   5.51025 
 C                     3.7975   -6.31927   5.04291 
 H                     4.28399  -7.1723    4.5532 
 H                     4.51496  -5.87575   5.75128 
 H                     2.95599  -6.70701   5.63777 
 
 NAtoms=     40 NQM=       40 NQMF=       0 NMMI=      0 NMMIF=      0
                NMic=       0 NMicF=      0.
                    Isotopes and Nuclear Properties:
 (Nuclear quadrupole moments (NQMom) in fm**2, nuclear magnetic moments (NMagM)
  in nuclear magnetons)

  Atom         1           2           3           4           5           6           7           8           9          10
 IAtWgt=          12          12          12           1          12          14          12           1          12           1
 AtmWgt=  12.0000000  12.0000000  12.0000000   1.0078250  12.0000000  14.0030740  12.0000000   1.0078250  12.0000000   1.0078250
 NucSpn=           0           0           0           1           0           2           0           1           0           1
 AtZEff=   0.0000000   0.0000000   0.0000000   0.0000000   0.0000000   0.0000000   0.0000000   0.0000000   0.0000000   0.0000000
 NQMom=    0.0000000   0.0000000   0.0000000   0.0000000   0.0000000   2.0440000   0.0000000   0.0000000   0.0000000   0.0000000
 NMagM=    0.0000000   0.0000000   0.0000000   2.7928460   0.0000000   0.4037610   0.0000000   2.7928460   0.0000000   2.7928460
 AtZNuc=   6.0000000   6.0000000   6.0000000   1.0000000   6.0000000   7.0000000   6.0000000   1.0000000   6.0000000   1.0000000

  Atom        11          12          13          14          15          16          17          18          19          20
 IAtWgt=          12          12          12           1           1           1           1           1           1           1
 AtmWgt=  12.0000000  12.0000000  12.0000000   1.0078250   1.0078250   1.0078250   1.0078250   1.0078250   1.0078250   1.0078250
 NucSpn=           0           0           0           1           1           1           1           1           1           1
 AtZEff=   0.0000000   0.0000000   0.0000000   0.0000000   0.0000000   0.0000000   0.0000000   0.0000000   0.0000000   0.0000000
 NQMom=    0.0000000   0.0000000   0.0000000   0.0000000   0.0000000   0.0000000   0.0000000   0.0000000   0.0000000   0.0000000
 NMagM=    0.0000000   0.0000000   0.0000000   2.7928460   2.7928460   2.7928460   2.7928460   2.7928460   2.7928460   2.7928460
 AtZNuc=   6.0000000   6.0000000   6.0000000   1.0000000   1.0000000   1.0000000   1.0000000   1.0000000   1.0000000   1.0000000

  Atom        21          22          23          24          25          26          27          28          29          30
 IAtWgt=          12           1           1          12          12          16          12          12           1          12
 AtmWgt=  12.0000000   1.0078250   1.0078250  12.0000000  12.0000000  15.9949146  12.0000000  12.0000000   1.0078250  12.0000000
 NucSpn=           0           1           1           0           0           0           0           0           1           0
 AtZEff=   0.0000000   0.0000000   0.0000000   0.0000000   0.0000000   0.0000000   0.0000000   0.0000000   0.0000000   0.0000000
 NQMom=    0.0000000   0.0000000   0.0000000   0.0000000   0.0000000   0.0000000   0.0000000   0.0000000   0.0000000   0.0000000
 NMagM=    0.0000000   2.7928460   2.7928460   0.0000000   0.0000000   0.0000000   0.0000000   0.0000000   2.7928460   0.0000000
 AtZNuc=   6.0000000   1.0000000   1.0000000   6.0000000   6.0000000   8.0000000   6.0000000   6.0000000   1.0000000   6.0000000

  Atom        31          32          33          34          35          36          37          38          39          40
 IAtWgt=           1          16          12          12           1           1          12           1           1           1
 AtmWgt=   1.0078250  15.9949146  12.0000000  12.0000000   1.0078250   1.0078250  12.0000000   1.0078250   1.0078250   1.0078250
 NucSpn=           1           0           0           0           1           1           0           1           1           1
 AtZEff=   0.0000000   0.0000000   0.0000000   0.0000000   0.0000000   0.0000000   0.0000000   0.0000000   0.0000000   0.0000000
 NQMom=    0.0000000   0.0000000   0.0000000   0.0000000   0.0000000   0.0000000   0.0000000   0.0000000   0.0000000   0.0000000
 NMagM=    2.7928460   0.0000000   0.0000000   0.0000000   2.7928460   2.7928460   0.0000000   2.7928460   2.7928460   2.7928460
 AtZNuc=   1.0000000   8.0000000   6.0000000   6.0000000   1.0000000   1.0000000   6.0000000   1.0000000   1.0000000   1.0000000
 Leave Link  101 at Mon Nov 13 15:11:19 2017, MaxMem=  3758096384 cpu:         0.3
 (Enter /share/apps/gaussian/g09_D01/g09/l202.exe)
                          Input orientation:                          
 ---------------------------------------------------------------------
 Center     Atomic      Atomic             Coordinates (Angstroms)
 Number     Number       Type             X           Y           Z
 ---------------------------------------------------------------------
      1          6           0        2.553201   -2.658779   -4.605183
      2          6           0        2.003740   -1.591982   -5.375045
      3          6           0        2.364491   -2.727633   -3.244044
      4          1           0        3.135661   -3.435715   -5.094676
      5          6           0        1.247109   -0.607923   -4.680003
      6          7           0        2.197245   -1.524853   -6.717190
      7          6           0        1.628214   -1.742526   -2.544853
      8          1           0        2.810172   -3.558198   -2.697065
      9          6           0        1.071163   -0.694102   -3.315116
     10          1           0        0.800426    0.223073   -5.220494
     11          6           0        3.041507   -2.501856   -7.387689
     12          6           0        1.618481   -0.432525   -7.483522
     13          6           0        1.453269   -1.740841   -1.127854
     14          1           0        0.496034    0.074390   -2.797705
     15          1           0        2.638680   -3.520413   -7.274076
     16          1           0        3.087893   -2.266027   -8.455047
     17          1           0        4.067959   -2.481285   -6.985003
     18          1           0        1.809186   -0.598363   -8.548640
     19          1           0        0.529036   -0.389905   -7.334041
     20          1           0        2.054389    0.539030   -7.199118
     21          6           0        1.995711   -2.614472   -0.226791
     22          1           0        0.824780   -0.942808   -0.722327
     23          1           0        2.643729   -3.416825   -0.571906
     24          6           0        1.754536   -2.484814    1.187257
     25          6           0        2.331984   -3.444253    2.138501
     26          8           0        1.021369   -1.531306    1.639506
     27          6           0        3.125072   -4.542615    1.749447
     28          6           0        2.061708   -3.290261    3.532347
     29          1           0        1.047936   -1.760816    3.104999
     30          6           0        3.609347   -5.451136    2.673973
     31          1           0        3.364409   -4.705792    0.700013
     32          8           0        1.306270   -2.266076    3.979362
     33          6           0        2.556416   -4.216754    4.455230
     34          6           0        3.315939   -5.308821    4.043903
     35          1           0        4.225537   -6.285629    2.340322
     36          1           0        2.330283   -4.059447    5.510250
     37          6           0        3.797503   -6.319273    5.042906
     38          1           0        4.283994   -7.172302    4.553201
     39          1           0        4.514960   -5.875751    5.751278
     40          1           0        2.955985   -6.707014    5.637774
 ---------------------------------------------------------------------
                    Distance matrix (angstroms):
                    1          2          3          4          5
     1  C    0.000000
     2  C    1.425711   0.000000
     3  C    1.375882   2.441518   0.000000
     4  H    1.087425   2.181560   2.126246   0.000000
     5  C    2.432588   1.422655   2.793509   3.425637   0.000000
     6  N    2.423441   1.357683   3.679320   2.676671   2.427684
     7  C    2.437228   2.858963   1.414711   3.411874   2.447740
     8  H    2.125065   3.418759   1.089796   2.422702   3.883212
     9  C    2.778609   2.432940   2.411016   3.865932   1.378876
    10  H    3.428688   2.183180   3.880634   4.342336   1.087295
    11  C    2.829383   2.440403   4.204655   2.477674   3.760108
    12  C    3.756959   2.436892   4.878240   4.126448   2.833443
    13  C    3.760888   4.285301   2.506460   4.630196   3.734135
    14  H    3.868995   3.419452   3.397305   4.956263   2.138390
    15  H    2.805835   2.779984   4.116411   2.236951   4.141048
    16  H    3.906610   3.334087   5.281188   3.558447   4.515391
    17  H    2.826577   2.764747   4.117920   2.313753   4.096304
    18  H    4.511067   3.331191   5.742899   4.662614   3.909268
    19  H    4.085548   2.730825   5.055882   4.591972   2.758093
    20  H    4.147685   2.805534   5.139053   4.625627   2.883252
    21  C    4.413964   5.248816   3.041812   5.066580   4.941431
    22  H    4.583510   4.843466   3.451864   5.538248   3.994209
    23  H    4.104894   5.177816   2.773676   4.549484   5.168843
    24  C    5.849828   6.627447   4.479669   6.501877   6.181015
    25  C    6.792877   7.745452   5.430137   7.277693   7.464162
    26  O    6.527928   7.083266   5.204252   7.310692   6.390602
    27  C    6.652608   7.792433   5.367271   6.933063   7.768293
    28  C    8.176780   9.068029   6.806446   8.694829   8.677626
    29  H    7.906900   8.535409   6.555791   8.625460   7.872426
    30  C    7.867580   9.069605   6.632500   8.039789   9.116899
    31  H    5.743990   6.960859   4.524216   5.936652   7.086611
    32  O    8.683517   9.404563   7.315084   9.330214   8.816891
    33  C    9.193388  10.189661   7.844306   9.599284   9.909108
    34  C    9.078060  10.210452   7.789862   9.330308  10.123489
    35  H    8.011915   9.300193   6.878079   8.036730   9.507489
    36  H   10.214379  11.166229   8.855087  10.653738  10.813304
    37  C   10.393898  11.580094   9.144777  10.560469  11.561098
    38  H   10.355845  11.615059   9.178050  10.409721  11.728845
    39  H   11.020603  12.184087   9.769902  11.202275  12.134269
    40  H   11.021280  12.180004   9.750489  11.221371  12.106845
                    6          7          8          9         10
     6  N    0.000000
     7  C    4.216583   0.000000
     8  H    4.546601   2.171833   0.000000
     9  C    3.678630   1.415205   3.407225   0.000000
    10  H    2.691923   3.421676   4.970391   2.131894   0.000000
    11  C    1.454951   5.101670   4.813661   4.871969   4.140582
    12  C    1.454446   5.109467   5.839532   4.212314   2.494057
    13  C    5.642768   1.427759   2.757969   2.454747   4.586160
    14  H    4.562243   2.155678   4.308255   1.090444   2.446358
    15  H    2.118312   5.152424   4.580378   5.110627   4.648663
    16  H    2.088717   6.110246   5.907723   5.740822   4.678724
    17  H    2.118031   5.119868   4.596540   5.063880   4.593889
    18  H    2.088823   6.114517   6.633515   5.286172   3.573361
    19  H    2.109866   5.096479   6.061618   4.066718   2.217313
    20  H    2.124212   5.200895   6.134082   4.191995   2.363727
    21  C    6.584312   2.503748   2.766987   3.752381   5.866638
    22  H    6.177444   2.146312   3.831662   2.616317   4.646868
    23  H    6.445419   2.779760   2.136350   4.172695   6.185143
    24  C    7.974823   3.807308   4.165871   4.893364   7.021556
    25  C    9.062313   5.032392   4.860488   6.236581   8.363597
    26  O    8.439022   4.233407   5.110182   5.025104   7.084226
    27  C    9.036133   5.340608   4.565053   6.684265   8.757616
    28  C   10.401348   6.286156   6.279933   7.389788   9.515596
    29  H    9.892016   5.679603   6.324556   6.508171   8.562179
    30  C   10.276365   6.701852   5.750647   8.058594  10.119748
    31  H    8.154480   4.724878   3.628263   6.121593   8.119121
    32  O   10.759158   6.553101   6.964623   7.465640   9.544061
    33  C   11.497752   7.482281   7.187031   8.659869  10.789588
    34  C   11.461719   7.679751   6.982917   8.971611  11.079653
    35  H   10.431562   7.158967   5.900628   8.555655  10.548011
    36  H   12.488081   8.411047   8.236599   9.528799  11.654583
    37  C   12.800279   9.122857   8.276805  10.437050  12.534837
    38  H   12.777712   9.322983   8.234091  10.686429  12.741740
    39  H   13.407640   9.707865   8.924789  10.995850  13.090959
    40  H   13.419226   9.662531   8.910996  10.948146  13.060418
                   11         12         13         14         15
    11  C    0.000000
    12  C    2.513229   0.000000
    13  C    6.502859   6.491032   0.000000
    14  H    5.846745   4.844970   2.645707   0.000000
    15  H    1.101197   3.258792   6.507543   6.127923   0.000000
    16  H    1.094084   2.542590   7.525661   6.648368   1.780441
    17  H    1.102807   3.232009   6.456861   6.068244   1.790583
    18  H    2.547491   1.094690   7.516648   5.937189   3.294078
    19  H    3.282640   1.100478   6.418410   4.560154   3.775483
    20  H    3.202647   1.102189   6.513018   4.692206   4.101962
    21  C    7.237737   7.587051   1.367256   4.011061   7.134309
    22  H    7.195246   6.826720   1.093758   2.334515   7.270467
    23  H    6.888417   7.597869   2.129600   4.664264   6.702972
    24  C    8.671002   8.911387   2.450305   4.900334   8.570200
    25  C    9.598949  10.107567   3.787193   6.333853   9.417880
    26  O    9.301246   9.208339   2.808687   4.747955   9.274922
    27  C    9.362635  10.218139   4.350141   6.993223   9.094253
    28  C   10.992214  11.389138   4.948573   7.337695  10.824262
    29  H   10.706072  10.686751   4.252263   6.206004  10.646682
    30  C   10.500368  11.503248   5.733136   8.376361  10.180057
    31  H    8.388833   9.395708   3.972970   6.581166   8.094313
    32  O   11.501152  11.612799   5.136257   7.215463  11.401252
    33  C   11.976265  12.559216   6.206280   8.675492  11.750246
    34  C   11.774365  12.630960   6.553403   9.150870  11.478403
    35  H   10.504907  11.728746   6.353646   8.986565  10.129224
    36  H   13.011101  13.509232   7.085867   9.459133  12.799401
    37  C   13.025509  14.011186   8.033415  10.642077  12.684027
    38  H   12.881836  14.050347   8.353931  10.995408  12.487107
    39  H   13.645024  14.600624   8.590337  11.164276  13.368915
    40  H   13.687708  14.605702   8.526122  11.099374  13.303044
                   16         17         18         19         20
    16  H    0.000000
    17  H    1.779858   0.000000
    18  H    2.103558   3.330527   0.000000
    19  H    3.365150   4.125491   1.776933   0.000000
    20  H    3.242504   3.636291   1.781852   1.791041   0.000000
    21  C    8.307736   7.070034   8.564617   7.590312   7.652540
    22  H    8.165020   7.218465   7.895497   6.641380   6.756967
    23  H    7.979068   6.635622   8.501087   7.704586   7.740546
    24  C    9.736516   8.493396   9.917125   8.860193   8.919912
    25  C   10.685639   9.336982  11.071919  10.114777  10.155527
    26  O   10.330070   9.195995  10.261060   9.059235   9.136449
    27  C   10.455426   9.023787  11.105822  10.319601  10.346318
    28  C   12.074756  10.737511  12.379836  11.350750  11.394203
    29  H   11.749525  10.556882  11.736188  10.541452  10.605521
    30  C   11.587576  10.115639  12.358682  11.630336  11.652378
    31  H    9.478609   8.031369  10.238519   9.550510   9.571864
    32  O   12.561398  11.308870  12.648519  11.494225  11.549317
    33  C   13.067634  11.669428  13.518570  12.559536  12.597354
    34  C   12.866015  11.410401  13.528890  12.705124  12.735556
    35  H   11.575467  10.072713  12.520113  11.917088  11.928569
    36  H   14.100349  12.713830  14.488031  13.479089  13.518511
    37  C   14.111240  12.628297  14.879931  14.107767  14.140082
    38  H   13.954093  12.457225  14.866055  14.191798  14.232104
    39  H   14.727060  13.188444  15.480946  14.737967  14.660033
    40  H   14.776582  13.357686  15.488225  14.630924  14.768339
                   21         22         23         24         25
    21  C    0.000000
    22  H    2.100261   0.000000
    23  H    1.087567   3.074404   0.000000
    24  C    1.440315   2.624641   2.180358   0.000000
    25  C    2.529075   4.088181   2.728414   1.469297   0.000000
    26  O    2.367627   2.441973   3.328299   1.285006   2.371935
    27  C    2.983070   4.935547   2.624457   2.535542   1.409521
    28  C    3.819969   5.014257   4.147247   2.498509   1.428135
    29  H    3.567609   3.920122   4.336883   2.168223   2.327414
    30  C    4.366339   6.293941   3.950515   3.801278   2.438435
    31  H    2.665693   4.757396   1.948998   2.786008   2.174081
    32  O    4.276498   4.908029   4.881297   2.836307   2.414324
    33  C    4.980263   6.365876   5.091130   3.784478   2.452419
    34  C    5.219324   6.927113   5.033608   4.309689   2.841714
    35  H    5.003957   7.034963   4.383289   4.677777   3.420481
    36  H    5.925667   7.129165   6.124037   4.636725   3.427413
    37  C    6.688925   8.425044   6.425069   5.808857   4.341550
    38  H    6.989877   8.865887   6.562073   6.300816   4.851749
    39  H    7.260845   8.936382   7.037789   6.320497   4.871316
    40  H    7.215549   8.844150   7.034413   6.251204   4.824925
                   26         27         28         29         30
    26  O    0.000000
    27  C    3.675001   0.000000
    28  C    2.785512   2.424431   0.000000
    29  H    1.483594   3.726985   1.884028   0.000000
    30  C    4.809659   1.383720   2.793094   4.512768   0.000000
    31  H    4.055841   1.088678   3.423868   4.452290   2.124159
    32  O    2.469004   3.669222   1.348875   1.042370   4.141595
    33  C    4.182858   2.784029   1.398155   3.182808   2.409406
    34  C    5.031480   2.426526   2.430919   4.314362   1.408208
    35  H    5.775935   2.144354   3.882694   5.581739   1.089675
    36  H    4.804936   3.874117   2.139131   3.565579   3.408412
    37  C    6.497282   3.802045   3.803904   5.665257   2.530002
    38  H    7.138289   4.014896   4.588130   6.469431   2.636107
    39  H    6.927196   4.441136   4.198435   5.996310   3.235775
    40  H    6.820325   4.453347   4.111782   5.875413   3.284544
                   31         32         33         34         35
    31  H    0.000000
    32  O    4.576274   0.000000
    33  C    3.872165   2.365261   0.000000
    34  C    3.398175   3.647085   1.392363   0.000000
    35  H    2.434757   5.231193   3.396917   2.164188   0.000000
    36  H    4.962415   2.570681   1.090389   2.163938   4.312345
    37  C    4.653129   4.875015   2.511224   1.500308   2.736477
    38  H    4.666515   5.767771   3.424819   2.160805   2.384626
    39  H    5.311106   5.144427   2.875397   2.161988   3.447664
    40  H    5.343518   5.019345   2.785581   2.150566   3.558443
                   36         37         38         39         40
    36  H    0.000000
    37  C    2.734586   0.000000
    38  H    3.797736   1.097334   0.000000
    39  H    2.851292   1.101475   1.780387   0.000000
    40  H    2.723486   1.101074   1.776626   1.770391   0.000000
 Symmetry turned off by external request.
 Stoichiometry    C18H19NO2
 Framework group  C1[X(C18H19NO2)]
 Deg. of freedom   114
 Full point group                 C1      NOp   1
 Rotational constants (GHZ):      0.9172173      0.0943299      0.0857040
 Leave Link  202 at Mon Nov 13 15:11:19 2017, MaxMem=  3758096384 cpu:         0.0
 (Enter /share/apps/gaussian/g09_D01/g09/l301.exe)
 Standard basis: 6-311++G(d,p) (5D, 7F)
 Ernie: Thresh=  0.10000D-02 Tol=  0.10000D-05 Strict=F.
   595 basis functions,   927 primitive gaussians,   616 cartesian basis functions
    75 alpha electrons       75 beta electrons
       nuclear repulsion energy      1472.4281161254 Hartrees.
 IExCor= 4639 DFT=T Ex+Corr=wB97XD ExCW=0 ScaHFX=  1.000000
 ScaDFX=  1.000000  1.000000  1.000000  1.000000 ScalE2=  1.000000  1.000000
 IRadAn=      0 IRanWt=     -1 IRanGd=            0 ICorTp=0 IEmpDi=121
  HFx wShort=  0.000000 wLong=  0.200000 cFull=  0.222036 cShort=  0.000000 cLong=  0.777964
  DFx wShort=  0.000000 wLong=  0.200000 cFull=  0.000000 cShort=  0.000000 cLong=  1.000000
 NAtoms=   40 NActive=   40 NUniq=   40 SFac= 1.00D+00 NAtFMM=   60 NAOKFM=F Big=F
 Integral buffers will be    131072 words long.
 Raffenetti 1 integral format.
 Two-electron integral symmetry is turned off.
 R6Disp:  Grimme-D2 Dispersion energy=       -0.0251655498 Hartrees.
 Nuclear repulsion after empirical dispersion term =     1472.4029505756 Hartrees.
 Leave Link  301 at Mon Nov 13 15:11:19 2017, MaxMem=  3758096384 cpu:         0.1
 (Enter /share/apps/gaussian/g09_D01/g09/l302.exe)
 NPDir=0 NMtPBC=     1 NCelOv=     1 NCel=       1 NClECP=     1 NCelD=      1
         NCelK=      1 NCelE2=     1 NClLst=     1 CellRange=     0.0.
 One-electron integrals computed using PRISM.
 NBasis=   595 RedAO= T EigKep=  1.45D-06  NBF=   595
 NBsUse=   587 1.00D-06 EigRej=  7.95D-07 NBFU=   587
 Precomputing XC quadrature grid using
 IXCGrd= 4 IRadAn=           0 IRanWt=          -1 IRanGd=           0 AccXCQ= 0.00D+00.
 Generated NRdTot=       0 NPtTot=           0 NUsed=           0 NTot=          32
 NSgBfM=   598   598   598   598   598 MxSgAt=    40 MxSgA2=    40.
 Leave Link  302 at Mon Nov 13 15:11:20 2017, MaxMem=  3758096384 cpu:         3.6
 (Enter /share/apps/gaussian/g09_D01/g09/l308.exe)
 Leave Link  308 at Mon Nov 13 15:11:20 2017, MaxMem=  3758096384 cpu:         0.4
 (Enter /share/apps/gaussian/g09_D01/g09/l303.exe)
 DipDrv:  MaxL=1.
 Leave Link  303 at Mon Nov 13 15:11:20 2017, MaxMem=  3758096384 cpu:         0.3
 (Enter /share/apps/gaussian/g09_D01/g09/l401.exe)
 ExpMin= 3.60D-02 ExpMax= 8.59D+03 ExpMxC= 1.30D+03 IAcc=3 IRadAn=         5 AccDes= 0.00D+00
 Harris functional with IExCor= 4639 and IRadAn=       5 diagonalized for initial guess.
 HarFok:  IExCor= 4639 AccDes= 0.00D+00 IRadAn=         5 IDoV= 1 UseB2=F ITyADJ=14
 ICtDFT=  3500011 ScaDFX=  1.000000  1.000000  1.000000  1.000000
 FoFCou: FMM=F IPFlag=           0 FMFlag=      100000 FMFlg1=           0
         NFxFlg=           0 DoJE=T BraDBF=F KetDBF=T FulRan=T
         wScrn=  0.000000 ICntrl=     500 IOpCl=  0 I1Cent=   200000004 NGrid=           0
         NMat0=    1 NMatS0=      1 NMatT0=    0 NMatD0=    1 NMtDS0=    0 NMtDT0=    0
 Symmetry not used in FoFCou.
 Harris En= -862.833672404779    
 JPrj=0 DoOrth=F DoCkMO=F.
 Leave Link  401 at Mon Nov 13 15:11:31 2017, MaxMem=  3758096384 cpu:        44.5
 (Enter /share/apps/gaussian/g09_D01/g09/l502.exe)
 Closed shell SCF:
 Using DIIS extrapolation, IDIIS=  1040.
 Two-electron integral symmetry not used.
 IVT=     1164390 IEndB=     1164390 NGot=  3758096384 MDV=  3757328707
 LenX=  3757328707 LenY=  3756948635
 Requested convergence on RMS density matrix=1.00D-08 within 128 cycles.
 Requested convergence on MAX density matrix=1.00D-06.
 Requested convergence on             energy=1.00D-06.
 No special actions if energy rises.
 Fock matrices will be formed incrementally for  20 cycles.

 Cycle   1  Pass 1  IDiag  1:
 FoFJK:  IHMeth= 1 ICntrl=       0 DoSepK=T KAlg= 0 I1Cent=   0 FoldK=F
 IRaf=         1 NMat=   1 IRICut=       1 DoRegI=T DoRafI=F ISym2E= 0.
 FoFCou: FMM=F IPFlag=           0 FMFlag=      100000 FMFlg1=           0
         NFxFlg=           0 DoJE=T BraDBF=F KetDBF=F FulRan=T
         wScrn=  0.000000 ICntrl=     500 IOpCl=  0 I1Cent=           0 NGrid=           0
         NMat0=    1 NMatS0=      1 NMatT0=    0 NMatD0=    1 NMtDS0=    0 NMtDT0=    0
 Symmetry not used in FoFCou.
 E= -902.181017410507    
 DIIS: error= 6.48D-02 at cycle   1 NSaved=   1.
 NSaved= 1 IEnMin= 1 EnMin= -902.181017410507     IErMin= 1 ErrMin= 6.48D-02
 ErrMax= 6.48D-02  0.00D+00 EMaxC= 1.00D-01 BMatC= 1.95D+00 BMatP= 1.95D+00
 IDIUse=3 WtCom= 3.52D-01 WtEn= 6.48D-01
 Coeff-Com:  0.100D+01
 Coeff-En:   0.100D+01
 Coeff:      0.100D+01
 Gap=     0.283 Goal=   None    Shift=    0.000
 GapD=    0.283 DampG=1.000 DampE=0.500 DampFc=0.5000 IDamp=-1.
 Damping current iteration by 5.00D-01
 RMSDP=1.67D-02 MaxDP=1.62D+00              OVMax= 1.97D-01

 Cycle   2  Pass 1  IDiag  1:
 RMSU=  2.99D-03    CP:  8.24D-01
 E= -902.315307921042     Delta-E=       -0.134290510535 Rises=F Damp=T
 DIIS: error= 3.01D-02 at cycle   2 NSaved=   2.
 NSaved= 2 IEnMin= 2 EnMin= -902.315307921042     IErMin= 2 ErrMin= 3.01D-02
 ErrMax= 3.01D-02  0.00D+00 EMaxC= 1.00D-01 BMatC= 4.13D-01 BMatP= 1.95D+00
 IDIUse=3 WtCom= 6.99D-01 WtEn= 3.01D-01
 Coeff-Com: -0.591D+00 0.159D+01
 Coeff-En:   0.000D+00 0.100D+01
 Coeff:     -0.413D+00 0.141D+01
 Gap=     0.277 Goal=   None    Shift=    0.000
 RMSDP=9.20D-03 MaxDP=9.97D-01 DE=-1.34D-01 OVMax= 2.22D-01

 Cycle   3  Pass 1  IDiag  1:
 RMSU=  3.66D-03    CP:  6.35D-01  1.43D+00
 E= -902.372879928786     Delta-E=       -0.057572007745 Rises=F Damp=F
 DIIS: error= 2.41D-02 at cycle   3 NSaved=   3.
 NSaved= 3 IEnMin= 3 EnMin= -902.372879928786     IErMin= 3 ErrMin= 2.41D-02
 ErrMax= 2.41D-02  0.00D+00 EMaxC= 1.00D-01 BMatC= 1.23D-01 BMatP= 4.13D-01
 IDIUse=3 WtCom= 7.59D-01 WtEn= 2.41D-01
 Coeff-Com: -0.371D+00 0.797D+00 0.573D+00
 Coeff-En:   0.000D+00 0.166D+00 0.834D+00
 Coeff:     -0.281D+00 0.645D+00 0.636D+00
 Gap=     0.274 Goal=   None    Shift=    0.000
 RMSDP=2.72D-03 MaxDP=1.44D-01 DE=-5.76D-02 OVMax= 1.08D-01

 Cycle   4  Pass 1  IDiag  1:
 RMSU=  1.11D-03    CP:  6.04D-01  1.69D+00  4.77D-01
 E= -902.467692827234     Delta-E=       -0.094812898448 Rises=F Damp=F
 DIIS: error= 6.27D-03 at cycle   4 NSaved=   4.
 NSaved= 4 IEnMin= 4 EnMin= -902.467692827234     IErMin= 4 ErrMin= 6.27D-03
 ErrMax= 6.27D-03  0.00D+00 EMaxC= 1.00D-01 BMatC= 1.46D-02 BMatP= 1.23D-01
 IDIUse=3 WtCom= 9.37D-01 WtEn= 6.27D-02
 Coeff-Com: -0.138D+00 0.297D+00 0.362D+00 0.478D+00
 Coeff-En:   0.000D+00 0.000D+00 0.576D-01 0.942D+00
 Coeff:     -0.129D+00 0.278D+00 0.343D+00 0.507D+00
 Gap=     0.241 Goal=   None    Shift=    0.000
 RMSDP=7.58D-04 MaxDP=4.15D-02 DE=-9.48D-02 OVMax= 2.74D-02

 Cycle   5  Pass 1  IDiag  1:
 RMSU=  2.82D-04    CP:  6.11D-01  1.67D+00  6.26D-01  7.01D-01
 E= -902.479528799492     Delta-E=       -0.011835972258 Rises=F Damp=F
 DIIS: error= 9.52D-04 at cycle   5 NSaved=   5.
 NSaved= 5 IEnMin= 5 EnMin= -902.479528799492     IErMin= 5 ErrMin= 9.52D-04
 ErrMax= 9.52D-04  0.00D+00 EMaxC= 1.00D-01 BMatC= 1.96D-04 BMatP= 1.46D-02
 IDIUse=3 WtCom= 9.90D-01 WtEn= 9.52D-03
 Coeff-Com:  0.157D-01-0.335D-01 0.214D-01 0.159D+00 0.837D+00
 Coeff-En:   0.000D+00 0.000D+00 0.000D+00 0.000D+00 0.100D+01
 Coeff:      0.155D-01-0.332D-01 0.212D-01 0.157D+00 0.839D+00
 Gap=     0.241 Goal=   None    Shift=    0.000
 RMSDP=2.61D-04 MaxDP=1.64D-02 DE=-1.18D-02 OVMax= 8.50D-03

 Cycle   6  Pass 1  IDiag  1:
 RMSU=  1.36D-04    CP:  6.08D-01  1.66D+00  6.18D-01  8.62D-01  1.07D+00
 E= -902.479775355645     Delta-E=       -0.000246556153 Rises=F Damp=F
 DIIS: error= 6.70D-04 at cycle   6 NSaved=   6.
 NSaved= 6 IEnMin= 6 EnMin= -902.479775355645     IErMin= 6 ErrMin= 6.70D-04
 ErrMax= 6.70D-04  0.00D+00 EMaxC= 1.00D-01 BMatC= 6.75D-05 BMatP= 1.96D-04
 IDIUse=3 WtCom= 9.93D-01 WtEn= 6.70D-03
 Coeff-Com:  0.278D-01-0.598D-01-0.444D-01-0.479D-02 0.441D+00 0.640D+00
 Coeff-En:   0.000D+00 0.000D+00 0.000D+00 0.000D+00 0.000D+00 0.100D+01
 Coeff:      0.276D-01-0.594D-01-0.441D-01-0.475D-02 0.438D+00 0.643D+00
 Gap=     0.242 Goal=   None    Shift=    0.000
 RMSDP=6.02D-05 MaxDP=4.84D-03 DE=-2.47D-04 OVMax= 4.85D-03

 Cycle   7  Pass 1  IDiag  1:
 RMSU=  4.38D-05    CP:  6.08D-01  1.67D+00  6.22D-01  8.70D-01  1.20D+00
                    CP:  1.04D+00
 E= -902.479858715205     Delta-E=       -0.000083359560 Rises=F Damp=F
 DIIS: error= 1.44D-04 at cycle   7 NSaved=   7.
 NSaved= 7 IEnMin= 7 EnMin= -902.479858715205     IErMin= 7 ErrMin= 1.44D-04
 ErrMax= 1.44D-04  0.00D+00 EMaxC= 1.00D-01 BMatC= 4.62D-06 BMatP= 6.75D-05
 IDIUse=3 WtCom= 9.99D-01 WtEn= 1.44D-03
 Coeff-Com:  0.276D-02-0.592D-02-0.954D-02-0.189D-01-0.239D-01 0.165D+00
 Coeff-Com:  0.891D+00
 Coeff-En:   0.000D+00 0.000D+00 0.000D+00 0.000D+00 0.000D+00 0.000D+00
 Coeff-En:   0.100D+01
 Coeff:      0.275D-02-0.592D-02-0.953D-02-0.189D-01-0.238D-01 0.165D+00
 Coeff:      0.891D+00
 Gap=     0.242 Goal=   None    Shift=    0.000
 RMSDP=3.61D-05 MaxDP=3.56D-03 DE=-8.34D-05 OVMax= 2.63D-03

 Cycle   8  Pass 1  IDiag  1:
 RMSU=  2.02D-05    CP:  6.08D-01  1.66D+00  6.20D-01  8.85D-01  1.24D+00
                    CP:  1.18D+00  1.08D+00
 E= -902.479870749091     Delta-E=       -0.000012033887 Rises=F Damp=F
 DIIS: error= 8.18D-05 at cycle   8 NSaved=   8.
 NSaved= 8 IEnMin= 8 EnMin= -902.479870749091     IErMin= 8 ErrMin= 8.18D-05
 ErrMax= 8.18D-05  0.00D+00 EMaxC= 1.00D-01 BMatC= 1.33D-06 BMatP= 4.62D-06
 IDIUse=1 WtCom= 1.00D+00 WtEn= 0.00D+00
 Coeff-Com: -0.314D-02 0.680D-02 0.246D-02-0.994D-02-0.945D-01-0.251D-01
 Coeff-Com:  0.423D+00 0.700D+00
 Coeff:     -0.314D-02 0.680D-02 0.246D-02-0.994D-02-0.945D-01-0.251D-01
 Coeff:      0.423D+00 0.700D+00
 Gap=     0.242 Goal=   None    Shift=    0.000
 RMSDP=1.44D-05 MaxDP=1.34D-03 DE=-1.20D-05 OVMax= 1.43D-03

 Cycle   9  Pass 1  IDiag  1:
 RMSU=  8.06D-06    CP:  6.08D-01  1.66D+00  6.19D-01  8.90D-01  1.26D+00
                    CP:  1.23D+00  1.21D+00  1.15D+00
 E= -902.479873893069     Delta-E=       -0.000003143977 Rises=F Damp=F
 DIIS: error= 3.28D-05 at cycle   9 NSaved=   9.
 NSaved= 9 IEnMin= 9 EnMin= -902.479873893069     IErMin= 9 ErrMin= 3.28D-05
 ErrMax= 3.28D-05  0.00D+00 EMaxC= 1.00D-01 BMatC= 1.44D-07 BMatP= 1.33D-06
 IDIUse=1 WtCom= 1.00D+00 WtEn= 0.00D+00
 Coeff-Com: -0.130D-02 0.278D-02 0.281D-02 0.127D-02-0.205D-01-0.339D-01
 Coeff-Com: -0.764D-01 0.142D+00 0.983D+00
 Coeff:     -0.130D-02 0.278D-02 0.281D-02 0.127D-02-0.205D-01-0.339D-01
 Coeff:     -0.764D-01 0.142D+00 0.983D+00
 Gap=     0.242 Goal=   None    Shift=    0.000
 RMSDP=8.59D-06 MaxDP=6.70D-04 DE=-3.14D-06 OVMax= 7.66D-04

 Cycle  10  Pass 1  IDiag  1:
 RMSU=  4.51D-06    CP:  6.08D-01  1.66D+00  6.19D-01  8.91D-01  1.27D+00
                    CP:  1.26D+00  1.27D+00  1.35D+00  1.29D+00
 E= -902.479874494644     Delta-E=       -0.000000601576 Rises=F Damp=F
 DIIS: error= 1.07D-05 at cycle  10 NSaved=  10.
 NSaved=10 IEnMin=10 EnMin= -902.479874494644     IErMin=10 ErrMin= 1.07D-05
 ErrMax= 1.07D-05  0.00D+00 EMaxC= 1.00D-01 BMatC= 2.53D-08 BMatP= 1.44D-07
 IDIUse=1 WtCom= 1.00D+00 WtEn= 0.00D+00
 Coeff-Com:  0.147D-03-0.323D-03 0.460D-03 0.200D-02 0.755D-02-0.575D-02
 Coeff-Com: -0.910D-01-0.578D-01 0.330D+00 0.815D+00
 Coeff:      0.147D-03-0.323D-03 0.460D-03 0.200D-02 0.755D-02-0.575D-02
 Coeff:     -0.910D-01-0.578D-01 0.330D+00 0.815D+00
 Gap=     0.242 Goal=   None    Shift=    0.000
 RMSDP=2.86D-06 MaxDP=1.68D-04 DE=-6.02D-07 OVMax= 2.63D-04

 Cycle  11  Pass 1  IDiag  1:
 RMSU=  1.36D-06    CP:  6.08D-01  1.66D+00  6.19D-01  8.91D-01  1.27D+00
                    CP:  1.27D+00  1.28D+00  1.43D+00  1.48D+00  1.08D+00
 E= -902.479874572261     Delta-E=       -0.000000077617 Rises=F Damp=F
 DIIS: error= 6.18D-06 at cycle  11 NSaved=  11.
 NSaved=11 IEnMin=11 EnMin= -902.479874572261     IErMin=11 ErrMin= 6.18D-06
 ErrMax= 6.18D-06  0.00D+00 EMaxC= 1.00D-01 BMatC= 5.01D-09 BMatP= 2.53D-08
 IDIUse=1 WtCom= 1.00D+00 WtEn= 0.00D+00
 Coeff-Com:  0.263D-03-0.564D-03-0.277D-03 0.669D-03 0.608D-02 0.374D-02
 Coeff-Com: -0.167D-01-0.419D-01-0.708D-01 0.281D+00 0.839D+00
 Coeff:      0.263D-03-0.564D-03-0.277D-03 0.669D-03 0.608D-02 0.374D-02
 Coeff:     -0.167D-01-0.419D-01-0.708D-01 0.281D+00 0.839D+00
 Gap=     0.242 Goal=   None    Shift=    0.000
 RMSDP=1.18D-06 MaxDP=8.92D-05 DE=-7.76D-08 OVMax= 8.61D-05

 Cycle  12  Pass 1  IDiag  1:
 RMSU=  7.52D-07    CP:  6.08D-01  1.66D+00  6.19D-01  8.92D-01  1.27D+00
                    CP:  1.27D+00  1.28D+00  1.45D+00  1.54D+00  1.11D+00
                    CP:  1.23D+00
 E= -902.479874585486     Delta-E=       -0.000000013225 Rises=F Damp=F
 DIIS: error= 2.36D-06 at cycle  12 NSaved=  12.
 NSaved=12 IEnMin=12 EnMin= -902.479874585486     IErMin=12 ErrMin= 2.36D-06
 ErrMax= 2.36D-06  0.00D+00 EMaxC= 1.00D-01 BMatC= 7.33D-10 BMatP= 5.01D-09
 IDIUse=1 WtCom= 1.00D+00 WtEn= 0.00D+00
 Coeff-Com:  0.641D-04-0.135D-03-0.148D-03-0.148D-04 0.101D-02 0.185D-02
 Coeff-Com:  0.929D-02-0.456D-02-0.745D-01-0.387D-01 0.271D+00 0.835D+00
 Coeff:      0.641D-04-0.135D-03-0.148D-03-0.148D-04 0.101D-02 0.185D-02
 Coeff:      0.929D-02-0.456D-02-0.745D-01-0.387D-01 0.271D+00 0.835D+00
 Gap=     0.242 Goal=   None    Shift=    0.000
 RMSDP=3.79D-07 MaxDP=1.94D-05 DE=-1.32D-08 OVMax= 2.81D-05

 Cycle  13  Pass 1  IDiag  1:
 RMSU=  1.87D-07    CP:  6.08D-01  1.66D+00  6.19D-01  8.92D-01  1.27D+00
                    CP:  1.27D+00  1.28D+00  1.45D+00  1.56D+00  1.14D+00
                    CP:  1.36D+00  1.15D+00
 E= -902.479874587210     Delta-E=       -0.000000001723 Rises=F Damp=F
 DIIS: error= 9.98D-07 at cycle  13 NSaved=  13.
 NSaved=13 IEnMin=13 EnMin= -902.479874587210     IErMin=13 ErrMin= 9.98D-07
 ErrMax= 9.98D-07  0.00D+00 EMaxC= 1.00D-01 BMatC= 2.10D-10 BMatP= 7.33D-10
 IDIUse=1 WtCom= 1.00D+00 WtEn= 0.00D+00
 Coeff-Com: -0.131D-04 0.287D-04-0.283D-04-0.134D-03-0.576D-03 0.128D-03
 Coeff-Com:  0.766D-02 0.459D-02-0.231D-01-0.695D-01-0.182D-01 0.412D+00
 Coeff-Com:  0.687D+00
 Coeff:     -0.131D-04 0.287D-04-0.283D-04-0.134D-03-0.576D-03 0.128D-03
 Coeff:      0.766D-02 0.459D-02-0.231D-01-0.695D-01-0.182D-01 0.412D+00
 Coeff:      0.687D+00
 Gap=     0.242 Goal=   None    Shift=    0.000
 RMSDP=1.74D-07 MaxDP=1.04D-05 DE=-1.72D-09 OVMax= 9.96D-06

 Cycle  14  Pass 1  IDiag  1:
 RMSU=  1.07D-07    CP:  6.08D-01  1.66D+00  6.19D-01  8.92D-01  1.27D+00
                    CP:  1.27D+00  1.28D+00  1.45D+00  1.57D+00  1.15D+00
                    CP:  1.39D+00  1.26D+00  1.11D+00
 E= -902.479874587654     Delta-E=       -0.000000000445 Rises=F Damp=F
 DIIS: error= 3.64D-07 at cycle  14 NSaved=  14.
 NSaved=14 IEnMin=14 EnMin= -902.479874587654     IErMin=14 ErrMin= 3.64D-07
 ErrMax= 3.64D-07  0.00D+00 EMaxC= 1.00D-01 BMatC= 1.14D-11 BMatP= 2.10D-10
 IDIUse=1 WtCom= 1.00D+00 WtEn= 0.00D+00
 Coeff-Com: -0.993D-05 0.210D-04 0.106D-04-0.377D-04-0.245D-03-0.241D-03
 Coeff-Com:  0.340D-03 0.100D-02 0.605D-02-0.828D-02-0.394D-01-0.195D-01
 Coeff-Com:  0.975D-01 0.963D+00
 Coeff:     -0.993D-05 0.210D-04 0.106D-04-0.377D-04-0.245D-03-0.241D-03
 Coeff:      0.340D-03 0.100D-02 0.605D-02-0.828D-02-0.394D-01-0.195D-01
 Coeff:      0.975D-01 0.963D+00
 Gap=     0.242 Goal=   None    Shift=    0.000
 RMSDP=7.73D-08 MaxDP=3.07D-06 DE=-4.45D-10 OVMax= 5.43D-06

 Cycle  15  Pass 1  IDiag  1:
 RMSU=  2.76D-08    CP:  6.08D-01  1.66D+00  6.19D-01  8.92D-01  1.27D+00
                    CP:  1.27D+00  1.28D+00  1.45D+00  1.57D+00  1.14D+00
                    CP:  1.39D+00  1.30D+00  1.27D+00  1.22D+00
 E= -902.479874587689     Delta-E=       -0.000000000035 Rises=F Damp=F
 DIIS: error= 1.31D-07 at cycle  15 NSaved=  15.
 NSaved=15 IEnMin=15 EnMin= -902.479874587689     IErMin=15 ErrMin= 1.31D-07
 ErrMax= 1.31D-07  0.00D+00 EMaxC= 1.00D-01 BMatC= 2.31D-12 BMatP= 1.14D-11
 IDIUse=1 WtCom= 1.00D+00 WtEn= 0.00D+00
 Coeff-Com: -0.262D-05 0.549D-05 0.743D-05 0.149D-05-0.133D-04-0.927D-04
 Coeff-Com: -0.674D-03-0.291D-03 0.448D-02 0.514D-02-0.113D-01-0.476D-01
 Coeff-Com: -0.629D-01 0.286D+00 0.827D+00
 Coeff:     -0.262D-05 0.549D-05 0.743D-05 0.149D-05-0.133D-04-0.927D-04
 Coeff:     -0.674D-03-0.291D-03 0.448D-02 0.514D-02-0.113D-01-0.476D-01
 Coeff:     -0.629D-01 0.286D+00 0.827D+00
 Gap=     0.242 Goal=   None    Shift=    0.000
 RMSDP=2.56D-08 MaxDP=1.31D-06 DE=-3.46D-11 OVMax= 2.07D-06

 Cycle  16  Pass 1  IDiag  1:
 RMSU=  1.10D-08    CP:  6.08D-01  1.66D+00  6.19D-01  8.92D-01  1.27D+00
                    CP:  1.27D+00  1.28D+00  1.45D+00  1.57D+00  1.14D+00
                    CP:  1.39D+00  1.32D+00  1.30D+00  1.37D+00  1.23D+00
 E= -902.479874587671     Delta-E=        0.000000000018 Rises=F Damp=F
 DIIS: error= 6.01D-08 at cycle  16 NSaved=  16.
 NSaved=16 IEnMin=15 EnMin= -902.479874587689     IErMin=16 ErrMin= 6.01D-08
 ErrMax= 6.01D-08  0.00D+00 EMaxC= 1.00D-01 BMatC= 4.07D-13 BMatP= 2.31D-12
 IDIUse=1 WtCom= 1.00D+00 WtEn= 0.00D+00
 Coeff-Com:  0.110D-05-0.234D-05-0.574D-06 0.658D-05 0.454D-04 0.172D-04
 Coeff-Com: -0.202D-03-0.310D-03-0.960D-04 0.298D-02 0.453D-02-0.435D-02
 Coeff-Com: -0.395D-01-0.129D+00 0.194D+00 0.972D+00
 Coeff:      0.110D-05-0.234D-05-0.574D-06 0.658D-05 0.454D-04 0.172D-04
 Coeff:     -0.202D-03-0.310D-03-0.960D-04 0.298D-02 0.453D-02-0.435D-02
 Coeff:     -0.395D-01-0.129D+00 0.194D+00 0.972D+00
 Gap=     0.242 Goal=   None    Shift=    0.000
 RMSDP=1.29D-08 MaxDP=6.30D-07 DE= 1.82D-11 OVMax= 1.19D-06

 Cycle  17  Pass 1  IDiag  1:
 RMSU=  5.06D-09    CP:  6.08D-01  1.66D+00  6.19D-01  8.92D-01  1.27D+00
                    CP:  1.27D+00  1.28D+00  1.45D+00  1.57D+00  1.14D+00
                    CP:  1.38D+00  1.32D+00  1.31D+00  1.42D+00  1.40D+00
                    CP:  1.25D+00
 E= -902.479874587625     Delta-E=        0.000000000045 Rises=F Damp=F
 DIIS: error= 2.00D-08 at cycle  17 NSaved=  17.
 NSaved=17 IEnMin=15 EnMin= -902.479874587689     IErMin=17 ErrMin= 2.00D-08
 ErrMax= 2.00D-08  0.00D+00 EMaxC= 1.00D-01 BMatC= 6.88D-14 BMatP= 4.07D-13
 IDIUse=1 WtCom= 1.00D+00 WtEn= 0.00D+00
 Coeff-Com:  0.417D-06-0.883D-06-0.679D-06 0.219D-05 0.157D-04 0.146D-04
 Coeff-Com:  0.263D-04-0.581D-04-0.580D-03 0.323D-03 0.250D-02 0.556D-02
 Coeff-Com: -0.494D-02-0.770D-01-0.432D-01 0.331D+00 0.786D+00
 Coeff:      0.417D-06-0.883D-06-0.679D-06 0.219D-05 0.157D-04 0.146D-04
 Coeff:      0.263D-04-0.581D-04-0.580D-03 0.323D-03 0.250D-02 0.556D-02
 Coeff:     -0.494D-02-0.770D-01-0.432D-01 0.331D+00 0.786D+00
 Gap=     0.242 Goal=   None    Shift=    0.000
 RMSDP=4.31D-09 MaxDP=2.28D-07 DE= 4.55D-11 OVMax= 3.09D-07

 SCF Done:  E(RwB97XD) =  -902.479874588     A.U. after   17 cycles
            NFock= 17  Conv=0.43D-08     -V/T= 2.0047
 KE= 8.983000563978D+02 PE=-5.045026571635D+03 EE= 1.771843690074D+03
 Leave Link  502 at Mon Nov 13 15:22:47 2017, MaxMem=  3758096384 cpu:      2704.7
 (Enter /share/apps/gaussian/g09_D01/g09/l801.exe)
 DoSCS=F DFT=T ScalE2(SS,OS)=  1.000000  1.000000
 ExpMin= 3.60D-02 ExpMax= 8.59D+03 ExpMxC= 1.30D+03 IAcc=3 IRadAn=         5 AccDes= 0.00D+00
 HarFok:  IExCor=  205 AccDes= 0.00D+00 IRadAn=         5 IDoV=-2 UseB2=F ITyADJ=14
 ICtDFT= 12500011 ScaDFX=  1.000000  1.000000  1.000000  1.000000
 Largest valence mixing into a core orbital is  5.69D-05
 Largest core mixing into a valence orbital is  1.76D-05
 Range of M.O.s used for correlation:    22   587
 NBasis=   595 NAE=    75 NBE=    75 NFC=    21 NFV=     0
 NROrb=    566 NOA=    54 NOB=    54 NVA=   512 NVB=   512

 **** Warning!!: The largest alpha MO coefficient is  0.16583462D+03

 Leave Link  801 at Mon Nov 13 15:22:48 2017, MaxMem=  3758096384 cpu:         1.6
 (Enter /share/apps/gaussian/g09_D01/g09/l914.exe)
 RHF ground state
 MDV=  3758096384 DFT=T DoStab=F Mixed=T DoRPA=T DoScal=F NonHer=T
 Would need an additional         90685500000 words for in-memory AO integral storage.
 Making orbital integer symmetry assigments:
    16 initial guesses have been made.
 Convergence on wavefunction:    0.001000000000000
 Davidson Disk Diagonalization:  ConvIn= 1.00D-03 SkipCon=T Conv= 1.00D-03.
 Max sub-space:   200 roots to seek:    16 dimension of matrix:        55296
 Iteration     1 Dimension    16 NMult     0 NNew     16
 CISAX will form    16 AO SS matrices at one time.
 NMat=    16 NSing=    16 JSym2X= 0.
 FoFJK:  IHMeth= 1 ICntrl=       0 DoSepK=T KAlg= 0 I1Cent=   0 FoldK=F
 IRaf=         1 NMat=  32 IRICut=       1 DoRegI=T DoRafI=F ISym2E= 0.
 FoFCou: FMM=F IPFlag=           0 FMFlag=      100000 FMFlg1=           0
         NFxFlg=           0 DoJE=F BraDBF=F KetDBF=F FulRan=T
         wScrn=  0.000000 ICntrl=     500 IOpCl=  0 I1Cent=           0 NGrid=           0
         NMat0=   16 NMatS0=     16 NMatT0=    0 NMatD0=   16 NMtDS0=    0 NMtDT0=    0
 Symmetry not used in FoFCou.
 New state      2 was old state      8
 New state      3 was old state      2
 New state      4 was old state      9
 Excitation Energies [eV] at current iteration:
 Root      1 :     3.842701547111117
 Root      2 :     4.301246957570336
 Root      3 :     4.553992622855854
 Root      4 :     5.074490813046678
 Root      5 :     5.414219085390264
 Root      6 :     5.519949024307460
 Root      7 :     5.884029525306333
 Root      8 :     5.920440920682826
 Root      9 :     6.128757071585318
 Root     10 :     6.138344263140159
 Root     11 :     6.278911165431244
 Root     12 :     6.415128709141514
 Root     13 :     6.500227051725245
 Root     14 :     6.561479734645260
 Root     15 :     7.186201427066567
 Root     16 :     7.394856190253051
 Iteration     2 Dimension    24 NMult    16 NNew      8
 CISAX will form     8 AO SS matrices at one time.
 NMat=     8 NSing=     8 JSym2X= 0.
 Root      1 not converged, maximum delta is    0.057325110487949
 Root      2 not converged, maximum delta is    0.101359053422202
 Root      3 not converged, maximum delta is    0.100037982268047
 Root      4 not converged, maximum delta is    0.123684650136009
 Excitation Energies [eV] at current iteration:
 Root      1 :     3.404630548652483   Change is   -0.438070998458634
 Root      2 :     3.857089714457808   Change is   -0.444157243112528
 Root      3 :     3.994810017464515   Change is   -0.559182605391339
 Root      4 :     4.538900146940012   Change is   -0.535590666106666
 Iteration     3 Dimension    32 NMult    24 NNew      8
 CISAX will form     8 AO SS matrices at one time.
 NMat=     8 NSing=     8 JSym2X= 0.
 Root      1 not converged, maximum delta is    0.012295749377455
 Root      2 not converged, maximum delta is    0.016848542664323
 Root      3 not converged, maximum delta is    0.036523037894770
 Root      4 not converged, maximum delta is    0.031443373574417
 Excitation Energies [eV] at current iteration:
 Root      1 :     3.372402400525174   Change is   -0.032228148127309
 Root      2 :     3.830994025827461   Change is   -0.026095688630347
 Root      3 :     3.944252434491669   Change is   -0.050557582972846
 Root      4 :     4.491546632039793   Change is   -0.047353514900219
 Iteration     4 Dimension    40 NMult    32 NNew      8
 CISAX will form     8 AO SS matrices at one time.
 NMat=     8 NSing=     8 JSym2X= 0.
 Root      1 not converged, maximum delta is    0.008825465696282
 Root      2 not converged, maximum delta is    0.005370707824788
 Root      3 not converged, maximum delta is    0.018402242336864
 Root      4 not converged, maximum delta is    0.011122868149489
 Excitation Energies [eV] at current iteration:
 Root      1 :     3.367648246188863   Change is   -0.004754154336311
 Root      2 :     3.829259525638570   Change is   -0.001734500188891
 Root      3 :     3.930725366345091   Change is   -0.013527068146578
 Root      4 :     4.484960759897727   Change is   -0.006585872142066
 Iteration     5 Dimension    48 NMult    40 NNew      8
 CISAX will form     8 AO SS matrices at one time.
 NMat=     8 NSing=     8 JSym2X= 0.
 Root      1 not converged, maximum delta is    0.002600824068462
 Root      2 not converged, maximum delta is    0.001573402753122
 Root      3 not converged, maximum delta is    0.004642968893931
 Root      4 not converged, maximum delta is    0.002317313246581
 Excitation Energies [eV] at current iteration:
 Root      1 :     3.367198883282994   Change is   -0.000449362905869
 Root      2 :     3.829132174426945   Change is   -0.000127351211625
 Root      3 :     3.929084698694143   Change is   -0.001640667650948
 Root      4 :     4.484511291508132   Change is   -0.000449468389595
 Iteration     6 Dimension    56 NMult    48 NNew      8
 CISAX will form     8 AO SS matrices at one time.
 NMat=     8 NSing=     8 JSym2X= 0.
 Root      1 has converged.
 Root      2 has converged.
 Root      3 not converged, maximum delta is    0.001380631071355
 Root      4 not converged, maximum delta is    0.001521825863952
 Excitation Energies [eV] at current iteration:
 Root      1 :     3.367155453629296   Change is   -0.000043429653698
 Root      2 :     3.829120978258699   Change is   -0.000011196168247
 Root      3 :     3.928854408516774   Change is   -0.000230290177369
 Root      4 :     4.484429986997445   Change is   -0.000081304510687
 Iteration     7 Dimension    60 NMult    56 NNew      4
 CISAX will form     4 AO SS matrices at one time.
 NMat=     4 NSing=     4 JSym2X= 0.
 Root      1 has converged.
 Root      2 has converged.
 Root      3 has converged.
 Root      4 not converged, maximum delta is    0.001131539610273
 Excitation Energies [eV] at current iteration:
 Root      1 :     3.367155369887516   Change is   -0.000000083741781
 Root      2 :     3.829120901706023   Change is   -0.000000076552675
 Root      3 :     3.928834517653642   Change is   -0.000019890863132
 Root      4 :     4.484415252983270   Change is   -0.000014734014174
 Iteration     8 Dimension    62 NMult    60 NNew      2
 CISAX will form     2 AO SS matrices at one time.
 NMat=     2 NSing=     2 JSym2X= 0.
 Root      1 has converged.
 Root      2 has converged.
 Root      3 has converged.
 Root      4 has converged.
 Excitation Energies [eV] at current iteration:
 Root      1 :     3.367155286814373   Change is   -0.000000083073142
 Root      2 :     3.829120895392454   Change is   -0.000000006313569
 Root      3 :     3.928834484069319   Change is   -0.000000033584322
 Root      4 :     4.484411557948760   Change is   -0.000003695034511
 Convergence achieved on expansion vectors.
 ***********************************************************************
 Excited states from <AA,BB:AA,BB> singles matrix:
 ***********************************************************************
 
 1PDM for each excited state written to RWF  633
 Ground to excited state transition densities written to RWF  633
 Ground to excited state transition electric dipole moments (Au):
       state          X           Y           Z        Dip. S.      Osc.
         1         0.1442     -0.9440      3.7932     15.3002      1.2622
         2        -0.0274     -0.0020      0.0013      0.0008      0.0001
         3        -0.1157      0.0473      0.4520      0.2199      0.0212
         4         0.2899     -0.5140      0.3583      0.4766      0.0524
 Ground to excited state transition velocity dipole moments (Au):
       state          X           Y           Z        Dip. S.      Osc.
         1        -0.0161      0.1130     -0.4640      0.2283      1.2301
         2         0.0051      0.0014      0.0003      0.0000      0.0001
         3         0.0146     -0.0053     -0.0608      0.0039      0.0182
         4        -0.0518      0.0899     -0.0543      0.0137      0.0554
 Ground to excited state transition magnetic dipole moments (Au):
       state          X           Y           Z
         1         1.9395      1.4018      0.2916
         2         0.1842     -0.3952     -0.1974
         3        -0.6642     -0.4363     -0.0618
         4         0.3499      0.2488      0.0697
 Ground to excited state transition velocity quadrupole moments (Au):
       state          XX          YY          ZZ          XY          XZ          YZ
         1        -0.1695     -1.2965      2.2473      0.6551     -2.0469      2.2209
         2         0.0059      0.0195      0.1789     -0.0097      0.0022     -0.0225
         3         0.0833      0.0736      2.6953     -0.0464     -0.3113     -0.1148
         4        -0.3930     -0.6860      0.2172      0.5586      0.1772     -0.3705
 <0|del|b> * <b|rxdel|0> + <0|del|b> * <b|delr+rdel|0>
 Rotatory Strengths (R) in cgs (10**-40 erg-esu-cm/Gauss)
       state          XX          YY          ZZ    R(velocity)    E-M Angle
         1      -141.9681    291.0573   -195.3003    -15.4037       90.40
         2        -1.5317      1.9401      1.2910      0.5665       82.35
         3        17.7436    -25.5990     -9.8840     -5.9131       94.15
         4       -59.3471     59.2175      2.0199      0.6301       89.50
 1/2[<0|r|b>*<b|rxdel|0> + (<0|rxdel|b>*<b|r|0>)*]
 Rotatory Strengths (R) in cgs (10**-40 erg-esu-cm/Gauss)
       state          XX          YY          ZZ     R(length)
         1      -197.8071    935.8092   -782.0816    -14.6931
         2         3.5645     -0.5535      0.1820      1.0643
         3       -54.3575     14.6003     19.7545     -6.6676
         4       -71.7224     90.4255    -17.6590      0.3480
  1/2[<0|del|b>*<b|r|0> + (<0|r|b>*<b|del|0>)*] (Au)
       state          X           Y           Z        Dip. S.   Osc.(frdel)
         1        -0.0023     -0.1066     -1.7600      1.8690      1.2460
         2        -0.0001      0.0000      0.0000      0.0001      0.0001
         3        -0.0017     -0.0003     -0.0275      0.0294      0.0196
         4        -0.0150     -0.0462     -0.0194      0.0806      0.0538

 Excitation energies and oscillator strengths:
 
 Excited state symmetry could not be determined.
 Excited State   1:      Singlet-?Sym    3.3672 eV  368.22 nm  f=1.2622  <S**2>=0.000
      70 -> 76        -0.10318
      74 -> 76        -0.13935
      74 -> 78        -0.12139
      75 -> 76         0.65975
 This state for optimization and/or second-order correction.
 Total Energy, E(TD-HF/TD-KS) =  -902.356133902    
 Copying the excited state density for this state as the 1-particle RhoCI density.
 
 Excited state symmetry could not be determined.
 Excited State   2:      Singlet-?Sym    3.8291 eV  323.79 nm  f=0.0001  <S**2>=0.000
      72 -> 76         0.66367
      72 -> 78         0.12933
 
 Excited state symmetry could not be determined.
 Excited State   3:      Singlet-?Sym    3.9288 eV  315.57 nm  f=0.0212  <S**2>=0.000
      74 -> 76         0.62945
      74 -> 78         0.18239
      75 -> 76         0.13913
      75 -> 78        -0.14333
 
 Excited state symmetry could not be determined.
 Excited State   4:      Singlet-?Sym    4.4844 eV  276.48 nm  f=0.0524  <S**2>=0.000
      71 -> 76         0.26195
      71 -> 78        -0.12381
      74 -> 81         0.11464
      75 -> 78         0.26799
      75 -> 81         0.54490
 SavETr:  write IOETrn=   770 NScale= 10 NData=  16 NLR=1 NState=    4 LETran=      82.
 Leave Link  914 at Mon Nov 13 15:50:06 2017, MaxMem=  3758096384 cpu:      6541.2
 (Enter /share/apps/gaussian/g09_D01/g09/l601.exe)
 Copying SCF densities to generalized density rwf, IOpCl= 0 IROHF=0.

 **********************************************************************

            Population analysis using the SCF density.

 **********************************************************************

 Alpha  occ. eigenvalues --  -19.24150 -19.22971 -14.47766 -10.37872 -10.35378
 Alpha  occ. eigenvalues --  -10.35213 -10.33668 -10.33598 -10.31385 -10.30688
 Alpha  occ. eigenvalues --  -10.30684 -10.30611 -10.29980 -10.29877 -10.29852
 Alpha  occ. eigenvalues --  -10.29664 -10.29326 -10.28736 -10.28327 -10.28085
 Alpha  occ. eigenvalues --  -10.27622  -1.14668  -1.10849  -1.08060  -0.97052
 Alpha  occ. eigenvalues --   -0.95936  -0.90980  -0.88587  -0.87042  -0.85267
 Alpha  occ. eigenvalues --   -0.84123  -0.83602  -0.80906  -0.78503  -0.73256
 Alpha  occ. eigenvalues --   -0.71740  -0.70716  -0.69060  -0.67722  -0.64416
 Alpha  occ. eigenvalues --   -0.63237  -0.61127  -0.59049  -0.58555  -0.57815
 Alpha  occ. eigenvalues --   -0.57049  -0.56014  -0.55280  -0.54090  -0.52586
 Alpha  occ. eigenvalues --   -0.51921  -0.51851  -0.51692  -0.51519  -0.50755
 Alpha  occ. eigenvalues --   -0.50053  -0.50009  -0.48507  -0.48149  -0.48034
 Alpha  occ. eigenvalues --   -0.46936  -0.45820  -0.45733  -0.45339  -0.44758
 Alpha  occ. eigenvalues --   -0.42615  -0.41815  -0.41219  -0.41029  -0.34998
 Alpha  occ. eigenvalues --   -0.34861  -0.33973  -0.32530  -0.29401  -0.26893
 Alpha virt. eigenvalues --   -0.02695   0.02629   0.03324   0.03865   0.04357
 Alpha virt. eigenvalues --    0.04539   0.04817   0.05582   0.06253   0.06375
 Alpha virt. eigenvalues --    0.06771   0.07133   0.07781   0.07877   0.08036
 Alpha virt. eigenvalues --    0.08091   0.08675   0.09381   0.09730   0.10169
 Alpha virt. eigenvalues --    0.10512   0.11039   0.11244   0.11693   0.12199
 Alpha virt. eigenvalues --    0.12614   0.13086   0.13385   0.13616   0.14207
 Alpha virt. eigenvalues --    0.14466   0.14716   0.14818   0.15238   0.15487
 Alpha virt. eigenvalues --    0.15991   0.16059   0.16579   0.16746   0.17029
 Alpha virt. eigenvalues --    0.17160   0.17220   0.17648   0.18110   0.18610
 Alpha virt. eigenvalues --    0.18782   0.18907   0.19486   0.19543   0.19824
 Alpha virt. eigenvalues --    0.20010   0.20210   0.20376   0.20785   0.21014
 Alpha virt. eigenvalues --    0.21317   0.21446   0.21784   0.22220   0.22597
 Alpha virt. eigenvalues --    0.22722   0.23014   0.23207   0.23380   0.23765
 Alpha virt. eigenvalues --    0.23988   0.24281   0.24476   0.24579   0.24712
 Alpha virt. eigenvalues --    0.24985   0.25530   0.25832   0.25862   0.26723
 Alpha virt. eigenvalues --    0.27018   0.27312   0.27614   0.27860   0.27991
 Alpha virt. eigenvalues --    0.28721   0.28980   0.29118   0.29459   0.29922
 Alpha virt. eigenvalues --    0.30499   0.30589   0.30817   0.31360   0.31511
 Alpha virt. eigenvalues --    0.31714   0.31979   0.32055   0.32816   0.33056
 Alpha virt. eigenvalues --    0.33382   0.34095   0.34372   0.34554   0.34853
 Alpha virt. eigenvalues --    0.35174   0.35440   0.35954   0.36472   0.36989
 Alpha virt. eigenvalues --    0.37137   0.37302   0.37537   0.38187   0.38620
 Alpha virt. eigenvalues --    0.38823   0.39186   0.39679   0.39858   0.40219
 Alpha virt. eigenvalues --    0.40458   0.40994   0.41701   0.42052   0.42507
 Alpha virt. eigenvalues --    0.43034   0.43760   0.44441   0.44702   0.44731
 Alpha virt. eigenvalues --    0.45406   0.46002   0.47335   0.48210   0.48419
 Alpha virt. eigenvalues --    0.49195   0.50332   0.51194   0.51492   0.51980
 Alpha virt. eigenvalues --    0.52320   0.52919   0.53749   0.54554   0.54627
 Alpha virt. eigenvalues --    0.56037   0.56748   0.57545   0.59088   0.60228
 Alpha virt. eigenvalues --    0.61004   0.61485   0.62160   0.62301   0.62686
 Alpha virt. eigenvalues --    0.63142   0.63494   0.64386   0.64717   0.64768
 Alpha virt. eigenvalues --    0.65135   0.66334   0.66479   0.66743   0.67095
 Alpha virt. eigenvalues --    0.68008   0.68155   0.68509   0.69460   0.69963
 Alpha virt. eigenvalues --    0.70885   0.71474   0.71814   0.72114   0.72801
 Alpha virt. eigenvalues --    0.72924   0.73123   0.73619   0.74059   0.74472
 Alpha virt. eigenvalues --    0.74822   0.75441   0.76140   0.76361   0.76639
 Alpha virt. eigenvalues --    0.77249   0.77897   0.78043   0.79122   0.79403
 Alpha virt. eigenvalues --    0.79516   0.79963   0.80349   0.80483   0.81630
 Alpha virt. eigenvalues --    0.82851   0.83122   0.84482   0.85465   0.86187
 Alpha virt. eigenvalues --    0.86738   0.87761   0.88234   0.89278   0.89974
 Alpha virt. eigenvalues --    0.90405   0.91128   0.92452   0.93837   0.94418
 Alpha virt. eigenvalues --    0.95697   0.96405   0.96546   0.96937   0.97832
 Alpha virt. eigenvalues --    0.98663   0.98901   0.99240   0.99545   0.99870
 Alpha virt. eigenvalues --    1.01317   1.02403   1.03129   1.03691   1.04708
 Alpha virt. eigenvalues --    1.05084   1.05837   1.05883   1.06869   1.07532
 Alpha virt. eigenvalues --    1.08029   1.08154   1.08792   1.09223   1.09911
 Alpha virt. eigenvalues --    1.10423   1.10875   1.12986   1.13728   1.14448
 Alpha virt. eigenvalues --    1.14605   1.15543   1.15843   1.17539   1.18349
 Alpha virt. eigenvalues --    1.18508   1.19659   1.20355   1.20706   1.21918
 Alpha virt. eigenvalues --    1.22347   1.23584   1.24416   1.27598   1.31017
 Alpha virt. eigenvalues --    1.31744   1.32963   1.34554   1.35414   1.36355
 Alpha virt. eigenvalues --    1.39062   1.40697   1.40913   1.42225   1.45527
 Alpha virt. eigenvalues --    1.47417   1.48080   1.48814   1.51021   1.51292
 Alpha virt. eigenvalues --    1.52212   1.53164   1.53796   1.54623   1.55986
 Alpha virt. eigenvalues --    1.56545   1.57339   1.58650   1.58952   1.59411
 Alpha virt. eigenvalues --    1.61574   1.61815   1.62268   1.62656   1.63100
 Alpha virt. eigenvalues --    1.63274   1.63984   1.64420   1.64569   1.65175
 Alpha virt. eigenvalues --    1.65710   1.65962   1.67254   1.67778   1.68393
 Alpha virt. eigenvalues --    1.69159   1.69276   1.70186   1.70622   1.74185
 Alpha virt. eigenvalues --    1.75472   1.75505   1.76878   1.78108   1.78721
 Alpha virt. eigenvalues --    1.79415   1.79961   1.80546   1.80917   1.81317
 Alpha virt. eigenvalues --    1.82679   1.83531   1.84488   1.84847   1.86202
 Alpha virt. eigenvalues --    1.87231   1.88665   1.88884   1.89112   1.91075
 Alpha virt. eigenvalues --    1.93324   1.93784   1.94686   1.95351   1.96829
 Alpha virt. eigenvalues --    1.97106   1.97928   2.00472   2.00894   2.01506
 Alpha virt. eigenvalues --    2.01837   2.02541   2.03847   2.04368   2.04729
 Alpha virt. eigenvalues --    2.06167   2.06744   2.07457   2.08434   2.09199
 Alpha virt. eigenvalues --    2.10145   2.11348   2.11703   2.13835   2.14380
 Alpha virt. eigenvalues --    2.14968   2.15204   2.17244   2.17927   2.18961
 Alpha virt. eigenvalues --    2.20400   2.22424   2.22932   2.24676   2.24999
 Alpha virt. eigenvalues --    2.26075   2.27681   2.28507   2.29553   2.31456
 Alpha virt. eigenvalues --    2.33684   2.36723   2.36895   2.38804   2.39718
 Alpha virt. eigenvalues --    2.40992   2.42500   2.43675   2.45302   2.46568
 Alpha virt. eigenvalues --    2.47536   2.48189   2.50208   2.52673   2.54461
 Alpha virt. eigenvalues --    2.55073   2.55431   2.55514   2.56304   2.56999
 Alpha virt. eigenvalues --    2.57458   2.60313   2.62516   2.63257   2.63371
 Alpha virt. eigenvalues --    2.66882   2.67702   2.68284   2.69043   2.69978
 Alpha virt. eigenvalues --    2.71842   2.73113   2.74014   2.75065   2.76919
 Alpha virt. eigenvalues --    2.77595   2.78204   2.78446   2.78872   2.80532
 Alpha virt. eigenvalues --    2.81275   2.82252   2.82685   2.83367   2.84263
 Alpha virt. eigenvalues --    2.84586   2.85661   2.86071   2.87037   2.87631
 Alpha virt. eigenvalues --    2.88948   2.90827   2.91243   2.92251   2.93386
 Alpha virt. eigenvalues --    2.94485   2.95125   2.95542   2.98053   2.99299
 Alpha virt. eigenvalues --    2.99592   3.00082   3.01766   3.02209   3.03589
 Alpha virt. eigenvalues --    3.03874   3.05186   3.06890   3.07345   3.09296
 Alpha virt. eigenvalues --    3.09619   3.14711   3.17979   3.19971   3.20368
 Alpha virt. eigenvalues --    3.22097   3.22133   3.23683   3.26863   3.29664
 Alpha virt. eigenvalues --    3.30118   3.30848   3.32731   3.34338   3.35588
 Alpha virt. eigenvalues --    3.38499   3.38541   3.42126   3.45682   3.47424
 Alpha virt. eigenvalues --    3.48886   3.54582   3.57721   3.60356   3.60582
 Alpha virt. eigenvalues --    3.61649   3.63582   3.66169   3.67197   3.72576
 Alpha virt. eigenvalues --    3.76373   3.77670   3.78027   3.78190   3.79215
 Alpha virt. eigenvalues --    3.79770   3.86578   3.88007   3.88128   3.90621
 Alpha virt. eigenvalues --    3.92513   3.92774   4.02084   4.05521   4.07999
 Alpha virt. eigenvalues --    4.09914   4.12871   4.17085   4.26591   4.28196
 Alpha virt. eigenvalues --    4.30091   4.31621   4.37530   4.42139   4.55066
 Alpha virt. eigenvalues --    4.78851   4.92971   4.95048   5.00243   5.15330
 Alpha virt. eigenvalues --    5.17965   5.19097   5.38108   5.64904   5.85578
 Alpha virt. eigenvalues --    5.96007  23.71228  23.79910  23.94640  24.01954
 Alpha virt. eigenvalues --   24.03660  24.03774  24.04518  24.05994  24.08129
 Alpha virt. eigenvalues --   24.08923  24.09946  24.14209  24.14892  24.23549
 Alpha virt. eigenvalues --   24.25333  24.29350  24.30846  24.31100  35.74274
 Alpha virt. eigenvalues --   50.14233  50.18475
          Condensed to atoms (all electrons):
               1          2          3          4          5          6
     1  C    8.889978   0.638178   1.675261   0.375566  -1.577082  -0.317307
     2  C    0.638178  11.449225  -1.630348  -0.269437   0.066171   0.286334
     3  C    1.675261  -1.630348   9.363288   0.080551  -1.683704  -0.027496
     4  H    0.375566  -0.269437   0.080551   0.542266  -0.011128  -0.035506
     5  C   -1.577082   0.066171  -1.683704  -0.011128   9.948924  -0.239295
     6  N   -0.317307   0.286334  -0.027496  -0.035506  -0.239295   6.997028
     7  C   -1.172625  -1.490865   0.825883   0.116750  -2.454496  -0.033408
     8  H    0.085666   0.205377   0.364000  -0.043483  -0.034971  -0.001489
     9  C   -1.403086  -1.849057  -0.870898  -0.050472   0.784022   0.051744
    10  H   -0.024029  -0.061454  -0.012354  -0.000016   0.481145  -0.034009
    11  C    0.098390  -0.127132  -0.004380   0.011605  -0.157454   0.298174
    12  C   -0.113687  -0.123378  -0.053638  -0.004101   0.163533   0.312843
    13  C   -0.105834  -0.344342  -0.142455   0.039104   0.355214  -0.003736
    14  H   -0.002630   0.033018  -0.025255   0.000783  -0.015676  -0.001074
    15  H    0.009152   0.029056  -0.018563  -0.012248  -0.003387  -0.057962
    16  H    0.019613  -0.016844   0.002682   0.007147   0.005880  -0.047252
    17  H    0.033915  -0.018125  -0.004876  -0.013959  -0.010319  -0.052312
    18  H    0.018933  -0.008012   0.005074   0.002705   0.016773  -0.045815
    19  H   -0.016504  -0.012494  -0.005689  -0.000508   0.029839  -0.055400
    20  H    0.000689  -0.012795  -0.002746  -0.000459   0.006557  -0.057340
    21  C   -0.683214  -0.264545  -1.237269   0.036757   0.547147  -0.000177
    22  H    0.014158   0.001382  -0.000151   0.000426   0.026103  -0.000504
    23  H   -0.167409  -0.071089  -0.129235   0.014191   0.048970  -0.000804
    24  C   -0.008622   0.014875  -0.414154  -0.000163   0.012287   0.000063
    25  C    0.161632   0.040366   0.353497  -0.006169  -0.110850  -0.000093
    26  O    0.002037  -0.001193   0.019023   0.000042  -0.006668   0.000001
    27  C   -0.082703  -0.012373  -0.263119   0.001828   0.065681   0.000045
    28  C    0.026458   0.012271   0.258439  -0.001717  -0.020583  -0.000022
    29  H   -0.000027  -0.000154  -0.004164  -0.000009   0.000166   0.000001
    30  C   -0.003299   0.000530  -0.029364  -0.000739   0.004484   0.000010
    31  H    0.006131   0.002987   0.007598  -0.000403  -0.000118   0.000042
    32  O    0.000237  -0.000039   0.001086  -0.000003  -0.000313   0.000000
    33  C   -0.000790   0.000497   0.036811  -0.000137  -0.001731  -0.000001
    34  C   -0.004285  -0.000143  -0.007985  -0.000081   0.001780   0.000000
    35  H    0.000370   0.000027  -0.000519   0.000011  -0.000122  -0.000001
    36  H    0.000023   0.000008   0.000504  -0.000002  -0.000033   0.000000
    37  C    0.000295   0.000029   0.000990  -0.000019   0.000011   0.000000
    38  H   -0.000046  -0.000003  -0.000030   0.000000   0.000004   0.000000
    39  H    0.000003   0.000000  -0.000010   0.000000   0.000000   0.000000
    40  H    0.000002   0.000000  -0.000008   0.000000   0.000000   0.000000
               7          8          9         10         11         12
     1  C   -1.172625   0.085666  -1.403086  -0.024029   0.098390  -0.113687
     2  C   -1.490865   0.205377  -1.849057  -0.061454  -0.127132  -0.123378
     3  C    0.825883   0.364000  -0.870898  -0.012354  -0.004380  -0.053638
     4  H    0.116750  -0.043483  -0.050472  -0.000016   0.011605  -0.004101
     5  C   -2.454496  -0.034971   0.784022   0.481145  -0.157454   0.163533
     6  N   -0.033408  -0.001489   0.051744  -0.034009   0.298174   0.312843
     7  C   10.435859  -0.119717   0.100648  -0.031720  -0.027763  -0.121718
     8  H   -0.119717   0.584266   0.051545   0.001611   0.004095   0.000165
     9  C    0.100648   0.051545   9.979751   0.012824  -0.046552  -0.067953
    10  H   -0.031720   0.001611   0.012824   0.508251  -0.003627   0.010616
    11  C   -0.027763   0.004095  -0.046552  -0.003627   5.228425  -0.110665
    12  C   -0.121718   0.000165  -0.067953   0.010616  -0.110665   5.254327
    13  C   -0.061098  -0.064495  -0.873500  -0.006273   0.000579   0.017124
    14  H   -0.054163  -0.003505   0.293407  -0.012022  -0.000910   0.004242
    15  H   -0.008564   0.002501  -0.001234  -0.000380   0.401146   0.008415
    16  H    0.003136  -0.000034   0.008035   0.001896   0.399790  -0.013850
    17  H   -0.005364   0.001918  -0.002549  -0.000496   0.434850  -0.008866
    18  H   -0.003993  -0.000541  -0.015354   0.005317  -0.012346   0.399942
    19  H    0.002052  -0.000196  -0.004174  -0.006371   0.000513   0.416849
    20  H    0.006296   0.000091   0.002444  -0.010487  -0.000401   0.419822
    21  C   -0.638681  -0.156714  -0.022616  -0.010512   0.003840  -0.003295
    22  H   -0.130523   0.000387   0.055564   0.001908   0.000600  -0.000918
    23  H    0.056281  -0.050263   0.015363  -0.000760  -0.000665  -0.000048
    24  C    0.305352  -0.027463   0.067169   0.001920  -0.000264   0.000844
    25  C    0.028843   0.044978  -0.154875  -0.000317   0.000297  -0.000359
    26  O    0.062758   0.002006  -0.033640   0.000070   0.000009   0.000000
    27  C   -0.105614  -0.032118   0.212616   0.000110  -0.000446   0.000091
    28  C   -0.050184   0.020586  -0.062641  -0.000258  -0.000080   0.000005
    29  H   -0.002830  -0.000153   0.003587   0.000013  -0.000003  -0.000001
    30  C   -0.009515   0.006859   0.032668  -0.000013  -0.000086   0.000003
    31  H   -0.017483  -0.006852   0.003985  -0.000014  -0.000032   0.000015
    32  O    0.000576   0.000220  -0.001294   0.000001   0.000000   0.000000
    33  C   -0.045127   0.001527  -0.007830  -0.000043  -0.000005  -0.000001
    34  C    0.002426   0.000463   0.011164   0.000002  -0.000006   0.000002
    35  H    0.000598  -0.000120  -0.000655   0.000001   0.000002  -0.000001
    36  H   -0.000768   0.000023  -0.000108  -0.000001   0.000000   0.000000
    37  C   -0.000478   0.000546   0.000184   0.000000   0.000000   0.000000
    38  H   -0.000111  -0.000008   0.000044   0.000000   0.000000   0.000000
    39  H    0.000055  -0.000001  -0.000003   0.000000   0.000000   0.000000
    40  H    0.000030  -0.000007  -0.000001   0.000000   0.000000   0.000000
              13         14         15         16         17         18
     1  C   -0.105834  -0.002630   0.009152   0.019613   0.033915   0.018933
     2  C   -0.344342   0.033018   0.029056  -0.016844  -0.018125  -0.008012
     3  C   -0.142455  -0.025255  -0.018563   0.002682  -0.004876   0.005074
     4  H    0.039104   0.000783  -0.012248   0.007147  -0.013959   0.002705
     5  C    0.355214  -0.015676  -0.003387   0.005880  -0.010319   0.016773
     6  N   -0.003736  -0.001074  -0.057962  -0.047252  -0.052312  -0.045815
     7  C   -0.061098  -0.054163  -0.008564   0.003136  -0.005364  -0.003993
     8  H   -0.064495  -0.003505   0.002501  -0.000034   0.001918  -0.000541
     9  C   -0.873500   0.293407  -0.001234   0.008035  -0.002549  -0.015354
    10  H   -0.006273  -0.012022  -0.000380   0.001896  -0.000496   0.005317
    11  C    0.000579  -0.000910   0.401146   0.399790   0.434850  -0.012346
    12  C    0.017124   0.004242   0.008415  -0.013850  -0.008866   0.399942
    13  C    6.525261   0.059726  -0.001646  -0.000682  -0.000842   0.002233
    14  H    0.059726   0.485611   0.000062  -0.000235  -0.000207   0.000047
    15  H   -0.001646   0.000062   0.572895  -0.027235  -0.061310   0.000590
    16  H   -0.000682  -0.000235  -0.027235   0.508954  -0.017097   0.014240
    17  H   -0.000842  -0.000207  -0.061310  -0.017097   0.548517  -0.004498
    18  H    0.002233   0.000047   0.000590   0.014240  -0.004498   0.511064
    19  H   -0.000116   0.000612  -0.003913  -0.000997   0.002175  -0.022230
    20  H   -0.001873   0.000506   0.001611  -0.003181  -0.000288  -0.022175
    21  C    0.227422   0.025531  -0.000363   0.000117  -0.000672   0.000221
    22  H    0.349863  -0.002996  -0.000005   0.000034   0.000034  -0.000027
    23  H   -0.057184   0.002523  -0.000350  -0.000031  -0.000376   0.000066
    24  C   -0.603937  -0.002262  -0.000024  -0.000005   0.000015  -0.000002
    25  C    0.372640  -0.000252   0.000030   0.000025   0.000055  -0.000031
    26  O    0.078069   0.000084  -0.000001   0.000000  -0.000001   0.000000
    27  C   -0.235275  -0.001895   0.000048  -0.000026  -0.000011   0.000012
    28  C    0.220355   0.001654   0.000014  -0.000005   0.000024   0.000000
    29  H   -0.014311  -0.000074   0.000000   0.000000   0.000000   0.000000
    30  C    0.101092  -0.000187   0.000022  -0.000004   0.000006   0.000001
    31  H    0.005914   0.000024   0.000022  -0.000005   0.000027   0.000000
    32  O    0.041904   0.000056   0.000000   0.000000   0.000000   0.000000
    33  C    0.070419   0.000340   0.000001   0.000000   0.000002   0.000000
    34  C    0.003066  -0.000182   0.000003   0.000000   0.000000   0.000000
    35  H   -0.001829   0.000003  -0.000001   0.000000  -0.000001   0.000000
    36  H    0.002463   0.000012   0.000000   0.000000   0.000000   0.000000
    37  C    0.006989  -0.000011   0.000000   0.000000   0.000000   0.000000
    38  H    0.000201   0.000000   0.000000   0.000000   0.000000   0.000000
    39  H   -0.000123   0.000000   0.000000   0.000000   0.000000   0.000000
    40  H   -0.000095   0.000000   0.000000   0.000000   0.000000   0.000000
              19         20         21         22         23         24
     1  C   -0.016504   0.000689  -0.683214   0.014158  -0.167409  -0.008622
     2  C   -0.012494  -0.012795  -0.264545   0.001382  -0.071089   0.014875
     3  C   -0.005689  -0.002746  -1.237269  -0.000151  -0.129235  -0.414154
     4  H   -0.000508  -0.000459   0.036757   0.000426   0.014191  -0.000163
     5  C    0.029839   0.006557   0.547147   0.026103   0.048970   0.012287
     6  N   -0.055400  -0.057340  -0.000177  -0.000504  -0.000804   0.000063
     7  C    0.002052   0.006296  -0.638681  -0.130523   0.056281   0.305352
     8  H   -0.000196   0.000091  -0.156714   0.000387  -0.050263  -0.027463
     9  C   -0.004174   0.002444  -0.022616   0.055564   0.015363   0.067169
    10  H   -0.006371  -0.010487  -0.010512   0.001908  -0.000760   0.001920
    11  C    0.000513  -0.000401   0.003840   0.000600  -0.000665  -0.000264
    12  C    0.416849   0.419822  -0.003295  -0.000918  -0.000048   0.000844
    13  C   -0.000116  -0.001873   0.227422   0.349863  -0.057184  -0.603937
    14  H    0.000612   0.000506   0.025531  -0.002996   0.002523  -0.002262
    15  H   -0.003913   0.001611  -0.000363  -0.000005  -0.000350  -0.000024
    16  H   -0.000997  -0.003181   0.000117   0.000034  -0.000031  -0.000005
    17  H    0.002175  -0.000288  -0.000672   0.000034  -0.000376   0.000015
    18  H   -0.022230  -0.022175   0.000221  -0.000027   0.000066  -0.000002
    19  H    0.567921  -0.060708   0.000303  -0.000131   0.000062  -0.000016
    20  H   -0.060708   0.549003  -0.000118  -0.000064  -0.000059  -0.000019
    21  C    0.000303  -0.000118   8.982900  -0.004725   0.790593   0.335477
    22  H   -0.000131  -0.000064  -0.004725   0.457469   0.003871  -0.002701
    23  H    0.000062  -0.000059   0.790593   0.003871   0.878255   0.134272
    24  C   -0.000016  -0.000019   0.335477  -0.002701   0.134272   7.827019
    25  C    0.000031   0.000039  -0.724117  -0.026808  -0.144127   0.491382
    26  O   -0.000001  -0.000001  -0.344610   0.001232  -0.005055   0.679912
    27  C   -0.000017  -0.000002  -0.509156   0.007279   0.071647   0.324238
    28  C    0.000001   0.000006   0.304755  -0.000695  -0.055175  -2.109622
    29  H    0.000000   0.000000   0.013139   0.000318   0.002075   0.045907
    30  C   -0.000001   0.000001  -0.843012   0.000367  -0.099781  -0.695639
    31  H   -0.000001   0.000003  -0.016069   0.001853  -0.033021  -0.061244
    32  O    0.000000   0.000000  -0.054272  -0.001553  -0.001274  -0.110954
    33  C    0.000000   0.000000   0.232549   0.001264  -0.001781  -0.483938
    34  C    0.000000   0.000000  -0.107254   0.003217   0.001365   0.091885
    35  H    0.000000   0.000000   0.006888  -0.000211   0.008306   0.007027
    36  H    0.000000   0.000000   0.000679  -0.000123  -0.000653  -0.023013
    37  C    0.000000   0.000000  -0.023341   0.000341  -0.008651   0.046702
    38  H    0.000000   0.000000  -0.002364   0.000003  -0.000419  -0.001169
    39  H    0.000000   0.000000   0.000408   0.000000   0.000129   0.000891
    40  H    0.000000   0.000000  -0.000011   0.000000   0.000156   0.001524
              25         26         27         28         29         30
     1  C    0.161632   0.002037  -0.082703   0.026458  -0.000027  -0.003299
     2  C    0.040366  -0.001193  -0.012373   0.012271  -0.000154   0.000530
     3  C    0.353497   0.019023  -0.263119   0.258439  -0.004164  -0.029364
     4  H   -0.006169   0.000042   0.001828  -0.001717  -0.000009  -0.000739
     5  C   -0.110850  -0.006668   0.065681  -0.020583   0.000166   0.004484
     6  N   -0.000093   0.000001   0.000045  -0.000022   0.000001   0.000010
     7  C    0.028843   0.062758  -0.105614  -0.050184  -0.002830  -0.009515
     8  H    0.044978   0.002006  -0.032118   0.020586  -0.000153   0.006859
     9  C   -0.154875  -0.033640   0.212616  -0.062641   0.003587   0.032668
    10  H   -0.000317   0.000070   0.000110  -0.000258   0.000013  -0.000013
    11  C    0.000297   0.000009  -0.000446  -0.000080  -0.000003  -0.000086
    12  C   -0.000359   0.000000   0.000091   0.000005  -0.000001   0.000003
    13  C    0.372640   0.078069  -0.235275   0.220355  -0.014311   0.101092
    14  H   -0.000252   0.000084  -0.001895   0.001654  -0.000074  -0.000187
    15  H    0.000030  -0.000001   0.000048   0.000014   0.000000   0.000022
    16  H    0.000025   0.000000  -0.000026  -0.000005   0.000000  -0.000004
    17  H    0.000055  -0.000001  -0.000011   0.000024   0.000000   0.000006
    18  H   -0.000031   0.000000   0.000012   0.000000   0.000000   0.000001
    19  H    0.000031  -0.000001  -0.000017   0.000001   0.000000  -0.000001
    20  H    0.000039  -0.000001  -0.000002   0.000006   0.000000   0.000001
    21  C   -0.724117  -0.344610  -0.509156   0.304755   0.013139  -0.843012
    22  H   -0.026808   0.001232   0.007279  -0.000695   0.000318   0.000367
    23  H   -0.144127  -0.005055   0.071647  -0.055175   0.002075  -0.099781
    24  C    0.491382   0.679912   0.324238  -2.109622   0.045907  -0.695639
    25  C   12.723698  -0.064196  -0.438332  -1.421927  -0.130738  -2.376382
    26  O   -0.064196   8.134755  -0.100991  -0.150709   0.100632  -0.024112
    27  C   -0.438332  -0.100991   8.949219  -0.959115   0.019495   1.554899
    28  C   -1.421927  -0.150709  -0.959115   9.479802   0.020517  -0.060529
    29  H   -0.130738   0.100632   0.019495   0.020517   0.280440   0.011113
    30  C   -2.376382  -0.024112   1.554899  -0.060529   0.011113   9.769551
    31  H   -0.020447  -0.000923   0.447716   0.046763   0.000266  -0.046180
    32  O    0.107070   0.017724  -0.031043   0.334882   0.211740  -0.006651
    33  C   -3.336310   0.016816  -0.487630   1.410403   0.045339  -1.034300
    34  C   -0.396744  -0.016210  -1.407140  -0.875930  -0.005276   0.463920
    35  H    0.084174   0.000364   0.013990   0.004498   0.000323   0.291541
    36  H   -0.107328   0.000523   0.031031  -0.120603   0.000887   0.047938
    37  C   -0.176828  -0.000699  -0.015966  -0.184147  -0.001769   0.114877
    38  H   -0.014582   0.000014   0.018823  -0.007534   0.000032   0.105051
    39  H    0.009169  -0.000025  -0.020883  -0.001119   0.000004  -0.044787
    40  H    0.016994  -0.000017  -0.017898   0.018556  -0.000036  -0.073207
              31         32         33         34         35         36
     1  C    0.006131   0.000237  -0.000790  -0.004285   0.000370   0.000023
     2  C    0.002987  -0.000039   0.000497  -0.000143   0.000027   0.000008
     3  C    0.007598   0.001086   0.036811  -0.007985  -0.000519   0.000504
     4  H   -0.000403  -0.000003  -0.000137  -0.000081   0.000011  -0.000002
     5  C   -0.000118  -0.000313  -0.001731   0.001780  -0.000122  -0.000033
     6  N    0.000042   0.000000  -0.000001   0.000000  -0.000001   0.000000
     7  C   -0.017483   0.000576  -0.045127   0.002426   0.000598  -0.000768
     8  H   -0.006852   0.000220   0.001527   0.000463  -0.000120   0.000023
     9  C    0.003985  -0.001294  -0.007830   0.011164  -0.000655  -0.000108
    10  H   -0.000014   0.000001  -0.000043   0.000002   0.000001  -0.000001
    11  C   -0.000032   0.000000  -0.000005  -0.000006   0.000002   0.000000
    12  C    0.000015   0.000000  -0.000001   0.000002  -0.000001   0.000000
    13  C    0.005914   0.041904   0.070419   0.003066  -0.001829   0.002463
    14  H    0.000024   0.000056   0.000340  -0.000182   0.000003   0.000012
    15  H    0.000022   0.000000   0.000001   0.000003  -0.000001   0.000000
    16  H   -0.000005   0.000000   0.000000   0.000000   0.000000   0.000000
    17  H    0.000027   0.000000   0.000002   0.000000  -0.000001   0.000000
    18  H    0.000000   0.000000   0.000000   0.000000   0.000000   0.000000
    19  H   -0.000001   0.000000   0.000000   0.000000   0.000000   0.000000
    20  H    0.000003   0.000000   0.000000   0.000000   0.000000   0.000000
    21  C   -0.016069  -0.054272   0.232549  -0.107254   0.006888   0.000679
    22  H    0.001853  -0.001553   0.001264   0.003217  -0.000211  -0.000123
    23  H   -0.033021  -0.001274  -0.001781   0.001365   0.008306  -0.000653
    24  C   -0.061244  -0.110954  -0.483938   0.091885   0.007027  -0.023013
    25  C   -0.020447   0.107070  -3.336310  -0.396744   0.084174  -0.107328
    26  O   -0.000923   0.017724   0.016816  -0.016210   0.000364   0.000523
    27  C    0.447716  -0.031043  -0.487630  -1.407140   0.013990   0.031031
    28  C    0.046763   0.334882   1.410403  -0.875930   0.004498  -0.120603
    29  H    0.000266   0.211740   0.045339  -0.005276   0.000323   0.000887
    30  C   -0.046180  -0.006651  -1.034300   0.463920   0.291541   0.047938
    31  H    0.580912  -0.002055   0.031029  -0.055647  -0.026798   0.002249
    32  O   -0.002055   8.174988  -0.321792   0.005518   0.000244  -0.029018
    33  C    0.031029  -0.321792   9.584919   0.386061   0.012774   0.541959
    34  C   -0.055647   0.005518   0.386061   8.334844  -0.070704  -0.009314
    35  H   -0.026798   0.000244   0.012774  -0.070704   0.517108  -0.000179
    36  H    0.002249  -0.029018   0.541959  -0.009314  -0.000179   0.474566
    37  C    0.013460   0.003338  -0.441021  -0.899769  -0.031316  -0.034234
    38  H    0.002401   0.000287  -0.021277  -0.103316  -0.004896   0.001768
    39  H   -0.000492   0.000170  -0.014226   0.029341  -0.000143  -0.003290
    40  H   -0.000599   0.000230   0.044213   0.025746   0.000747  -0.001921
              37         38         39         40
     1  C    0.000295  -0.000046   0.000003   0.000002
     2  C    0.000029  -0.000003   0.000000   0.000000
     3  C    0.000990  -0.000030  -0.000010  -0.000008
     4  H   -0.000019   0.000000   0.000000   0.000000
     5  C    0.000011   0.000004   0.000000   0.000000
     6  N    0.000000   0.000000   0.000000   0.000000
     7  C   -0.000478  -0.000111   0.000055   0.000030
     8  H    0.000546  -0.000008  -0.000001  -0.000007
     9  C    0.000184   0.000044  -0.000003  -0.000001
    10  H    0.000000   0.000000   0.000000   0.000000
    11  C    0.000000   0.000000   0.000000   0.000000
    12  C    0.000000   0.000000   0.000000   0.000000
    13  C    0.006989   0.000201  -0.000123  -0.000095
    14  H   -0.000011   0.000000   0.000000   0.000000
    15  H    0.000000   0.000000   0.000000   0.000000
    16  H    0.000000   0.000000   0.000000   0.000000
    17  H    0.000000   0.000000   0.000000   0.000000
    18  H    0.000000   0.000000   0.000000   0.000000
    19  H    0.000000   0.000000   0.000000   0.000000
    20  H    0.000000   0.000000   0.000000   0.000000
    21  C   -0.023341  -0.002364   0.000408  -0.000011
    22  H    0.000341   0.000003   0.000000   0.000000
    23  H   -0.008651  -0.000419   0.000129   0.000156
    24  C    0.046702  -0.001169   0.000891   0.001524
    25  C   -0.176828  -0.014582   0.009169   0.016994
    26  O   -0.000699   0.000014  -0.000025  -0.000017
    27  C   -0.015966   0.018823  -0.020883  -0.017898
    28  C   -0.184147  -0.007534  -0.001119   0.018556
    29  H   -0.001769   0.000032   0.000004  -0.000036
    30  C    0.114877   0.105051  -0.044787  -0.073207
    31  H    0.013460   0.002401  -0.000492  -0.000599
    32  O    0.003338   0.000287   0.000170   0.000230
    33  C   -0.441021  -0.021277  -0.014226   0.044213
    34  C   -0.899769  -0.103316   0.029341   0.025746
    35  H   -0.031316  -0.004896  -0.000143   0.000747
    36  H   -0.034234   0.001768  -0.003290  -0.001921
    37  C    7.059029   0.369784   0.400611   0.345718
    38  H    0.369784   0.525099  -0.017753  -0.021365
    39  H    0.400611  -0.017753   0.525743  -0.051028
    40  H    0.345718  -0.021365  -0.051028   0.533821
 Mulliken charges:
               1
     1  C   -0.373510
     2  C   -0.466510
     3  C   -0.426278
     4  H    0.221026
     5  C   -0.236760
     6  N    0.064717
     7  C    0.639259
     8  H    0.163301
     9  C   -0.218274
    10  H    0.189467
    11  C   -0.389501
    12  C   -0.386359
    13  C    0.040011
    14  H    0.215295
    15  H    0.171617
    16  H    0.155933
    17  H    0.180629
    18  H    0.157806
    19  H    0.169108
    20  H    0.185649
    21  C    0.138380
    22  H    0.244462
    23  H   -0.199918
    24  C    0.156449
    25  C    1.216889
    26  O   -0.367021
    27  C   -0.997016
    28  C   -0.077396
    29  H    0.403551
    30  C   -1.157149
    31  H    0.134985
    32  O   -0.340013
    33  C   -0.218985
    34  C    0.599182
    35  H    0.188495
    36  H    0.225956
    37  C   -0.544656
    38  H    0.171362
    39  H    0.187360
    40  H    0.178455
 Sum of Mulliken charges =   0.00000
 Mulliken charges with hydrogens summed into heavy atoms:
               1
     1  C   -0.152484
     2  C   -0.466510
     3  C   -0.262977
     5  C   -0.047293
     6  N    0.064717
     7  C    0.639259
     9  C   -0.002979
    11  C    0.118678
    12  C    0.126205
    13  C    0.284473
    21  C   -0.061538
    24  C    0.156449
    25  C    1.216889
    26  O   -0.367021
    27  C   -0.862030
    28  C   -0.077396
    30  C   -0.968653
    32  O    0.063538
    33  C    0.006971
    34  C    0.599182
    37  C   -0.007479
 Electronic spatial extent (au):  <R**2>=          18944.3420
 Charge=              0.0000 electrons
 Dipole moment (field-independent basis, Debye):
    X=              2.3034    Y=             -1.5022    Z=             -8.6417  Tot=              9.0687
 Quadrupole moment (field-independent basis, Debye-Ang):
   XX=           -117.5970   YY=           -108.4344   ZZ=            -78.0579
   XY=            -16.9403   XZ=            -14.3774   YZ=              5.3770
 Traceless Quadrupole moment (field-independent basis, Debye-Ang):
   XX=            -16.2339   YY=             -7.0713   ZZ=             23.3052
   XY=            -16.9403   XZ=            -14.3774   YZ=              5.3770
 Octapole moment (field-independent basis, Debye-Ang**2):
  XXX=           -815.9900  YYY=            934.3766  ZZZ=            -96.5981  XYY=           -180.2846
  XXY=            283.9538  XXZ=             78.8231  XZZ=           -129.9739  YZZ=            243.2810
  YYZ=            126.8365  XYZ=             12.4855
 Hexadecapole moment (field-independent basis, Debye-Ang**3):
 XXXX=          -4394.3945 YYYY=          -7420.9616 ZZZZ=         -10392.2862 XXXY=           2588.7771
 XXXZ=            248.3114 YYYX=           2222.1449 YYYZ=            733.5850 ZZZX=           -577.5605
 ZZZY=           1296.7614 XXYY=          -1695.9347 XXZZ=          -2648.2129 YYZZ=          -3153.9139
 XXYZ=            351.2091 YYXZ=            209.1814 ZZXY=            439.3642
 N-N= 1.472402950576D+03 E-N=-5.045026573489D+03  KE= 8.983000563978D+02
 Leave Link  601 at Mon Nov 13 15:50:08 2017, MaxMem=  3758096384 cpu:         0.4
 (Enter /share/apps/gaussian/g09_D01/g09/l9999.exe)
 1\1\GINC-NXN32\SP\RwB97XD TD-FC\6-311++G(d,p)\C18H19N1O2\BTX008\13-Nov
 -2017\0\\#p wb97xd 6-311++G** td=(nstates=4) nosymm\\Title\\0,1\C,0,2.
 553201,-2.658779,-4.605183\C,0,2.00374,-1.591982,-5.375045\C,0,2.36449
 1,-2.727633,-3.244044\H,0,3.135661,-3.435715,-5.094676\C,0,1.247109,-0
 .607923,-4.680003\N,0,2.197245,-1.524853,-6.71719\C,0,1.628214,-1.7425
 26,-2.544853\H,0,2.810172,-3.558198,-2.697065\C,0,1.071163,-0.694102,-
 3.315116\H,0,0.800426,0.223073,-5.220494\C,0,3.041507,-2.501856,-7.387
 689\C,0,1.618481,-0.432525,-7.483522\C,0,1.453269,-1.740841,-1.127854\
 H,0,0.496034,0.07439,-2.797705\H,0,2.63868,-3.520413,-7.274076\H,0,3.0
 87893,-2.266027,-8.455047\H,0,4.067959,-2.481285,-6.985003\H,0,1.80918
 6,-0.598363,-8.54864\H,0,0.529036,-0.389905,-7.334041\H,0,2.054389,0.5
 3903,-7.199118\C,0,1.995711,-2.614472,-0.226791\H,0,0.82478,-0.942808,
 -0.722327\H,0,2.643729,-3.416825,-0.571906\C,0,1.754536,-2.484814,1.18
 7257\C,0,2.331984,-3.444253,2.138501\O,0,1.021369,-1.531306,1.639506\C
 ,0,3.125072,-4.542615,1.749447\C,0,2.061708,-3.290261,3.532347\H,0,1.0
 47936,-1.760816,3.104999\C,0,3.609347,-5.451136,2.673973\H,0,3.364409,
 -4.705792,0.700013\O,0,1.30627,-2.266076,3.979362\C,0,2.556416,-4.2167
 54,4.45523\C,0,3.315939,-5.308821,4.043903\H,0,4.225537,-6.285629,2.34
 0322\H,0,2.330283,-4.059447,5.51025\C,0,3.797503,-6.319273,5.042906\H,
 0,4.283994,-7.172302,4.553201\H,0,4.51496,-5.875751,5.751278\H,0,2.955
 985,-6.707014,5.637774\\Version=ES64L-G09RevD.01\HF=-902.4798746\RMSD=
 4.314e-09\PG=C01 [X(C18H19N1O2)]\\@


 EVERYBODY NEEDS BEAUTY AS WELL AS BREAD, PLACES TO PLAY IN AND PRAY IN,
 WHERE NATURE MAY HEAL AND CHEER AND GIVE STRENGTH TO BODY AND SOUL ALIKE.

                                    -- JOHN MUIR
 Job cpu time:       0 days  2 hours 35 minutes 14.6 seconds.
 File lengths (MBytes):  RWF=    513 Int=      0 D2E=      0 Chk=     58 Scr=      1
 Normal termination of Gaussian 09 at Mon Nov 13 15:50:14 2017.
