 Entering Gaussian System, Link 0=g09
 Input=2hc_2_663-mega_dimer_0_mon-1.com
 Output=2hc_2_663-mega_dimer_0_mon-1.out
 Initial command:
 /share/apps/gaussian/g09_D01/g09/l1.exe "/tmp/160959.1.all.q/Gau-24781.inp" -scrdir="/tmp/160959.1.all.q/"
 Entering Link 1 = /share/apps/gaussian/g09_D01/g09/l1.exe PID=     24782.
  
 Copyright (c) 1988,1990,1992,1993,1995,1998,2003,2009,2013,
            Gaussian, Inc.  All Rights Reserved.
  
 This is part of the Gaussian(R) 09 program.  It is based on
 the Gaussian(R) 03 system (copyright 2003, Gaussian, Inc.),
 the Gaussian(R) 98 system (copyright 1998, Gaussian, Inc.),
 the Gaussian(R) 94 system (copyright 1995, Gaussian, Inc.),
 the Gaussian 92(TM) system (copyright 1992, Gaussian, Inc.),
 the Gaussian 90(TM) system (copyright 1990, Gaussian, Inc.),
 the Gaussian 88(TM) system (copyright 1988, Gaussian, Inc.),
 the Gaussian 86(TM) system (copyright 1986, Carnegie Mellon
 University), and the Gaussian 82(TM) system (copyright 1983,
 Carnegie Mellon University). Gaussian is a federally registered
 trademark of Gaussian, Inc.
  
 This software contains proprietary and confidential information,
 including trade secrets, belonging to Gaussian, Inc.
  
 This software is provided under written license and may be
 used, copied, transmitted, or stored only in accord with that
 written license.
  
 The following legend is applicable only to US Government
 contracts under FAR:
  
                    RESTRICTED RIGHTS LEGEND
  
 Use, reproduction and disclosure by the US Government is
 subject to restrictions as set forth in subparagraphs (a)
 and (c) of the Commercial Computer Software - Restricted
 Rights clause in FAR 52.227-19.
  
 Gaussian, Inc.
 340 Quinnipiac St., Bldg. 40, Wallingford CT 06492
  
  
 ---------------------------------------------------------------
 Warning -- This program may not be used in any manner that
 competes with the business of Gaussian, Inc. or will provide
 assistance to any competitor of Gaussian, Inc.  The licensee
 of this program is prohibited from giving any competitor of
 Gaussian, Inc. access to this program.  By using this program,
 the user acknowledges that Gaussian, Inc. is engaged in the
 business of creating and licensing software in the field of
 computational chemistry and represents and warrants to the
 licensee that it is not a competitor of Gaussian, Inc. and that
 it will not use this program in any manner prohibited above.
 ---------------------------------------------------------------
  

 Cite this work as:
 Gaussian 09, Revision D.01,
 M. J. Frisch, G. W. Trucks, H. B. Schlegel, G. E. Scuseria, 
 M. A. Robb, J. R. Cheeseman, G. Scalmani, V. Barone, B. Mennucci, 
 G. A. Petersson, H. Nakatsuji, M. Caricato, X. Li, H. P. Hratchian, 
 A. F. Izmaylov, J. Bloino, G. Zheng, J. L. Sonnenberg, M. Hada, 
 M. Ehara, K. Toyota, R. Fukuda, J. Hasegawa, M. Ishida, T. Nakajima, 
 Y. Honda, O. Kitao, H. Nakai, T. Vreven, J. A. Montgomery, Jr., 
 J. E. Peralta, F. Ogliaro, M. Bearpark, J. J. Heyd, E. Brothers, 
 K. N. Kudin, V. N. Staroverov, T. Keith, R. Kobayashi, J. Normand, 
 K. Raghavachari, A. Rendell, J. C. Burant, S. S. Iyengar, J. Tomasi, 
 M. Cossi, N. Rega, J. M. Millam, M. Klene, J. E. Knox, J. B. Cross, 
 V. Bakken, C. Adamo, J. Jaramillo, R. Gomperts, R. E. Stratmann, 
 O. Yazyev, A. J. Austin, R. Cammi, C. Pomelli, J. W. Ochterski, 
 R. L. Martin, K. Morokuma, V. G. Zakrzewski, G. A. Voth, 
 P. Salvador, J. J. Dannenberg, S. Dapprich, A. D. Daniels, 
 O. Farkas, J. B. Foresman, J. V. Ortiz, J. Cioslowski, 
 and D. J. Fox, Gaussian, Inc., Wallingford CT, 2013.
 
 ******************************************
 Gaussian 09:  ES64L-G09RevD.01 24-Apr-2013
                 2-Nov-2017 
 ******************************************
 %chk=2hc_2_663-mega_dimer_0_mon-1
 %nproc=4
 Will use up to    4 processors via shared memory.
 %mem=28GB
 ------------------------------------------
 #p wb97xd/6-311++G** td=(nstates=2) nosymm
 ------------------------------------------
 1/38=1/1;
 2/12=2,15=1,17=6,18=5,40=1/2;
 3/5=4,6=6,7=1111,11=9,16=1,25=1,30=1,74=-58/1,2,8,3;
 4//1;
 5/5=2,38=5/2;
 8/6=1,10=2,108=2/1;
 9/41=2,42=1,70=2/14;
 6/7=2,8=2,9=2,10=2/1;
 99/5=1,9=1/99;
 Leave Link    1 at Thu Nov  2 19:27:34 2017, MaxMem=  3758096384 cpu:         2.1
 (Enter /share/apps/gaussian/g09_D01/g09/l101.exe)
 -----
 Title
 -----
 Symbolic Z-matrix:
 Charge =  0 Multiplicity = 1
 O                    -3.67544  -8.69208  -3.62562 
 C                    -3.0362   -7.70041  -4.28606 
 H                    -4.23611  -8.17074  -2.91642 
 C                    -3.12909  -6.35164  -3.83962 
 C                    -2.25758  -8.00905  -5.41201 
 O                    -4.65994  -6.96841  -2.13669 
 C                    -3.90755  -6.04764  -2.62272 
 C                    -2.46242  -5.36145  -4.58863 
 C                    -1.62214  -7.00136  -6.12236 
 H                    -2.17195  -9.05144  -5.71917 
 C                    -3.78932  -4.75835  -1.99908 
 C                    -1.72544  -5.65278  -5.72879 
 H                    -2.51763  -4.32116  -4.27226 
 H                    -1.03266  -7.25541  -7.00604 
 C                    -4.49619  -4.39968  -0.88254 
 H                    -3.0854   -4.05143  -2.43375 
 C                    -1.04778  -4.55675  -6.5058 
 C                    -4.39828  -3.15901  -0.17892 
 H                    -5.19278  -5.13573  -0.46677 
 H                    -1.47286  -4.45911  -7.51775 
 H                     0.0228   -4.76756  -6.63628 
 H                    -1.14506  -3.59367  -5.98728 
 C                    -3.51386  -2.11562  -0.55162 
 C                    -5.19073  -2.93979   0.97381 
 H                    -2.88743  -2.2266   -1.43617 
 C                    -3.41386  -0.9513    0.17241 
 C                    -5.1059   -1.78115   1.718 
 H                    -5.88612  -3.72155   1.27793 
 H                    -2.71748  -0.18416  -0.15791 
 C                    -4.20424  -0.74562   1.34135 
 H                    -5.73486  -1.66628   2.59845 
 N                    -4.09686   0.39652   2.06582 
 C                    -4.91409   0.59432   3.25304 
 C                    -3.16316   1.43813   1.65619 
 H                    -4.67848  -0.14807   4.03159 
 H                    -5.98524   0.51558   3.01678 
 H                    -4.72163   1.59036   3.661 
 H                    -3.19455   2.2547    2.38412 
 H                    -3.42636   1.84038   0.666 
 H                    -2.13289   1.05153   1.6093 
 
 NAtoms=     40 NQM=       40 NQMF=       0 NMMI=      0 NMMIF=      0
                NMic=       0 NMicF=      0.
                    Isotopes and Nuclear Properties:
 (Nuclear quadrupole moments (NQMom) in fm**2, nuclear magnetic moments (NMagM)
  in nuclear magnetons)

  Atom         1           2           3           4           5           6           7           8           9          10
 IAtWgt=          16          12           1          12          12          16          12          12          12           1
 AtmWgt=  15.9949146  12.0000000   1.0078250  12.0000000  12.0000000  15.9949146  12.0000000  12.0000000  12.0000000   1.0078250
 NucSpn=           0           0           1           0           0           0           0           0           0           1
 AtZEff=   0.0000000   0.0000000   0.0000000   0.0000000   0.0000000   0.0000000   0.0000000   0.0000000   0.0000000   0.0000000
 NQMom=    0.0000000   0.0000000   0.0000000   0.0000000   0.0000000   0.0000000   0.0000000   0.0000000   0.0000000   0.0000000
 NMagM=    0.0000000   0.0000000   2.7928460   0.0000000   0.0000000   0.0000000   0.0000000   0.0000000   0.0000000   2.7928460
 AtZNuc=   8.0000000   6.0000000   1.0000000   6.0000000   6.0000000   8.0000000   6.0000000   6.0000000   6.0000000   1.0000000

  Atom        11          12          13          14          15          16          17          18          19          20
 IAtWgt=          12          12           1           1          12           1          12          12           1           1
 AtmWgt=  12.0000000  12.0000000   1.0078250   1.0078250  12.0000000   1.0078250  12.0000000  12.0000000   1.0078250   1.0078250
 NucSpn=           0           0           1           1           0           1           0           0           1           1
 AtZEff=   0.0000000   0.0000000   0.0000000   0.0000000   0.0000000   0.0000000   0.0000000   0.0000000   0.0000000   0.0000000
 NQMom=    0.0000000   0.0000000   0.0000000   0.0000000   0.0000000   0.0000000   0.0000000   0.0000000   0.0000000   0.0000000
 NMagM=    0.0000000   0.0000000   2.7928460   2.7928460   0.0000000   2.7928460   0.0000000   0.0000000   2.7928460   2.7928460
 AtZNuc=   6.0000000   6.0000000   1.0000000   1.0000000   6.0000000   1.0000000   6.0000000   6.0000000   1.0000000   1.0000000

  Atom        21          22          23          24          25          26          27          28          29          30
 IAtWgt=           1           1          12          12           1          12          12           1           1          12
 AtmWgt=   1.0078250   1.0078250  12.0000000  12.0000000   1.0078250  12.0000000  12.0000000   1.0078250   1.0078250  12.0000000
 NucSpn=           1           1           0           0           1           0           0           1           1           0
 AtZEff=   0.0000000   0.0000000   0.0000000   0.0000000   0.0000000   0.0000000   0.0000000   0.0000000   0.0000000   0.0000000
 NQMom=    0.0000000   0.0000000   0.0000000   0.0000000   0.0000000   0.0000000   0.0000000   0.0000000   0.0000000   0.0000000
 NMagM=    2.7928460   2.7928460   0.0000000   0.0000000   2.7928460   0.0000000   0.0000000   2.7928460   2.7928460   0.0000000
 AtZNuc=   1.0000000   1.0000000   6.0000000   6.0000000   1.0000000   6.0000000   6.0000000   1.0000000   1.0000000   6.0000000

  Atom        31          32          33          34          35          36          37          38          39          40
 IAtWgt=           1          14          12          12           1           1           1           1           1           1
 AtmWgt=   1.0078250  14.0030740  12.0000000  12.0000000   1.0078250   1.0078250   1.0078250   1.0078250   1.0078250   1.0078250
 NucSpn=           1           2           0           0           1           1           1           1           1           1
 AtZEff=   0.0000000   0.0000000   0.0000000   0.0000000   0.0000000   0.0000000   0.0000000   0.0000000   0.0000000   0.0000000
 NQMom=    0.0000000   2.0440000   0.0000000   0.0000000   0.0000000   0.0000000   0.0000000   0.0000000   0.0000000   0.0000000
 NMagM=    2.7928460   0.4037610   0.0000000   0.0000000   2.7928460   2.7928460   2.7928460   2.7928460   2.7928460   2.7928460
 AtZNuc=   1.0000000   7.0000000   6.0000000   6.0000000   1.0000000   1.0000000   1.0000000   1.0000000   1.0000000   1.0000000
 Leave Link  101 at Thu Nov  2 19:27:36 2017, MaxMem=  3758096384 cpu:         0.3
 (Enter /share/apps/gaussian/g09_D01/g09/l202.exe)
                          Input orientation:                          
 ---------------------------------------------------------------------
 Center     Atomic      Atomic             Coordinates (Angstroms)
 Number     Number       Type             X           Y           Z
 ---------------------------------------------------------------------
      1          8           0       -3.675439   -8.692082   -3.625624
      2          6           0       -3.036202   -7.700412   -4.286061
      3          1           0       -4.236105   -8.170739   -2.916421
      4          6           0       -3.129087   -6.351643   -3.839617
      5          6           0       -2.257584   -8.009049   -5.412007
      6          8           0       -4.659939   -6.968405   -2.136690
      7          6           0       -3.907551   -6.047638   -2.622715
      8          6           0       -2.462419   -5.361451   -4.588631
      9          6           0       -1.622144   -7.001358   -6.122357
     10          1           0       -2.171953   -9.051437   -5.719168
     11          6           0       -3.789319   -4.758355   -1.999083
     12          6           0       -1.725437   -5.652780   -5.728791
     13          1           0       -2.517632   -4.321162   -4.272262
     14          1           0       -1.032658   -7.255414   -7.006039
     15          6           0       -4.496192   -4.399678   -0.882540
     16          1           0       -3.085400   -4.051435   -2.433750
     17          6           0       -1.047778   -4.556747   -6.505796
     18          6           0       -4.398282   -3.159007   -0.178920
     19          1           0       -5.192785   -5.135733   -0.466767
     20          1           0       -1.472863   -4.459112   -7.517750
     21          1           0        0.022803   -4.767561   -6.636277
     22          1           0       -1.145060   -3.593672   -5.987280
     23          6           0       -3.513859   -2.115618   -0.551624
     24          6           0       -5.190732   -2.939791    0.973810
     25          1           0       -2.887427   -2.226603   -1.436170
     26          6           0       -3.413858   -0.951298    0.172407
     27          6           0       -5.105897   -1.781145    1.717999
     28          1           0       -5.886118   -3.721553    1.277929
     29          1           0       -2.717480   -0.184157   -0.157914
     30          6           0       -4.204238   -0.745615    1.341350
     31          1           0       -5.734864   -1.666280    2.598454
     32          7           0       -4.096860    0.396522    2.065819
     33          6           0       -4.914092    0.594323    3.253036
     34          6           0       -3.163159    1.438129    1.656185
     35          1           0       -4.678475   -0.148074    4.031588
     36          1           0       -5.985241    0.515578    3.016782
     37          1           0       -4.721630    1.590357    3.661001
     38          1           0       -3.194547    2.254703    2.384121
     39          1           0       -3.426361    1.840379    0.666001
     40          1           0       -2.132892    1.051530    1.609304
 ---------------------------------------------------------------------
                    Distance matrix (angstroms):
                    1          2          3          4          5
     1  O    0.000000
     2  C    1.352113   0.000000
     3  H    1.043606   1.880662   0.000000
     4  C    2.412871   1.423769   2.320967   0.000000
     5  C    2.380759   1.403302   3.188830   2.445184   0.000000
     6  O    2.481376   2.791443   1.494397   2.371469   4.193084
     7  C    2.837743   2.501526   2.168356   1.476237   3.788096
     8  C    3.673133   2.427244   3.719455   1.409237   2.780230
     9  C    3.648047   2.420789   4.298636   2.811389   1.387019
    10  H    2.602409   2.150812   3.590507   3.426033   1.090070
    11  C    4.258264   3.801730   3.561670   2.522308   4.955933
    12  C    4.178896   2.827078   4.533541   2.455121   2.436296
    13  H    4.567669   3.418835   4.428397   2.164235   3.868741
    14  H    4.524988   3.407417   5.274928   3.903594   2.146939
    15  C    5.159736   4.960884   4.292461   3.797821   6.209267
    16  H    4.827454   4.092494   4.304156   2.696169   5.021753
    17  C    5.683396   4.331707   6.009158   3.829100   3.818166
    18  C    6.558749   6.272817   5.712939   5.020407   7.449208
    19  H    4.992828   5.080889   4.015881   4.136835   6.428588
    20  H    6.157761   4.836721   6.525635   4.455717   4.201428
    21  H    6.175993   4.845889   6.599791   4.501670   4.148041
    22  H    6.162307   4.830722   6.319357   4.019356   4.589575
    23  C    7.261230   6.735288   6.540519   5.376138   7.741710
    24  C    7.519292   7.414294   6.588477   6.249815   8.664837
    25  H    6.871469   6.173054   6.272386   4.780263   7.045613
    26  C    8.626309   8.097598   7.895396   6.733584   9.073836
    27  C    8.852207   8.681595   7.941114   7.462193   9.886185
    28  H    7.323803   7.410218   6.333275   6.380272   8.735223
    29  H    9.237288   8.581216   8.584933   7.194598   9.436415
    30  C    9.385989   9.022265   8.559328   7.708821  10.107164
    31  H    9.609489   9.544112   8.658413   8.378034  10.793039
    32  N   10.731861  10.345613   9.911613   9.019340  11.399756
    33  C   11.622717  11.365170  10.740027  10.086546  12.496320
    34  C   11.435957  10.901346  10.695339   9.533391  11.833367
    35  H   11.516903  11.354213  10.622320  10.141042  12.523463
    36  H   11.586101  11.381162  10.663699  10.115659  12.554249
    37  H   12.645868  12.341590  11.780374  11.039512  13.436502
    38  H   12.497215  11.984186  11.741824  10.621129  12.922930
    39  H   11.375976  10.756479  10.663579   9.354047  11.632689
    40  H   11.167896  10.590929  10.485988   9.246086  11.463352
                    6          7          8          9         10
     6  O    0.000000
     7  C    1.284570   0.000000
     8  C    3.663797   2.534578   0.000000
     9  C    5.011469   4.287209   2.397430   0.000000
    10  H    4.833554   4.650068   3.870204   2.160480   0.000000
    11  C    2.379335   1.437062   2.971556   5.170019   5.906391
    12  C    4.821344   3.816444   1.388517   1.408626   3.427877
    13  H    4.019707   2.762897   1.088733   3.377603   4.958683
    14  H    6.078659   5.379337   3.387503   1.092214   2.485906
    15  C    2.863226   2.467890   4.335476   6.518019   7.101684
    16  H    3.328082   2.167133   2.597645   4.944592   6.052138
    17  C    6.160592   5.047710   2.514812   2.540284   4.699446
    18  C    4.291019   3.815382   5.295647   7.602305   8.388779
    19  H    2.535992   2.670489   4.949304   6.943755   7.214283
    20  H    6.738680   5.693197   3.220741   2.903863   4.981272
    21  H    6.856972   5.761507   3.274429   2.821314   4.899963
    22  H    6.210494   4.997360   2.610880   3.443571   5.559999
    23  C    5.232158   4.461524   5.285677   7.647359   8.752703
    24  C    5.117292   4.923440   6.651983   8.921140   9.553073
    25  H    5.110500   4.129025   4.466085   6.808787   8.089149
    26  C    6.564314   5.833448   6.559129   8.912773  10.092831
    27  C    6.478053   6.203289   7.718818  10.042825  10.806323
    28  H    4.868797   4.953829   6.987668   9.148925   9.547882
    29  H    7.329033   6.470852   6.819141   9.124065  10.481116
    30  C    7.143356   6.626710   7.713919  10.075140  11.089084
    31  H    7.189547   7.056626   8.718794  11.019531  11.679799
    32  N    8.498252   7.971536   8.950271  11.309247  12.392547
    33  C    9.290242   8.924865  10.147595  12.507169  13.455871
    34  C    9.343236   8.654468   9.258674  11.580388  12.861155
    35  H    9.195918   8.926305  10.314959  12.625817  13.439857
    36  H    9.182848   8.899243  10.236799  12.612090  13.505027
    37  H   10.337767   9.924051  11.022164  13.384262  14.413057
    38  H   10.375492   9.721402  10.351864  12.669147  13.947681
    39  H    9.325849   8.559673   8.966978  11.292179  12.687615
    40  H    9.205313   8.453259   8.924646  11.175350  12.481105
                   11         12         13         14         15
    11  C    0.000000
    12  C    4.355494   0.000000
    13  H    2.641149   2.126560   0.000000
    14  H    6.237314   2.163271   4.276508   0.000000
    15  C    1.369302   5.721319   3.925695   7.592663   0.000000
    16  H    1.088197   3.907826   1.942998   5.948534   2.125526
    17  C    5.278935   1.504741   2.684147   2.744681   6.598275
    18  C    2.498348   6.645605   4.652193   8.643930   1.429661
    19  H    2.111900   6.322874   4.722474   8.035035   1.095393
    20  H    5.992595   2.165412   3.412296   2.876618   7.291780
    21  H    6.002993   2.159511   3.498807   2.727661   7.325445
    22  H    4.924866   2.154897   2.313975   3.802481   6.159391
    23  C    3.025735   6.520201   4.438473   8.615877   2.508269
    24  C    3.756225   8.018319   6.047720   9.979588   2.461644
    25  H    2.745915   5.613867   3.545045   7.729977   2.759871
    26  C    4.398866   7.731677   5.649273   9.845917   3.765061
    27  C    4.941038   9.048301   7.002430  11.075547   3.740489
    28  H    4.026206   8.374666   6.520034  10.230756   2.656948
    29  H    5.045991   7.869222   5.838031   9.986897   4.632442
    30  C    5.237627   8.956094   6.865990  11.050579   4.287552
    31  H    5.872258  10.065321   8.037768  12.066294   4.595987
    32  N    6.571968  10.147593   8.057405  12.257245   5.644096
    33  C    7.582943  11.395922   9.302426  13.488236   6.497513
    34  C    7.221459  10.338564   8.290514  12.455956   6.504006
    35  H    7.642924  11.588236   9.541375  13.624811   6.500617
    36  H    7.602325  11.518664   9.410023  13.615188   6.448389
    37  H    8.556395  12.231451  10.136090  14.340220   7.521643
    38  H    8.291515  11.423918   9.381239  13.538508   7.526363
    39  H    7.125847   9.996696   7.948385  12.137688   6.517732
    40  H    7.036972   9.947936   7.975379  12.018318   6.442836
                   16         17         18         19         20
    16  H    0.000000
    17  C    4.581354   0.000000
    18  C    2.757598   7.294444   0.000000
    19  H    3.079902   7.347529   2.149776   0.000000
    20  H    5.349162   1.101944   8.006671   8.000750   0.000000
    21  H    5.275888   1.098914   7.989424   8.087074   1.763279
    22  H    4.074560   1.098106   6.671539   7.016986   1.788513
    23  C    2.733745   6.891504   1.417665   3.456456   7.627879
    24  C    4.156879   8.701903   1.415916   2.626295   9.393481
    25  H    2.089108   5.874946   2.175486   3.836334   6.631041
    26  C    4.063347   7.949591   2.442642   4.591582   8.672412
    27  C    5.145255   9.581393   2.448984   4.004249  10.279567
    28  H    4.661481   9.202905   2.156971   2.350442   9.868373
    29  H    4.502292   7.886891   3.416909   5.544423   8.601831
    30  C    5.141170   9.277158   2.858904   4.849706   9.986697
    31  H    6.166985  10.640063   3.424689   4.661173  11.327054
    32  N    6.407300  10.358782   4.215625   6.182304  11.059265
    33  C    7.567478  11.692592   5.111934   6.837262  12.385035
    34  C    6.846088  10.345594   5.101647   7.200137  11.036106
    35  H    7.718466  11.985609   5.183879   6.736205  12.737669
    36  H    7.679517  11.865349   5.121867   6.685837  12.493417
    37  H    8.464813  12.435748   6.116045   7.905741  13.119262
    38  H    7.936698  11.403293   6.109535   8.169398  12.086627
    39  H    6.666197   9.900280   5.162595   7.284885  10.510639
    40  H    6.579803   9.923966   5.104739   7.207998  10.682038
                   21         22         23         24         25
    21  H    0.000000
    22  H    1.778515   0.000000
    23  C    7.520890   6.110827   0.000000
    24  C    9.403995   8.077858   2.412077   0.000000
    25  H    6.478196   5.061356   1.089567   3.409084   0.000000
    26  C    8.528346   7.076110   1.374723   2.784535   2.119210
    27  C   10.247740   8.851260   2.792426   1.379665   3.881858
    28  H    9.931975   8.676246   3.399103   1.089588   4.312001
    29  H    8.395590   6.933888   2.125975   3.871859   2.415452
    30  C    9.883646   8.436754   2.436572   2.433652   3.412028
    31  H   11.315871   9.924514   3.880433   2.134802   4.969915
    32  N   10.925468   9.459766   3.674472   3.676959   4.539542
    33  C   12.285001  10.822585   4.876461   4.214423   5.835550
    34  C   10.836322   9.370929   4.198396   4.872666   4.803014
    35  H   12.539738  11.168477   5.121854   4.172062   6.117558
    36  H   12.537532  11.017551   5.075869   4.092011   6.078223
    37  H   12.998719  11.521950   5.739266   5.288033   6.626812
    38  H   11.875652  10.415577   5.274492   5.740775   5.896698
    39  H   10.434791   8.888160   4.140070   5.104682   4.609763
    40  H   10.319808   8.958895   4.075231   5.068025   4.537664
                   26         27         28         29         30
    26  C    0.000000
    27  C    2.437313   0.000000
    28  H    3.874088   2.137192   0.000000
    29  H    1.087456   3.431320   4.961359   0.000000
    30  C    1.425985   1.423789   3.418911   2.184829   0.000000
    31  H    3.432779   1.088115   2.447613   4.347282   2.184205
    32  N    2.422420   2.425153   4.558592   2.680460   1.356784
    33  C    3.758979   2.834780   4.844860   4.131067   2.440055
    34  C    2.823793   3.760555   5.846358   2.474146   2.439612
    35  H    4.139771   2.863967   4.670203   4.625876   2.796308
    36  H    4.105387   2.781190   4.581126   4.609402   2.751300
    37  H    4.510052   3.910236   5.937293   4.663650   3.332453
    38  H    3.901054   4.514980   6.647093   3.554936   3.332980
    39  H    2.835005   4.128314   6.112278   2.297846   2.783622
    40  H    2.777925   4.107873   6.081023   2.234217   2.755359
                   31         32         33         34         35
    31  H    0.000000
    32  N    2.687361   0.000000
    33  C    2.492483   1.454812   0.000000
    34  C    4.139915   1.457581   2.515494   0.000000
    35  H    2.339825   2.121110   1.101277   3.233382   0.000000
    36  H    2.235664   2.117661   1.099717   3.265956   1.782667
    37  H    3.572301   2.088106   1.093417   2.543874   1.778016
    38  H    4.676885   2.090053   2.543366   1.094381   3.269484
    39  H    4.621712   2.119854   3.233999   1.100702   4.104742
    40  H    4.619428   2.120050   3.262816   1.101411   3.713018
                   36         37         38         39         40
    36  H    0.000000
    37  H    1.779573   0.000000
    38  H    3.348550   2.098514   0.000000
    39  H    3.718755   3.272653   1.782509   0.000000
    40  H    4.136282   3.346843   1.781875   1.784703   0.000000
 Symmetry turned off by external request.
 Stoichiometry    C18H19NO2
 Framework group  C1[X(C18H19NO2)]
 Deg. of freedom   114
 Full point group                 C1      NOp   1
 Rotational constants (GHZ):      0.7345787      0.1037181      0.0914774
 Leave Link  202 at Thu Nov  2 19:27:36 2017, MaxMem=  3758096384 cpu:         0.0
 (Enter /share/apps/gaussian/g09_D01/g09/l301.exe)
 Standard basis: 6-311++G(d,p) (5D, 7F)
 Ernie: Thresh=  0.10000D-02 Tol=  0.10000D-05 Strict=F.
   595 basis functions,   927 primitive gaussians,   616 cartesian basis functions
    75 alpha electrons       75 beta electrons
       nuclear repulsion energy      1481.1129097949 Hartrees.
 IExCor= 4639 DFT=T Ex+Corr=wB97XD ExCW=0 ScaHFX=  1.000000
 ScaDFX=  1.000000  1.000000  1.000000  1.000000 ScalE2=  1.000000  1.000000
 IRadAn=      0 IRanWt=     -1 IRanGd=            0 ICorTp=0 IEmpDi=121
  HFx wShort=  0.000000 wLong=  0.200000 cFull=  0.222036 cShort=  0.000000 cLong=  0.777964
  DFx wShort=  0.000000 wLong=  0.200000 cFull=  0.000000 cShort=  0.000000 cLong=  1.000000
 NAtoms=   40 NActive=   40 NUniq=   40 SFac= 1.00D+00 NAtFMM=   60 NAOKFM=F Big=F
 Integral buffers will be    131072 words long.
 Raffenetti 1 integral format.
 Two-electron integral symmetry is turned off.
 R6Disp:  Grimme-D2 Dispersion energy=       -0.0252868593 Hartrees.
 Nuclear repulsion after empirical dispersion term =     1481.0876229355 Hartrees.
 Leave Link  301 at Thu Nov  2 19:27:36 2017, MaxMem=  3758096384 cpu:         0.1
 (Enter /share/apps/gaussian/g09_D01/g09/l302.exe)
 NPDir=0 NMtPBC=     1 NCelOv=     1 NCel=       1 NClECP=     1 NCelD=      1
         NCelK=      1 NCelE2=     1 NClLst=     1 CellRange=     0.0.
 One-electron integrals computed using PRISM.
 NBasis=   595 RedAO= T EigKep=  1.22D-06  NBF=   595
 NBsUse=   588 1.00D-06 EigRej=  9.10D-07 NBFU=   588
 Precomputing XC quadrature grid using
 IXCGrd= 4 IRadAn=           0 IRanWt=          -1 IRanGd=           0 AccXCQ= 0.00D+00.
 Generated NRdTot=       0 NPtTot=           0 NUsed=           0 NTot=          32
 NSgBfM=   599   599   599   599   599 MxSgAt=    40 MxSgA2=    40.
 Leave Link  302 at Thu Nov  2 19:27:37 2017, MaxMem=  3758096384 cpu:         3.6
 (Enter /share/apps/gaussian/g09_D01/g09/l308.exe)
 Leave Link  308 at Thu Nov  2 19:27:37 2017, MaxMem=  3758096384 cpu:         0.4
 (Enter /share/apps/gaussian/g09_D01/g09/l303.exe)
 DipDrv:  MaxL=1.
 Leave Link  303 at Thu Nov  2 19:27:38 2017, MaxMem=  3758096384 cpu:         0.3
 (Enter /share/apps/gaussian/g09_D01/g09/l401.exe)
 ExpMin= 3.60D-02 ExpMax= 8.59D+03 ExpMxC= 1.30D+03 IAcc=3 IRadAn=         5 AccDes= 0.00D+00
 Harris functional with IExCor= 4639 and IRadAn=       5 diagonalized for initial guess.
 HarFok:  IExCor= 4639 AccDes= 0.00D+00 IRadAn=         5 IDoV= 1 UseB2=F ITyADJ=14
 ICtDFT=  3500011 ScaDFX=  1.000000  1.000000  1.000000  1.000000
 FoFCou: FMM=F IPFlag=           0 FMFlag=      100000 FMFlg1=           0
         NFxFlg=           0 DoJE=T BraDBF=F KetDBF=T FulRan=T
         wScrn=  0.000000 ICntrl=     500 IOpCl=  0 I1Cent=   200000004 NGrid=           0
         NMat0=    1 NMatS0=      1 NMatT0=    0 NMatD0=    1 NMtDS0=    0 NMtDT0=    0
 Symmetry not used in FoFCou.
 Harris En= -862.832452083428    
 JPrj=0 DoOrth=F DoCkMO=F.
 Leave Link  401 at Thu Nov  2 19:27:49 2017, MaxMem=  3758096384 cpu:        46.0
 (Enter /share/apps/gaussian/g09_D01/g09/l502.exe)
 Closed shell SCF:
 Using DIIS extrapolation, IDIIS=  1040.
 Two-electron integral symmetry not used.
 IVT=     1164390 IEndB=     1164390 NGot=  3758096384 MDV=  3757328707
 LenX=  3757328707 LenY=  3756948635
 Requested convergence on RMS density matrix=1.00D-08 within 128 cycles.
 Requested convergence on MAX density matrix=1.00D-06.
 Requested convergence on             energy=1.00D-06.
 No special actions if energy rises.
 Fock matrices will be formed incrementally for  20 cycles.

 Cycle   1  Pass 1  IDiag  1:
 FoFJK:  IHMeth= 1 ICntrl=       0 DoSepK=T KAlg= 0 I1Cent=   0 FoldK=F
 IRaf=         1 NMat=   1 IRICut=       1 DoRegI=T DoRafI=F ISym2E= 0.
 FoFCou: FMM=F IPFlag=           0 FMFlag=      100000 FMFlg1=           0
         NFxFlg=           0 DoJE=T BraDBF=F KetDBF=F FulRan=T
         wScrn=  0.000000 ICntrl=     500 IOpCl=  0 I1Cent=           0 NGrid=           0
         NMat0=    1 NMatS0=      1 NMatT0=    0 NMatD0=    1 NMtDS0=    0 NMtDT0=    0
 Symmetry not used in FoFCou.
 E= -902.178422235835    
 DIIS: error= 4.27D-02 at cycle   1 NSaved=   1.
 NSaved= 1 IEnMin= 1 EnMin= -902.178422235835     IErMin= 1 ErrMin= 4.27D-02
 ErrMax= 4.27D-02  0.00D+00 EMaxC= 1.00D-01 BMatC= 1.95D+00 BMatP= 1.95D+00
 IDIUse=3 WtCom= 5.73D-01 WtEn= 4.27D-01
 Coeff-Com:  0.100D+01
 Coeff-En:   0.100D+01
 Coeff:      0.100D+01
 Gap=     0.281 Goal=   None    Shift=    0.000
 GapD=    0.281 DampG=1.000 DampE=0.500 DampFc=0.5000 IDamp=-1.
 Damping current iteration by 5.00D-01
 RMSDP=2.77D-02 MaxDP=2.82D+00              OVMax= 1.98D-01

 Cycle   2  Pass 1  IDiag  1:
 RMSU=  4.08D-03    CP:  8.29D-01
 E= -902.311916425954     Delta-E=       -0.133494190118 Rises=F Damp=T
 DIIS: error= 1.96D-02 at cycle   2 NSaved=   2.
 NSaved= 2 IEnMin= 2 EnMin= -902.311916425954     IErMin= 2 ErrMin= 1.96D-02
 ErrMax= 1.96D-02  0.00D+00 EMaxC= 1.00D-01 BMatC= 4.13D-01 BMatP= 1.95D+00
 IDIUse=3 WtCom= 8.04D-01 WtEn= 1.96D-01
 Coeff-Com: -0.590D+00 0.159D+01
 Coeff-En:   0.000D+00 0.100D+01
 Coeff:     -0.474D+00 0.147D+01
 Gap=     0.275 Goal=   None    Shift=    0.000
 RMSDP=1.68D-02 MaxDP=1.71D+00 DE=-1.33D-01 OVMax= 2.35D-01

 Cycle   3  Pass 1  IDiag  1:
 RMSU=  4.69D-03    CP:  6.21D-01  1.05D+00
 E= -902.342155119243     Delta-E=       -0.030238693289 Rises=F Damp=F
 DIIS: error= 2.67D-02 at cycle   3 NSaved=   3.
 NSaved= 3 IEnMin= 3 EnMin= -902.342155119243     IErMin= 2 ErrMin= 1.96D-02
 ErrMax= 2.67D-02  0.00D+00 EMaxC= 1.00D-01 BMatC= 1.55D-01 BMatP= 4.13D-01
 IDIUse=3 WtCom= 7.33D-01 WtEn= 2.67D-01
 Coeff-Com: -0.396D+00 0.849D+00 0.547D+00
 Coeff-En:   0.000D+00 0.357D+00 0.643D+00
 Coeff:     -0.290D+00 0.718D+00 0.573D+00
 Gap=     0.275 Goal=   None    Shift=    0.000
 RMSDP=3.65D-03 MaxDP=2.88D-01 DE=-3.02D-02 OVMax= 1.17D-01

 Cycle   4  Pass 1  IDiag  1:
 RMSU=  1.53D-03    CP:  5.91D-01  1.37D+00  5.65D-01
 E= -902.465870157945     Delta-E=       -0.123715038702 Rises=F Damp=F
 DIIS: error= 6.01D-03 at cycle   4 NSaved=   4.
 NSaved= 4 IEnMin= 4 EnMin= -902.465870157945     IErMin= 4 ErrMin= 6.01D-03
 ErrMax= 6.01D-03  0.00D+00 EMaxC= 1.00D-01 BMatC= 1.26D-02 BMatP= 1.55D-01
 IDIUse=3 WtCom= 9.40D-01 WtEn= 6.01D-02
 Coeff-Com: -0.143D+00 0.308D+00 0.328D+00 0.507D+00
 Coeff-En:   0.000D+00 0.000D+00 0.000D+00 0.100D+01
 Coeff:     -0.135D+00 0.290D+00 0.309D+00 0.536D+00
 Gap=     0.238 Goal=   None    Shift=    0.000
 RMSDP=1.02D-03 MaxDP=7.20D-02 DE=-1.24D-01 OVMax= 2.54D-02

 Cycle   5  Pass 1  IDiag  1:
 RMSU=  5.08D-04    CP:  5.99D-01  1.34D+00  6.61D-01  7.21D-01
 E= -902.476095805951     Delta-E=       -0.010225648005 Rises=F Damp=F
 DIIS: error= 9.19D-04 at cycle   5 NSaved=   5.
 NSaved= 5 IEnMin= 5 EnMin= -902.476095805951     IErMin= 5 ErrMin= 9.19D-04
 ErrMax= 9.19D-04  0.00D+00 EMaxC= 1.00D-01 BMatC= 2.25D-04 BMatP= 1.26D-02
 IDIUse=3 WtCom= 9.91D-01 WtEn= 9.19D-03
 Coeff-Com:  0.201D-01-0.426D-01 0.114D-01 0.174D+00 0.837D+00
 Coeff-En:   0.000D+00 0.000D+00 0.000D+00 0.000D+00 0.100D+01
 Coeff:      0.199D-01-0.422D-01 0.113D-01 0.172D+00 0.839D+00
 Gap=     0.239 Goal=   None    Shift=    0.000
 RMSDP=5.95D-04 MaxDP=5.47D-02 DE=-1.02D-02 OVMax= 8.59D-03

 Cycle   6  Pass 1  IDiag  1:
 RMSU=  2.39D-04    CP:  5.93D-01  1.33D+00  6.68D-01  8.67D-01  8.85D-01
 E= -902.476373997706     Delta-E=       -0.000278191755 Rises=F Damp=F
 DIIS: error= 5.48D-04 at cycle   6 NSaved=   6.
 NSaved= 6 IEnMin= 6 EnMin= -902.476373997706     IErMin= 6 ErrMin= 5.48D-04
 ErrMax= 5.48D-04  0.00D+00 EMaxC= 1.00D-01 BMatC= 7.22D-05 BMatP= 2.25D-04
 IDIUse=3 WtCom= 9.95D-01 WtEn= 5.48D-03
 Coeff-Com:  0.291D-01-0.623D-01-0.406D-01 0.308D-02 0.438D+00 0.633D+00
 Coeff-En:   0.000D+00 0.000D+00 0.000D+00 0.000D+00 0.000D+00 0.100D+01
 Coeff:      0.289D-01-0.619D-01-0.404D-01 0.306D-02 0.436D+00 0.635D+00
 Gap=     0.240 Goal=   None    Shift=    0.000
 RMSDP=1.08D-04 MaxDP=5.46D-03 DE=-2.78D-04 OVMax= 4.75D-03

 Cycle   7  Pass 1  IDiag  1:
 RMSU=  6.66D-05    CP:  5.93D-01  1.33D+00  6.69D-01  8.67D-01  1.04D+00
                    CP:  9.89D-01
 E= -902.476462875429     Delta-E=       -0.000088877723 Rises=F Damp=F
 DIIS: error= 1.43D-04 at cycle   7 NSaved=   7.
 NSaved= 7 IEnMin= 7 EnMin= -902.476462875429     IErMin= 7 ErrMin= 1.43D-04
 ErrMax= 1.43D-04  0.00D+00 EMaxC= 1.00D-01 BMatC= 5.05D-06 BMatP= 7.22D-05
 IDIUse=3 WtCom= 9.99D-01 WtEn= 1.43D-03
 Coeff-Com:  0.239D-02-0.514D-02-0.810D-02-0.206D-01-0.286D-01 0.163D+00
 Coeff-Com:  0.898D+00
 Coeff-En:   0.000D+00 0.000D+00 0.000D+00 0.000D+00 0.000D+00 0.000D+00
 Coeff-En:   0.100D+01
 Coeff:      0.239D-02-0.513D-02-0.809D-02-0.206D-01-0.286D-01 0.162D+00
 Coeff:      0.898D+00
 Gap=     0.240 Goal=   None    Shift=    0.000
 RMSDP=6.65D-05 MaxDP=4.09D-03 DE=-8.89D-05 OVMax= 2.74D-03

 Cycle   8  Pass 1  IDiag  1:
 RMSU=  4.11D-05    CP:  5.93D-01  1.33D+00  6.69D-01  8.87D-01  1.08D+00
                    CP:  1.06D+00  9.16D-01
 E= -902.476476444633     Delta-E=       -0.000013569204 Rises=F Damp=F
 DIIS: error= 7.87D-05 at cycle   8 NSaved=   8.
 NSaved= 8 IEnMin= 8 EnMin= -902.476476444633     IErMin= 8 ErrMin= 7.87D-05
 ErrMax= 7.87D-05  0.00D+00 EMaxC= 1.00D-01 BMatC= 1.39D-06 BMatP= 5.05D-06
 IDIUse=1 WtCom= 1.00D+00 WtEn= 0.00D+00
 Coeff-Com: -0.335D-02 0.720D-02 0.238D-02-0.121D-01-0.931D-01-0.215D-01
 Coeff-Com:  0.416D+00 0.705D+00
 Coeff:     -0.335D-02 0.720D-02 0.238D-02-0.121D-01-0.931D-01-0.215D-01
 Coeff:      0.416D+00 0.705D+00
 Gap=     0.240 Goal=   None    Shift=    0.000
 RMSDP=2.07D-05 MaxDP=1.28D-03 DE=-1.36D-05 OVMax= 1.45D-03

 Cycle   9  Pass 1  IDiag  1:
 RMSU=  1.04D-05    CP:  5.93D-01  1.33D+00  6.68D-01  8.90D-01  1.10D+00
                    CP:  1.10D+00  1.03D+00  1.13D+00
 E= -902.476479818471     Delta-E=       -0.000003373838 Rises=F Damp=F
 DIIS: error= 2.90D-05 at cycle   9 NSaved=   9.
 NSaved= 9 IEnMin= 9 EnMin= -902.476479818471     IErMin= 9 ErrMin= 2.90D-05
 ErrMax= 2.90D-05  0.00D+00 EMaxC= 1.00D-01 BMatC= 1.65D-07 BMatP= 1.39D-06
 IDIUse=1 WtCom= 1.00D+00 WtEn= 0.00D+00
 Coeff-Com: -0.134D-02 0.285D-02 0.261D-02 0.110D-02-0.199D-01-0.338D-01
 Coeff-Com: -0.846D-01 0.150D+00 0.983D+00
 Coeff:     -0.134D-02 0.285D-02 0.261D-02 0.110D-02-0.199D-01-0.338D-01
 Coeff:     -0.846D-01 0.150D+00 0.983D+00
 Gap=     0.240 Goal=   None    Shift=    0.000
 RMSDP=1.10D-05 MaxDP=8.34D-04 DE=-3.37D-06 OVMax= 8.02D-04

 Cycle  10  Pass 1  IDiag  1:
 RMSU=  6.22D-06    CP:  5.93D-01  1.33D+00  6.68D-01  8.90D-01  1.11D+00
                    CP:  1.12D+00  1.08D+00  1.23D+00  1.32D+00
 E= -902.476480493971     Delta-E=       -0.000000675500 Rises=F Damp=F
 DIIS: error= 1.04D-05 at cycle  10 NSaved=  10.
 NSaved=10 IEnMin=10 EnMin= -902.476480493971     IErMin=10 ErrMin= 1.04D-05
 ErrMax= 1.04D-05  0.00D+00 EMaxC= 1.00D-01 BMatC= 2.54D-08 BMatP= 1.65D-07
 IDIUse=1 WtCom= 1.00D+00 WtEn= 0.00D+00
 Coeff-Com:  0.178D-03-0.384D-03 0.377D-03 0.221D-02 0.716D-02-0.573D-02
 Coeff-Com: -0.871D-01-0.532D-01 0.306D+00 0.830D+00
 Coeff:      0.178D-03-0.384D-03 0.377D-03 0.221D-02 0.716D-02-0.573D-02
 Coeff:     -0.871D-01-0.532D-01 0.306D+00 0.830D+00
 Gap=     0.240 Goal=   None    Shift=    0.000
 RMSDP=5.33D-06 MaxDP=4.13D-04 DE=-6.75D-07 OVMax= 2.73D-04

 Cycle  11  Pass 1  IDiag  1:
 RMSU=  1.77D-06    CP:  5.93D-01  1.33D+00  6.68D-01  8.90D-01  1.12D+00
                    CP:  1.12D+00  1.09D+00  1.27D+00  1.51D+00  1.18D+00
 E= -902.476480575543     Delta-E=       -0.000000081572 Rises=F Damp=F
 DIIS: error= 5.05D-06 at cycle  11 NSaved=  11.
 NSaved=11 IEnMin=11 EnMin= -902.476480575543     IErMin=11 ErrMin= 5.05D-06
 ErrMax= 5.05D-06  0.00D+00 EMaxC= 1.00D-01 BMatC= 5.50D-09 BMatP= 2.54D-08
 IDIUse=1 WtCom= 1.00D+00 WtEn= 0.00D+00
 Coeff-Com:  0.281D-03-0.597D-03-0.272D-03 0.814D-03 0.582D-02 0.358D-02
 Coeff-Com: -0.137D-01-0.413D-01-0.804D-01 0.287D+00 0.839D+00
 Coeff:      0.281D-03-0.597D-03-0.272D-03 0.814D-03 0.582D-02 0.358D-02
 Coeff:     -0.137D-01-0.413D-01-0.804D-01 0.287D+00 0.839D+00
 Gap=     0.240 Goal=   None    Shift=    0.000
 RMSDP=2.39D-06 MaxDP=1.36D-04 DE=-8.16D-08 OVMax= 8.93D-05

 Cycle  12  Pass 1  IDiag  1:
 RMSU=  1.18D-06    CP:  5.93D-01  1.33D+00  6.68D-01  8.90D-01  1.12D+00
                    CP:  1.12D+00  1.10D+00  1.28D+00  1.59D+00  1.28D+00
                    CP:  1.19D+00
 E= -902.476480589721     Delta-E=       -0.000000014178 Rises=F Damp=F
 DIIS: error= 2.37D-06 at cycle  12 NSaved=  12.
 NSaved=12 IEnMin=12 EnMin= -902.476480589721     IErMin=12 ErrMin= 2.37D-06
 ErrMax= 2.37D-06  0.00D+00 EMaxC= 1.00D-01 BMatC= 7.77D-10 BMatP= 5.50D-09
 IDIUse=1 WtCom= 1.00D+00 WtEn= 0.00D+00
 Coeff-Com:  0.660D-04-0.138D-03-0.133D-03 0.196D-04 0.952D-03 0.167D-02
 Coeff-Com:  0.962D-02-0.472D-02-0.741D-01-0.384D-01 0.268D+00 0.837D+00
 Coeff:      0.660D-04-0.138D-03-0.133D-03 0.196D-04 0.952D-03 0.167D-02
 Coeff:      0.962D-02-0.472D-02-0.741D-01-0.384D-01 0.268D+00 0.837D+00
 Gap=     0.240 Goal=   None    Shift=    0.000
 RMSDP=1.22D-06 MaxDP=7.72D-05 DE=-1.42D-08 OVMax= 3.01D-05

 Cycle  13  Pass 1  IDiag  1:
 RMSU=  3.56D-07    CP:  5.93D-01  1.33D+00  6.68D-01  8.90D-01  1.12D+00
                    CP:  1.12D+00  1.10D+00  1.27D+00  1.61D+00  1.35D+00
                    CP:  1.35D+00  1.15D+00
 E= -902.476480591710     Delta-E=       -0.000000001989 Rises=F Damp=F
 DIIS: error= 7.26D-07 at cycle  13 NSaved=  13.
 NSaved=13 IEnMin=13 EnMin= -902.476480591710     IErMin=13 ErrMin= 7.26D-07
 ErrMax= 7.26D-07  0.00D+00 EMaxC= 1.00D-01 BMatC= 2.30D-10 BMatP= 7.77D-10
 IDIUse=1 WtCom= 1.00D+00 WtEn= 0.00D+00
 Coeff-Com: -0.104D-04 0.226D-04-0.277D-04-0.136D-03-0.509D-03 0.117D-03
 Coeff-Com:  0.732D-02 0.422D-02-0.226D-01-0.685D-01-0.122D-01 0.420D+00
 Coeff-Com:  0.672D+00
 Coeff:     -0.104D-04 0.226D-04-0.277D-04-0.136D-03-0.509D-03 0.117D-03
 Coeff:      0.732D-02 0.422D-02-0.226D-01-0.685D-01-0.122D-01 0.420D+00
 Coeff:      0.672D+00
 Gap=     0.240 Goal=   None    Shift=    0.000
 RMSDP=3.84D-07 MaxDP=1.72D-05 DE=-1.99D-09 OVMax= 1.07D-05

 Cycle  14  Pass 1  IDiag  1:
 RMSU=  1.50D-07    CP:  5.93D-01  1.33D+00  6.68D-01  8.90D-01  1.12D+00
                    CP:  1.12D+00  1.10D+00  1.27D+00  1.62D+00  1.36D+00
                    CP:  1.37D+00  1.31D+00  1.19D+00
 E= -902.476480592108     Delta-E=       -0.000000000398 Rises=F Damp=F
 DIIS: error= 3.91D-07 at cycle  14 NSaved=  14.
 NSaved=14 IEnMin=14 EnMin= -902.476480592108     IErMin=14 ErrMin= 3.91D-07
 ErrMax= 3.91D-07  0.00D+00 EMaxC= 1.00D-01 BMatC= 1.25D-11 BMatP= 2.30D-10
 IDIUse=1 WtCom= 1.00D+00 WtEn= 0.00D+00
 Coeff-Com: -0.994D-05 0.208D-04 0.999D-05-0.433D-04-0.245D-03-0.242D-03
 Coeff-Com:  0.283D-03 0.112D-02 0.620D-02-0.932D-02-0.414D-01-0.172D-01
 Coeff-Com:  0.986D-01 0.962D+00
 Coeff:     -0.994D-05 0.208D-04 0.999D-05-0.433D-04-0.245D-03-0.242D-03
 Coeff:      0.283D-03 0.112D-02 0.620D-02-0.932D-02-0.414D-01-0.172D-01
 Coeff:      0.986D-01 0.962D+00
 Gap=     0.240 Goal=   None    Shift=    0.000
 RMSDP=1.87D-07 MaxDP=1.07D-05 DE=-3.98D-10 OVMax= 5.86D-06

 Cycle  15  Pass 1  IDiag  1:
 RMSU=  5.22D-08    CP:  5.93D-01  1.33D+00  6.68D-01  8.90D-01  1.12D+00
                    CP:  1.12D+00  1.10D+00  1.27D+00  1.62D+00  1.36D+00
                    CP:  1.36D+00  1.39D+00  1.36D+00  1.26D+00
 E= -902.476480592136     Delta-E=       -0.000000000028 Rises=F Damp=F
 DIIS: error= 1.40D-07 at cycle  15 NSaved=  15.
 NSaved=15 IEnMin=15 EnMin= -902.476480592136     IErMin=15 ErrMin= 1.40D-07
 ErrMax= 1.40D-07  0.00D+00 EMaxC= 1.00D-01 BMatC= 2.77D-12 BMatP= 1.25D-11
 IDIUse=1 WtCom= 1.00D+00 WtEn= 0.00D+00
 Coeff-Com: -0.288D-05 0.603D-05 0.712D-05 0.262D-06-0.217D-04-0.928D-04
 Coeff-Com: -0.624D-03-0.198D-03 0.441D-02 0.460D-02-0.120D-01-0.453D-01
 Coeff-Com: -0.636D-01 0.292D+00 0.821D+00
 Coeff:     -0.288D-05 0.603D-05 0.712D-05 0.262D-06-0.217D-04-0.928D-04
 Coeff:     -0.624D-03-0.198D-03 0.441D-02 0.460D-02-0.120D-01-0.453D-01
 Coeff:     -0.636D-01 0.292D+00 0.821D+00
 Gap=     0.240 Goal=   None    Shift=    0.000
 RMSDP=8.28D-08 MaxDP=5.66D-06 DE=-2.82D-11 OVMax= 2.38D-06

 Cycle  16  Pass 1  IDiag  1:
 RMSU=  2.33D-08    CP:  5.93D-01  1.33D+00  6.68D-01  8.90D-01  1.12D+00
                    CP:  1.12D+00  1.10D+00  1.27D+00  1.62D+00  1.35D+00
                    CP:  1.36D+00  1.42D+00  1.40D+00  1.45D+00  1.29D+00
 E= -902.476480592137     Delta-E=        0.000000000000 Rises=F Damp=F
 DIIS: error= 6.46D-08 at cycle  16 NSaved=  16.
 NSaved=16 IEnMin=16 EnMin= -902.476480592137     IErMin=16 ErrMin= 6.46D-08
 ErrMax= 6.46D-08  0.00D+00 EMaxC= 1.00D-01 BMatC= 5.72D-13 BMatP= 2.77D-12
 IDIUse=1 WtCom= 1.00D+00 WtEn= 0.00D+00
 Coeff-Com:  0.103D-05-0.217D-05-0.208D-06 0.821D-05 0.443D-04 0.148D-04
 Coeff-Com: -0.209D-03-0.338D-03-0.338D-04 0.333D-02 0.458D-02-0.610D-02
 Coeff-Com: -0.481D-01-0.123D+00 0.235D+00 0.935D+00
 Coeff:      0.103D-05-0.217D-05-0.208D-06 0.821D-05 0.443D-04 0.148D-04
 Coeff:     -0.209D-03-0.338D-03-0.338D-04 0.333D-02 0.458D-02-0.610D-02
 Coeff:     -0.481D-01-0.123D+00 0.235D+00 0.935D+00
 Gap=     0.240 Goal=   None    Shift=    0.000
 RMSDP=4.46D-08 MaxDP=2.86D-06 DE=-4.55D-13 OVMax= 1.31D-06

 Cycle  17  Pass 1  IDiag  1:
 RMSU=  1.04D-08    CP:  5.93D-01  1.33D+00  6.68D-01  8.90D-01  1.12D+00
                    CP:  1.12D+00  1.10D+00  1.27D+00  1.62D+00  1.35D+00
                    CP:  1.35D+00  1.44D+00  1.42D+00  1.54D+00  1.53D+00
                    CP:  1.44D+00
 E= -902.476480592129     Delta-E=        0.000000000007 Rises=F Damp=F
 DIIS: error= 2.13D-08 at cycle  17 NSaved=  17.
 NSaved=17 IEnMin=16 EnMin= -902.476480592137     IErMin=17 ErrMin= 2.13D-08
 ErrMax= 2.13D-08  0.00D+00 EMaxC= 1.00D-01 BMatC= 8.58D-14 BMatP= 5.72D-13
 IDIUse=1 WtCom= 1.00D+00 WtEn= 0.00D+00
 Coeff-Com:  0.445D-06-0.930D-06-0.640D-06 0.288D-05 0.161D-04 0.142D-04
 Coeff-Com:  0.294D-04-0.771D-04-0.602D-03 0.419D-03 0.272D-02 0.588D-02
 Coeff-Com: -0.713D-02-0.762D-01-0.372D-01 0.303D+00 0.809D+00
 Coeff:      0.445D-06-0.930D-06-0.640D-06 0.288D-05 0.161D-04 0.142D-04
 Coeff:      0.294D-04-0.771D-04-0.602D-03 0.419D-03 0.272D-02 0.588D-02
 Coeff:     -0.713D-02-0.762D-01-0.372D-01 0.303D+00 0.809D+00
 Gap=     0.240 Goal=   None    Shift=    0.000
 RMSDP=1.34D-08 MaxDP=1.46D-06 DE= 7.28D-12 OVMax= 4.29D-07

 Cycle  18  Pass 1  IDiag  1:
 RMSU=  3.32D-09    CP:  5.93D-01  1.33D+00  6.68D-01  8.90D-01  1.12D+00
                    CP:  1.12D+00  1.10D+00  1.27D+00  1.62D+00  1.35D+00
                    CP:  1.35D+00  1.44D+00  1.41D+00  1.56D+00  1.60D+00
                    CP:  1.67D+00  1.25D+00
 E= -902.476480592191     Delta-E=       -0.000000000062 Rises=F Damp=F
 DIIS: error= 8.66D-09 at cycle  18 NSaved=  18.
 NSaved=18 IEnMin=18 EnMin= -902.476480592191     IErMin=18 ErrMin= 8.66D-09
 ErrMax= 8.66D-09  0.00D+00 EMaxC= 1.00D-01 BMatC= 1.68D-14 BMatP= 8.58D-14
 IDIUse=1 WtCom= 1.00D+00 WtEn= 0.00D+00
 Coeff-Com:  0.679D-07-0.143D-06-0.340D-06-0.633D-06-0.172D-05 0.334D-05
 Coeff-Com:  0.449D-04 0.294D-04-0.201D-03-0.436D-03-0.172D-03 0.321D-02
 Coeff-Com:  0.657D-02 0.962D-03-0.630D-01-0.105D+00 0.281D+00 0.877D+00
 Coeff:      0.679D-07-0.143D-06-0.340D-06-0.633D-06-0.172D-05 0.334D-05
 Coeff:      0.449D-04 0.294D-04-0.201D-03-0.436D-03-0.172D-03 0.321D-02
 Coeff:      0.657D-02 0.962D-03-0.630D-01-0.105D+00 0.281D+00 0.877D+00
 Gap=     0.240 Goal=   None    Shift=    0.000
 RMSDP=7.52D-09 MaxDP=7.56D-07 DE=-6.18D-11 OVMax= 1.98D-07

 SCF Done:  E(RwB97XD) =  -902.476480592     A.U. after   18 cycles
            NFock= 18  Conv=0.75D-08     -V/T= 2.0047
 KE= 8.982547848226D+02 PE=-5.062260945777D+03 EE= 1.780442057426D+03
 Leave Link  502 at Thu Nov  2 19:40:19 2017, MaxMem=  3758096384 cpu:      2999.5
 (Enter /share/apps/gaussian/g09_D01/g09/l801.exe)
 DoSCS=F DFT=T ScalE2(SS,OS)=  1.000000  1.000000
 ExpMin= 3.60D-02 ExpMax= 8.59D+03 ExpMxC= 1.30D+03 IAcc=3 IRadAn=         5 AccDes= 0.00D+00
 HarFok:  IExCor=  205 AccDes= 0.00D+00 IRadAn=         5 IDoV=-2 UseB2=F ITyADJ=14
 ICtDFT= 12500011 ScaDFX=  1.000000  1.000000  1.000000  1.000000
 Largest valence mixing into a core orbital is  5.69D-05
 Largest core mixing into a valence orbital is  1.60D-05
 Range of M.O.s used for correlation:    22   588
 NBasis=   595 NAE=    75 NBE=    75 NFC=    21 NFV=     0
 NROrb=    567 NOA=    54 NOB=    54 NVA=   513 NVB=   513

 **** Warning!!: The largest alpha MO coefficient is  0.14227934D+03

 Leave Link  801 at Thu Nov  2 19:40:20 2017, MaxMem=  3758096384 cpu:         1.5
 (Enter /share/apps/gaussian/g09_D01/g09/l914.exe)
 RHF ground state
 MDV=  3758096384 DFT=T DoStab=F Mixed=T DoRPA=T DoScal=F NonHer=T
 Would need an additional         90676400000 words for in-memory AO integral storage.
 Making orbital integer symmetry assigments:
     8 initial guesses have been made.
 Convergence on wavefunction:    0.001000000000000
 Davidson Disk Diagonalization:  ConvIn= 1.00D-03 SkipCon=T Conv= 1.00D-03.
 Max sub-space:   200 roots to seek:     8 dimension of matrix:        55404
 Iteration     1 Dimension     8 NMult     0 NNew      8
 CISAX will form     8 AO SS matrices at one time.
 NMat=     8 NSing=     8 JSym2X= 0.
 FoFJK:  IHMeth= 1 ICntrl=       0 DoSepK=T KAlg= 0 I1Cent=   0 FoldK=F
 IRaf=         1 NMat=  16 IRICut=       1 DoRegI=T DoRafI=F ISym2E= 0.
 FoFCou: FMM=F IPFlag=           0 FMFlag=      100000 FMFlg1=           0
         NFxFlg=           0 DoJE=F BraDBF=F KetDBF=F FulRan=T
         wScrn=  0.000000 ICntrl=     500 IOpCl=  0 I1Cent=           0 NGrid=           0
         NMat0=    8 NMatS0=      8 NMatT0=    0 NMatD0=    8 NMtDS0=    0 NMtDT0=    0
 Symmetry not used in FoFCou.
 New state      2 was old state      7
 Excitation Energies [eV] at current iteration:
 Root      1 :     3.867756439384584
 Root      2 :     4.254804542879634
 Root      3 :     4.447051526108389
 Root      4 :     5.597562072579790
 Root      5 :     5.627477594233731
 Root      6 :     5.751099407232338
 Root      7 :     5.999884917614909
 Root      8 :     6.289303952111977
 Iteration     2 Dimension    12 NMult     8 NNew      4
 CISAX will form     4 AO SS matrices at one time.
 NMat=     4 NSing=     4 JSym2X= 0.
 Root      1 not converged, maximum delta is    0.097631230384055
 Root      2 not converged, maximum delta is    0.103399090587173
 Excitation Energies [eV] at current iteration:
 Root      1 :     3.366362309557347   Change is   -0.501394129827237
 Root      2 :     3.807780314373181   Change is   -0.447024228506453
 Iteration     3 Dimension    16 NMult    12 NNew      4
 CISAX will form     4 AO SS matrices at one time.
 NMat=     4 NSing=     4 JSym2X= 0.
 Root      1 not converged, maximum delta is    0.033693604651885
 Root      2 not converged, maximum delta is    0.017647465375232
 Excitation Energies [eV] at current iteration:
 Root      1 :     3.319010630970764   Change is   -0.047351678586583
 Root      2 :     3.776485307390167   Change is   -0.031295006983015
 Iteration     4 Dimension    20 NMult    16 NNew      4
 CISAX will form     4 AO SS matrices at one time.
 NMat=     4 NSing=     4 JSym2X= 0.
 Root      1 not converged, maximum delta is    0.008926385697927
 Root      2 not converged, maximum delta is    0.005338454813704
 Excitation Energies [eV] at current iteration:
 Root      1 :     3.311908941936921   Change is   -0.007101689033843
 Root      2 :     3.773666195662352   Change is   -0.002819111727815
 Iteration     5 Dimension    24 NMult    20 NNew      4
 CISAX will form     4 AO SS matrices at one time.
 NMat=     4 NSing=     4 JSym2X= 0.
 Root      1 not converged, maximum delta is    0.002740007921274
 Root      2 not converged, maximum delta is    0.012800689485627
 Excitation Energies [eV] at current iteration:
 Root      1 :     3.310841180286744   Change is   -0.001067761650177
 Root      2 :     3.773055279088744   Change is   -0.000610916573608
 Iteration     6 Dimension    28 NMult    24 NNew      4
 CISAX will form     4 AO SS matrices at one time.
 NMat=     4 NSing=     4 JSym2X= 0.
 Root      1 not converged, maximum delta is    0.002000650269724
 Root      2 not converged, maximum delta is    0.062175170078096
 Excitation Energies [eV] at current iteration:
 Root      1 :     3.310699883392150   Change is   -0.000141296894594
 Root      2 :     3.771906378425754   Change is   -0.001148900662990
 Iteration     7 Dimension    32 NMult    28 NNew      4
 CISAX will form     4 AO SS matrices at one time.
 NMat=     4 NSing=     4 JSym2X= 0.
 Root      1 has converged.
 Root      2 not converged, maximum delta is    0.174100258614392
 Excitation Energies [eV] at current iteration:
 Root      1 :     3.310683149641505   Change is   -0.000016733750645
 Root      2 :     3.768616741989889   Change is   -0.003289636435865
 Iteration     8 Dimension    34 NMult    32 NNew      2
 CISAX will form     2 AO SS matrices at one time.
 NMat=     2 NSing=     2 JSym2X= 0.
 Root      1 has converged.
 Root      2 not converged, maximum delta is    0.073035529146431
 Excitation Energies [eV] at current iteration:
 Root      1 :     3.310683068833448   Change is   -0.000000080808057
 Root      2 :     3.766722510640525   Change is   -0.001894231349364
 Iteration     9 Dimension    36 NMult    34 NNew      2
 CISAX will form     2 AO SS matrices at one time.
 NMat=     2 NSing=     2 JSym2X= 0.
 Root      1 has converged.
 Root      2 not converged, maximum delta is    0.009434569732001
 Excitation Energies [eV] at current iteration:
 Root      1 :     3.310683051131888   Change is   -0.000000017701560
 Root      2 :     3.766469382897845   Change is   -0.000253127742680
 Iteration    10 Dimension    38 NMult    36 NNew      2
 CISAX will form     2 AO SS matrices at one time.
 NMat=     2 NSing=     2 JSym2X= 0.
 Root      1 has converged.
 Root      2 not converged, maximum delta is    0.001046951705379
 Excitation Energies [eV] at current iteration:
 Root      1 :     3.310683008669470   Change is   -0.000000042462418
 Root      2 :     3.766441454028401   Change is   -0.000027928869444
 Iteration    11 Dimension    40 NMult    38 NNew      2
 CISAX will form     2 AO SS matrices at one time.
 NMat=     2 NSing=     2 JSym2X= 0.
 Root      1 has converged.
 Root      2 has converged.
 Excitation Energies [eV] at current iteration:
 Root      1 :     3.310682963536677   Change is   -0.000000045132792
 Root      2 :     3.766437866368696   Change is   -0.000003587659705
 Convergence achieved on expansion vectors.
 ***********************************************************************
 Excited states from <AA,BB:AA,BB> singles matrix:
 ***********************************************************************
 
 1PDM for each excited state written to RWF  633
 Ground to excited state transition densities written to RWF  633
 Ground to excited state transition electric dipole moments (Au):
       state          X           Y           Z        Dip. S.      Osc.
         1         0.5628     -2.7240     -2.4561     13.7693      1.1168
         2         0.0542      0.6026      0.5404      0.6581      0.0607
 Ground to excited state transition velocity dipole moments (Au):
       state          X           Y           Z        Dip. S.      Osc.
         1        -0.0656      0.3306      0.2934      0.1996      1.0939
         2        -0.0076     -0.0778     -0.0742      0.0116      0.0559
 Ground to excited state transition magnetic dipole moments (Au):
       state          X           Y           Z
         1        -1.6882      2.6376     -3.2516
         2         0.9331     -0.9754      1.1007
 Ground to excited state transition velocity quadrupole moments (Au):
       state          XX          YY          ZZ          XY          XZ          YZ
         1         0.8362     -4.7570     -1.7659     -1.6640     -1.6267     -2.9864
         2         0.1638      0.0306     -0.0575      0.7883      0.5733     -0.0578
 <0|del|b> * <b|rxdel|0> + <0|del|b> * <b|delr+rdel|0>
 Rotatory Strengths (R) in cgs (10**-40 erg-esu-cm/Gauss)
       state          XX          YY          ZZ    R(velocity)    E-M Angle
         1       -94.0314   -462.7234    723.7260     55.6571       89.18
         2       -50.2415    -76.0991     60.7579    -21.8609       93.92
 1/2[<0|r|b>*<b|rxdel|0> + (<0|rxdel|b>*<b|r|0>)*]
 Rotatory Strengths (R) in cgs (10**-40 erg-esu-cm/Gauss)
       state          XX          YY          ZZ     R(length)
         1       671.8654   5080.7118  -5647.6460     34.9771
         2       -35.7508    415.6907   -420.6327    -13.5643
  1/2[<0|del|b>*<b|r|0> + (<0|r|b>*<b|del|0>)*] (Au)
       state          X           Y           Z        Dip. S.   Osc.(frdel)
         1        -0.0369     -0.9005     -0.7205      1.6579      1.1053
         2        -0.0004     -0.0469     -0.0401      0.0873      0.0582

 Excitation energies and oscillator strengths:
 
 Excited state symmetry could not be determined.
 Excited State   1:      Singlet-?Sym    3.3107 eV  374.50 nm  f=1.1168  <S**2>=0.000
      74 -> 76         0.15240
      74 -> 78        -0.14053
      75 -> 76         0.65679
 This state for optimization and/or second-order correction.
 Total Energy, E(TD-HF/TD-KS) =  -902.354815227    
 Copying the excited state density for this state as the 1-particle RhoCI density.
 
 Excited state symmetry could not be determined.
 Excited State   2:      Singlet-?Sym    3.7664 eV  329.18 nm  f=0.0607  <S**2>=0.000
      72 -> 76         0.42911
      73 -> 76        -0.11387
      74 -> 76         0.47237
      74 -> 78        -0.10680
      75 -> 76        -0.12463
      75 -> 78        -0.11421
 SavETr:  write IOETrn=   770 NScale= 10 NData=  16 NLR=1 NState=    2 LETran=      46.
 Leave Link  914 at Thu Nov  2 20:10:09 2017, MaxMem=  3758096384 cpu:      7128.7
 (Enter /share/apps/gaussian/g09_D01/g09/l601.exe)
 Copying SCF densities to generalized density rwf, IOpCl= 0 IROHF=0.

 **********************************************************************

            Population analysis using the SCF density.

 **********************************************************************

 Alpha  occ. eigenvalues --  -19.24138 -19.23138 -14.47942 -10.37983 -10.35549
 Alpha  occ. eigenvalues --  -10.35064 -10.33791 -10.33705 -10.31759 -10.30855
 Alpha  occ. eigenvalues --  -10.30807 -10.30102 -10.30009 -10.29828 -10.29492
 Alpha  occ. eigenvalues --  -10.29485 -10.29374 -10.29149 -10.28869 -10.28179
 Alpha  occ. eigenvalues --  -10.28148  -1.14549  -1.10830  -1.08184  -0.97169
 Alpha  occ. eigenvalues --   -0.95905  -0.91079  -0.87656  -0.87193  -0.86100
 Alpha  occ. eigenvalues --   -0.84732  -0.84254  -0.79492  -0.77507  -0.74701
 Alpha  occ. eigenvalues --   -0.72255  -0.71512  -0.68606  -0.66960  -0.64278
 Alpha  occ. eigenvalues --   -0.63412  -0.60675  -0.59649  -0.58809  -0.57878
 Alpha  occ. eigenvalues --   -0.57772  -0.55722  -0.54997  -0.54341  -0.52781
 Alpha  occ. eigenvalues --   -0.52084  -0.51590  -0.51464  -0.51288  -0.50842
 Alpha  occ. eigenvalues --   -0.50215  -0.49766  -0.48706  -0.48364  -0.48181
 Alpha  occ. eigenvalues --   -0.47114  -0.46230  -0.45934  -0.45332  -0.44311
 Alpha  occ. eigenvalues --   -0.42725  -0.41873  -0.41382  -0.40544  -0.35143
 Alpha  occ. eigenvalues --   -0.35026  -0.34051  -0.33333  -0.28776  -0.26960
 Alpha virt. eigenvalues --   -0.02934   0.02547   0.03310   0.03713   0.04291
 Alpha virt. eigenvalues --    0.04428   0.04878   0.05654   0.06190   0.06288
 Alpha virt. eigenvalues --    0.06669   0.06770   0.07784   0.07969   0.08128
 Alpha virt. eigenvalues --    0.08206   0.08423   0.08998   0.09593   0.09931
 Alpha virt. eigenvalues --    0.10382   0.10805   0.11335   0.11927   0.12091
 Alpha virt. eigenvalues --    0.12410   0.13099   0.13152   0.13851   0.14253
 Alpha virt. eigenvalues --    0.14341   0.14735   0.15025   0.15340   0.15685
 Alpha virt. eigenvalues --    0.15820   0.16123   0.16419   0.16621   0.16752
 Alpha virt. eigenvalues --    0.17101   0.17461   0.17664   0.18018   0.18229
 Alpha virt. eigenvalues --    0.18542   0.19100   0.19195   0.19352   0.19775
 Alpha virt. eigenvalues --    0.19930   0.20269   0.20540   0.20677   0.20732
 Alpha virt. eigenvalues --    0.21198   0.21407   0.21659   0.22095   0.22380
 Alpha virt. eigenvalues --    0.22422   0.22514   0.23000   0.23500   0.23675
 Alpha virt. eigenvalues --    0.23774   0.24185   0.24438   0.24575   0.24952
 Alpha virt. eigenvalues --    0.25494   0.25692   0.26340   0.26426   0.26578
 Alpha virt. eigenvalues --    0.26757   0.27106   0.27254   0.27864   0.28314
 Alpha virt. eigenvalues --    0.28520   0.28771   0.29053   0.29330   0.29531
 Alpha virt. eigenvalues --    0.30291   0.30308   0.30431   0.31106   0.31340
 Alpha virt. eigenvalues --    0.31808   0.32084   0.32378   0.32497   0.32873
 Alpha virt. eigenvalues --    0.33406   0.33649   0.33969   0.34213   0.34707
 Alpha virt. eigenvalues --    0.34915   0.35039   0.35577   0.36012   0.36757
 Alpha virt. eigenvalues --    0.37047   0.37140   0.37594   0.37769   0.38308
 Alpha virt. eigenvalues --    0.38663   0.39000   0.39137   0.39462   0.39819
 Alpha virt. eigenvalues --    0.40079   0.40515   0.40870   0.41521   0.41786
 Alpha virt. eigenvalues --    0.42313   0.42896   0.43315   0.43496   0.44533
 Alpha virt. eigenvalues --    0.44558   0.45253   0.45957   0.46331   0.47432
 Alpha virt. eigenvalues --    0.48590   0.49108   0.49771   0.50108   0.50224
 Alpha virt. eigenvalues --    0.51100   0.51854   0.52512   0.53750   0.54439
 Alpha virt. eigenvalues --    0.55089   0.55500   0.56623   0.57518   0.58584
 Alpha virt. eigenvalues --    0.59560   0.60964   0.61252   0.61823   0.62248
 Alpha virt. eigenvalues --    0.62775   0.62975   0.63532   0.64312   0.64633
 Alpha virt. eigenvalues --    0.65065   0.65912   0.66170   0.66587   0.66905
 Alpha virt. eigenvalues --    0.67336   0.68119   0.68653   0.68852   0.69413
 Alpha virt. eigenvalues --    0.69942   0.70742   0.71090   0.71551   0.72267
 Alpha virt. eigenvalues --    0.72448   0.73098   0.73434   0.73928   0.74190
 Alpha virt. eigenvalues --    0.74860   0.75035   0.75287   0.75880   0.76403
 Alpha virt. eigenvalues --    0.77118   0.77827   0.78585   0.78676   0.78894
 Alpha virt. eigenvalues --    0.79357   0.79733   0.80154   0.80215   0.80759
 Alpha virt. eigenvalues --    0.81510   0.82675   0.82852   0.84078   0.84728
 Alpha virt. eigenvalues --    0.85458   0.86198   0.87396   0.88030   0.88870
 Alpha virt. eigenvalues --    0.90033   0.90933   0.91781   0.92197   0.94304
 Alpha virt. eigenvalues --    0.94643   0.95433   0.95684   0.96672   0.96754
 Alpha virt. eigenvalues --    0.97550   0.98141   0.98332   0.98850   0.99467
 Alpha virt. eigenvalues --    1.00323   1.01154   1.01761   1.02461   1.03363
 Alpha virt. eigenvalues --    1.03864   1.04090   1.05110   1.05391   1.05719
 Alpha virt. eigenvalues --    1.06635   1.06842   1.07619   1.08534   1.09062
 Alpha virt. eigenvalues --    1.10082   1.10821   1.11681   1.12863   1.13039
 Alpha virt. eigenvalues --    1.13260   1.14840   1.15178   1.15955   1.16483
 Alpha virt. eigenvalues --    1.17228   1.18849   1.20095   1.20418   1.21080
 Alpha virt. eigenvalues --    1.21977   1.22828   1.24688   1.25183   1.27809
 Alpha virt. eigenvalues --    1.30895   1.31713   1.32905   1.34351   1.35225
 Alpha virt. eigenvalues --    1.36487   1.38304   1.39731   1.41220   1.41857
 Alpha virt. eigenvalues --    1.45240   1.47825   1.48025   1.49398   1.50063
 Alpha virt. eigenvalues --    1.51186   1.51530   1.52182   1.54715   1.55463
 Alpha virt. eigenvalues --    1.55976   1.56557   1.57144   1.57280   1.58979
 Alpha virt. eigenvalues --    1.59127   1.61153   1.61730   1.62319   1.62581
 Alpha virt. eigenvalues --    1.62868   1.62983   1.63418   1.64287   1.64484
 Alpha virt. eigenvalues --    1.64989   1.65658   1.66559   1.66959   1.68116
 Alpha virt. eigenvalues --    1.68297   1.69043   1.69936   1.70371   1.70464
 Alpha virt. eigenvalues --    1.74715   1.74992   1.75438   1.76319   1.77199
 Alpha virt. eigenvalues --    1.78818   1.79550   1.79770   1.80521   1.81010
 Alpha virt. eigenvalues --    1.81311   1.83083   1.83869   1.84540   1.84799
 Alpha virt. eigenvalues --    1.86479   1.86542   1.87187   1.88404   1.89115
 Alpha virt. eigenvalues --    1.90981   1.92197   1.93788   1.94107   1.94850
 Alpha virt. eigenvalues --    1.96450   1.96767   1.98090   1.99159   2.00662
 Alpha virt. eigenvalues --    2.01429   2.01838   2.02352   2.03762   2.04364
 Alpha virt. eigenvalues --    2.05418   2.05882   2.06320   2.06433   2.07636
 Alpha virt. eigenvalues --    2.09167   2.10557   2.11207   2.11548   2.13856
 Alpha virt. eigenvalues --    2.14407   2.14635   2.15172   2.17389   2.17794
 Alpha virt. eigenvalues --    2.19785   2.20583   2.21370   2.22926   2.23740
 Alpha virt. eigenvalues --    2.24974   2.25848   2.27058   2.27694   2.28513
 Alpha virt. eigenvalues --    2.31632   2.33174   2.35254   2.36410   2.38807
 Alpha virt. eigenvalues --    2.39791   2.40774   2.42330   2.43619   2.46073
 Alpha virt. eigenvalues --    2.46181   2.47480   2.48017   2.49905   2.52522
 Alpha virt. eigenvalues --    2.54677   2.54989   2.55209   2.55558   2.56745
 Alpha virt. eigenvalues --    2.56970   2.57329   2.60487   2.61980   2.63570
 Alpha virt. eigenvalues --    2.64028   2.66947   2.67689   2.68156   2.68549
 Alpha virt. eigenvalues --    2.69921   2.72147   2.72442   2.73743   2.76378
 Alpha virt. eigenvalues --    2.76702   2.77686   2.78222   2.78666   2.79470
 Alpha virt. eigenvalues --    2.80515   2.81162   2.81537   2.82111   2.82951
 Alpha virt. eigenvalues --    2.83020   2.84307   2.85802   2.86270   2.86385
 Alpha virt. eigenvalues --    2.87668   2.90002   2.90525   2.90839   2.91652
 Alpha virt. eigenvalues --    2.92136   2.94342   2.94680   2.95462   2.96760
 Alpha virt. eigenvalues --    2.98418   2.99901   3.00738   3.01775   3.03277
 Alpha virt. eigenvalues --    3.03674   3.04707   3.05468   3.07179   3.07834
 Alpha virt. eigenvalues --    3.09330   3.09887   3.14560   3.17947   3.19592
 Alpha virt. eigenvalues --    3.20470   3.20954   3.21615   3.24269   3.26099
 Alpha virt. eigenvalues --    3.27864   3.30121   3.30674   3.32997   3.34048
 Alpha virt. eigenvalues --    3.34961   3.38434   3.39237   3.41648   3.45509
 Alpha virt. eigenvalues --    3.47130   3.47738   3.52569   3.57481   3.60001
 Alpha virt. eigenvalues --    3.60665   3.61728   3.63141   3.65418   3.66143
 Alpha virt. eigenvalues --    3.72916   3.76258   3.77021   3.77534   3.78392
 Alpha virt. eigenvalues --    3.78652   3.80489   3.85977   3.87400   3.88599
 Alpha virt. eigenvalues --    3.89945   3.92853   3.94271   4.01052   4.05188
 Alpha virt. eigenvalues --    4.07939   4.09389   4.13050   4.16482   4.26672
 Alpha virt. eigenvalues --    4.27854   4.29008   4.30153   4.36537   4.43385
 Alpha virt. eigenvalues --    4.53313   4.77715   4.92548   4.94196   4.99901
 Alpha virt. eigenvalues --    5.15743   5.17753   5.19493   5.37292   5.64450
 Alpha virt. eigenvalues --    5.85256   5.94049  23.71001  23.79712  23.94116
 Alpha virt. eigenvalues --   24.01874  24.03373  24.03412  24.04634  24.07439
 Alpha virt. eigenvalues --   24.08202  24.08691  24.09613  24.13617  24.15051
 Alpha virt. eigenvalues --   24.23087  24.25155  24.28278  24.30419  24.30827
 Alpha virt. eigenvalues --   35.74098  50.13653  50.17822
          Condensed to atoms (all electrons):
               1          2          3          4          5          6
     1  O    8.151430   0.192753   0.224572   0.197214  -0.330000   0.005226
     2  C    0.192753  19.342008   0.075169  -0.420944   1.548258  -0.260055
     3  H    0.224572   0.075169   0.288886  -0.134776   0.028940   0.087149
     4  C    0.197214  -0.420944  -0.134776  24.112304  -3.206234  -0.087713
     5  C   -0.330000   1.548258   0.028940  -3.206234   8.304131  -0.011852
     6  O    0.005226  -0.260055   0.087149  -0.087713  -0.011852   8.099666
     7  C   -0.050922  -4.187816   0.051691   2.974067   0.087621   0.845012
     8  C   -0.038821  -1.642482   0.032683  -1.294566  -0.564282  -0.099144
     9  C    0.092211  -1.528693  -0.008656   1.040837  -0.525016   0.006480
    10  H   -0.024901  -0.083469   0.000644  -0.123717   0.565984   0.000436
    11  C   -0.006561  -5.947590  -0.026872  -7.070348   0.372406  -0.288460
    12  C   -0.086667   0.132787   0.037031  -5.919162   0.165562  -0.054165
    13  H   -0.002717   0.063125   0.001691  -0.047648   0.044355   0.000624
    14  H    0.003319  -0.034557  -0.000251   0.135824  -0.109100   0.000277
    15  C    0.017103  -1.755158  -0.041184  -3.736132   0.160701   0.072660
    16  H    0.001775   0.166962   0.000275   0.377072  -0.000466  -0.005035
    17  C   -0.010021   0.939096   0.003862  -0.875732  -0.113776  -0.005543
    18  C    0.003027  -0.068010  -0.005801   0.339877  -0.047544   0.046057
    19  H   -0.001742  -0.086105  -0.001534  -0.192264   0.003207  -0.004448
    20  H   -0.000187   0.009629   0.000032  -0.007735   0.000680  -0.000064
    21  H   -0.000158  -0.003406  -0.000052  -0.012450   0.014165  -0.000024
    22  H   -0.000020  -0.001933   0.000003   0.046089  -0.013204  -0.000191
    23  C    0.000105  -0.177495  -0.008272  -1.212820   0.042388   0.000676
    24  C   -0.000243  -0.002104   0.001009  -0.046256  -0.000363  -0.012136
    25  H    0.000055  -0.027056  -0.000157  -0.125847   0.002205   0.002079
    26  C    0.000057   0.039286   0.000620   0.205862   0.000801   0.000087
    27  C   -0.000044  -0.015351  -0.000246  -0.125927  -0.000953  -0.002014
    28  H    0.000081   0.008381   0.000220   0.027783   0.000158   0.001005
    29  H   -0.000001   0.001406   0.000015   0.013257  -0.000238   0.000018
    30  C   -0.000006  -0.004626  -0.000495  -0.081832   0.000957  -0.000439
    31  H   -0.000001  -0.000481  -0.000014  -0.002521  -0.000035   0.000038
    32  N    0.000000   0.000018   0.000002   0.000422  -0.000001  -0.000001
    33  C    0.000000  -0.000033  -0.000005  -0.000990  -0.000001   0.000009
    34  C    0.000000   0.000091   0.000004   0.002486  -0.000010   0.000000
    35  H    0.000000   0.000004   0.000000   0.000071   0.000000  -0.000001
    36  H    0.000000   0.000009   0.000001   0.000089   0.000000  -0.000001
    37  H    0.000000  -0.000002   0.000000  -0.000069   0.000000   0.000000
    38  H    0.000000   0.000005   0.000000   0.000153  -0.000001   0.000000
    39  H    0.000000  -0.000022  -0.000001  -0.000330   0.000003   0.000000
    40  H    0.000000  -0.000009   0.000000  -0.000275   0.000003   0.000000
               7          8          9         10         11         12
     1  O   -0.050922  -0.038821   0.092211  -0.024901  -0.006561  -0.086667
     2  C   -4.187816  -1.642482  -1.528693  -0.083469  -5.947590   0.132787
     3  H    0.051691   0.032683  -0.008656   0.000644  -0.026872   0.037031
     4  C    2.974067  -1.294566   1.040837  -0.123717  -7.070348  -5.919162
     5  C    0.087621  -0.564282  -0.525016   0.565984   0.372406   0.165562
     6  O    0.845012  -0.099144   0.006480   0.000436  -0.288460  -0.054165
     7  C   14.929579  -0.063992  -0.718798   0.003246  -0.137064  -0.524742
     8  C   -0.063992  10.535388  -1.192337   0.002625  -0.225274   1.630822
     9  C   -0.718798  -1.192337  10.510401  -0.071461  -0.349828  -0.221819
    10  H    0.003246   0.002625  -0.071461   0.468387   0.005078   0.029583
    11  C   -0.137064  -0.225274  -0.349828   0.005078  17.991346  -0.747861
    12  C   -0.524742   1.630822  -0.221819   0.029583  -0.747861  12.641516
    13  H   -0.056350   0.401488   0.049917   0.001196  -0.054512   0.031084
    14  H    0.008232  -0.033698   0.444517  -0.014856   0.000362  -0.071491
    15  C   -4.775491  -0.382568  -0.091680   0.003083   3.964550  -0.108940
    16  H    0.247763  -0.151704  -0.035873  -0.000147   0.578982  -0.307256
    17  C   -0.196264   0.104533  -1.034764   0.004397  -0.478079  -0.477109
    18  C    0.165196  -0.359210   0.038561  -0.000991  -0.847866  -0.128449
    19  H   -0.176114   0.025100  -0.001644  -0.000022   0.169213   0.005682
    20  H   -0.000582   0.008808  -0.021139   0.000166   0.003846  -0.049640
    21  H    0.000153  -0.020531   0.026417   0.000801   0.002060  -0.008505
    22  H    0.002950   0.106497  -0.031839  -0.000081  -0.015848  -0.156648
    23  C   -2.368180   0.083748  -0.026509   0.000608  -0.811863   0.083727
    24  C    0.139212   0.027297   0.000019  -0.000019  -0.102709  -0.013635
    25  H   -0.133714   0.015782  -0.000372   0.000024  -0.117351   0.047777
    26  C    0.201004  -0.059619  -0.002231   0.000021  -0.300214   0.008982
    27  C    0.015516   0.036814   0.000261  -0.000018   0.383782  -0.000194
    28  H    0.071512  -0.004417   0.000051   0.000005   0.030163  -0.000618
    29  H    0.023209  -0.002536   0.000208  -0.000003   0.046663  -0.003089
    30  C   -0.253498  -0.000392  -0.000627   0.000011  -0.371951   0.002943
    31  H   -0.006290   0.000218   0.000013  -0.000001  -0.020630   0.000057
    32  N    0.002556  -0.000002   0.000001   0.000000   0.005014   0.000004
    33  C   -0.000833   0.000092   0.000000   0.000000  -0.009815  -0.000005
    34  C    0.005625  -0.000729   0.000004   0.000000   0.017183  -0.000107
    35  H   -0.000063  -0.000034   0.000000   0.000000  -0.000080  -0.000003
    36  H    0.000252   0.000019   0.000000   0.000000   0.001407   0.000003
    37  H   -0.000061   0.000013   0.000000   0.000000  -0.000321  -0.000001
    38  H    0.000320  -0.000046   0.000000   0.000000   0.001113  -0.000005
    39  H   -0.000772   0.000072  -0.000003   0.000000  -0.001428   0.000028
    40  H   -0.000470   0.000119  -0.000003   0.000000  -0.001308   0.000029
              13         14         15         16         17         18
     1  O   -0.002717   0.003319   0.017103   0.001775  -0.010021   0.003027
     2  C    0.063125  -0.034557  -1.755158   0.166962   0.939096  -0.068010
     3  H    0.001691  -0.000251  -0.041184   0.000275   0.003862  -0.005801
     4  C   -0.047648   0.135824  -3.736132   0.377072  -0.875732   0.339877
     5  C    0.044355  -0.109100   0.160701  -0.000466  -0.113776  -0.047544
     6  O    0.000624   0.000277   0.072660  -0.005035  -0.005543   0.046057
     7  C   -0.056350   0.008232  -4.775491   0.247763  -0.196264   0.165196
     8  C    0.401488  -0.033698  -0.382568  -0.151704   0.104533  -0.359210
     9  C    0.049917   0.444517  -0.091680  -0.035873  -1.034764   0.038561
    10  H    0.001196  -0.014856   0.003083  -0.000147   0.004397  -0.000991
    11  C   -0.054512   0.000362   3.964550   0.578982  -0.478079  -0.847866
    12  C    0.031084  -0.071491  -0.108940  -0.307256  -0.477109  -0.128449
    13  H    0.688143  -0.002548  -0.027516  -0.091892  -0.056132  -0.023129
    14  H   -0.002548   0.487522   0.000030  -0.000007  -0.019202   0.000573
    15  C   -0.027516   0.000030  11.447723  -0.223685  -0.138812  -0.161091
    16  H   -0.091892  -0.000007  -0.223685   1.041618   0.024083   0.134151
    17  C   -0.056132  -0.019202  -0.138812   0.024083   7.720708  -0.011167
    18  C   -0.023129   0.000573  -0.161091   0.134151  -0.011167  11.421545
    19  H    0.001162   0.000008   0.523708  -0.006065  -0.002392  -0.152499
    20  H   -0.004999  -0.002702  -0.000538   0.000994   0.411704   0.000559
    21  H   -0.000430  -0.002356   0.000291  -0.000623   0.359749  -0.000387
    22  H   -0.010117   0.002327  -0.000584   0.006748   0.404233  -0.002600
    23  C    0.008450  -0.000321   1.610940  -0.329137  -0.023003  -0.320174
    24  C    0.002683   0.000031  -0.836984   0.042093   0.001368   0.258227
    25  H    0.009886  -0.000088   0.057298  -0.126029  -0.003386  -0.242019
    26  C    0.002469   0.000001  -0.310675  -0.146532   0.005619  -0.877324
    27  C    0.000417   0.000004   0.505631   0.042210   0.000211  -2.392502
    28  H    0.000012   0.000000   0.018017   0.005339   0.000142  -0.065343
    29  H   -0.001124   0.000006   0.010202   0.023925   0.000252   0.164876
    30  C   -0.001119  -0.000007  -0.021404  -0.083901  -0.000630  -1.585448
    31  H    0.000033   0.000000   0.004142  -0.001204  -0.000011  -0.041658
    32  N    0.000054   0.000000  -0.003151  -0.000955   0.000001  -0.027391
    33  C    0.000003   0.000000   0.030945  -0.000113   0.000001  -0.161804
    34  C   -0.000016   0.000000  -0.008465  -0.000127   0.000027   0.016796
    35  H   -0.000001   0.000000  -0.001855   0.000067   0.000000   0.008667
    36  H   -0.000001   0.000000  -0.001968  -0.000036   0.000000   0.006317
    37  H   -0.000001   0.000000   0.003597   0.000066   0.000000  -0.009497
    38  H   -0.000004   0.000000  -0.001663   0.000029   0.000001   0.007222
    39  H    0.000046   0.000000  -0.000102  -0.000508  -0.000006  -0.007492
    40  H   -0.000007   0.000000   0.000042  -0.000570   0.000003  -0.011452
              19         20         21         22         23         24
     1  O   -0.001742  -0.000187  -0.000158  -0.000020   0.000105  -0.000243
     2  C   -0.086105   0.009629  -0.003406  -0.001933  -0.177495  -0.002104
     3  H   -0.001534   0.000032  -0.000052   0.000003  -0.008272   0.001009
     4  C   -0.192264  -0.007735  -0.012450   0.046089  -1.212820  -0.046256
     5  C    0.003207   0.000680   0.014165  -0.013204   0.042388  -0.000363
     6  O   -0.004448  -0.000064  -0.000024  -0.000191   0.000676  -0.012136
     7  C   -0.176114  -0.000582   0.000153   0.002950  -2.368180   0.139212
     8  C    0.025100   0.008808  -0.020531   0.106497   0.083748   0.027297
     9  C   -0.001644  -0.021139   0.026417  -0.031839  -0.026509   0.000019
    10  H   -0.000022   0.000166   0.000801  -0.000081   0.000608  -0.000019
    11  C    0.169213   0.003846   0.002060  -0.015848  -0.811863  -0.102709
    12  C    0.005682  -0.049640  -0.008505  -0.156648   0.083727  -0.013635
    13  H    0.001162  -0.004999  -0.000430  -0.010117   0.008450   0.002683
    14  H    0.000008  -0.002702  -0.002356   0.002327  -0.000321   0.000031
    15  C    0.523708  -0.000538   0.000291  -0.000584   1.610940  -0.836984
    16  H   -0.006065   0.000994  -0.000623   0.006748  -0.329137   0.042093
    17  C   -0.002392   0.411704   0.359749   0.404233  -0.023003   0.001368
    18  C   -0.152499   0.000559  -0.000387  -0.002600  -0.320174   0.258227
    19  H    0.470789  -0.000014   0.000012  -0.000050   0.111674   0.037233
    20  H   -0.000014   0.551351  -0.061398  -0.016522  -0.000172  -0.000014
    21  H    0.000012  -0.061398   0.559071  -0.020445   0.000258   0.000024
    22  H   -0.000050  -0.016522  -0.020445   0.537520   0.001175  -0.000481
    23  C    0.111674  -0.000172   0.000258   0.001175  11.055744  -0.813464
    24  C    0.037233  -0.000014   0.000024  -0.000481  -0.813464   9.290164
    25  H    0.008813   0.000003   0.000247  -0.002881   0.579550   0.031778
    26  C   -0.012144  -0.000036  -0.000009   0.000245   0.984518  -1.038325
    27  C    0.026451   0.000017  -0.000001  -0.000256  -1.221443   0.925175
    28  H   -0.009201   0.000000   0.000000   0.000009  -0.096718   0.290454
    29  H   -0.001750   0.000002  -0.000017   0.000111  -0.043186  -0.020882
    30  C    0.024057   0.000011   0.000000  -0.000117  -0.305503  -1.832104
    31  H    0.002339   0.000000   0.000000  -0.000006   0.000015   0.032024
    32  N   -0.000788   0.000000   0.000000   0.000001  -0.041093   0.041310
    33  C   -0.000572   0.000000   0.000000  -0.000003  -0.031378  -0.068149
    34  C   -0.000407   0.000000   0.000000  -0.000002  -0.037837  -0.023634
    35  H   -0.000118   0.000000   0.000000   0.000000  -0.003399   0.012762
    36  H   -0.000061   0.000000   0.000000   0.000001  -0.004895  -0.015050
    37  H   -0.000011   0.000000   0.000000   0.000000   0.004165  -0.016103
    38  H   -0.000048   0.000000   0.000000   0.000000  -0.001624   0.009976
    39  H    0.000100   0.000000   0.000000  -0.000004   0.001213  -0.005997
    40  H    0.000123   0.000000   0.000000   0.000003  -0.003489  -0.005117
              25         26         27         28         29         30
     1  O    0.000055   0.000057  -0.000044   0.000081  -0.000001  -0.000006
     2  C   -0.027056   0.039286  -0.015351   0.008381   0.001406  -0.004626
     3  H   -0.000157   0.000620  -0.000246   0.000220   0.000015  -0.000495
     4  C   -0.125847   0.205862  -0.125927   0.027783   0.013257  -0.081832
     5  C    0.002205   0.000801  -0.000953   0.000158  -0.000238   0.000957
     6  O    0.002079   0.000087  -0.002014   0.001005   0.000018  -0.000439
     7  C   -0.133714   0.201004   0.015516   0.071512   0.023209  -0.253498
     8  C    0.015782  -0.059619   0.036814  -0.004417  -0.002536  -0.000392
     9  C   -0.000372  -0.002231   0.000261   0.000051   0.000208  -0.000627
    10  H    0.000024   0.000021  -0.000018   0.000005  -0.000003   0.000011
    11  C   -0.117351  -0.300214   0.383782   0.030163   0.046663  -0.371951
    12  C    0.047777   0.008982  -0.000194  -0.000618  -0.003089   0.002943
    13  H    0.009886   0.002469   0.000417   0.000012  -0.001124  -0.001119
    14  H   -0.000088   0.000001   0.000004   0.000000   0.000006  -0.000007
    15  C    0.057298  -0.310675   0.505631   0.018017   0.010202  -0.021404
    16  H   -0.126029  -0.146532   0.042210   0.005339   0.023925  -0.083901
    17  C   -0.003386   0.005619   0.000211   0.000142   0.000252  -0.000630
    18  C   -0.242019  -0.877324  -2.392502  -0.065343   0.164876  -1.585448
    19  H    0.008813  -0.012144   0.026451  -0.009201  -0.001750   0.024057
    20  H    0.000003  -0.000036   0.000017   0.000000   0.000002   0.000011
    21  H    0.000247  -0.000009  -0.000001   0.000000  -0.000017   0.000000
    22  H   -0.002881   0.000245  -0.000256   0.000009   0.000111  -0.000117
    23  C    0.579550   0.984518  -1.221443  -0.096718  -0.043186  -0.305503
    24  C    0.031778  -1.038325   0.925175   0.290454  -0.020882  -1.832104
    25  H    0.646256   0.073573  -0.020198  -0.007144  -0.058756   0.236084
    26  C    0.073573   8.567855  -1.563694   0.030637   0.360356   0.370120
    27  C   -0.020198  -1.563694   9.459462  -0.013695  -0.004809  -0.070514
    28  H   -0.007144   0.030637  -0.013695   0.491770   0.002511   0.013221
    29  H   -0.058756   0.360356  -0.004809   0.002511   0.547142  -0.253213
    30  C    0.236084   0.370120  -0.070514   0.013221  -0.253213  11.038869
    31  H    0.002605  -0.042426   0.493574  -0.013009  -0.000681  -0.072144
    32  N   -0.001289  -0.290141  -0.248263  -0.000855  -0.036161   0.276905
    33  C    0.000717  -0.122791   0.191393   0.002607  -0.004447  -0.148968
    34  C    0.002466   0.115638  -0.162040   0.000561   0.017317  -0.203713
    35  H   -0.000218  -0.008448   0.025767   0.000506   0.000155  -0.042154
    36  H    0.000063  -0.004870   0.007121   0.000601  -0.001129   0.015233
    37  H   -0.000528   0.015840   0.015820  -0.000012   0.002456  -0.003277
    38  H   -0.000287   0.016145   0.005688  -0.000054   0.007652  -0.016166
    39  H    0.002628   0.035568  -0.011395  -0.000171  -0.013928  -0.009964
    40  H    0.002768   0.031148  -0.011011  -0.000246  -0.012129  -0.001847
              31         32         33         34         35         36
     1  O   -0.000001   0.000000   0.000000   0.000000   0.000000   0.000000
     2  C   -0.000481   0.000018  -0.000033   0.000091   0.000004   0.000009
     3  H   -0.000014   0.000002  -0.000005   0.000004   0.000000   0.000001
     4  C   -0.002521   0.000422  -0.000990   0.002486   0.000071   0.000089
     5  C   -0.000035  -0.000001  -0.000001  -0.000010   0.000000   0.000000
     6  O    0.000038  -0.000001   0.000009   0.000000  -0.000001  -0.000001
     7  C   -0.006290   0.002556  -0.000833   0.005625  -0.000063   0.000252
     8  C    0.000218  -0.000002   0.000092  -0.000729  -0.000034   0.000019
     9  C    0.000013   0.000001   0.000000   0.000004   0.000000   0.000000
    10  H   -0.000001   0.000000   0.000000   0.000000   0.000000   0.000000
    11  C   -0.020630   0.005014  -0.009815   0.017183  -0.000080   0.001407
    12  C    0.000057   0.000004  -0.000005  -0.000107  -0.000003   0.000003
    13  H    0.000033   0.000054   0.000003  -0.000016  -0.000001  -0.000001
    14  H    0.000000   0.000000   0.000000   0.000000   0.000000   0.000000
    15  C    0.004142  -0.003151   0.030945  -0.008465  -0.001855  -0.001968
    16  H   -0.001204  -0.000955  -0.000113  -0.000127   0.000067  -0.000036
    17  C   -0.000011   0.000001   0.000001   0.000027   0.000000   0.000000
    18  C   -0.041658  -0.027391  -0.161804   0.016796   0.008667   0.006317
    19  H    0.002339  -0.000788  -0.000572  -0.000407  -0.000118  -0.000061
    20  H    0.000000   0.000000   0.000000   0.000000   0.000000   0.000000
    21  H    0.000000   0.000000   0.000000   0.000000   0.000000   0.000000
    22  H   -0.000006   0.000001  -0.000003  -0.000002   0.000000   0.000001
    23  C    0.000015  -0.041093  -0.031378  -0.037837  -0.003399  -0.004895
    24  C    0.032024   0.041310  -0.068149  -0.023634   0.012762  -0.015050
    25  H    0.002605  -0.001289   0.000717   0.002466  -0.000218   0.000063
    26  C   -0.042426  -0.290141  -0.122791   0.115638  -0.008448  -0.004870
    27  C    0.493574  -0.248263   0.191393  -0.162040   0.025767   0.007121
    28  H   -0.013009  -0.000855   0.002607   0.000561   0.000506   0.000601
    29  H   -0.000681  -0.036161  -0.004447   0.017317   0.000155  -0.001129
    30  C   -0.072144   0.276905  -0.148968  -0.203713  -0.042154   0.015233
    31  H    0.510259  -0.033427   0.017320  -0.005003  -0.008355  -0.009613
    32  N   -0.033427   6.993480   0.311140   0.302049  -0.055194  -0.055421
    33  C    0.017320   0.311140   5.272288  -0.111472   0.423812   0.411828
    34  C   -0.005003   0.302049  -0.111472   5.234721   0.000138  -0.001333
    35  H   -0.008355  -0.055194   0.423812   0.000138   0.548118  -0.062550
    36  H   -0.009613  -0.055421   0.411828  -0.001333  -0.062550   0.567728
    37  H    0.005925  -0.046077   0.404698  -0.011696  -0.020475  -0.022689
    38  H    0.001404  -0.047336  -0.015300   0.400560  -0.002019  -0.001860
    39  H   -0.000288  -0.055308   0.001133   0.416998   0.001866  -0.002377
    40  H   -0.000361  -0.052058  -0.002597   0.418896  -0.002338   0.002444
              37         38         39         40
     1  O    0.000000   0.000000   0.000000   0.000000
     2  C   -0.000002   0.000005  -0.000022  -0.000009
     3  H    0.000000   0.000000  -0.000001   0.000000
     4  C   -0.000069   0.000153  -0.000330  -0.000275
     5  C    0.000000  -0.000001   0.000003   0.000003
     6  O    0.000000   0.000000   0.000000   0.000000
     7  C   -0.000061   0.000320  -0.000772  -0.000470
     8  C    0.000013  -0.000046   0.000072   0.000119
     9  C    0.000000   0.000000  -0.000003  -0.000003
    10  H    0.000000   0.000000   0.000000   0.000000
    11  C   -0.000321   0.001113  -0.001428  -0.001308
    12  C   -0.000001  -0.000005   0.000028   0.000029
    13  H   -0.000001  -0.000004   0.000046  -0.000007
    14  H    0.000000   0.000000   0.000000   0.000000
    15  C    0.003597  -0.001663  -0.000102   0.000042
    16  H    0.000066   0.000029  -0.000508  -0.000570
    17  C    0.000000   0.000001  -0.000006   0.000003
    18  C   -0.009497   0.007222  -0.007492  -0.011452
    19  H   -0.000011  -0.000048   0.000100   0.000123
    20  H    0.000000   0.000000   0.000000   0.000000
    21  H    0.000000   0.000000   0.000000   0.000000
    22  H    0.000000   0.000000  -0.000004   0.000003
    23  C    0.004165  -0.001624   0.001213  -0.003489
    24  C   -0.016103   0.009976  -0.005997  -0.005117
    25  H   -0.000528  -0.000287   0.002628   0.002768
    26  C    0.015840   0.016145   0.035568   0.031148
    27  C    0.015820   0.005688  -0.011395  -0.011011
    28  H   -0.000012  -0.000054  -0.000171  -0.000246
    29  H    0.002456   0.007652  -0.013928  -0.012129
    30  C   -0.003277  -0.016166  -0.009964  -0.001847
    31  H    0.005925   0.001404  -0.000288  -0.000361
    32  N   -0.046077  -0.047336  -0.055308  -0.052058
    33  C    0.404698  -0.015300   0.001133  -0.002597
    34  C   -0.011696   0.400560   0.416998   0.418896
    35  H   -0.020475  -0.002019   0.001866  -0.002338
    36  H   -0.022689  -0.001860  -0.002377   0.002444
    37  H    0.513405   0.012770  -0.001600  -0.002294
    38  H    0.012770   0.507254  -0.022154  -0.020365
    39  H   -0.001600  -0.022154   0.557845  -0.063464
    40  H   -0.002294  -0.020365  -0.063464   0.563712
 Mulliken charges:
               1
     1  O   -0.335917
     2  C   -0.271588
     3  H    0.393819
     4  C    1.252879
     5  C   -0.419450
     6  O   -0.336212
     7  C   -0.122700
     8  C   -0.875733
     9  C   -0.346604
    10  H    0.233391
    11  C    0.360662
    12  C    0.062496
    13  H    0.073424
    14  H    0.208152
    15  C    0.198979
    16  H   -0.182284
    17  C   -0.533961
    18  C    0.939198
    19  H    0.240323
    20  H    0.177939
    21  H    0.167543
    22  H    0.165919
    23  C   -0.686979
    24  C   -0.289070
    25  H    0.144661
    26  C   -0.286972
    27  C   -0.270747
    28  H    0.215738
    29  H    0.236339
    30  C   -0.612351
    31  H    0.188191
    32  N    0.061951
    33  C   -0.388710
    34  C   -0.384970
    35  H    0.185373
    36  H    0.170738
    37  H    0.155958
    38  H    0.158639
    39  H    0.179815
    40  H    0.172121
 Sum of Mulliken charges =   0.00000
 Mulliken charges with hydrogens summed into heavy atoms:
               1
     1  O    0.057903
     2  C   -0.271588
     4  C    1.252879
     5  C   -0.186059
     6  O   -0.336212
     7  C   -0.122700
     8  C   -0.802310
     9  C   -0.138452
    11  C    0.178377
    12  C    0.062496
    15  C    0.439302
    17  C   -0.022560
    18  C    0.939198
    23  C   -0.542318
    24  C   -0.073332
    26  C   -0.050634
    27  C   -0.082556
    30  C   -0.612351
    32  N    0.061951
    33  C    0.123358
    34  C    0.125605
 Electronic spatial extent (au):  <R**2>=          27737.7685
 Charge=              0.0000 electrons
 Dipole moment (field-independent basis, Debye):
    X=              1.3278    Y=              9.0694    Z=              3.4074  Tot=              9.7789
 Quadrupole moment (field-independent basis, Debye-Ang):
   XX=           -132.9742   YY=           -192.7750   ZZ=           -112.2197
   XY=            -40.9149   XZ=            -27.5794   YZ=            -12.6125
 Traceless Quadrupole moment (field-independent basis, Debye-Ang):
   XX=             13.0154   YY=            -46.7854   ZZ=             33.7700
   XY=            -40.9149   XZ=            -27.5794   YZ=            -12.6125
 Octapole moment (field-independent basis, Debye-Ang**2):
  XXX=           1342.0811  YYY=           2090.6564  ZZZ=            608.5680  XYY=            747.9436
  XXY=            666.0233  XXZ=            371.6938  XZZ=            441.4209  YZZ=            490.5236
  YYZ=            381.7981  XYZ=            117.4768
 Hexadecapole moment (field-independent basis, Debye-Ang**3):
 XXXX=         -10490.8940 YYYY=         -23948.2207 ZZZZ=          -8648.5470 XXXY=          -5353.2452
 XXXZ=          -1961.9742 YYYX=          -7415.9566 YYYZ=          -6858.7870 ZZZX=          -1482.9716
 ZZZY=          -4981.4273 XXYY=          -6198.4472 XXZZ=          -3356.9815 YYZZ=          -4710.4794
 XXYZ=          -2444.5804 YYXZ=          -1463.9222 ZZXY=          -1965.0916
 N-N= 1.481087622936D+03 E-N=-5.062260945482D+03  KE= 8.982547848226D+02
 Leave Link  601 at Thu Nov  2 20:10:09 2017, MaxMem=  3758096384 cpu:         0.3
 (Enter /share/apps/gaussian/g09_D01/g09/l9999.exe)
 1\1\GINC-NXN37\SP\RwB97XD TD-FC\6-311++G(d,p)\C18H19N1O2\BTX008\02-Nov
 -2017\0\\#p wb97xd/6-311++G** td=(nstates=2) nosymm\\Title\\0,1\O,0,-3
 .675439,-8.692082,-3.625624\C,0,-3.036202,-7.700412,-4.286061\H,0,-4.2
 36105,-8.170739,-2.916421\C,0,-3.129087,-6.351643,-3.839617\C,0,-2.257
 584,-8.009049,-5.412007\O,0,-4.659939,-6.968405,-2.13669\C,0,-3.907551
 ,-6.047638,-2.622715\C,0,-2.462419,-5.361451,-4.588631\C,0,-1.622144,-
 7.001358,-6.122357\H,0,-2.171953,-9.051437,-5.719168\C,0,-3.789319,-4.
 758355,-1.999083\C,0,-1.725437,-5.65278,-5.728791\H,0,-2.517632,-4.321
 162,-4.272262\H,0,-1.032658,-7.255414,-7.006039\C,0,-4.496192,-4.39967
 8,-0.88254\H,0,-3.0854,-4.051435,-2.43375\C,0,-1.047778,-4.556747,-6.5
 05796\C,0,-4.398282,-3.159007,-0.17892\H,0,-5.192785,-5.135733,-0.4667
 67\H,0,-1.472863,-4.459112,-7.51775\H,0,0.022803,-4.767561,-6.636277\H
 ,0,-1.14506,-3.593672,-5.98728\C,0,-3.513859,-2.115618,-0.551624\C,0,-
 5.190732,-2.939791,0.97381\H,0,-2.887427,-2.226603,-1.43617\C,0,-3.413
 858,-0.951298,0.172407\C,0,-5.105897,-1.781145,1.717999\H,0,-5.886118,
 -3.721553,1.277929\H,0,-2.71748,-0.184157,-0.157914\C,0,-4.204238,-0.7
 45615,1.34135\H,0,-5.734864,-1.66628,2.598454\N,0,-4.09686,0.396522,2.
 065819\C,0,-4.914092,0.594323,3.253036\C,0,-3.163159,1.438129,1.656185
 \H,0,-4.678475,-0.148074,4.031588\H,0,-5.985241,0.515578,3.016782\H,0,
 -4.72163,1.590357,3.661001\H,0,-3.194547,2.254703,2.384121\H,0,-3.4263
 61,1.840379,0.666001\H,0,-2.132892,1.05153,1.609304\\Version=ES64L-G09
 RevD.01\HF=-902.4764806\RMSD=7.515e-09\PG=C01 [X(C18H19N1O2)]\\@


 THE MOST SERIOUS THREAT TO THE SURVIVAL OF MANKIND IS NOT NOW
 IGNORANCE IN THE TRADITIONAL SENSE,
 BUT A MORALLY NEUTRAL, AN INSENSITIVE OR INHIBITED HUMAN INTELLIGENCE.

                     -- MARGO JEFFERSON IN NEWSWEEK, SEPTEMBER 2, 1974
 Job cpu time:       0 days  2 hours 50 minutes  1.3 seconds.
 File lengths (MBytes):  RWF=    334 Int=      0 D2E=      0 Chk=     38 Scr=      1
 Normal termination of Gaussian 09 at Thu Nov  2 20:10:15 2017.
