 Entering Gaussian System, Link 0=g09
 Input=2hc_2_424-mega_dimer_0_mon-1.com
 Output=2hc_2_424-mega_dimer_0_mon-1.out
 Initial command:
 /share/apps/gaussian/g09_D01/g09/l1.exe "/tmp/169929.1.all.q/Gau-8716.inp" -scrdir="/tmp/169929.1.all.q/"
 Entering Link 1 = /share/apps/gaussian/g09_D01/g09/l1.exe PID=      8717.
  
 Copyright (c) 1988,1990,1992,1993,1995,1998,2003,2009,2013,
            Gaussian, Inc.  All Rights Reserved.
  
 This is part of the Gaussian(R) 09 program.  It is based on
 the Gaussian(R) 03 system (copyright 2003, Gaussian, Inc.),
 the Gaussian(R) 98 system (copyright 1998, Gaussian, Inc.),
 the Gaussian(R) 94 system (copyright 1995, Gaussian, Inc.),
 the Gaussian 92(TM) system (copyright 1992, Gaussian, Inc.),
 the Gaussian 90(TM) system (copyright 1990, Gaussian, Inc.),
 the Gaussian 88(TM) system (copyright 1988, Gaussian, Inc.),
 the Gaussian 86(TM) system (copyright 1986, Carnegie Mellon
 University), and the Gaussian 82(TM) system (copyright 1983,
 Carnegie Mellon University). Gaussian is a federally registered
 trademark of Gaussian, Inc.
  
 This software contains proprietary and confidential information,
 including trade secrets, belonging to Gaussian, Inc.
  
 This software is provided under written license and may be
 used, copied, transmitted, or stored only in accord with that
 written license.
  
 The following legend is applicable only to US Government
 contracts under FAR:
  
                    RESTRICTED RIGHTS LEGEND
  
 Use, reproduction and disclosure by the US Government is
 subject to restrictions as set forth in subparagraphs (a)
 and (c) of the Commercial Computer Software - Restricted
 Rights clause in FAR 52.227-19.
  
 Gaussian, Inc.
 340 Quinnipiac St., Bldg. 40, Wallingford CT 06492
  
  
 ---------------------------------------------------------------
 Warning -- This program may not be used in any manner that
 competes with the business of Gaussian, Inc. or will provide
 assistance to any competitor of Gaussian, Inc.  The licensee
 of this program is prohibited from giving any competitor of
 Gaussian, Inc. access to this program.  By using this program,
 the user acknowledges that Gaussian, Inc. is engaged in the
 business of creating and licensing software in the field of
 computational chemistry and represents and warrants to the
 licensee that it is not a competitor of Gaussian, Inc. and that
 it will not use this program in any manner prohibited above.
 ---------------------------------------------------------------
  

 Cite this work as:
 Gaussian 09, Revision D.01,
 M. J. Frisch, G. W. Trucks, H. B. Schlegel, G. E. Scuseria, 
 M. A. Robb, J. R. Cheeseman, G. Scalmani, V. Barone, B. Mennucci, 
 G. A. Petersson, H. Nakatsuji, M. Caricato, X. Li, H. P. Hratchian, 
 A. F. Izmaylov, J. Bloino, G. Zheng, J. L. Sonnenberg, M. Hada, 
 M. Ehara, K. Toyota, R. Fukuda, J. Hasegawa, M. Ishida, T. Nakajima, 
 Y. Honda, O. Kitao, H. Nakai, T. Vreven, J. A. Montgomery, Jr., 
 J. E. Peralta, F. Ogliaro, M. Bearpark, J. J. Heyd, E. Brothers, 
 K. N. Kudin, V. N. Staroverov, T. Keith, R. Kobayashi, J. Normand, 
 K. Raghavachari, A. Rendell, J. C. Burant, S. S. Iyengar, J. Tomasi, 
 M. Cossi, N. Rega, J. M. Millam, M. Klene, J. E. Knox, J. B. Cross, 
 V. Bakken, C. Adamo, J. Jaramillo, R. Gomperts, R. E. Stratmann, 
 O. Yazyev, A. J. Austin, R. Cammi, C. Pomelli, J. W. Ochterski, 
 R. L. Martin, K. Morokuma, V. G. Zakrzewski, G. A. Voth, 
 P. Salvador, J. J. Dannenberg, S. Dapprich, A. D. Daniels, 
 O. Farkas, J. B. Foresman, J. V. Ortiz, J. Cioslowski, 
 and D. J. Fox, Gaussian, Inc., Wallingford CT, 2013.
 
 ******************************************
 Gaussian 09:  ES64L-G09RevD.01 24-Apr-2013
                13-Nov-2017 
 ******************************************
 %chk=2hc_2_424-mega_dimer_0_mon-1.chk
 %nproc=4
 Will use up to    4 processors via shared memory.
 %mem=28GB
 ------------------------------------------
 #p wb97xd 6-311++G** td=(nstates=4) nosymm
 ------------------------------------------
 1/38=1/1;
 2/12=2,15=1,17=6,18=5,40=1/2;
 3/5=4,6=6,7=1111,11=9,16=1,25=1,30=1,74=-58/1,2,8,3;
 4//1;
 5/5=2,38=5/2;
 8/6=1,10=2,108=4/1;
 9/41=4,42=1,70=2/14;
 6/7=2,8=2,9=2,10=2/1;
 99/5=1,9=1/99;
 Leave Link    1 at Mon Nov 13 15:11:20 2017, MaxMem=  3758096384 cpu:         0.2
 (Enter /share/apps/gaussian/g09_D01/g09/l101.exe)
 -----
 Title
 -----
 Symbolic Z-matrix:
 Charge =  0 Multiplicity = 1
 C                    -0.12514  -5.35714  -1.98595 
 H                    -0.52797  -4.33859  -1.87235 
 H                    -0.07876  -5.59297  -3.05331 
 H                     0.90131  -5.37772  -1.58327 
 N                    -0.9694   -6.33415  -1.31545 
 C                    -1.54817  -7.42647  -2.08178 
 C                    -1.1629   -6.26702   0.02669 
 H                    -1.11225  -8.39803  -1.79738 
 H                    -1.35746  -7.26064  -3.14691 
 H                    -2.6376   -7.4691   -1.93231 
 C                    -0.61345  -5.20022   0.79655 
 C                    -1.91954  -7.25108   0.72174 
 C                    -0.80216  -5.13137   2.1577 
 H                    -0.03098  -4.42328   0.30705 
 H                    -2.36622  -8.08207   0.18125 
 C                    -2.09548  -7.1649    2.08661 
 C                    -1.53843  -6.11647   2.85688 
 H                    -0.35648  -4.3008    2.70468 
 H                    -2.67062  -7.93339   2.60403 
 C                    -1.71337  -6.11816   4.27388 
 C                    -1.17094  -5.24453   5.17495 
 H                    -2.34186  -6.91619   4.67941 
 C                    -1.4121   -5.37419   6.58899 
 H                    -0.52291  -4.44217   4.82983 
 C                    -0.83467  -4.41475   7.54024 
 O                    -2.14527  -6.32769   7.04124 
 C                    -0.04157  -3.31639   7.15119 
 C                    -1.10493  -4.56874   8.93408 
 H                    -2.1187   -6.09818   8.50673 
 C                     0.44271  -2.40786   8.07571 
 H                     0.19776  -3.15321   6.10174 
 O                    -1.86038  -5.59292   9.38109 
 C                    -0.61022  -3.64225   9.85696 
 C                     0.1493   -2.55018   9.44564 
 H                     1.05889  -1.57337   7.74205 
 H                    -0.83637  -3.79954   10.91198 
 C                     0.63085  -1.53973   10.44465 
 H                     1.11735  -0.6867    9.95494 
 H                     1.34832  -1.98325   11.15302 
 H                    -0.21066  -1.15199   11.0395 
 
 NAtoms=     40 NQM=       40 NQMF=       0 NMMI=      0 NMMIF=      0
                NMic=       0 NMicF=      0.
                    Isotopes and Nuclear Properties:
 (Nuclear quadrupole moments (NQMom) in fm**2, nuclear magnetic moments (NMagM)
  in nuclear magnetons)

  Atom         1           2           3           4           5           6           7           8           9          10
 IAtWgt=          12           1           1           1          14          12          12           1           1           1
 AtmWgt=  12.0000000   1.0078250   1.0078250   1.0078250  14.0030740  12.0000000  12.0000000   1.0078250   1.0078250   1.0078250
 NucSpn=           0           1           1           1           2           0           0           1           1           1
 AtZEff=   0.0000000   0.0000000   0.0000000   0.0000000   0.0000000   0.0000000   0.0000000   0.0000000   0.0000000   0.0000000
 NQMom=    0.0000000   0.0000000   0.0000000   0.0000000   2.0440000   0.0000000   0.0000000   0.0000000   0.0000000   0.0000000
 NMagM=    0.0000000   2.7928460   2.7928460   2.7928460   0.4037610   0.0000000   0.0000000   2.7928460   2.7928460   2.7928460
 AtZNuc=   6.0000000   1.0000000   1.0000000   1.0000000   7.0000000   6.0000000   6.0000000   1.0000000   1.0000000   1.0000000

  Atom        11          12          13          14          15          16          17          18          19          20
 IAtWgt=          12          12          12           1           1          12          12           1           1          12
 AtmWgt=  12.0000000  12.0000000  12.0000000   1.0078250   1.0078250  12.0000000  12.0000000   1.0078250   1.0078250  12.0000000
 NucSpn=           0           0           0           1           1           0           0           1           1           0
 AtZEff=   0.0000000   0.0000000   0.0000000   0.0000000   0.0000000   0.0000000   0.0000000   0.0000000   0.0000000   0.0000000
 NQMom=    0.0000000   0.0000000   0.0000000   0.0000000   0.0000000   0.0000000   0.0000000   0.0000000   0.0000000   0.0000000
 NMagM=    0.0000000   0.0000000   0.0000000   2.7928460   2.7928460   0.0000000   0.0000000   2.7928460   2.7928460   0.0000000
 AtZNuc=   6.0000000   6.0000000   6.0000000   1.0000000   1.0000000   6.0000000   6.0000000   1.0000000   1.0000000   6.0000000

  Atom        21          22          23          24          25          26          27          28          29          30
 IAtWgt=          12           1          12           1          12          16          12          12           1          12
 AtmWgt=  12.0000000   1.0078250  12.0000000   1.0078250  12.0000000  15.9949146  12.0000000  12.0000000   1.0078250  12.0000000
 NucSpn=           0           1           0           1           0           0           0           0           1           0
 AtZEff=   0.0000000   0.0000000   0.0000000   0.0000000   0.0000000   0.0000000   0.0000000   0.0000000   0.0000000   0.0000000
 NQMom=    0.0000000   0.0000000   0.0000000   0.0000000   0.0000000   0.0000000   0.0000000   0.0000000   0.0000000   0.0000000
 NMagM=    0.0000000   2.7928460   0.0000000   2.7928460   0.0000000   0.0000000   0.0000000   0.0000000   2.7928460   0.0000000
 AtZNuc=   6.0000000   1.0000000   6.0000000   1.0000000   6.0000000   8.0000000   6.0000000   6.0000000   1.0000000   6.0000000

  Atom        31          32          33          34          35          36          37          38          39          40
 IAtWgt=           1          16          12          12           1           1          12           1           1           1
 AtmWgt=   1.0078250  15.9949146  12.0000000  12.0000000   1.0078250   1.0078250  12.0000000   1.0078250   1.0078250   1.0078250
 NucSpn=           1           0           0           0           1           1           0           1           1           1
 AtZEff=   0.0000000   0.0000000   0.0000000   0.0000000   0.0000000   0.0000000   0.0000000   0.0000000   0.0000000   0.0000000
 NQMom=    0.0000000   0.0000000   0.0000000   0.0000000   0.0000000   0.0000000   0.0000000   0.0000000   0.0000000   0.0000000
 NMagM=    2.7928460   0.0000000   0.0000000   0.0000000   2.7928460   2.7928460   0.0000000   2.7928460   2.7928460   2.7928460
 AtZNuc=   1.0000000   8.0000000   6.0000000   6.0000000   1.0000000   1.0000000   6.0000000   1.0000000   1.0000000   1.0000000
 Leave Link  101 at Mon Nov 13 15:11:20 2017, MaxMem=  3758096384 cpu:         0.3
 (Enter /share/apps/gaussian/g09_D01/g09/l202.exe)
                          Input orientation:                          
 ---------------------------------------------------------------------
 Center     Atomic      Atomic             Coordinates (Angstroms)
 Number     Number       Type             X           Y           Z
 ---------------------------------------------------------------------
      1          6           0       -0.125143   -5.357144   -1.985949
      2          1           0       -0.527970   -4.338587   -1.872346
      3          1           0       -0.078757   -5.592973   -3.053307
      4          1           0        0.901309   -5.377715   -1.583273
      5          7           0       -0.969395   -6.334147   -1.315450
      6          6           0       -1.548169   -7.426475   -2.081782
      7          6           0       -1.162899   -6.267018    0.026685
      8          1           0       -1.112251   -8.398030   -1.797378
      9          1           0       -1.357464   -7.260637   -3.146910
     10          1           0       -2.637604   -7.469095   -1.932311
     11          6           0       -0.613448   -5.200221    0.796547
     12          6           0       -1.919540   -7.251077    0.721737
     13          6           0       -0.802158   -5.131367    2.157696
     14          1           0       -0.030978   -4.423285    0.307054
     15          1           0       -2.366223   -8.082073    0.181246
     16          6           0       -2.095476   -7.164898    2.086614
     17          6           0       -1.538425   -6.116474    2.856877
     18          1           0       -0.356477   -4.300802    2.704675
     19          1           0       -2.670615   -7.933390    2.604025
     20          6           0       -1.713370   -6.118159    4.273876
     21          6           0       -1.170938   -5.244528    5.174949
     22          1           0       -2.341859   -6.916192    4.679413
     23          6           0       -1.412104   -5.374186    6.588987
     24          1           0       -0.522910   -4.442175    4.829834
     25          6           0       -0.834666   -4.414747    7.540241
     26          8           0       -2.145271   -6.327694    7.041236
     27          6           0       -0.041568   -3.316385    7.151187
     28          6           0       -1.104932   -4.568739    8.934077
     29          1           0       -2.118704   -6.098184    8.506729
     30          6           0        0.442707   -2.407864    8.075713
     31          1           0        0.197759   -3.153208    6.101743
     32          8           0       -1.860380   -5.592924    9.381092
     33          6           0       -0.610224   -3.642246    9.856960
     34          6           0        0.149299   -2.550179    9.445643
     35          1           0        1.058887   -1.573371    7.742052
     36          1           0       -0.836367   -3.799543   10.911980
     37          6           0        0.630853   -1.539727   10.444646
     38          1           0        1.117354   -0.686698    9.954941
     39          1           0        1.348321   -1.983249   11.153018
     40          1           0       -0.210664   -1.151986   11.039504
 ---------------------------------------------------------------------
                    Distance matrix (angstroms):
                    1          2          3          4          5
     1  C    0.000000
     2  H    1.101196   0.000000
     3  H    1.094084   1.780434   0.000000
     4  H    1.102803   1.790583   1.779850   0.000000
     5  N    1.454945   2.118313   2.088713   2.118024   0.000000
     6  C    2.513229   3.258791   2.542590   3.232007   1.454450
     7  C    2.440390   2.779982   3.334074   2.764739   1.357673
     8  H    3.202644   4.101961   3.242501   3.636285   2.124212
     9  H    2.547495   3.294078   2.103558   3.330527   2.088834
    10  H    3.282632   3.775478   3.365139   4.125482   2.109869
    11  C    2.829373   2.805835   3.906600   2.826577   2.423431
    12  C    3.760107   4.141054   4.515390   4.096309   2.427688
    13  C    4.204654   4.116420   5.281187   4.117929   3.679319
    14  H    2.477665   2.236953   3.558438   2.313748   2.676666
    15  H    4.140581   4.648667   4.678723   4.593892   2.691927
    16  C    4.871956   5.110624   5.740809   5.063873   3.678620
    17  C    5.101658   5.152422   6.110234   5.119863   4.216573
    18  H    4.813660   4.580388   5.907723   4.596549   4.546599
    19  H    5.846737   6.127922   6.648360   6.068244   4.562238
    20  C    6.502847   6.507541   7.525649   6.456857   5.642758
    21  C    7.237737   7.134319   8.307736   7.070043   6.584312
    22  H    7.195242   7.270474   8.165017   7.218468   6.177444
    23  C    8.670991   8.570199   9.736504   8.493393   7.974813
    24  H    6.888417   6.702982   7.979068   6.635629   6.445419
    25  C    9.598949   9.417890  10.685639   9.336992   9.062313
    26  O    9.301234   9.274921  10.330058   9.195992   8.439012
    27  C    9.362635   9.094264  10.455426   9.023796   9.036133
    28  C   10.992203  10.824261  12.074745  10.737509  10.401338
    29  H   10.706060  10.646681  11.749513  10.556879   9.892006
    30  C   10.500369  10.180068  11.587577  10.115648  10.276365
    31  H    8.388824   8.094313   9.478600   8.031369   8.154470
    32  O   11.501142  11.401252  12.561388  11.308870  10.759149
    33  C   11.976255  11.750246  13.067624  11.669427  11.497742
    34  C   11.774365  11.478413  12.866016  11.410410  11.461719
    35  H   10.504897  10.129224  11.575457  10.072713  10.431551
    36  H   13.011093  12.799401  14.100341  12.713831  12.488073
    37  C   13.025509  12.684036  14.111240  12.628307  12.800278
    38  H   12.881837  12.487117  13.954094  12.457235  12.777712
    39  H   13.645025  13.368926  14.727061  13.188454  13.407640
    40  H   13.687699  13.303044  14.776572  13.357686  13.419216
                    6          7          8          9         10
     6  C    0.000000
     7  C    2.436885   0.000000
     8  H    1.102193   2.805527   0.000000
     9  H    1.094700   3.331192   1.781861   0.000000
    10  H    1.100467   2.730826   1.791041   1.776925   0.000000
    11  C    3.756952   1.425707   4.147678   4.511067   4.085543
    12  C    2.833443   1.422665   2.883255   3.909277   2.758101
    13  C    4.878240   2.441525   5.139052   5.742909   5.055887
    14  H    4.126446   2.181560   4.625622   4.662617   4.591973
    15  H    2.494056   2.183186   2.363732   3.573370   2.217321
    16  C    4.212303   2.432940   4.191985   5.286171   4.066718
    17  C    5.109457   2.858963   5.200886   6.114517   5.096479
    18  H    5.839532   3.418765   6.134081   6.633524   6.061622
    19  H    4.844960   3.419457   4.692200   5.937189   4.560154
    20  C    6.491022   4.285301   6.513009   7.516648   6.418411
    21  C    7.587051   5.248826   7.652540   8.564626   7.590320
    22  H    6.826719   4.843475   6.756967   7.895506   6.641390
    23  C    8.911377   6.627447   8.919903   9.917125   8.860193
    24  H    7.597871   5.177826   7.740546   8.501097   7.704595
    25  C   10.107567   7.745461  10.155527  11.071929  10.114785
    26  O    9.208328   7.083266   9.136439  10.261059   9.059235
    27  C   10.218141   7.792442  10.346318  11.105832  10.319609
    28  C   11.389129   9.068029  11.394194  12.379836  11.350750
    29  H   10.686741   8.535409  10.605511  11.736187  10.541452
    30  C   11.503249   9.069614  11.652378  12.358693  11.630345
    31  H    9.395699   6.960857   9.571854  10.238519   9.550507
    32  O   11.612789   9.404563  11.549308  12.648519  11.494224
    33  C   12.559207  10.189661  12.597345  13.518571  12.559536
    34  C   12.630961  10.210462  12.735556  13.528900  12.705133
    35  H   11.728737   9.300190  11.928560  12.520113  11.917085
    36  H   13.509225  11.166230  13.518505  14.488033  13.479090
    37  C   14.011186  11.580101  14.140081  14.879940  14.107774
    38  H   14.050349  11.615067  14.232104  14.866065  14.191807
    39  H   14.600627  12.184096  14.660034  15.480957  14.737976
    40  H   14.605693  12.180004  14.768329  15.488225  14.630922
                   11         12         13         14         15
    11  C    0.000000
    12  C    2.432588   0.000000
    13  C    1.375892   2.793509   0.000000
    14  H    1.087430   3.425644   2.126258   0.000000
    15  H    3.428686   1.087295   3.880634   4.342341   0.000000
    16  C    2.778603   1.378865   2.411011   3.865932   2.131887
    17  C    2.437224   2.447733   1.414701   3.411874   3.421671
    18  H    2.125074   3.883212   1.089796   2.422713   4.970391
    19  H    3.868995   2.138381   3.397304   4.956268   2.446348
    20  C    3.760885   3.734127   2.506448   4.630196   4.586153
    21  C    4.413974   4.941431   3.041812   5.066592   5.866638
    22  H    4.583515   3.994208   3.451860   5.538256   4.646868
    23  C    5.849827   6.181006   4.479658   6.501877   7.021548
    24  H    4.104904   5.168846   2.773677   4.549494   6.185146
    25  C    6.792887   7.464162   5.430137   7.277704   8.363597
    26  O    6.527926   6.390591   5.204240   7.310692   7.084217
    27  C    6.652619   7.768295   5.367272   6.933073   8.757618
    28  C    8.176779   8.677618   6.806435   8.694829   9.515588
    29  H    7.906898   7.872416   6.555780   8.625460   8.562170
    30  C    7.867590   9.116901   6.632502   8.039799  10.119750
    31  H    5.743990   7.086604   4.524208   5.936652   8.119113
    32  O    8.683517   8.816882   7.315075   9.330216   9.544051
    33  C    9.193388   9.909100   7.844296   9.599284  10.789580
    34  C    9.078071  10.123491   7.789864   9.330318  11.079655
    35  H    8.011915   9.507481   6.878071   8.036729  10.548003
    36  H   10.214381  10.813298   8.855078  10.653739  11.654577
    37  C   10.393908  11.561098   9.144777  10.560478  12.534837
    38  H   10.355856  11.728847   9.178052  10.409730  12.741742
    39  H   11.020614  12.134272   9.769904  11.202284  13.090961
    40  H   11.021280  12.106836   9.750480  11.221371  13.060410
                   16         17         18         19         20
    16  C    0.000000
    17  C    1.415205   0.000000
    18  H    3.407222   2.171827   0.000000
    19  H    1.090449   2.155684   4.308255   0.000000
    20  C    2.454747   1.427759   2.757959   2.645710   0.000000
    21  C    3.752387   2.503756   2.766987   4.011067   1.367259
    22  H    2.616327   2.146321   3.831657   2.334525   1.093762
    23  C    4.893364   3.807308   4.165859   4.900336   2.450305
    24  H    4.172702   2.779767   2.136349   4.664273   2.129602
    25  C    6.236587   5.032400   4.860488   6.333860   3.787199
    26  O    5.025104   4.233407   5.110170   4.747956   2.808687
    27  C    6.684272   5.340616   4.565054   6.993233   4.350147
    28  C    7.389788   6.286156   6.279922   7.337697   4.948573
    29  H    6.508171   5.679603   6.324544   6.206005   4.252263
    30  C    8.058601   6.701860   5.750649   8.376370   5.733142
    31  H    6.121588   4.724874   3.628253   6.581166   3.972964
    32  O    7.465640   6.553102   6.964614   7.215462   5.136257
    33  C    8.659869   7.482281   7.187021   8.675494   6.206279
    34  C    8.971619   7.679760   6.982918   9.150880   6.553411
    35  H    8.555651   7.158963   5.900619   8.986565   6.353641
    36  H    9.528801   8.411049   8.236590   9.459137   7.085869
    37  C   10.437055   9.122862   8.276805  10.642084   8.033419
    38  H   10.686436   9.322990   8.234093  10.995418   8.353937
    39  H   10.995859   9.707873   8.924791  11.164287   8.590345
    40  H   10.948144   9.662529   8.910986  11.099374   8.526120
                   21         22         23         24         25
    21  C    0.000000
    22  H    2.100255   0.000000
    23  C    1.440304   2.624633   0.000000
    24  H    1.087573   3.074404   2.180351   0.000000
    25  C    2.529075   4.088177   1.469300   2.728415   0.000000
    26  O    2.367615   2.441963   1.285006   3.328293   2.371931
    27  C    2.983074   4.935546   2.535544   2.624457   1.409527
    28  C    3.819960   5.014249   2.498509   4.147237   1.428123
    29  H    3.567597   3.920113   2.168223   4.336875   2.327405
    30  C    4.366342   6.293940   3.801282   3.950515   2.438440
    31  H    2.665689   4.757387   2.786002   1.948987   2.174088
    32  O    4.276488   4.908019   2.836309   4.881291   2.414316
    33  C    4.980254   6.365868   3.784478   5.091120   2.452411
    34  C    5.219327   6.927112   4.309696   5.033608   2.841717
    35  H    5.003952   7.034953   4.677772   4.383279   3.420481
    36  H    5.925660   7.129158   4.636728   6.124029   3.427405
    37  C    6.688924   8.425040   5.808860   6.425067   4.341550
    38  H    6.989880   8.865887   6.300821   6.562072   4.851753
    39  H    7.260848   8.936382   6.320505   7.037789   4.871321
    40  H    7.215541   8.844140   6.251202   7.034404   4.824918
                   26         27         28         29         30
    26  O    0.000000
    27  C    3.675002   0.000000
    28  C    2.785512   2.424424   0.000000
    29  H    1.483594   3.726982   1.884028   0.000000
    30  C    4.809661   1.383720   2.793091   4.512767   0.000000
    31  H    4.055835   1.088686   3.423864   4.452285   2.124169
    32  O    2.469003   3.669221   1.348881   1.042367   4.141598
    33  C    4.182858   2.784019   1.398155   3.182808   2.409399
    34  C    5.031485   2.426526   2.430922   4.314364   1.408208
    35  H    5.775929   2.144346   3.882688   5.581733   1.089672
    36  H    4.804939   3.874108   2.139133   3.565581   3.408403
    37  C    6.497283   3.802044   3.803904   5.665255   2.530001
    38  H    7.138294   4.014896   4.588133   6.469434   2.636107
    39  H    6.927203   4.441137   4.198441   5.996315   3.235775
    40  H    6.820323   4.453339   4.111781   5.875410   3.284537
                   31         32         33         34         35
    31  H    0.000000
    32  O    4.576274   0.000000
    33  C    3.872163   2.365266   0.000000
    34  C    3.398185   3.647091   1.392360   0.000000
    35  H    2.434757   5.231193   3.396912   2.164192   0.000000
    36  H    4.962413   2.570688   1.090390   2.163930   4.312340
    37  C    4.653138   4.875017   2.511221   1.500305   2.736487
    38  H    4.666526   5.767777   3.424820   2.160805   2.384635
    39  H    5.311118   5.144438   2.875402   2.161988   3.447675
    40  H    5.343518   5.019345   2.785580   2.150560   3.558443
                   36         37         38         39         40
    36  H    0.000000
    37  C    2.734576   0.000000
    38  H    3.797730   1.097339   0.000000
    39  H    2.851295   1.101482   1.780387   0.000000
    40  H    2.723477   1.101068   1.776626   1.770400   0.000000
 Symmetry turned off by external request.
 Stoichiometry    C18H19NO2
 Framework group  C1[X(C18H19NO2)]
 Deg. of freedom   114
 Full point group                 C1      NOp   1
 Rotational constants (GHZ):      0.9172188      0.0943299      0.0857040
 Leave Link  202 at Mon Nov 13 15:11:20 2017, MaxMem=  3758096384 cpu:         0.0
 (Enter /share/apps/gaussian/g09_D01/g09/l301.exe)
 Standard basis: 6-311++G(d,p) (5D, 7F)
 Ernie: Thresh=  0.10000D-02 Tol=  0.10000D-05 Strict=F.
   595 basis functions,   927 primitive gaussians,   616 cartesian basis functions
    75 alpha electrons       75 beta electrons
       nuclear repulsion energy      1472.4287751453 Hartrees.
 IExCor= 4639 DFT=T Ex+Corr=wB97XD ExCW=0 ScaHFX=  1.000000
 ScaDFX=  1.000000  1.000000  1.000000  1.000000 ScalE2=  1.000000  1.000000
 IRadAn=      0 IRanWt=     -1 IRanGd=            0 ICorTp=0 IEmpDi=121
  HFx wShort=  0.000000 wLong=  0.200000 cFull=  0.222036 cShort=  0.000000 cLong=  0.777964
  DFx wShort=  0.000000 wLong=  0.200000 cFull=  0.000000 cShort=  0.000000 cLong=  1.000000
 NAtoms=   40 NActive=   40 NUniq=   40 SFac= 1.00D+00 NAtFMM=   60 NAOKFM=F Big=F
 Integral buffers will be    131072 words long.
 Raffenetti 1 integral format.
 Two-electron integral symmetry is turned off.
 R6Disp:  Grimme-D2 Dispersion energy=       -0.0251655498 Hartrees.
 Nuclear repulsion after empirical dispersion term =     1472.4036095955 Hartrees.
 Leave Link  301 at Mon Nov 13 15:11:20 2017, MaxMem=  3758096384 cpu:         0.1
 (Enter /share/apps/gaussian/g09_D01/g09/l302.exe)
 NPDir=0 NMtPBC=     1 NCelOv=     1 NCel=       1 NClECP=     1 NCelD=      1
         NCelK=      1 NCelE2=     1 NClLst=     1 CellRange=     0.0.
 One-electron integrals computed using PRISM.
 NBasis=   595 RedAO= T EigKep=  1.45D-06  NBF=   595
 NBsUse=   587 1.00D-06 EigRej=  7.95D-07 NBFU=   587
 Precomputing XC quadrature grid using
 IXCGrd= 4 IRadAn=           0 IRanWt=          -1 IRanGd=           0 AccXCQ= 0.00D+00.
 Generated NRdTot=       0 NPtTot=           0 NUsed=           0 NTot=          32
 NSgBfM=   598   598   598   598   598 MxSgAt=    40 MxSgA2=    40.
 Leave Link  302 at Mon Nov 13 15:11:21 2017, MaxMem=  3758096384 cpu:         3.6
 (Enter /share/apps/gaussian/g09_D01/g09/l308.exe)
 Leave Link  308 at Mon Nov 13 15:11:21 2017, MaxMem=  3758096384 cpu:         0.4
 (Enter /share/apps/gaussian/g09_D01/g09/l303.exe)
 DipDrv:  MaxL=1.
 Leave Link  303 at Mon Nov 13 15:11:21 2017, MaxMem=  3758096384 cpu:         0.3
 (Enter /share/apps/gaussian/g09_D01/g09/l401.exe)
 ExpMin= 3.60D-02 ExpMax= 8.59D+03 ExpMxC= 1.30D+03 IAcc=3 IRadAn=         5 AccDes= 0.00D+00
 Harris functional with IExCor= 4639 and IRadAn=       5 diagonalized for initial guess.
 HarFok:  IExCor= 4639 AccDes= 0.00D+00 IRadAn=         5 IDoV= 1 UseB2=F ITyADJ=14
 ICtDFT=  3500011 ScaDFX=  1.000000  1.000000  1.000000  1.000000
 FoFCou: FMM=F IPFlag=           0 FMFlag=      100000 FMFlg1=           0
         NFxFlg=           0 DoJE=T BraDBF=F KetDBF=T FulRan=T
         wScrn=  0.000000 ICntrl=     500 IOpCl=  0 I1Cent=   200000004 NGrid=           0
         NMat0=    1 NMatS0=      1 NMatT0=    0 NMatD0=    1 NMtDS0=    0 NMtDT0=    0
 Symmetry not used in FoFCou.
 Harris En= -862.833670388777    
 JPrj=0 DoOrth=F DoCkMO=F.
 Leave Link  401 at Mon Nov 13 15:11:32 2017, MaxMem=  3758096384 cpu:        44.6
 (Enter /share/apps/gaussian/g09_D01/g09/l502.exe)
 Closed shell SCF:
 Using DIIS extrapolation, IDIIS=  1040.
 Two-electron integral symmetry not used.
 IVT=     1164390 IEndB=     1164390 NGot=  3758096384 MDV=  3757328707
 LenX=  3757328707 LenY=  3756948635
 Requested convergence on RMS density matrix=1.00D-08 within 128 cycles.
 Requested convergence on MAX density matrix=1.00D-06.
 Requested convergence on             energy=1.00D-06.
 No special actions if energy rises.
 Fock matrices will be formed incrementally for  20 cycles.

 Cycle   1  Pass 1  IDiag  1:
 FoFJK:  IHMeth= 1 ICntrl=       0 DoSepK=T KAlg= 0 I1Cent=   0 FoldK=F
 IRaf=         1 NMat=   1 IRICut=       1 DoRegI=T DoRafI=F ISym2E= 0.
 FoFCou: FMM=F IPFlag=           0 FMFlag=      100000 FMFlg1=           0
         NFxFlg=           0 DoJE=T BraDBF=F KetDBF=F FulRan=T
         wScrn=  0.000000 ICntrl=     500 IOpCl=  0 I1Cent=           0 NGrid=           0
         NMat0=    1 NMatS0=      1 NMatT0=    0 NMatD0=    1 NMtDS0=    0 NMtDT0=    0
 Symmetry not used in FoFCou.
 E= -902.181018331644    
 DIIS: error= 6.48D-02 at cycle   1 NSaved=   1.
 NSaved= 1 IEnMin= 1 EnMin= -902.181018331644     IErMin= 1 ErrMin= 6.48D-02
 ErrMax= 6.48D-02  0.00D+00 EMaxC= 1.00D-01 BMatC= 1.95D+00 BMatP= 1.95D+00
 IDIUse=3 WtCom= 3.52D-01 WtEn= 6.48D-01
 Coeff-Com:  0.100D+01
 Coeff-En:   0.100D+01
 Coeff:      0.100D+01
 Gap=     0.283 Goal=   None    Shift=    0.000
 GapD=    0.283 DampG=1.000 DampE=0.500 DampFc=0.5000 IDamp=-1.
 Damping current iteration by 5.00D-01
 RMSDP=1.67D-02 MaxDP=1.62D+00              OVMax= 1.97D-01

 Cycle   2  Pass 1  IDiag  1:
 RMSU=  2.99D-03    CP:  8.24D-01
 E= -902.315308190182     Delta-E=       -0.134289858538 Rises=F Damp=T
 DIIS: error= 3.01D-02 at cycle   2 NSaved=   2.
 NSaved= 2 IEnMin= 2 EnMin= -902.315308190182     IErMin= 2 ErrMin= 3.01D-02
 ErrMax= 3.01D-02  0.00D+00 EMaxC= 1.00D-01 BMatC= 4.13D-01 BMatP= 1.95D+00
 IDIUse=3 WtCom= 6.99D-01 WtEn= 3.01D-01
 Coeff-Com: -0.591D+00 0.159D+01
 Coeff-En:   0.000D+00 0.100D+01
 Coeff:     -0.413D+00 0.141D+01
 Gap=     0.277 Goal=   None    Shift=    0.000
 RMSDP=9.20D-03 MaxDP=9.97D-01 DE=-1.34D-01 OVMax= 2.22D-01

 Cycle   3  Pass 1  IDiag  1:
 RMSU=  3.66D-03    CP:  6.35D-01  1.43D+00
 E= -902.372875469373     Delta-E=       -0.057567279191 Rises=F Damp=F
 DIIS: error= 2.41D-02 at cycle   3 NSaved=   3.
 NSaved= 3 IEnMin= 3 EnMin= -902.372875469373     IErMin= 3 ErrMin= 2.41D-02
 ErrMax= 2.41D-02  0.00D+00 EMaxC= 1.00D-01 BMatC= 1.23D-01 BMatP= 4.13D-01
 IDIUse=3 WtCom= 7.59D-01 WtEn= 2.41D-01
 Coeff-Com: -0.371D+00 0.797D+00 0.573D+00
 Coeff-En:   0.000D+00 0.166D+00 0.834D+00
 Coeff:     -0.281D+00 0.645D+00 0.636D+00
 Gap=     0.274 Goal=   None    Shift=    0.000
 RMSDP=2.72D-03 MaxDP=1.44D-01 DE=-5.76D-02 OVMax= 1.08D-01

 Cycle   4  Pass 1  IDiag  1:
 RMSU=  1.11D-03    CP:  6.04D-01  1.69D+00  4.77D-01
 E= -902.467692532897     Delta-E=       -0.094817063524 Rises=F Damp=F
 DIIS: error= 6.27D-03 at cycle   4 NSaved=   4.
 NSaved= 4 IEnMin= 4 EnMin= -902.467692532897     IErMin= 4 ErrMin= 6.27D-03
 ErrMax= 6.27D-03  0.00D+00 EMaxC= 1.00D-01 BMatC= 1.46D-02 BMatP= 1.23D-01
 IDIUse=3 WtCom= 9.37D-01 WtEn= 6.27D-02
 Coeff-Com: -0.138D+00 0.297D+00 0.362D+00 0.478D+00
 Coeff-En:   0.000D+00 0.000D+00 0.576D-01 0.942D+00
 Coeff:     -0.129D+00 0.278D+00 0.343D+00 0.507D+00
 Gap=     0.241 Goal=   None    Shift=    0.000
 RMSDP=7.58D-04 MaxDP=4.15D-02 DE=-9.48D-02 OVMax= 2.74D-02

 Cycle   5  Pass 1  IDiag  1:
 RMSU=  2.82D-04    CP:  6.11D-01  1.67D+00  6.26D-01  7.01D-01
 E= -902.479528259263     Delta-E=       -0.011835726366 Rises=F Damp=F
 DIIS: error= 9.52D-04 at cycle   5 NSaved=   5.
 NSaved= 5 IEnMin= 5 EnMin= -902.479528259263     IErMin= 5 ErrMin= 9.52D-04
 ErrMax= 9.52D-04  0.00D+00 EMaxC= 1.00D-01 BMatC= 1.96D-04 BMatP= 1.46D-02
 IDIUse=3 WtCom= 9.90D-01 WtEn= 9.52D-03
 Coeff-Com:  0.157D-01-0.335D-01 0.214D-01 0.159D+00 0.837D+00
 Coeff-En:   0.000D+00 0.000D+00 0.000D+00 0.000D+00 0.100D+01
 Coeff:      0.155D-01-0.332D-01 0.212D-01 0.157D+00 0.839D+00
 Gap=     0.241 Goal=   None    Shift=    0.000
 RMSDP=2.61D-04 MaxDP=1.64D-02 DE=-1.18D-02 OVMax= 8.50D-03

 Cycle   6  Pass 1  IDiag  1:
 RMSU=  1.36D-04    CP:  6.08D-01  1.66D+00  6.18D-01  8.62D-01  1.07D+00
 E= -902.479774820005     Delta-E=       -0.000246560742 Rises=F Damp=F
 DIIS: error= 6.70D-04 at cycle   6 NSaved=   6.
 NSaved= 6 IEnMin= 6 EnMin= -902.479774820005     IErMin= 6 ErrMin= 6.70D-04
 ErrMax= 6.70D-04  0.00D+00 EMaxC= 1.00D-01 BMatC= 6.75D-05 BMatP= 1.96D-04
 IDIUse=3 WtCom= 9.93D-01 WtEn= 6.70D-03
 Coeff-Com:  0.278D-01-0.598D-01-0.444D-01-0.478D-02 0.441D+00 0.640D+00
 Coeff-En:   0.000D+00 0.000D+00 0.000D+00 0.000D+00 0.000D+00 0.100D+01
 Coeff:      0.276D-01-0.594D-01-0.441D-01-0.475D-02 0.438D+00 0.643D+00
 Gap=     0.242 Goal=   None    Shift=    0.000
 RMSDP=6.02D-05 MaxDP=4.84D-03 DE=-2.47D-04 OVMax= 4.85D-03

 Cycle   7  Pass 1  IDiag  1:
 RMSU=  4.38D-05    CP:  6.08D-01  1.67D+00  6.22D-01  8.70D-01  1.20D+00
                    CP:  1.04D+00
 E= -902.479858179124     Delta-E=       -0.000083359120 Rises=F Damp=F
 DIIS: error= 1.44D-04 at cycle   7 NSaved=   7.
 NSaved= 7 IEnMin= 7 EnMin= -902.479858179124     IErMin= 7 ErrMin= 1.44D-04
 ErrMax= 1.44D-04  0.00D+00 EMaxC= 1.00D-01 BMatC= 4.62D-06 BMatP= 6.75D-05
 IDIUse=3 WtCom= 9.99D-01 WtEn= 1.44D-03
 Coeff-Com:  0.276D-02-0.592D-02-0.954D-02-0.189D-01-0.239D-01 0.165D+00
 Coeff-Com:  0.891D+00
 Coeff-En:   0.000D+00 0.000D+00 0.000D+00 0.000D+00 0.000D+00 0.000D+00
 Coeff-En:   0.100D+01
 Coeff:      0.275D-02-0.592D-02-0.953D-02-0.189D-01-0.238D-01 0.165D+00
 Coeff:      0.891D+00
 Gap=     0.242 Goal=   None    Shift=    0.000
 RMSDP=3.61D-05 MaxDP=3.56D-03 DE=-8.34D-05 OVMax= 2.63D-03

 Cycle   8  Pass 1  IDiag  1:
 RMSU=  2.02D-05    CP:  6.08D-01  1.66D+00  6.20D-01  8.85D-01  1.24D+00
                    CP:  1.18D+00  1.08D+00
 E= -902.479870213001     Delta-E=       -0.000012033877 Rises=F Damp=F
 DIIS: error= 8.18D-05 at cycle   8 NSaved=   8.
 NSaved= 8 IEnMin= 8 EnMin= -902.479870213001     IErMin= 8 ErrMin= 8.18D-05
 ErrMax= 8.18D-05  0.00D+00 EMaxC= 1.00D-01 BMatC= 1.33D-06 BMatP= 4.62D-06
 IDIUse=1 WtCom= 1.00D+00 WtEn= 0.00D+00
 Coeff-Com: -0.314D-02 0.680D-02 0.246D-02-0.994D-02-0.945D-01-0.251D-01
 Coeff-Com:  0.423D+00 0.700D+00
 Coeff:     -0.314D-02 0.680D-02 0.246D-02-0.994D-02-0.945D-01-0.251D-01
 Coeff:      0.423D+00 0.700D+00
 Gap=     0.242 Goal=   None    Shift=    0.000
 RMSDP=1.44D-05 MaxDP=1.34D-03 DE=-1.20D-05 OVMax= 1.43D-03

 Cycle   9  Pass 1  IDiag  1:
 RMSU=  8.06D-06    CP:  6.08D-01  1.66D+00  6.19D-01  8.90D-01  1.26D+00
                    CP:  1.23D+00  1.21D+00  1.15D+00
 E= -902.479873357150     Delta-E=       -0.000003144148 Rises=F Damp=F
 DIIS: error= 3.28D-05 at cycle   9 NSaved=   9.
 NSaved= 9 IEnMin= 9 EnMin= -902.479873357150     IErMin= 9 ErrMin= 3.28D-05
 ErrMax= 3.28D-05  0.00D+00 EMaxC= 1.00D-01 BMatC= 1.44D-07 BMatP= 1.33D-06
 IDIUse=1 WtCom= 1.00D+00 WtEn= 0.00D+00
 Coeff-Com: -0.130D-02 0.278D-02 0.281D-02 0.127D-02-0.205D-01-0.339D-01
 Coeff-Com: -0.764D-01 0.142D+00 0.983D+00
 Coeff:     -0.130D-02 0.278D-02 0.281D-02 0.127D-02-0.205D-01-0.339D-01
 Coeff:     -0.764D-01 0.142D+00 0.983D+00
 Gap=     0.242 Goal=   None    Shift=    0.000
 RMSDP=8.59D-06 MaxDP=6.70D-04 DE=-3.14D-06 OVMax= 7.66D-04

 Cycle  10  Pass 1  IDiag  1:
 RMSU=  4.51D-06    CP:  6.08D-01  1.66D+00  6.19D-01  8.91D-01  1.27D+00
                    CP:  1.26D+00  1.27D+00  1.36D+00  1.29D+00
 E= -902.479873958659     Delta-E=       -0.000000601510 Rises=F Damp=F
 DIIS: error= 1.07D-05 at cycle  10 NSaved=  10.
 NSaved=10 IEnMin=10 EnMin= -902.479873958659     IErMin=10 ErrMin= 1.07D-05
 ErrMax= 1.07D-05  0.00D+00 EMaxC= 1.00D-01 BMatC= 2.53D-08 BMatP= 1.44D-07
 IDIUse=1 WtCom= 1.00D+00 WtEn= 0.00D+00
 Coeff-Com:  0.147D-03-0.323D-03 0.460D-03 0.200D-02 0.755D-02-0.575D-02
 Coeff-Com: -0.910D-01-0.578D-01 0.330D+00 0.815D+00
 Coeff:      0.147D-03-0.323D-03 0.460D-03 0.200D-02 0.755D-02-0.575D-02
 Coeff:     -0.910D-01-0.578D-01 0.330D+00 0.815D+00
 Gap=     0.242 Goal=   None    Shift=    0.000
 RMSDP=2.86D-06 MaxDP=1.68D-04 DE=-6.02D-07 OVMax= 2.63D-04

 Cycle  11  Pass 1  IDiag  1:
 RMSU=  1.36D-06    CP:  6.08D-01  1.66D+00  6.19D-01  8.91D-01  1.27D+00
                    CP:  1.27D+00  1.28D+00  1.43D+00  1.48D+00  1.08D+00
 E= -902.479874036345     Delta-E=       -0.000000077685 Rises=F Damp=F
 DIIS: error= 6.18D-06 at cycle  11 NSaved=  11.
 NSaved=11 IEnMin=11 EnMin= -902.479874036345     IErMin=11 ErrMin= 6.18D-06
 ErrMax= 6.18D-06  0.00D+00 EMaxC= 1.00D-01 BMatC= 5.01D-09 BMatP= 2.53D-08
 IDIUse=1 WtCom= 1.00D+00 WtEn= 0.00D+00
 Coeff-Com:  0.263D-03-0.564D-03-0.277D-03 0.669D-03 0.608D-02 0.374D-02
 Coeff-Com: -0.167D-01-0.419D-01-0.708D-01 0.281D+00 0.839D+00
 Coeff:      0.263D-03-0.564D-03-0.277D-03 0.669D-03 0.608D-02 0.374D-02
 Coeff:     -0.167D-01-0.419D-01-0.708D-01 0.281D+00 0.839D+00
 Gap=     0.242 Goal=   None    Shift=    0.000
 RMSDP=1.18D-06 MaxDP=8.92D-05 DE=-7.77D-08 OVMax= 8.61D-05

 Cycle  12  Pass 1  IDiag  1:
 RMSU=  7.52D-07    CP:  6.08D-01  1.66D+00  6.19D-01  8.92D-01  1.27D+00
                    CP:  1.27D+00  1.28D+00  1.45D+00  1.54D+00  1.11D+00
                    CP:  1.23D+00
 E= -902.479874049435     Delta-E=       -0.000000013090 Rises=F Damp=F
 DIIS: error= 2.36D-06 at cycle  12 NSaved=  12.
 NSaved=12 IEnMin=12 EnMin= -902.479874049435     IErMin=12 ErrMin= 2.36D-06
 ErrMax= 2.36D-06  0.00D+00 EMaxC= 1.00D-01 BMatC= 7.33D-10 BMatP= 5.01D-09
 IDIUse=1 WtCom= 1.00D+00 WtEn= 0.00D+00
 Coeff-Com:  0.641D-04-0.135D-03-0.148D-03-0.148D-04 0.101D-02 0.185D-02
 Coeff-Com:  0.929D-02-0.456D-02-0.745D-01-0.387D-01 0.271D+00 0.835D+00
 Coeff:      0.641D-04-0.135D-03-0.148D-03-0.148D-04 0.101D-02 0.185D-02
 Coeff:      0.929D-02-0.456D-02-0.745D-01-0.387D-01 0.271D+00 0.835D+00
 Gap=     0.242 Goal=   None    Shift=    0.000
 RMSDP=3.79D-07 MaxDP=1.94D-05 DE=-1.31D-08 OVMax= 2.81D-05

 Cycle  13  Pass 1  IDiag  1:
 RMSU=  1.88D-07    CP:  6.08D-01  1.66D+00  6.19D-01  8.92D-01  1.27D+00
                    CP:  1.27D+00  1.28D+00  1.45D+00  1.56D+00  1.14D+00
                    CP:  1.36D+00  1.15D+00
 E= -902.479874051246     Delta-E=       -0.000000001811 Rises=F Damp=F
 DIIS: error= 9.98D-07 at cycle  13 NSaved=  13.
 NSaved=13 IEnMin=13 EnMin= -902.479874051246     IErMin=13 ErrMin= 9.98D-07
 ErrMax= 9.98D-07  0.00D+00 EMaxC= 1.00D-01 BMatC= 2.10D-10 BMatP= 7.33D-10
 IDIUse=1 WtCom= 1.00D+00 WtEn= 0.00D+00
 Coeff-Com: -0.131D-04 0.287D-04-0.283D-04-0.134D-03-0.576D-03 0.128D-03
 Coeff-Com:  0.766D-02 0.459D-02-0.231D-01-0.695D-01-0.182D-01 0.412D+00
 Coeff-Com:  0.687D+00
 Coeff:     -0.131D-04 0.287D-04-0.283D-04-0.134D-03-0.576D-03 0.128D-03
 Coeff:      0.766D-02 0.459D-02-0.231D-01-0.695D-01-0.182D-01 0.412D+00
 Coeff:      0.687D+00
 Gap=     0.242 Goal=   None    Shift=    0.000
 RMSDP=1.74D-07 MaxDP=1.04D-05 DE=-1.81D-09 OVMax= 9.96D-06

 Cycle  14  Pass 1  IDiag  1:
 RMSU=  1.07D-07    CP:  6.08D-01  1.66D+00  6.19D-01  8.92D-01  1.27D+00
                    CP:  1.27D+00  1.28D+00  1.45D+00  1.57D+00  1.15D+00
                    CP:  1.39D+00  1.26D+00  1.11D+00
 E= -902.479874051647     Delta-E=       -0.000000000402 Rises=F Damp=F
 DIIS: error= 3.64D-07 at cycle  14 NSaved=  14.
 NSaved=14 IEnMin=14 EnMin= -902.479874051647     IErMin=14 ErrMin= 3.64D-07
 ErrMax= 3.64D-07  0.00D+00 EMaxC= 1.00D-01 BMatC= 1.14D-11 BMatP= 2.10D-10
 IDIUse=1 WtCom= 1.00D+00 WtEn= 0.00D+00
 Coeff-Com: -0.993D-05 0.210D-04 0.106D-04-0.377D-04-0.245D-03-0.241D-03
 Coeff-Com:  0.340D-03 0.100D-02 0.605D-02-0.828D-02-0.394D-01-0.195D-01
 Coeff-Com:  0.975D-01 0.963D+00
 Coeff:     -0.993D-05 0.210D-04 0.106D-04-0.377D-04-0.245D-03-0.241D-03
 Coeff:      0.340D-03 0.100D-02 0.605D-02-0.828D-02-0.394D-01-0.195D-01
 Coeff:      0.975D-01 0.963D+00
 Gap=     0.242 Goal=   None    Shift=    0.000
 RMSDP=7.73D-08 MaxDP=3.07D-06 DE=-4.02D-10 OVMax= 5.43D-06

 Cycle  15  Pass 1  IDiag  1:
 RMSU=  2.76D-08    CP:  6.08D-01  1.66D+00  6.19D-01  8.92D-01  1.27D+00
                    CP:  1.27D+00  1.28D+00  1.45D+00  1.57D+00  1.14D+00
                    CP:  1.39D+00  1.30D+00  1.27D+00  1.22D+00
 E= -902.479874051596     Delta-E=        0.000000000051 Rises=F Damp=F
 DIIS: error= 1.31D-07 at cycle  15 NSaved=  15.
 NSaved=15 IEnMin=14 EnMin= -902.479874051647     IErMin=15 ErrMin= 1.31D-07
 ErrMax= 1.31D-07  0.00D+00 EMaxC= 1.00D-01 BMatC= 2.31D-12 BMatP= 1.14D-11
 IDIUse=1 WtCom= 1.00D+00 WtEn= 0.00D+00
 Coeff-Com: -0.262D-05 0.549D-05 0.743D-05 0.149D-05-0.133D-04-0.927D-04
 Coeff-Com: -0.674D-03-0.291D-03 0.448D-02 0.514D-02-0.113D-01-0.476D-01
 Coeff-Com: -0.629D-01 0.286D+00 0.827D+00
 Coeff:     -0.262D-05 0.549D-05 0.743D-05 0.149D-05-0.133D-04-0.927D-04
 Coeff:     -0.674D-03-0.291D-03 0.448D-02 0.514D-02-0.113D-01-0.476D-01
 Coeff:     -0.629D-01 0.286D+00 0.827D+00
 Gap=     0.242 Goal=   None    Shift=    0.000
 RMSDP=2.56D-08 MaxDP=1.31D-06 DE= 5.14D-11 OVMax= 2.06D-06

 Cycle  16  Pass 1  IDiag  1:
 RMSU=  1.10D-08    CP:  6.08D-01  1.66D+00  6.19D-01  8.92D-01  1.27D+00
                    CP:  1.27D+00  1.28D+00  1.45D+00  1.57D+00  1.14D+00
                    CP:  1.39D+00  1.32D+00  1.30D+00  1.37D+00  1.23D+00
 E= -902.479874051653     Delta-E=       -0.000000000057 Rises=F Damp=F
 DIIS: error= 6.01D-08 at cycle  16 NSaved=  16.
 NSaved=16 IEnMin=16 EnMin= -902.479874051653     IErMin=16 ErrMin= 6.01D-08
 ErrMax= 6.01D-08  0.00D+00 EMaxC= 1.00D-01 BMatC= 4.07D-13 BMatP= 2.31D-12
 IDIUse=1 WtCom= 1.00D+00 WtEn= 0.00D+00
 Coeff-Com:  0.110D-05-0.234D-05-0.574D-06 0.658D-05 0.454D-04 0.172D-04
 Coeff-Com: -0.202D-03-0.310D-03-0.960D-04 0.298D-02 0.453D-02-0.435D-02
 Coeff-Com: -0.395D-01-0.129D+00 0.194D+00 0.972D+00
 Coeff:      0.110D-05-0.234D-05-0.574D-06 0.658D-05 0.454D-04 0.172D-04
 Coeff:     -0.202D-03-0.310D-03-0.960D-04 0.298D-02 0.453D-02-0.435D-02
 Coeff:     -0.395D-01-0.129D+00 0.194D+00 0.972D+00
 Gap=     0.242 Goal=   None    Shift=    0.000
 RMSDP=1.29D-08 MaxDP=6.28D-07 DE=-5.73D-11 OVMax= 1.19D-06

 Cycle  17  Pass 1  IDiag  1:
 RMSU=  5.06D-09    CP:  6.08D-01  1.66D+00  6.19D-01  8.92D-01  1.27D+00
                    CP:  1.27D+00  1.28D+00  1.45D+00  1.57D+00  1.14D+00
                    CP:  1.38D+00  1.32D+00  1.31D+00  1.42D+00  1.40D+00
                    CP:  1.25D+00
 E= -902.479874051654     Delta-E=        0.000000000000 Rises=F Damp=F
 DIIS: error= 2.00D-08 at cycle  17 NSaved=  17.
 NSaved=17 IEnMin=17 EnMin= -902.479874051654     IErMin=17 ErrMin= 2.00D-08
 ErrMax= 2.00D-08  0.00D+00 EMaxC= 1.00D-01 BMatC= 6.88D-14 BMatP= 4.07D-13
 IDIUse=1 WtCom= 1.00D+00 WtEn= 0.00D+00
 Coeff-Com:  0.417D-06-0.883D-06-0.679D-06 0.219D-05 0.157D-04 0.146D-04
 Coeff-Com:  0.263D-04-0.581D-04-0.580D-03 0.323D-03 0.250D-02 0.556D-02
 Coeff-Com: -0.494D-02-0.770D-01-0.432D-01 0.331D+00 0.786D+00
 Coeff:      0.417D-06-0.883D-06-0.679D-06 0.219D-05 0.157D-04 0.146D-04
 Coeff:      0.263D-04-0.581D-04-0.580D-03 0.323D-03 0.250D-02 0.556D-02
 Coeff:     -0.494D-02-0.770D-01-0.432D-01 0.331D+00 0.786D+00
 Gap=     0.242 Goal=   None    Shift=    0.000
 RMSDP=4.29D-09 MaxDP=2.22D-07 DE=-4.55D-13 OVMax= 3.09D-07

 SCF Done:  E(RwB97XD) =  -902.479874052     A.U. after   17 cycles
            NFock= 17  Conv=0.43D-08     -V/T= 2.0047
 KE= 8.983000866908D+02 PE=-5.045027921857D+03 EE= 1.771844351519D+03
 Leave Link  502 at Mon Nov 13 15:22:51 2017, MaxMem=  3758096384 cpu:      2714.9
 (Enter /share/apps/gaussian/g09_D01/g09/l801.exe)
 DoSCS=F DFT=T ScalE2(SS,OS)=  1.000000  1.000000
 ExpMin= 3.60D-02 ExpMax= 8.59D+03 ExpMxC= 1.30D+03 IAcc=3 IRadAn=         5 AccDes= 0.00D+00
 HarFok:  IExCor=  205 AccDes= 0.00D+00 IRadAn=         5 IDoV=-2 UseB2=F ITyADJ=14
 ICtDFT= 12500011 ScaDFX=  1.000000  1.000000  1.000000  1.000000
 Largest valence mixing into a core orbital is  5.69D-05
 Largest core mixing into a valence orbital is  1.76D-05
 Range of M.O.s used for correlation:    22   587
 NBasis=   595 NAE=    75 NBE=    75 NFC=    21 NFV=     0
 NROrb=    566 NOA=    54 NOB=    54 NVA=   512 NVB=   512

 **** Warning!!: The largest alpha MO coefficient is  0.16584541D+03

 Leave Link  801 at Mon Nov 13 15:22:52 2017, MaxMem=  3758096384 cpu:         1.6
 (Enter /share/apps/gaussian/g09_D01/g09/l914.exe)
 RHF ground state
 MDV=  3758096384 DFT=T DoStab=F Mixed=T DoRPA=T DoScal=F NonHer=T
 Would need an additional         90685500000 words for in-memory AO integral storage.
 Making orbital integer symmetry assigments:
    16 initial guesses have been made.
 Convergence on wavefunction:    0.001000000000000
 Davidson Disk Diagonalization:  ConvIn= 1.00D-03 SkipCon=T Conv= 1.00D-03.
 Max sub-space:   200 roots to seek:    16 dimension of matrix:        55296
 Iteration     1 Dimension    16 NMult     0 NNew     16
 CISAX will form    16 AO SS matrices at one time.
 NMat=    16 NSing=    16 JSym2X= 0.
 FoFJK:  IHMeth= 1 ICntrl=       0 DoSepK=T KAlg= 0 I1Cent=   0 FoldK=F
 IRaf=         1 NMat=  32 IRICut=       1 DoRegI=T DoRafI=F ISym2E= 0.
 FoFCou: FMM=F IPFlag=           0 FMFlag=      100000 FMFlg1=           0
         NFxFlg=           0 DoJE=F BraDBF=F KetDBF=F FulRan=T
         wScrn=  0.000000 ICntrl=     500 IOpCl=  0 I1Cent=           0 NGrid=           0
         NMat0=   16 NMatS0=     16 NMatT0=    0 NMatD0=   16 NMtDS0=    0 NMtDT0=    0
 Symmetry not used in FoFCou.
 New state      2 was old state      8
 New state      3 was old state      2
 New state      4 was old state      9
 Excitation Energies [eV] at current iteration:
 Root      1 :     3.842705404737195
 Root      2 :     4.301224025453714
 Root      3 :     4.553986899519762
 Root      4 :     5.074496531468836
 Root      5 :     5.414224906696372
 Root      6 :     5.519925951945124
 Root      7 :     5.884042568820390
 Root      8 :     5.920447048408512
 Root      9 :     6.128762909018683
 Root     10 :     6.138339954646218
 Root     11 :     6.278927663197329
 Root     12 :     6.415141972137069
 Root     13 :     6.500230177031259
 Root     14 :     6.561474802589895
 Root     15 :     7.186205182841617
 Root     16 :     7.394858345369514
 Iteration     2 Dimension    24 NMult    16 NNew      8
 CISAX will form     8 AO SS matrices at one time.
 NMat=     8 NSing=     8 JSym2X= 0.
 Root      1 not converged, maximum delta is    0.057333466186405
 Root      2 not converged, maximum delta is    0.101358407482212
 Root      3 not converged, maximum delta is    0.100037785071921
 Root      4 not converged, maximum delta is    0.123658333000777
 Excitation Energies [eV] at current iteration:
 Root      1 :     3.404628144967564   Change is   -0.438077259769631
 Root      2 :     3.857067077693018   Change is   -0.444156947760696
 Root      3 :     3.994814488061322   Change is   -0.559172411458441
 Root      4 :     4.538911447307346   Change is   -0.535585084161490
 Iteration     3 Dimension    32 NMult    24 NNew      8
 CISAX will form     8 AO SS matrices at one time.
 NMat=     8 NSing=     8 JSym2X= 0.
 Root      1 not converged, maximum delta is    0.012298709819180
 Root      2 not converged, maximum delta is    0.016848865995726
 Root      3 not converged, maximum delta is    0.036522589137109
 Root      4 not converged, maximum delta is    0.031439974643709
 Excitation Energies [eV] at current iteration:
 Root      1 :     3.372399615065762   Change is   -0.032228529901803
 Root      2 :     3.830971697574954   Change is   -0.026095380118064
 Root      3 :     3.944257358488086   Change is   -0.050557129573236
 Root      4 :     4.491557001263404   Change is   -0.047354446043942
 Iteration     4 Dimension    40 NMult    32 NNew      8
 CISAX will form     8 AO SS matrices at one time.
 NMat=     8 NSing=     8 JSym2X= 0.
 Root      1 not converged, maximum delta is    0.008824837637635
 Root      2 not converged, maximum delta is    0.005370770731353
 Root      3 not converged, maximum delta is    0.018402014980227
 Root      4 not converged, maximum delta is    0.011120770075225
 Excitation Energies [eV] at current iteration:
 Root      1 :     3.367645481090905   Change is   -0.004754133974856
 Root      2 :     3.829237306069316   Change is   -0.001734391505638
 Root      3 :     3.930730298482554   Change is   -0.013527060005531
 Root      4 :     4.484971181622660   Change is   -0.006585819640744
 Iteration     5 Dimension    48 NMult    40 NNew      8
 CISAX will form     8 AO SS matrices at one time.
 NMat=     8 NSing=     8 JSym2X= 0.
 Root      1 not converged, maximum delta is    0.002600606742403
 Root      2 not converged, maximum delta is    0.001573406371942
 Root      3 not converged, maximum delta is    0.004642798655815
 Root      4 not converged, maximum delta is    0.002317546936312
 Excitation Energies [eV] at current iteration:
 Root      1 :     3.367196136702338   Change is   -0.000449344388567
 Root      2 :     3.829109964234460   Change is   -0.000127341834856
 Root      3 :     3.929089676311718   Change is   -0.001640622170837
 Root      4 :     4.484521728262633   Change is   -0.000449453360027
 Iteration     6 Dimension    56 NMult    48 NNew      8
 CISAX will form     8 AO SS matrices at one time.
 NMat=     8 NSing=     8 JSym2X= 0.
 Root      1 has converged.
 Root      2 has converged.
 Root      3 not converged, maximum delta is    0.001380771844495
 Root      4 not converged, maximum delta is    0.001522001483499
 Excitation Energies [eV] at current iteration:
 Root      1 :     3.367152707611860   Change is   -0.000043429090478
 Root      2 :     3.829098770242179   Change is   -0.000011193992281
 Root      3 :     3.928859378450882   Change is   -0.000230297860836
 Root      4 :     4.484440415903441   Change is   -0.000081312359192
 Iteration     7 Dimension    60 NMult    56 NNew      4
 CISAX will form     4 AO SS matrices at one time.
 NMat=     4 NSing=     4 JSym2X= 0.
 Root      1 has converged.
 Root      2 has converged.
 Root      3 has converged.
 Root      4 not converged, maximum delta is    0.001132036678913
 Excitation Energies [eV] at current iteration:
 Root      1 :     3.367152624056587   Change is   -0.000000083555273
 Root      2 :     3.829098693857314   Change is   -0.000000076384865
 Root      3 :     3.928839486107798   Change is   -0.000019892343084
 Root      4 :     4.484425679802160   Change is   -0.000014736101281
 Iteration     8 Dimension    62 NMult    60 NNew      2
 CISAX will form     2 AO SS matrices at one time.
 NMat=     2 NSing=     2 JSym2X= 0.
 Root      1 has converged.
 Root      2 has converged.
 Root      3 has converged.
 Root      4 has converged.
 Excitation Energies [eV] at current iteration:
 Root      1 :     3.367152541314902   Change is   -0.000000082741685
 Root      2 :     3.829098687623379   Change is   -0.000000006233934
 Root      3 :     3.928839452584867   Change is   -0.000000033522930
 Root      4 :     4.484421983344235   Change is   -0.000003696457926
 Convergence achieved on expansion vectors.
 ***********************************************************************
 Excited states from <AA,BB:AA,BB> singles matrix:
 ***********************************************************************
 
 1PDM for each excited state written to RWF  633
 Ground to excited state transition densities written to RWF  633
 Ground to excited state transition electric dipole moments (Au):
       state          X           Y           Z        Dip. S.      Osc.
         1         0.1442      0.9440      3.7932     15.3003      1.2622
         2        -0.0274      0.0020      0.0013      0.0008      0.0001
         3        -0.1157     -0.0473      0.4519      0.2199      0.0212
         4         0.2899      0.5140      0.3583      0.4766      0.0524
 Ground to excited state transition velocity dipole moments (Au):
       state          X           Y           Z        Dip. S.      Osc.
         1        -0.0161     -0.1130     -0.4640      0.2283      1.2301
         2         0.0051     -0.0014      0.0003      0.0000      0.0001
         3         0.0146      0.0053     -0.0608      0.0039      0.0182
         4        -0.0518     -0.0899     -0.0543      0.0137      0.0554
 Ground to excited state transition magnetic dipole moments (Au):
       state          X           Y           Z
         1         6.1046     -1.5388      0.1458
         2        -0.1745     -0.3412      0.2816
         3         1.5122     -0.6508      0.2470
         4         1.3734     -0.6049     -0.3015
 Ground to excited state transition velocity quadrupole moments (Au):
       state          XX          YY          ZZ          XY          XZ          YZ
         1         0.0228      2.0589     -7.2254      0.2594      0.5657      3.5170
         2        -0.0553      0.0605      0.1848     -0.0580      0.0526      0.0040
         3        -0.0917     -0.0853      1.4544     -0.2028      0.2017      1.0720
         4         0.2271      1.9830     -0.8909      0.7487     -0.0270      0.2592
 <0|del|b> * <b|rxdel|0> + <0|del|b> * <b|delr+rdel|0>
 Rotatory Strengths (R) in cgs (10**-40 erg-esu-cm/Gauss)
       state          XX          YY          ZZ    R(velocity)    E-M Angle
         1       141.9717   -291.0656    195.3074     15.4045       89.85
         2         1.5324     -1.9390     -1.2912     -0.5660       97.70
         3       -17.7446     25.6010      9.8811      5.9125       88.01
         4        59.3521    -59.2204     -2.0253     -0.6312       90.14
 1/2[<0|r|b>*<b|rxdel|0> + (<0|rxdel|b>*<b|r|0>)*]
 Rotatory Strengths (R) in cgs (10**-40 erg-esu-cm/Gauss)
       state          XX          YY          ZZ     R(length)
         1      -622.5434   1027.2122   -391.2178      4.4837
         2        -3.3762      0.4776     -0.2557     -1.0514
         3       123.7624    -21.7816    -78.9263      7.6848
         4      -281.5242    219.8956     76.4097      4.9270
  1/2[<0|del|b>*<b|r|0> + (<0|r|b>*<b|del|0>)*] (Au)
       state          X           Y           Z        Dip. S.   Osc.(frdel)
         1        -0.0023     -0.1066     -1.7600      1.8690      1.2460
         2        -0.0001      0.0000      0.0000      0.0001      0.0001
         3        -0.0017     -0.0003     -0.0275      0.0294      0.0196
         4        -0.0150     -0.0462     -0.0194      0.0807      0.0538

 Excitation energies and oscillator strengths:
 
 Excited state symmetry could not be determined.
 Excited State   1:      Singlet-?Sym    3.3672 eV  368.22 nm  f=1.2622  <S**2>=0.000
      70 -> 76        -0.10318
      74 -> 76        -0.13934
      74 -> 78        -0.12139
      75 -> 76         0.65975
 This state for optimization and/or second-order correction.
 Total Energy, E(TD-HF/TD-KS) =  -902.356133467    
 Copying the excited state density for this state as the 1-particle RhoCI density.
 
 Excited state symmetry could not be determined.
 Excited State   2:      Singlet-?Sym    3.8291 eV  323.79 nm  f=0.0001  <S**2>=0.000
      72 -> 76         0.66368
      72 -> 78         0.12933
 
 Excited state symmetry could not be determined.
 Excited State   3:      Singlet-?Sym    3.9288 eV  315.57 nm  f=0.0212  <S**2>=0.000
      74 -> 76         0.62946
      74 -> 78         0.18239
      75 -> 76         0.13912
      75 -> 78        -0.14333
 
 Excited state symmetry could not be determined.
 Excited State   4:      Singlet-?Sym    4.4844 eV  276.48 nm  f=0.0524  <S**2>=0.000
      71 -> 76         0.26196
      71 -> 78        -0.12380
      74 -> 81         0.11463
      75 -> 78         0.26801
      75 -> 81         0.54488
 SavETr:  write IOETrn=   770 NScale= 10 NData=  16 NLR=1 NState=    4 LETran=      82.
 Leave Link  914 at Mon Nov 13 15:50:15 2017, MaxMem=  3758096384 cpu:      6563.0
 (Enter /share/apps/gaussian/g09_D01/g09/l601.exe)
 Copying SCF densities to generalized density rwf, IOpCl= 0 IROHF=0.

 **********************************************************************

            Population analysis using the SCF density.

 **********************************************************************

 Alpha  occ. eigenvalues --  -19.24150 -19.22971 -14.47766 -10.37872 -10.35379
 Alpha  occ. eigenvalues --  -10.35213 -10.33668 -10.33598 -10.31385 -10.30688
 Alpha  occ. eigenvalues --  -10.30684 -10.30611 -10.29980 -10.29877 -10.29852
 Alpha  occ. eigenvalues --  -10.29664 -10.29326 -10.28736 -10.28327 -10.28085
 Alpha  occ. eigenvalues --  -10.27622  -1.14668  -1.10849  -1.08061  -0.97052
 Alpha  occ. eigenvalues --   -0.95936  -0.90980  -0.88587  -0.87042  -0.85267
 Alpha  occ. eigenvalues --   -0.84123  -0.83602  -0.80906  -0.78504  -0.73256
 Alpha  occ. eigenvalues --   -0.71740  -0.70716  -0.69060  -0.67722  -0.64416
 Alpha  occ. eigenvalues --   -0.63237  -0.61127  -0.59049  -0.58555  -0.57815
 Alpha  occ. eigenvalues --   -0.57049  -0.56014  -0.55280  -0.54090  -0.52586
 Alpha  occ. eigenvalues --   -0.51921  -0.51851  -0.51692  -0.51519  -0.50755
 Alpha  occ. eigenvalues --   -0.50053  -0.50009  -0.48507  -0.48149  -0.48034
 Alpha  occ. eigenvalues --   -0.46936  -0.45820  -0.45733  -0.45339  -0.44757
 Alpha  occ. eigenvalues --   -0.42615  -0.41815  -0.41219  -0.41028  -0.34998
 Alpha  occ. eigenvalues --   -0.34861  -0.33973  -0.32530  -0.29401  -0.26893
 Alpha virt. eigenvalues --   -0.02695   0.02629   0.03324   0.03865   0.04357
 Alpha virt. eigenvalues --    0.04539   0.04817   0.05582   0.06253   0.06375
 Alpha virt. eigenvalues --    0.06771   0.07133   0.07781   0.07877   0.08036
 Alpha virt. eigenvalues --    0.08091   0.08675   0.09381   0.09730   0.10169
 Alpha virt. eigenvalues --    0.10512   0.11039   0.11244   0.11693   0.12199
 Alpha virt. eigenvalues --    0.12614   0.13086   0.13385   0.13616   0.14207
 Alpha virt. eigenvalues --    0.14466   0.14716   0.14818   0.15238   0.15487
 Alpha virt. eigenvalues --    0.15991   0.16059   0.16579   0.16746   0.17029
 Alpha virt. eigenvalues --    0.17160   0.17220   0.17648   0.18110   0.18610
 Alpha virt. eigenvalues --    0.18783   0.18907   0.19486   0.19543   0.19824
 Alpha virt. eigenvalues --    0.20010   0.20210   0.20376   0.20785   0.21014
 Alpha virt. eigenvalues --    0.21317   0.21446   0.21784   0.22220   0.22597
 Alpha virt. eigenvalues --    0.22722   0.23014   0.23207   0.23380   0.23765
 Alpha virt. eigenvalues --    0.23988   0.24281   0.24476   0.24579   0.24712
 Alpha virt. eigenvalues --    0.24985   0.25530   0.25832   0.25862   0.26723
 Alpha virt. eigenvalues --    0.27018   0.27312   0.27614   0.27860   0.27991
 Alpha virt. eigenvalues --    0.28721   0.28980   0.29118   0.29459   0.29922
 Alpha virt. eigenvalues --    0.30499   0.30589   0.30817   0.31360   0.31511
 Alpha virt. eigenvalues --    0.31714   0.31979   0.32055   0.32816   0.33056
 Alpha virt. eigenvalues --    0.33382   0.34095   0.34372   0.34554   0.34853
 Alpha virt. eigenvalues --    0.35174   0.35440   0.35954   0.36472   0.36989
 Alpha virt. eigenvalues --    0.37137   0.37302   0.37537   0.38187   0.38620
 Alpha virt. eigenvalues --    0.38823   0.39186   0.39679   0.39858   0.40219
 Alpha virt. eigenvalues --    0.40458   0.40994   0.41701   0.42052   0.42507
 Alpha virt. eigenvalues --    0.43034   0.43760   0.44441   0.44702   0.44731
 Alpha virt. eigenvalues --    0.45406   0.46003   0.47335   0.48210   0.48419
 Alpha virt. eigenvalues --    0.49195   0.50332   0.51194   0.51492   0.51980
 Alpha virt. eigenvalues --    0.52320   0.52919   0.53749   0.54554   0.54628
 Alpha virt. eigenvalues --    0.56037   0.56748   0.57545   0.59088   0.60228
 Alpha virt. eigenvalues --    0.61004   0.61485   0.62159   0.62301   0.62686
 Alpha virt. eigenvalues --    0.63142   0.63494   0.64386   0.64717   0.64768
 Alpha virt. eigenvalues --    0.65135   0.66334   0.66479   0.66743   0.67095
 Alpha virt. eigenvalues --    0.68008   0.68155   0.68509   0.69460   0.69963
 Alpha virt. eigenvalues --    0.70885   0.71474   0.71814   0.72114   0.72801
 Alpha virt. eigenvalues --    0.72924   0.73123   0.73620   0.74059   0.74472
 Alpha virt. eigenvalues --    0.74822   0.75441   0.76140   0.76361   0.76639
 Alpha virt. eigenvalues --    0.77249   0.77897   0.78043   0.79122   0.79403
 Alpha virt. eigenvalues --    0.79516   0.79963   0.80348   0.80483   0.81630
 Alpha virt. eigenvalues --    0.82851   0.83122   0.84482   0.85465   0.86187
 Alpha virt. eigenvalues --    0.86738   0.87761   0.88234   0.89278   0.89974
 Alpha virt. eigenvalues --    0.90405   0.91128   0.92452   0.93837   0.94418
 Alpha virt. eigenvalues --    0.95696   0.96405   0.96546   0.96937   0.97832
 Alpha virt. eigenvalues --    0.98663   0.98901   0.99239   0.99545   0.99870
 Alpha virt. eigenvalues --    1.01317   1.02403   1.03129   1.03691   1.04708
 Alpha virt. eigenvalues --    1.05084   1.05837   1.05883   1.06869   1.07532
 Alpha virt. eigenvalues --    1.08029   1.08154   1.08792   1.09223   1.09911
 Alpha virt. eigenvalues --    1.10423   1.10875   1.12985   1.13728   1.14449
 Alpha virt. eigenvalues --    1.14605   1.15543   1.15843   1.17539   1.18349
 Alpha virt. eigenvalues --    1.18507   1.19659   1.20355   1.20707   1.21918
 Alpha virt. eigenvalues --    1.22347   1.23584   1.24416   1.27598   1.31017
 Alpha virt. eigenvalues --    1.31744   1.32963   1.34554   1.35414   1.36355
 Alpha virt. eigenvalues --    1.39063   1.40697   1.40913   1.42224   1.45527
 Alpha virt. eigenvalues --    1.47417   1.48080   1.48814   1.51021   1.51293
 Alpha virt. eigenvalues --    1.52212   1.53164   1.53796   1.54622   1.55986
 Alpha virt. eigenvalues --    1.56545   1.57339   1.58650   1.58952   1.59411
 Alpha virt. eigenvalues --    1.61574   1.61815   1.62268   1.62656   1.63100
 Alpha virt. eigenvalues --    1.63274   1.63983   1.64420   1.64569   1.65174
 Alpha virt. eigenvalues --    1.65710   1.65962   1.67254   1.67778   1.68393
 Alpha virt. eigenvalues --    1.69159   1.69276   1.70186   1.70622   1.74185
 Alpha virt. eigenvalues --    1.75472   1.75505   1.76878   1.78108   1.78721
 Alpha virt. eigenvalues --    1.79415   1.79961   1.80546   1.80918   1.81317
 Alpha virt. eigenvalues --    1.82679   1.83531   1.84488   1.84847   1.86202
 Alpha virt. eigenvalues --    1.87231   1.88665   1.88884   1.89112   1.91075
 Alpha virt. eigenvalues --    1.93324   1.93784   1.94686   1.95351   1.96829
 Alpha virt. eigenvalues --    1.97106   1.97928   2.00472   2.00894   2.01506
 Alpha virt. eigenvalues --    2.01837   2.02541   2.03847   2.04368   2.04729
 Alpha virt. eigenvalues --    2.06167   2.06744   2.07457   2.08434   2.09199
 Alpha virt. eigenvalues --    2.10145   2.11348   2.11703   2.13835   2.14380
 Alpha virt. eigenvalues --    2.14968   2.15204   2.17244   2.17928   2.18961
 Alpha virt. eigenvalues --    2.20400   2.22424   2.22932   2.24676   2.24999
 Alpha virt. eigenvalues --    2.26075   2.27681   2.28507   2.29553   2.31456
 Alpha virt. eigenvalues --    2.33684   2.36723   2.36895   2.38804   2.39718
 Alpha virt. eigenvalues --    2.40992   2.42501   2.43675   2.45302   2.46568
 Alpha virt. eigenvalues --    2.47536   2.48189   2.50208   2.52673   2.54461
 Alpha virt. eigenvalues --    2.55073   2.55431   2.55514   2.56303   2.56999
 Alpha virt. eigenvalues --    2.57457   2.60313   2.62516   2.63256   2.63371
 Alpha virt. eigenvalues --    2.66882   2.67702   2.68285   2.69043   2.69978
 Alpha virt. eigenvalues --    2.71842   2.73113   2.74015   2.75065   2.76919
 Alpha virt. eigenvalues --    2.77595   2.78204   2.78446   2.78873   2.80532
 Alpha virt. eigenvalues --    2.81275   2.82252   2.82685   2.83367   2.84263
 Alpha virt. eigenvalues --    2.84586   2.85661   2.86071   2.87037   2.87631
 Alpha virt. eigenvalues --    2.88948   2.90827   2.91243   2.92251   2.93386
 Alpha virt. eigenvalues --    2.94486   2.95125   2.95542   2.98053   2.99299
 Alpha virt. eigenvalues --    2.99592   3.00082   3.01766   3.02209   3.03589
 Alpha virt. eigenvalues --    3.03874   3.05186   3.06890   3.07345   3.09297
 Alpha virt. eigenvalues --    3.09619   3.14711   3.17979   3.19971   3.20368
 Alpha virt. eigenvalues --    3.22097   3.22133   3.23683   3.26863   3.29664
 Alpha virt. eigenvalues --    3.30119   3.30848   3.32731   3.34339   3.35588
 Alpha virt. eigenvalues --    3.38499   3.38541   3.42126   3.45682   3.47424
 Alpha virt. eigenvalues --    3.48886   3.54582   3.57721   3.60356   3.60582
 Alpha virt. eigenvalues --    3.61649   3.63581   3.66169   3.67197   3.72577
 Alpha virt. eigenvalues --    3.76373   3.77670   3.78028   3.78190   3.79215
 Alpha virt. eigenvalues --    3.79771   3.86579   3.88008   3.88127   3.90621
 Alpha virt. eigenvalues --    3.92513   3.92773   4.02084   4.05521   4.07999
 Alpha virt. eigenvalues --    4.09914   4.12871   4.17085   4.26591   4.28196
 Alpha virt. eigenvalues --    4.30091   4.31621   4.37530   4.42139   4.55066
 Alpha virt. eigenvalues --    4.78851   4.92972   4.95048   5.00243   5.15330
 Alpha virt. eigenvalues --    5.17966   5.19097   5.38108   5.64904   5.85578
 Alpha virt. eigenvalues --    5.96007  23.71228  23.79910  23.94640  24.01955
 Alpha virt. eigenvalues --   24.03661  24.03775  24.04519  24.05994  24.08129
 Alpha virt. eigenvalues --   24.08922  24.09946  24.14210  24.14892  24.23549
 Alpha virt. eigenvalues --   24.25333  24.29349  24.30846  24.31100  35.74274
 Alpha virt. eigenvalues --   50.14233  50.18475
          Condensed to atoms (all electrons):
               1          2          3          4          5          6
     1  C    5.228431   0.401148   0.399790   0.434851   0.298180  -0.110665
     2  H    0.401148   0.572894  -0.027236  -0.061309  -0.057960   0.008414
     3  H    0.399790  -0.027236   0.508955  -0.017097  -0.047253  -0.013849
     4  H    0.434851  -0.061309  -0.017097   0.548514  -0.052312  -0.008865
     5  N    0.298180  -0.057960  -0.047253  -0.052312   6.997030   0.312844
     6  C   -0.110665   0.008414  -0.013849  -0.008865   0.312844   5.254331
     7  C   -0.127131   0.029057  -0.016845  -0.018126   0.286320  -0.123376
     8  H   -0.000401   0.001611  -0.003181  -0.000288  -0.057340   0.419823
     9  H   -0.012346   0.000590   0.014240  -0.004498  -0.045816   0.399940
    10  H    0.000512  -0.003913  -0.000997   0.002175  -0.055396   0.416847
    11  C    0.098400   0.009159   0.019612   0.033911  -0.317312  -0.113695
    12  C   -0.157465  -0.003392   0.005882  -0.010316  -0.239298   0.163535
    13  C   -0.004382  -0.018563   0.002682  -0.004876  -0.027497  -0.053639
    14  H    0.011605  -0.012250   0.007147  -0.013957  -0.035507  -0.004102
    15  H   -0.003627  -0.000380   0.001896  -0.000496  -0.034008   0.010616
    16  C   -0.046555  -0.001237   0.008036  -0.002547   0.051749  -0.067948
    17  C   -0.027766  -0.008564   0.003136  -0.005364  -0.033408  -0.121718
    18  H    0.004095   0.002501  -0.000034   0.001918  -0.001489   0.000165
    19  H   -0.000910   0.000062  -0.000235  -0.000207  -0.001074   0.004242
    20  C    0.000578  -0.001646  -0.000682  -0.000843  -0.003737   0.017123
    21  C    0.003840  -0.000363   0.000117  -0.000672  -0.000177  -0.003295
    22  H    0.000600  -0.000005   0.000034   0.000034  -0.000504  -0.000918
    23  C   -0.000264  -0.000024  -0.000005   0.000015   0.000063   0.000844
    24  H   -0.000665  -0.000350  -0.000031  -0.000376  -0.000804  -0.000048
    25  C    0.000297   0.000030   0.000025   0.000055  -0.000093  -0.000359
    26  O    0.000009  -0.000001   0.000000  -0.000001   0.000001   0.000000
    27  C   -0.000446   0.000048  -0.000026  -0.000011   0.000045   0.000091
    28  C   -0.000080   0.000014  -0.000005   0.000024  -0.000022   0.000005
    29  H   -0.000003   0.000000   0.000000   0.000000   0.000001  -0.000001
    30  C   -0.000086   0.000022  -0.000004   0.000006   0.000010   0.000003
    31  H   -0.000032   0.000022  -0.000005   0.000027   0.000042   0.000015
    32  O    0.000000   0.000000   0.000000   0.000000   0.000000   0.000000
    33  C   -0.000005   0.000001   0.000000   0.000002  -0.000001  -0.000001
    34  C   -0.000006   0.000003   0.000000   0.000000   0.000000   0.000002
    35  H    0.000002  -0.000001   0.000000  -0.000001  -0.000001  -0.000001
    36  H    0.000000   0.000000   0.000000   0.000000   0.000000   0.000000
    37  C    0.000000   0.000000   0.000000   0.000000   0.000000   0.000000
    38  H    0.000000   0.000000   0.000000   0.000000   0.000000   0.000000
    39  H    0.000000   0.000000   0.000000   0.000000   0.000000   0.000000
    40  H    0.000000   0.000000   0.000000   0.000000   0.000000   0.000000
               7          8          9         10         11         12
     1  C   -0.127131  -0.000401  -0.012346   0.000512   0.098400  -0.157465
     2  H    0.029057   0.001611   0.000590  -0.003913   0.009159  -0.003392
     3  H   -0.016845  -0.003181   0.014240  -0.000997   0.019612   0.005882
     4  H   -0.018126  -0.000288  -0.004498   0.002175   0.033911  -0.010316
     5  N    0.286320  -0.057340  -0.045816  -0.055396  -0.317312  -0.239298
     6  C   -0.123376   0.419823   0.399940   0.416847  -0.113695   0.163535
     7  C   11.449417  -0.012796  -0.008011  -0.012493   0.638226   0.066207
     8  H   -0.012796   0.548998  -0.022174  -0.060706   0.000693   0.006555
     9  H   -0.008011  -0.022174   0.511066  -0.022231   0.018934   0.016773
    10  H   -0.012493  -0.060706  -0.022231   0.567915  -0.016507   0.029841
    11  C    0.638226   0.000693   0.018934  -0.016507   8.890119  -1.577114
    12  C    0.066207   0.006555   0.016773   0.029841  -1.577114   9.949066
    13  C   -1.630406  -0.002745   0.005074  -0.005689   1.675287  -1.683741
    14  H   -0.269436  -0.000459   0.002705  -0.000508   0.375562  -0.011127
    15  H   -0.061459  -0.010486   0.005317  -0.006372  -0.024033   0.481140
    16  C   -1.849120   0.002442  -0.015354  -0.004173  -1.403101   0.783940
    17  C   -1.490981   0.006296  -0.003992   0.002051  -1.172699  -2.454604
    18  H    0.205379   0.000091  -0.000541  -0.000196   0.085672  -0.034973
    19  H    0.033024   0.000505   0.000047   0.000612  -0.002630  -0.015670
    20  C   -0.344377  -0.001873   0.002233  -0.000117  -0.105890   0.355292
    21  C   -0.264543  -0.000118   0.000221   0.000303  -0.683263   0.547190
    22  H    0.001381  -0.000064  -0.000027  -0.000131   0.014157   0.026103
    23  C    0.014883  -0.000019  -0.000002  -0.000016  -0.008604   0.012269
    24  H   -0.071089  -0.000059   0.000066   0.000062  -0.167412   0.048969
    25  C    0.040365   0.000039  -0.000031   0.000031   0.161639  -0.110860
    26  O   -0.001193  -0.000001   0.000000  -0.000001   0.002037  -0.006668
    27  C   -0.012368  -0.000002   0.000012  -0.000017  -0.082697   0.065681
    28  C    0.012271   0.000006   0.000000   0.000001   0.026460  -0.020586
    29  H   -0.000154   0.000000   0.000000   0.000000  -0.000027   0.000166
    30  C    0.000531   0.000001   0.000001  -0.000001  -0.003295   0.004484
    31  H    0.002988   0.000003   0.000000  -0.000001   0.006132  -0.000118
    32  O   -0.000039   0.000000   0.000000   0.000000   0.000237  -0.000313
    33  C    0.000497   0.000000   0.000000   0.000000  -0.000790  -0.001731
    34  C   -0.000143   0.000000   0.000000   0.000000  -0.004284   0.001780
    35  H    0.000027   0.000000   0.000000   0.000000   0.000370  -0.000122
    36  H    0.000008   0.000000   0.000000   0.000000   0.000023  -0.000033
    37  C    0.000029   0.000000   0.000000   0.000000   0.000295   0.000011
    38  H   -0.000003   0.000000   0.000000   0.000000  -0.000046   0.000004
    39  H    0.000000   0.000000   0.000000   0.000000   0.000003   0.000000
    40  H    0.000000   0.000000   0.000000   0.000000   0.000002   0.000000
              13         14         15         16         17         18
     1  C   -0.004382   0.011605  -0.003627  -0.046555  -0.027766   0.004095
     2  H   -0.018563  -0.012250  -0.000380  -0.001237  -0.008564   0.002501
     3  H    0.002682   0.007147   0.001896   0.008036   0.003136  -0.000034
     4  H   -0.004876  -0.013957  -0.000496  -0.002547  -0.005364   0.001918
     5  N   -0.027497  -0.035507  -0.034008   0.051749  -0.033408  -0.001489
     6  C   -0.053639  -0.004102   0.010616  -0.067948  -0.121718   0.000165
     7  C   -1.630406  -0.269436  -0.061459  -1.849120  -1.490981   0.205379
     8  H   -0.002745  -0.000459  -0.010486   0.002442   0.006296   0.000091
     9  H    0.005074   0.002705   0.005317  -0.015354  -0.003992  -0.000541
    10  H   -0.005689  -0.000508  -0.006372  -0.004173   0.002051  -0.000196
    11  C    1.675287   0.375562  -0.024033  -1.403101  -1.172699   0.085672
    12  C   -1.683741  -0.011127   0.481140   0.783940  -2.454604  -0.034973
    13  C    9.363386   0.080551  -0.012353  -0.870894   0.825932   0.364006
    14  H    0.080551   0.542264  -0.000016  -0.050469   0.116752  -0.043482
    15  H   -0.012353  -0.000016   0.508251   0.012835  -0.031714   0.001611
    16  C   -0.870894  -0.050469   0.012835   9.979730   0.100690   0.051538
    17  C    0.825932   0.116752  -0.031714   0.100690  10.436059  -0.119724
    18  H    0.364006  -0.043482   0.001611   0.051538  -0.119724   0.584264
    19  H   -0.025257   0.000783  -0.012023   0.293402  -0.054170  -0.003505
    20  C   -0.142511   0.039105  -0.006274  -0.873456  -0.061133  -0.064502
    21  C   -1.237382   0.036756  -0.010512  -0.022503  -0.638694  -0.156713
    22  H   -0.000153   0.000426   0.001908   0.055570  -0.130524   0.000387
    23  C   -0.414133  -0.000163   0.001920   0.067158   0.305375  -0.027459
    24  H   -0.129240   0.014191  -0.000760   0.015370   0.056285  -0.050262
    25  C    0.353522  -0.006168  -0.000317  -0.154907   0.028867   0.044976
    26  O    0.019024   0.000042   0.000070  -0.033642   0.062759   0.002006
    27  C   -0.263106   0.001827   0.000110   0.212615  -0.105610  -0.032116
    28  C    0.258448  -0.001717  -0.000258  -0.062644  -0.050182   0.020587
    29  H   -0.004164  -0.000009   0.000013   0.003587  -0.002830  -0.000153
    30  C   -0.029355  -0.000739  -0.000013   0.032666  -0.009516   0.006860
    31  H    0.007598  -0.000403  -0.000014   0.003985  -0.017481  -0.006852
    32  O    0.001086  -0.000003   0.000001  -0.001294   0.000576   0.000220
    33  C    0.036813  -0.000137  -0.000043  -0.007830  -0.045126   0.001528
    34  C   -0.007983  -0.000081   0.000002   0.011163   0.002428   0.000463
    35  H   -0.000519   0.000011   0.000001  -0.000655   0.000598  -0.000120
    36  H    0.000504  -0.000002  -0.000001  -0.000108  -0.000768   0.000023
    37  C    0.000990  -0.000019   0.000000   0.000184  -0.000477   0.000546
    38  H   -0.000030   0.000000   0.000000   0.000044  -0.000111  -0.000008
    39  H   -0.000010   0.000000   0.000000  -0.000003   0.000055  -0.000001
    40  H   -0.000008   0.000000   0.000000  -0.000001   0.000030  -0.000007
              19         20         21         22         23         24
     1  C   -0.000910   0.000578   0.003840   0.000600  -0.000264  -0.000665
     2  H    0.000062  -0.001646  -0.000363  -0.000005  -0.000024  -0.000350
     3  H   -0.000235  -0.000682   0.000117   0.000034  -0.000005  -0.000031
     4  H   -0.000207  -0.000843  -0.000672   0.000034   0.000015  -0.000376
     5  N   -0.001074  -0.003737  -0.000177  -0.000504   0.000063  -0.000804
     6  C    0.004242   0.017123  -0.003295  -0.000918   0.000844  -0.000048
     7  C    0.033024  -0.344377  -0.264543   0.001381   0.014883  -0.071089
     8  H    0.000505  -0.001873  -0.000118  -0.000064  -0.000019  -0.000059
     9  H    0.000047   0.002233   0.000221  -0.000027  -0.000002   0.000066
    10  H    0.000612  -0.000117   0.000303  -0.000131  -0.000016   0.000062
    11  C   -0.002630  -0.105890  -0.683263   0.014157  -0.008604  -0.167412
    12  C   -0.015670   0.355292   0.547190   0.026103   0.012269   0.048969
    13  C   -0.025257  -0.142511  -1.237382  -0.000153  -0.414133  -0.129240
    14  H    0.000783   0.039105   0.036756   0.000426  -0.000163   0.014191
    15  H   -0.012023  -0.006274  -0.010512   0.001908   0.001920  -0.000760
    16  C    0.293402  -0.873456  -0.022503   0.055570   0.067158   0.015370
    17  C   -0.054170  -0.061133  -0.638694  -0.130524   0.305375   0.056285
    18  H   -0.003505  -0.064502  -0.156713   0.000387  -0.027459  -0.050262
    19  H    0.485611   0.059727   0.025532  -0.002996  -0.002262   0.002523
    20  C    0.059727   6.525254   0.227496   0.349863  -0.603920  -0.057170
    21  C    0.025532   0.227496   8.982841  -0.004728   0.335434   0.790585
    22  H   -0.002996   0.349863  -0.004728   0.457468  -0.002704   0.003871
    23  C   -0.002262  -0.603920   0.335434  -0.002704   7.827125   0.134258
    24  H    0.002523  -0.057170   0.790585   0.003871   0.134258   0.878259
    25  C   -0.000253   0.372624  -0.724206  -0.026807   0.491423  -0.144123
    26  O    0.000084   0.078067  -0.344628   0.001233   0.679915  -0.005055
    27  C   -0.001895  -0.235297  -0.509001   0.007282   0.324274   0.071642
    28  C    0.001654   0.220378   0.304657  -0.000697  -2.109740  -0.055175
    29  H   -0.000074  -0.014312   0.013141   0.000318   0.045908   0.002075
    30  C   -0.000187   0.101081  -0.842937   0.000369  -0.695608  -0.099781
    31  H    0.000024   0.005907  -0.016062   0.001853  -0.061241  -0.033019
    32  O    0.000056   0.041901  -0.054271  -0.001553  -0.110960  -0.001274
    33  C    0.000340   0.070431   0.232520   0.001264  -0.484045  -0.001782
    34  C   -0.000182   0.003062  -0.107206   0.003217   0.091901   0.001366
    35  H    0.000003  -0.001829   0.006886  -0.000211   0.007026   0.008306
    36  H    0.000012   0.002462   0.000679  -0.000123  -0.023016  -0.000653
    37  C   -0.000011   0.006988  -0.023331   0.000341   0.046704  -0.008650
    38  H    0.000000   0.000201  -0.002363   0.000003  -0.001169  -0.000419
    39  H    0.000000  -0.000123   0.000408   0.000000   0.000891   0.000129
    40  H    0.000000  -0.000095  -0.000011   0.000000   0.001524   0.000156
              25         26         27         28         29         30
     1  C    0.000297   0.000009  -0.000446  -0.000080  -0.000003  -0.000086
     2  H    0.000030  -0.000001   0.000048   0.000014   0.000000   0.000022
     3  H    0.000025   0.000000  -0.000026  -0.000005   0.000000  -0.000004
     4  H    0.000055  -0.000001  -0.000011   0.000024   0.000000   0.000006
     5  N   -0.000093   0.000001   0.000045  -0.000022   0.000001   0.000010
     6  C   -0.000359   0.000000   0.000091   0.000005  -0.000001   0.000003
     7  C    0.040365  -0.001193  -0.012368   0.012271  -0.000154   0.000531
     8  H    0.000039  -0.000001  -0.000002   0.000006   0.000000   0.000001
     9  H   -0.000031   0.000000   0.000012   0.000000   0.000000   0.000001
    10  H    0.000031  -0.000001  -0.000017   0.000001   0.000000  -0.000001
    11  C    0.161639   0.002037  -0.082697   0.026460  -0.000027  -0.003295
    12  C   -0.110860  -0.006668   0.065681  -0.020586   0.000166   0.004484
    13  C    0.353522   0.019024  -0.263106   0.258448  -0.004164  -0.029355
    14  H   -0.006168   0.000042   0.001827  -0.001717  -0.000009  -0.000739
    15  H   -0.000317   0.000070   0.000110  -0.000258   0.000013  -0.000013
    16  C   -0.154907  -0.033642   0.212615  -0.062644   0.003587   0.032666
    17  C    0.028867   0.062759  -0.105610  -0.050182  -0.002830  -0.009516
    18  H    0.044976   0.002006  -0.032116   0.020587  -0.000153   0.006860
    19  H   -0.000253   0.000084  -0.001895   0.001654  -0.000074  -0.000187
    20  C    0.372624   0.078067  -0.235297   0.220378  -0.014312   0.101081
    21  C   -0.724206  -0.344628  -0.509001   0.304657   0.013141  -0.842937
    22  H   -0.026807   0.001233   0.007282  -0.000697   0.000318   0.000369
    23  C    0.491423   0.679915   0.324274  -2.109740   0.045908  -0.695608
    24  H   -0.144123  -0.005055   0.071642  -0.055175   0.002075  -0.099781
    25  C   12.723827  -0.064183  -0.438508  -1.421843  -0.130737  -2.376364
    26  O   -0.064183   8.134762  -0.100985  -0.150714   0.100631  -0.024109
    27  C   -0.438508  -0.100985   8.949193  -0.959105   0.019496   1.554893
    28  C   -1.421843  -0.150714  -0.959105   9.479867   0.020514  -0.060530
    29  H   -0.130737   0.100631   0.019496   0.020514   0.280441   0.011113
    30  C   -2.376364  -0.024109   1.554893  -0.060530   0.011113   9.769499
    31  H   -0.020444  -0.000923   0.447719   0.046764   0.000266  -0.046185
    32  O    0.107062   0.017726  -0.031048   0.334900   0.211740  -0.006651
    33  C   -3.336448   0.016811  -0.487609   1.410451   0.045338  -1.034301
    34  C   -0.396696  -0.016209  -1.407158  -0.875945  -0.005277   0.463875
    35  H    0.084168   0.000364   0.013987   0.004499   0.000323   0.291549
    36  H   -0.107329   0.000523   0.031032  -0.120608   0.000887   0.047938
    37  C   -0.176765  -0.000699  -0.015952  -0.184176  -0.001770   0.114863
    38  H   -0.014581   0.000014   0.018826  -0.007535   0.000032   0.105053
    39  H    0.009167  -0.000025  -0.020886  -0.001118   0.000004  -0.044790
    40  H    0.016995  -0.000017  -0.017898   0.018558  -0.000036  -0.073206
              31         32         33         34         35         36
     1  C   -0.000032   0.000000  -0.000005  -0.000006   0.000002   0.000000
     2  H    0.000022   0.000000   0.000001   0.000003  -0.000001   0.000000
     3  H   -0.000005   0.000000   0.000000   0.000000   0.000000   0.000000
     4  H    0.000027   0.000000   0.000002   0.000000  -0.000001   0.000000
     5  N    0.000042   0.000000  -0.000001   0.000000  -0.000001   0.000000
     6  C    0.000015   0.000000  -0.000001   0.000002  -0.000001   0.000000
     7  C    0.002988  -0.000039   0.000497  -0.000143   0.000027   0.000008
     8  H    0.000003   0.000000   0.000000   0.000000   0.000000   0.000000
     9  H    0.000000   0.000000   0.000000   0.000000   0.000000   0.000000
    10  H   -0.000001   0.000000   0.000000   0.000000   0.000000   0.000000
    11  C    0.006132   0.000237  -0.000790  -0.004284   0.000370   0.000023
    12  C   -0.000118  -0.000313  -0.001731   0.001780  -0.000122  -0.000033
    13  C    0.007598   0.001086   0.036813  -0.007983  -0.000519   0.000504
    14  H   -0.000403  -0.000003  -0.000137  -0.000081   0.000011  -0.000002
    15  H   -0.000014   0.000001  -0.000043   0.000002   0.000001  -0.000001
    16  C    0.003985  -0.001294  -0.007830   0.011163  -0.000655  -0.000108
    17  C   -0.017481   0.000576  -0.045126   0.002428   0.000598  -0.000768
    18  H   -0.006852   0.000220   0.001528   0.000463  -0.000120   0.000023
    19  H    0.000024   0.000056   0.000340  -0.000182   0.000003   0.000012
    20  C    0.005907   0.041901   0.070431   0.003062  -0.001829   0.002462
    21  C   -0.016062  -0.054271   0.232520  -0.107206   0.006886   0.000679
    22  H    0.001853  -0.001553   0.001264   0.003217  -0.000211  -0.000123
    23  C   -0.061241  -0.110960  -0.484045   0.091901   0.007026  -0.023016
    24  H   -0.033019  -0.001274  -0.001782   0.001366   0.008306  -0.000653
    25  C   -0.020444   0.107062  -3.336448  -0.396696   0.084168  -0.107329
    26  O   -0.000923   0.017726   0.016811  -0.016209   0.000364   0.000523
    27  C    0.447719  -0.031048  -0.487609  -1.407158   0.013987   0.031032
    28  C    0.046764   0.334900   1.410451  -0.875945   0.004499  -0.120608
    29  H    0.000266   0.211740   0.045338  -0.005277   0.000323   0.000887
    30  C   -0.046185  -0.006651  -1.034301   0.463875   0.291549   0.047938
    31  H    0.580912  -0.002055   0.031028  -0.055649  -0.026797   0.002249
    32  O   -0.002055   8.174989  -0.321786   0.005519   0.000245  -0.029018
    33  C    0.031028  -0.321786   9.585120   0.386051   0.012773   0.541965
    34  C   -0.055649   0.005519   0.386051   8.334792  -0.070703  -0.009309
    35  H   -0.026797   0.000245   0.012773  -0.070703   0.517108  -0.000179
    36  H    0.002249  -0.029018   0.541965  -0.009309  -0.000179   0.474567
    37  C    0.013457   0.003337  -0.441031  -0.899746  -0.031312  -0.034238
    38  H    0.002401   0.000287  -0.021280  -0.103318  -0.004896   0.001768
    39  H   -0.000492   0.000170  -0.014223   0.029336  -0.000144  -0.003290
    40  H   -0.000599   0.000230   0.044212   0.025748   0.000747  -0.001921
              37         38         39         40
     1  C    0.000000   0.000000   0.000000   0.000000
     2  H    0.000000   0.000000   0.000000   0.000000
     3  H    0.000000   0.000000   0.000000   0.000000
     4  H    0.000000   0.000000   0.000000   0.000000
     5  N    0.000000   0.000000   0.000000   0.000000
     6  C    0.000000   0.000000   0.000000   0.000000
     7  C    0.000029  -0.000003   0.000000   0.000000
     8  H    0.000000   0.000000   0.000000   0.000000
     9  H    0.000000   0.000000   0.000000   0.000000
    10  H    0.000000   0.000000   0.000000   0.000000
    11  C    0.000295  -0.000046   0.000003   0.000002
    12  C    0.000011   0.000004   0.000000   0.000000
    13  C    0.000990  -0.000030  -0.000010  -0.000008
    14  H   -0.000019   0.000000   0.000000   0.000000
    15  H    0.000000   0.000000   0.000000   0.000000
    16  C    0.000184   0.000044  -0.000003  -0.000001
    17  C   -0.000477  -0.000111   0.000055   0.000030
    18  H    0.000546  -0.000008  -0.000001  -0.000007
    19  H   -0.000011   0.000000   0.000000   0.000000
    20  C    0.006988   0.000201  -0.000123  -0.000095
    21  C   -0.023331  -0.002363   0.000408  -0.000011
    22  H    0.000341   0.000003   0.000000   0.000000
    23  C    0.046704  -0.001169   0.000891   0.001524
    24  H   -0.008650  -0.000419   0.000129   0.000156
    25  C   -0.176765  -0.014581   0.009167   0.016995
    26  O   -0.000699   0.000014  -0.000025  -0.000017
    27  C   -0.015952   0.018826  -0.020886  -0.017898
    28  C   -0.184176  -0.007535  -0.001118   0.018558
    29  H   -0.001770   0.000032   0.000004  -0.000036
    30  C    0.114863   0.105053  -0.044790  -0.073206
    31  H    0.013457   0.002401  -0.000492  -0.000599
    32  O    0.003337   0.000287   0.000170   0.000230
    33  C   -0.441031  -0.021280  -0.014223   0.044212
    34  C   -0.899746  -0.103318   0.029336   0.025748
    35  H   -0.031312  -0.004896  -0.000144   0.000747
    36  H   -0.034238   0.001768  -0.003290  -0.001921
    37  C    7.058981   0.369783   0.400618   0.345715
    38  H    0.369783   0.525100  -0.017754  -0.021365
    39  H    0.400618  -0.017754   0.525745  -0.051027
    40  H    0.345715  -0.021365  -0.051027   0.533818
 Mulliken charges:
               1
     1  C   -0.389503
     2  H    0.171618
     3  H    0.155933
     4  H    0.180630
     5  N    0.064723
     6  C   -0.386361
     7  C   -0.466519
     8  H    0.185650
     9  H    0.157806
    10  H    0.169113
    11  C   -0.373531
    12  C   -0.236757
    13  C   -0.426268
    14  H    0.221027
    15  H    0.189467
    16  C   -0.218262
    17  C    0.639263
    18  H    0.163301
    19  H    0.215296
    20  C    0.040009
    21  C    0.138373
    22  H    0.244462
    23  C    0.156442
    24  H   -0.199917
    25  C    1.216909
    26  O   -0.367023
    27  C   -0.997035
    28  C   -0.077376
    29  H    0.403551
    30  C   -1.157158
    31  H    0.134984
    32  O   -0.340020
    33  C   -0.218978
    34  C    0.599186
    35  H    0.188496
    36  H    0.225957
    37  C   -0.544663
    38  H    0.171363
    39  H    0.187359
    40  H    0.178455
 Sum of Mulliken charges =   0.00000
 Mulliken charges with hydrogens summed into heavy atoms:
               1
     1  C    0.118677
     5  N    0.064723
     6  C    0.126207
     7  C   -0.466519
    11  C   -0.152504
    12  C   -0.047289
    13  C   -0.262967
    16  C   -0.002966
    17  C    0.639263
    20  C    0.284471
    21  C   -0.061544
    23  C    0.156442
    25  C    1.216909
    26  O   -0.367023
    27  C   -0.862052
    28  C   -0.077376
    30  C   -0.968662
    32  O    0.063531
    33  C    0.006979
    34  C    0.599186
    37  C   -0.007486
 Electronic spatial extent (au):  <R**2>=          37589.7517
 Charge=              0.0000 electrons
 Dipole moment (field-independent basis, Debye):
    X=              2.3034    Y=              1.5021    Z=             -8.6420  Tot=              9.0689
 Quadrupole moment (field-independent basis, Debye-Ang):
   XX=           -132.1853   YY=           -132.0452   ZZ=           -171.4198
   XY=             -5.9193   XZ=             25.4308   YZ=             70.6540
 Traceless Quadrupole moment (field-independent basis, Debye-Ang):
   XX=             13.0314   YY=             13.1716   ZZ=            -26.2030
   XY=             -5.9193   XZ=             25.4308   YZ=             70.6540
 Octapole moment (field-independent basis, Debye-Ang**2):
  XXX=            370.4676  YYY=           1900.5188  ZZZ=          -2118.0210  XYY=            113.8584
  XXY=            662.6662  XXZ=           -630.8081  XZZ=            324.7340  YZZ=           1089.6458
  YYZ=          -1035.6778  XYZ=           -129.5072
 Hexadecapole moment (field-independent basis, Debye-Ang**3):
 XXXX=          -1426.4856 YYYY=         -21148.4925 ZZZZ=         -31593.7090 XXXY=          -2340.8266
 XXXZ=           1342.5611 YYYX=          -1969.0496 YYYZ=           9740.5568 ZZZX=           3127.6830
 ZZZY=          11172.3994 XXYY=          -3892.9882 XXZZ=          -5565.6914 YYZZ=         -11487.1187
 XXYZ=           2599.4498 YYXZ=           1153.3824 ZZXY=          -1816.5049
 N-N= 1.472403609596D+03 E-N=-5.045027923711D+03  KE= 8.983000866908D+02
 Leave Link  601 at Mon Nov 13 15:50:15 2017, MaxMem=  3758096384 cpu:         0.3
 (Enter /share/apps/gaussian/g09_D01/g09/l9999.exe)
 1\1\GINC-NXN36\SP\RwB97XD TD-FC\6-311++G(d,p)\C18H19N1O2\BTX008\13-Nov
 -2017\0\\#p wb97xd 6-311++G** td=(nstates=4) nosymm\\Title\\0,1\C,0,-0
 .125143,-5.357144,-1.985949\H,0,-0.52797,-4.338587,-1.872346\H,0,-0.07
 8757,-5.592973,-3.053307\H,0,0.901309,-5.377715,-1.583273\N,0,-0.96939
 5,-6.334147,-1.31545\C,0,-1.548169,-7.426475,-2.081782\C,0,-1.162899,-
 6.267018,0.026685\H,0,-1.112251,-8.39803,-1.797378\H,0,-1.357464,-7.26
 0637,-3.14691\H,0,-2.637604,-7.469095,-1.932311\C,0,-0.613448,-5.20022
 1,0.796547\C,0,-1.91954,-7.251077,0.721737\C,0,-0.802158,-5.131367,2.1
 57696\H,0,-0.030978,-4.423285,0.307054\H,0,-2.366223,-8.082073,0.18124
 6\C,0,-2.095476,-7.164898,2.086614\C,0,-1.538425,-6.116474,2.856877\H,
 0,-0.356477,-4.300802,2.704675\H,0,-2.670615,-7.93339,2.604025\C,0,-1.
 71337,-6.118159,4.273876\C,0,-1.170938,-5.244528,5.174949\H,0,-2.34185
 9,-6.916192,4.679413\C,0,-1.412104,-5.374186,6.588987\H,0,-0.52291,-4.
 442175,4.829834\C,0,-0.834666,-4.414747,7.540241\O,0,-2.145271,-6.3276
 94,7.041236\C,0,-0.041568,-3.316385,7.151187\C,0,-1.104932,-4.568739,8
 .934077\H,0,-2.118704,-6.098184,8.506729\C,0,0.442707,-2.407864,8.0757
 13\H,0,0.197759,-3.153208,6.101743\O,0,-1.86038,-5.592924,9.381092\C,0
 ,-0.610224,-3.642246,9.85696\C,0,0.149299,-2.550179,9.445643\H,0,1.058
 887,-1.573371,7.742052\H,0,-0.836367,-3.799543,10.91198\C,0,0.630853,-
 1.539727,10.444646\H,0,1.117354,-0.686698,9.954941\H,0,1.348321,-1.983
 249,11.153018\H,0,-0.210664,-1.151986,11.039504\\Version=ES64L-G09RevD
 .01\HF=-902.4798741\RMSD=4.294e-09\PG=C01 [X(C18H19N1O2)]\\@


 I CLAIM NOT TO HAVE CONTROLLED EVENTS,
 BUT CONFESS PLAINLY THAT EVENTS HAVE CONTROLLED ME.

                                         A. LINCOLN
 Job cpu time:       0 days  2 hours 35 minutes 30.6 seconds.
 File lengths (MBytes):  RWF=    513 Int=      0 D2E=      0 Chk=     58 Scr=      1
 Normal termination of Gaussian 09 at Mon Nov 13 15:50:16 2017.
