 Entering Gaussian System, Link 0=g09
 Input=2hc_2_663-mega_dimer_1_mon-1.com
 Output=2hc_2_663-mega_dimer_1_mon-1.out
 Initial command:
 /share/apps/gaussian/g09_D01/g09/l1.exe "/tmp/160962.1.all.q/Gau-32451.inp" -scrdir="/tmp/160962.1.all.q/"
 Entering Link 1 = /share/apps/gaussian/g09_D01/g09/l1.exe PID=     32452.
  
 Copyright (c) 1988,1990,1992,1993,1995,1998,2003,2009,2013,
            Gaussian, Inc.  All Rights Reserved.
  
 This is part of the Gaussian(R) 09 program.  It is based on
 the Gaussian(R) 03 system (copyright 2003, Gaussian, Inc.),
 the Gaussian(R) 98 system (copyright 1998, Gaussian, Inc.),
 the Gaussian(R) 94 system (copyright 1995, Gaussian, Inc.),
 the Gaussian 92(TM) system (copyright 1992, Gaussian, Inc.),
 the Gaussian 90(TM) system (copyright 1990, Gaussian, Inc.),
 the Gaussian 88(TM) system (copyright 1988, Gaussian, Inc.),
 the Gaussian 86(TM) system (copyright 1986, Carnegie Mellon
 University), and the Gaussian 82(TM) system (copyright 1983,
 Carnegie Mellon University). Gaussian is a federally registered
 trademark of Gaussian, Inc.
  
 This software contains proprietary and confidential information,
 including trade secrets, belonging to Gaussian, Inc.
  
 This software is provided under written license and may be
 used, copied, transmitted, or stored only in accord with that
 written license.
  
 The following legend is applicable only to US Government
 contracts under FAR:
  
                    RESTRICTED RIGHTS LEGEND
  
 Use, reproduction and disclosure by the US Government is
 subject to restrictions as set forth in subparagraphs (a)
 and (c) of the Commercial Computer Software - Restricted
 Rights clause in FAR 52.227-19.
  
 Gaussian, Inc.
 340 Quinnipiac St., Bldg. 40, Wallingford CT 06492
  
  
 ---------------------------------------------------------------
 Warning -- This program may not be used in any manner that
 competes with the business of Gaussian, Inc. or will provide
 assistance to any competitor of Gaussian, Inc.  The licensee
 of this program is prohibited from giving any competitor of
 Gaussian, Inc. access to this program.  By using this program,
 the user acknowledges that Gaussian, Inc. is engaged in the
 business of creating and licensing software in the field of
 computational chemistry and represents and warrants to the
 licensee that it is not a competitor of Gaussian, Inc. and that
 it will not use this program in any manner prohibited above.
 ---------------------------------------------------------------
  

 Cite this work as:
 Gaussian 09, Revision D.01,
 M. J. Frisch, G. W. Trucks, H. B. Schlegel, G. E. Scuseria, 
 M. A. Robb, J. R. Cheeseman, G. Scalmani, V. Barone, B. Mennucci, 
 G. A. Petersson, H. Nakatsuji, M. Caricato, X. Li, H. P. Hratchian, 
 A. F. Izmaylov, J. Bloino, G. Zheng, J. L. Sonnenberg, M. Hada, 
 M. Ehara, K. Toyota, R. Fukuda, J. Hasegawa, M. Ishida, T. Nakajima, 
 Y. Honda, O. Kitao, H. Nakai, T. Vreven, J. A. Montgomery, Jr., 
 J. E. Peralta, F. Ogliaro, M. Bearpark, J. J. Heyd, E. Brothers, 
 K. N. Kudin, V. N. Staroverov, T. Keith, R. Kobayashi, J. Normand, 
 K. Raghavachari, A. Rendell, J. C. Burant, S. S. Iyengar, J. Tomasi, 
 M. Cossi, N. Rega, J. M. Millam, M. Klene, J. E. Knox, J. B. Cross, 
 V. Bakken, C. Adamo, J. Jaramillo, R. Gomperts, R. E. Stratmann, 
 O. Yazyev, A. J. Austin, R. Cammi, C. Pomelli, J. W. Ochterski, 
 R. L. Martin, K. Morokuma, V. G. Zakrzewski, G. A. Voth, 
 P. Salvador, J. J. Dannenberg, S. Dapprich, A. D. Daniels, 
 O. Farkas, J. B. Foresman, J. V. Ortiz, J. Cioslowski, 
 and D. J. Fox, Gaussian, Inc., Wallingford CT, 2013.
 
 ******************************************
 Gaussian 09:  ES64L-G09RevD.01 24-Apr-2013
                 2-Nov-2017 
 ******************************************
 %chk=2hc_2_663-mega_dimer_1_mon-1.chk
 %nproc=4
 Will use up to    4 processors via shared memory.
 %mem=28GB
 ------------------------------------------
 #p wb97xd 6-311++G** td=(nstates=4) nosymm
 ------------------------------------------
 1/38=1/1;
 2/12=2,15=1,17=6,18=5,40=1/2;
 3/5=4,6=6,7=1111,11=9,16=1,25=1,30=1,74=-58/1,2,8,3;
 4//1;
 5/5=2,38=5/2;
 8/6=1,10=2,108=4/1;
 9/41=4,42=1,70=2/14;
 6/7=2,8=2,9=2,10=2/1;
 99/5=1,9=1/99;
 Leave Link    1 at Thu Nov  2 20:35:22 2017, MaxMem=  3758096384 cpu:         0.3
 (Enter /share/apps/gaussian/g09_D01/g09/l101.exe)
 -----
 Title
 -----
 Symbolic Z-matrix:
 Charge =  0 Multiplicity = 1
 N                     4.09686  -0.39652  -2.06582 
 C                     4.91409  -0.59432  -3.25304 
 C                     3.16316  -1.43813  -1.65619 
 C                     4.20424   0.74562  -1.34135 
 H                     5.98524  -0.51558  -3.01678 
 H                     4.72163  -1.59036  -3.661 
 H                     4.67848   0.14807  -4.03159 
 H                     3.19455  -2.2547   -2.38412 
 H                     3.42636  -1.84038  -0.666 
 H                     2.13289  -1.05153  -1.60931 
 C                     3.41387   0.9513   -0.17241 
 C                     5.10591   1.78115  -1.718 
 C                     3.51386   2.11562   0.55162 
 H                     2.71748   0.18416   0.15791 
 C                     5.19074   2.93979  -0.97381 
 H                     5.73486   1.66628  -2.59845 
 C                     4.39828   3.15901   0.17892 
 H                     2.88743   2.2266    1.43617 
 H                     5.88612   3.72155  -1.27793 
 C                     4.49619   4.39968   0.88254 
 C                     3.78932   4.75835   1.99908 
 H                     5.19278   5.13573   0.46677 
 C                     3.90755   6.04764   2.62272 
 H                     3.0854    4.05143   2.43375 
 O                     4.65994   6.96841   2.13669 
 C                     3.12909   6.35164   3.83962 
 H                     4.23611   8.17074   2.91642 
 C                     3.0362    7.70041   4.28606 
 C                     2.46243   5.36145   4.58863 
 O                     3.67545   8.69208   3.62562 
 C                     2.25759   8.00905   5.41201 
 C                     1.72544   5.65278   5.72879 
 H                     2.51763   4.32116   4.27226 
 C                     1.62215   7.00136   6.12236 
 H                     2.17195   9.05144   5.71917 
 C                     1.04779   4.55675   6.50579 
 H                     1.03266   7.25541   7.00604 
 H                     1.47286   4.45911   7.51775 
 H                    -0.02279   4.76756   6.63628 
 H                     1.14507   3.59367   5.98728 
 
 NAtoms=     40 NQM=       40 NQMF=       0 NMMI=      0 NMMIF=      0
                NMic=       0 NMicF=      0.
                    Isotopes and Nuclear Properties:
 (Nuclear quadrupole moments (NQMom) in fm**2, nuclear magnetic moments (NMagM)
  in nuclear magnetons)

  Atom         1           2           3           4           5           6           7           8           9          10
 IAtWgt=          14          12          12          12           1           1           1           1           1           1
 AtmWgt=  14.0030740  12.0000000  12.0000000  12.0000000   1.0078250   1.0078250   1.0078250   1.0078250   1.0078250   1.0078250
 NucSpn=           2           0           0           0           1           1           1           1           1           1
 AtZEff=   0.0000000   0.0000000   0.0000000   0.0000000   0.0000000   0.0000000   0.0000000   0.0000000   0.0000000   0.0000000
 NQMom=    2.0440000   0.0000000   0.0000000   0.0000000   0.0000000   0.0000000   0.0000000   0.0000000   0.0000000   0.0000000
 NMagM=    0.4037610   0.0000000   0.0000000   0.0000000   2.7928460   2.7928460   2.7928460   2.7928460   2.7928460   2.7928460
 AtZNuc=   7.0000000   6.0000000   6.0000000   6.0000000   1.0000000   1.0000000   1.0000000   1.0000000   1.0000000   1.0000000

  Atom        11          12          13          14          15          16          17          18          19          20
 IAtWgt=          12          12          12           1          12           1          12           1           1          12
 AtmWgt=  12.0000000  12.0000000  12.0000000   1.0078250  12.0000000   1.0078250  12.0000000   1.0078250   1.0078250  12.0000000
 NucSpn=           0           0           0           1           0           1           0           1           1           0
 AtZEff=   0.0000000   0.0000000   0.0000000   0.0000000   0.0000000   0.0000000   0.0000000   0.0000000   0.0000000   0.0000000
 NQMom=    0.0000000   0.0000000   0.0000000   0.0000000   0.0000000   0.0000000   0.0000000   0.0000000   0.0000000   0.0000000
 NMagM=    0.0000000   0.0000000   0.0000000   2.7928460   0.0000000   2.7928460   0.0000000   2.7928460   2.7928460   0.0000000
 AtZNuc=   6.0000000   6.0000000   6.0000000   1.0000000   6.0000000   1.0000000   6.0000000   1.0000000   1.0000000   6.0000000

  Atom        21          22          23          24          25          26          27          28          29          30
 IAtWgt=          12           1          12           1          16          12           1          12          12          16
 AtmWgt=  12.0000000   1.0078250  12.0000000   1.0078250  15.9949146  12.0000000   1.0078250  12.0000000  12.0000000  15.9949146
 NucSpn=           0           1           0           1           0           0           1           0           0           0
 AtZEff=   0.0000000   0.0000000   0.0000000   0.0000000   0.0000000   0.0000000   0.0000000   0.0000000   0.0000000   0.0000000
 NQMom=    0.0000000   0.0000000   0.0000000   0.0000000   0.0000000   0.0000000   0.0000000   0.0000000   0.0000000   0.0000000
 NMagM=    0.0000000   2.7928460   0.0000000   2.7928460   0.0000000   0.0000000   2.7928460   0.0000000   0.0000000   0.0000000
 AtZNuc=   6.0000000   1.0000000   6.0000000   1.0000000   8.0000000   6.0000000   1.0000000   6.0000000   6.0000000   8.0000000

  Atom        31          32          33          34          35          36          37          38          39          40
 IAtWgt=          12          12           1          12           1          12           1           1           1           1
 AtmWgt=  12.0000000  12.0000000   1.0078250  12.0000000   1.0078250  12.0000000   1.0078250   1.0078250   1.0078250   1.0078250
 NucSpn=           0           0           1           0           1           0           1           1           1           1
 AtZEff=   0.0000000   0.0000000   0.0000000   0.0000000   0.0000000   0.0000000   0.0000000   0.0000000   0.0000000   0.0000000
 NQMom=    0.0000000   0.0000000   0.0000000   0.0000000   0.0000000   0.0000000   0.0000000   0.0000000   0.0000000   0.0000000
 NMagM=    0.0000000   0.0000000   2.7928460   0.0000000   2.7928460   0.0000000   2.7928460   2.7928460   2.7928460   2.7928460
 AtZNuc=   6.0000000   6.0000000   1.0000000   6.0000000   1.0000000   6.0000000   1.0000000   1.0000000   1.0000000   1.0000000
 Leave Link  101 at Thu Nov  2 20:35:24 2017, MaxMem=  3758096384 cpu:         0.3
 (Enter /share/apps/gaussian/g09_D01/g09/l202.exe)
                          Input orientation:                          
 ---------------------------------------------------------------------
 Center     Atomic      Atomic             Coordinates (Angstroms)
 Number     Number       Type             X           Y           Z
 ---------------------------------------------------------------------
      1          7           0        4.096860   -0.396522   -2.065820
      2          6           0        4.914092   -0.594323   -3.253037
      3          6           0        3.163159   -1.438129   -1.656186
      4          6           0        4.204238    0.745615   -1.341350
      5          1           0        5.985241   -0.515578   -3.016782
      6          1           0        4.721630   -1.590357   -3.661002
      7          1           0        4.678475    0.148074   -4.031589
      8          1           0        3.194547   -2.254703   -2.384121
      9          1           0        3.426361   -1.840379   -0.666002
     10          1           0        2.132892   -1.051529   -1.609305
     11          6           0        3.413868    0.951299   -0.172407
     12          6           0        5.105907    1.781145   -1.718000
     13          6           0        3.513859    2.115618    0.551623
     14          1           0        2.717480    0.184157    0.157913
     15          6           0        5.190742    2.939792   -0.973811
     16          1           0        5.734864    1.666280   -2.598454
     17          6           0        4.398282    3.159007    0.178919
     18          1           0        2.887427    2.226603    1.436169
     19          1           0        5.886118    3.721553   -1.277930
     20          6           0        4.496192    4.399678    0.882540
     21          6           0        3.789319    4.758355    1.999082
     22          1           0        5.192785    5.135733    0.466766
     23          6           0        3.907551    6.047638    2.622715
     24          1           0        3.085400    4.051435    2.433749
     25          8           0        4.659939    6.968406    2.136689
     26          6           0        3.129087    6.351643    3.839616
     27          1           0        4.236105    8.170739    2.916420
     28          6           0        3.036202    7.700413    4.286060
     29          6           0        2.462429    5.361451    4.588630
     30          8           0        3.675449    8.692082    3.625623
     31          6           0        2.257594    8.009050    5.412007
     32          6           0        1.725437    5.652781    5.728790
     33          1           0        2.517632    4.321162    4.272261
     34          6           0        1.622154    7.001359    6.122356
     35          1           0        2.171953    9.051438    5.719167
     36          6           0        1.047788    4.556747    6.505795
     37          1           0        1.032658    7.255414    7.006038
     38          1           0        1.472863    4.459112    7.517750
     39          1           0       -0.022793    4.767561    6.636276
     40          1           0        1.145070    3.593672    5.987280
 ---------------------------------------------------------------------
                    Distance matrix (angstroms):
                    1          2          3          4          5
     1  N    0.000000
     2  C    1.454812   0.000000
     3  C    1.457581   2.515494   0.000000
     4  C    1.356784   2.440056   2.439612   0.000000
     5  H    2.117660   1.099717   3.265956   2.751300   0.000000
     6  H    2.088106   1.093417   2.543874   3.332453   1.779574
     7  H    2.121110   1.101277   3.233382   2.796309   1.782668
     8  H    2.090053   2.543366   1.094380   3.332980   3.348550
     9  H    2.119854   3.233999   1.100702   2.783622   3.718754
    10  H    2.120050   3.262816   1.101412   2.755359   4.136282
    11  C    2.422419   3.758976   2.823796   1.425980   4.105381
    12  C    2.425157   2.834780   3.760561   1.423796   2.781187
    13  C    3.674472   4.876461   4.198396   2.436571   5.075868
    14  H    2.680460   4.131067   2.474146   2.184828   4.609401
    15  C    3.676962   4.214425   4.872671   2.433657   4.092009
    16  H    2.687361   2.492483   4.139914   2.184205   2.235664
    17  C    4.215625   5.111934   5.101647   2.858904   5.121867
    18  H    4.539542   5.835550   4.803014   3.412027   6.078222
    19  H    4.558592   4.844860   5.846358   3.418911   4.581125
    20  C    5.644097   6.497514   6.504006   4.287552   6.448389
    21  C    6.571968   7.582943   7.221459   5.237626   7.602324
    22  H    6.182304   6.837262   7.200137   4.849706   6.685836
    23  C    7.971537   8.924866   8.654468   6.626710   8.899243
    24  H    6.407300   7.567478   6.846088   5.141169   7.679517
    25  O    8.498253   9.290243   9.343237   7.143357   9.182848
    26  C    9.019340  10.086546   9.533391   7.708820  10.115658
    27  H    9.911613  10.740027  10.695339   8.559328  10.663699
    28  C   10.345614  11.365170  10.901346   9.022265  11.381162
    29  C    8.950269  10.147593   9.258674   7.713916  10.236795
    30  O   10.731861  11.622716  11.435957   9.385988  11.586099
    31  C   11.399756  12.496319  11.833368  10.107163  12.554247
    32  C   10.147594  11.395922  10.338565   8.956094  11.518664
    33  H    8.057405   9.302426   8.290514   6.865989   9.410022
    34  C   11.309246  12.507167  11.580387  10.075138  12.612086
    35  H   12.392548  13.455871  12.861156  11.089084  13.505027
    36  C   10.358779  11.692589  10.345592   9.277154  11.865344
    37  H   12.257245  13.488236  12.455956  11.050579  13.615187
    38  H   11.059266  12.385036  11.036107   9.986697  12.493417
    39  H   10.925464  12.284997  10.836319   9.883641  12.537526
    40  H    9.459764  10.822582   9.370927   8.436750  11.017546
                    6          7          8          9         10
     6  H    0.000000
     7  H    1.778016   0.000000
     8  H    2.098515   3.269485   0.000000
     9  H    3.272653   4.104742   1.782508   0.000000
    10  H    3.346843   3.713018   1.781875   1.784704   0.000000
    11  C    4.510050   4.139769   3.901055   2.835006   2.777930
    12  C    3.910237   2.863968   4.514984   4.128318   4.107880
    13  C    5.739266   5.121854   5.274491   4.140070   4.075230
    14  H    4.663650   4.625876   3.554936   2.297846   2.234216
    15  C    5.288035   4.172063   5.740779   5.104686   5.068031
    16  H    3.572301   2.339825   4.676885   4.621711   4.619427
    17  C    6.116045   5.183879   6.109534   5.162595   5.104738
    18  H    6.626812   6.117558   5.896698   4.609763   4.537663
    19  H    5.937293   4.670203   6.647093   6.112278   6.081022
    20  C    7.521643   6.500617   7.526363   6.517732   6.442836
    21  C    8.556395   7.642924   8.291514   7.125847   7.036971
    22  H    7.905741   6.736205   8.169398   7.284885   7.207997
    23  C    9.924051   8.926306   9.721402   8.559674   8.453259
    24  H    8.464813   7.718466   7.936697   6.666197   6.579802
    25  O   10.337768   9.195919  10.375492   9.325850   9.205313
    26  C   11.039512  10.141042  10.621129   9.354047   9.246086
    27  H   11.780374  10.622320  11.741823  10.663579  10.485987
    28  C   12.341591  11.354214  11.984186  10.756480  10.590929
    29  C   11.022162  10.314957  10.351862   8.966977   8.924646
    30  O   12.645867  11.516902  12.497215  11.375976  11.167896
    31  C   13.436502  12.523463  12.922930  11.632689  11.463353
    32  C   12.231452  11.588237  11.423918   9.996697   9.947936
    33  H   10.136090   9.541375   9.381238   7.948385   7.975378
    34  C   13.384260  12.625815  12.669146  11.292179  11.175350
    35  H   14.413057  13.439858  13.947681  12.687616  12.481105
    36  C   12.435745  11.985606  11.403290   9.900278   9.923964
    37  H   14.340220  13.624811  13.538507  12.137688  12.018317
    38  H   13.119263  12.737670  12.086627  10.510639  10.682038
    39  H   12.998716  12.539734  11.875649  10.434788  10.319806
    40  H   11.521948  11.168475  10.415575   8.888158   8.958894
                   11         12         13         14         15
    11  C    0.000000
    12  C    2.437314   0.000000
    13  C    1.374720   2.792432   0.000000
    14  H    1.087462   3.431327   2.125975   0.000000
    15  C    2.784535   1.379666   2.412084   3.871866   0.000000
    16  H    3.432772   1.088109   3.880432   4.347281   2.134799
    17  C    2.442637   2.448987   1.417665   3.416909   1.415922
    18  H    2.119211   3.881864   1.089567   2.415452   3.409091
    19  H    3.874082   2.137188   3.399103   4.961359   1.089581
    20  C    3.765057   3.740491   2.508269   4.632442   2.461647
    21  C    4.398864   4.941041   3.025735   5.045991   3.756228
    22  H    4.591577   4.004249   3.456456   5.544423   2.626295
    23  C    5.833447   6.203292   4.461524   6.470852   4.923442
    24  H    4.063346   5.145258   2.733745   4.502292   4.156883
    25  O    6.564312   6.478055   5.232159   7.329034   5.117294
    26  C    6.733583   7.462196   5.376138   7.194598   6.249818
    27  H    7.895394   7.941116   6.540519   8.584933   6.588477
    28  C    8.097598   8.681598   6.735288   8.581217   7.414297
    29  C    6.559127   7.718818   5.285675   6.819141   6.651983
    30  O    8.626307   8.852207   7.261230   9.237289   7.519292
    31  C    9.073836   9.886187   7.741710   9.436416   8.664837
    32  C    7.731679   9.048305   6.520202   7.869223   8.018323
    33  H    5.649273   7.002434   4.438473   5.838031   6.047724
    34  C    8.912772  10.042826   7.647358   9.124065   8.921140
    35  H   10.092832  10.806327   8.752704  10.481117   9.553076
    36  C    7.949589   9.581393   6.891501   7.886889   8.701903
    37  H    9.845918  11.075550   8.615877   9.986897   9.979591
    38  H    8.672414  10.279572   7.627880   8.601832   9.393485
    39  H    8.528344  10.247740   7.520885   8.395587   9.403994
    40  H    7.076109   8.851261   6.110824   6.933887   8.077859
                   16         17         18         19         20
    16  H    0.000000
    17  C    3.424688   0.000000
    18  H    4.969914   2.175486   0.000000
    19  H    2.447613   2.156971   4.312001   0.000000
    20  C    4.595987   1.429662   2.759870   2.656949   0.000000
    21  C    5.872258   2.498348   2.745915   4.026206   1.369301
    22  H    4.661172   2.149776   3.836334   2.350442   1.095393
    23  C    7.056626   3.815383   4.129026   4.953830   2.467890
    24  H    6.166984   2.757598   2.089108   4.661481   2.125525
    25  O    7.189547   4.291020   5.110501   4.868798   2.863227
    26  C    8.378034   5.020407   4.780263   6.380272   3.797821
    27  H    8.658412   5.712939   6.272386   6.333275   4.292460
    28  C    9.544112   6.272817   6.173055   7.410218   4.960884
    29  C    8.718790   5.295643   4.466084   6.987663   4.335470
    30  O    9.609486   6.558748   6.871470   7.323800   5.159734
    31  C   10.793036   7.449206   7.045614   8.735220   6.209264
    32  C   10.065321   6.645606   5.613868   8.374666   5.721319
    33  H    8.037767   4.652193   3.545045   6.520034   3.925694
    34  C   11.019527   7.602302   6.808785   9.148921   6.518014
    35  H   11.679799   8.388780   8.089150   9.547883   7.101684
    36  C   10.640058   7.294439   5.874943   9.202900   6.598269
    37  H   12.066293   8.643930   7.729977  10.230756   7.592662
    38  H   11.327054   8.006672   6.631042   9.868374   7.291780
    39  H   11.315865   7.989419   6.478191   9.931970   7.325438
    40  H    9.924509   6.671535   5.061353   8.676241   6.159386
                   21         22         23         24         25
    21  C    0.000000
    22  H    2.111900   0.000000
    23  C    1.437062   2.670489   0.000000
    24  H    1.088197   3.079902   2.167133   0.000000
    25  O    2.379336   2.535993   1.284571   3.328083   0.000000
    26  C    2.522308   4.136835   1.476236   2.696169   2.371469
    27  H    3.561670   4.015881   2.168356   4.304156   1.494396
    28  C    3.801731   5.080890   2.501526   4.092495   2.791443
    29  C    2.971552   4.949298   2.534571   2.597643   3.663792
    30  O    4.258264   4.992825   2.837742   4.827455   2.481371
    31  C    4.955931   6.428585   3.788093   5.021753   4.193079
    32  C    4.355494   6.322874   3.816443   3.907826   4.821344
    33  H    2.641149   4.722474   2.762896   1.942998   4.019707
    34  C    5.170015   6.943750   4.287203   4.944589   5.011463
    35  H    5.906392   7.214284   4.650068   6.052139   4.833554
    36  C    5.278930   7.347523   5.047704   4.581349   6.160586
    37  H    6.237314   8.035035   5.379336   5.948534   6.078659
    38  H    5.992596   8.000751   5.693197   5.349163   6.738681
    39  H    6.002987   8.087067   5.761499   5.275882   6.856966
    40  H    4.924862   7.016981   4.997354   4.074556   6.210490
                   26         27         28         29         30
    26  C    0.000000
    27  H    2.320967   0.000000
    28  C    1.423770   1.880661   0.000000
    29  C    1.409232   3.719450   2.427243   0.000000
    30  O    2.412874   1.043601   1.352117   3.673133   0.000000
    31  C    2.445181   3.188825   1.403297   2.780232   2.380759
    32  C    2.455121   4.533541   2.827078   1.388523   4.178900
    33  H    2.164235   4.428397   3.418836   1.088732   4.567671
    34  C    2.811384   4.298629   2.420783   2.397431   3.648046
    35  H    3.426034   3.590508   2.150812   3.870206   2.602415
    36  C    3.829095   6.009153   4.331703   2.514812   5.683396
    37  H    3.903594   5.274928   3.407417   3.387507   4.524993
    38  H    4.455718   6.525636   4.836722   3.220745   6.157765
    39  H    4.501663   6.599785   4.845883   3.274429   6.175993
    40  H    4.019352   6.319353   4.830720   2.610881   6.162307
                   31         32         33         34         35
    31  C    0.000000
    32  C    2.436298   0.000000
    33  H    3.868741   2.126560   0.000000
    34  C    1.387019   1.408625   3.377601   0.000000
    35  H    1.090071   3.427877   4.958683   2.160478   0.000000
    36  C    3.818167   1.504738   2.684142   2.540285   4.699444
    37  H    2.146944   2.163270   4.276508   1.092219   2.485907
    38  H    4.201430   2.165414   3.412297   2.903865   4.981274
    39  H    4.148042   2.159503   3.498800   2.821315   4.899959
    40  H    4.589576   2.154895   2.313970   3.443572   5.559998
                   36         37         38         39         40
    36  C    0.000000
    37  H    2.744681   0.000000
    38  H    1.101941   2.876619   0.000000
    39  H    1.098914   2.727657   1.763271   0.000000
    40  H    1.098105   3.802481   1.788511   1.778515   0.000000
 Symmetry turned off by external request.
 Stoichiometry    C18H19NO2
 Framework group  C1[X(C18H19NO2)]
 Deg. of freedom   114
 Full point group                 C1      NOp   1
 Rotational constants (GHZ):      0.7345790      0.1037181      0.0914774
 Leave Link  202 at Thu Nov  2 20:35:24 2017, MaxMem=  3758096384 cpu:         0.0
 (Enter /share/apps/gaussian/g09_D01/g09/l301.exe)
 Standard basis: 6-311++G(d,p) (5D, 7F)
 Ernie: Thresh=  0.10000D-02 Tol=  0.10000D-05 Strict=F.
   595 basis functions,   927 primitive gaussians,   616 cartesian basis functions
    75 alpha electrons       75 beta electrons
       nuclear repulsion energy      1481.1129592919 Hartrees.
 IExCor= 4639 DFT=T Ex+Corr=wB97XD ExCW=0 ScaHFX=  1.000000
 ScaDFX=  1.000000  1.000000  1.000000  1.000000 ScalE2=  1.000000  1.000000
 IRadAn=      0 IRanWt=     -1 IRanGd=            0 ICorTp=0 IEmpDi=121
  HFx wShort=  0.000000 wLong=  0.200000 cFull=  0.222036 cShort=  0.000000 cLong=  0.777964
  DFx wShort=  0.000000 wLong=  0.200000 cFull=  0.000000 cShort=  0.000000 cLong=  1.000000
 NAtoms=   40 NActive=   40 NUniq=   40 SFac= 1.00D+00 NAtFMM=   60 NAOKFM=F Big=F
 Integral buffers will be    131072 words long.
 Raffenetti 1 integral format.
 Two-electron integral symmetry is turned off.
 R6Disp:  Grimme-D2 Dispersion energy=       -0.0252868587 Hartrees.
 Nuclear repulsion after empirical dispersion term =     1481.0876724332 Hartrees.
 Leave Link  301 at Thu Nov  2 20:35:24 2017, MaxMem=  3758096384 cpu:         0.1
 (Enter /share/apps/gaussian/g09_D01/g09/l302.exe)
 NPDir=0 NMtPBC=     1 NCelOv=     1 NCel=       1 NClECP=     1 NCelD=      1
         NCelK=      1 NCelE2=     1 NClLst=     1 CellRange=     0.0.
 One-electron integrals computed using PRISM.
 NBasis=   595 RedAO= T EigKep=  1.22D-06  NBF=   595
 NBsUse=   588 1.00D-06 EigRej=  9.10D-07 NBFU=   588
 Precomputing XC quadrature grid using
 IXCGrd= 4 IRadAn=           0 IRanWt=          -1 IRanGd=           0 AccXCQ= 0.00D+00.
 Generated NRdTot=       0 NPtTot=           0 NUsed=           0 NTot=          32
 NSgBfM=   599   599   599   599   599 MxSgAt=    40 MxSgA2=    40.
 Leave Link  302 at Thu Nov  2 20:35:25 2017, MaxMem=  3758096384 cpu:         3.4
 (Enter /share/apps/gaussian/g09_D01/g09/l308.exe)
 Leave Link  308 at Thu Nov  2 20:35:25 2017, MaxMem=  3758096384 cpu:         0.4
 (Enter /share/apps/gaussian/g09_D01/g09/l303.exe)
 DipDrv:  MaxL=1.
 Leave Link  303 at Thu Nov  2 20:35:25 2017, MaxMem=  3758096384 cpu:         0.3
 (Enter /share/apps/gaussian/g09_D01/g09/l401.exe)
 ExpMin= 3.60D-02 ExpMax= 8.59D+03 ExpMxC= 1.30D+03 IAcc=3 IRadAn=         5 AccDes= 0.00D+00
 Harris functional with IExCor= 4639 and IRadAn=       5 diagonalized for initial guess.
 HarFok:  IExCor= 4639 AccDes= 0.00D+00 IRadAn=         5 IDoV= 1 UseB2=F ITyADJ=14
 ICtDFT=  3500011 ScaDFX=  1.000000  1.000000  1.000000  1.000000
 FoFCou: FMM=F IPFlag=           0 FMFlag=      100000 FMFlg1=           0
         NFxFlg=           0 DoJE=T BraDBF=F KetDBF=T FulRan=T
         wScrn=  0.000000 ICntrl=     500 IOpCl=  0 I1Cent=   200000004 NGrid=           0
         NMat0=    1 NMatS0=      1 NMatT0=    0 NMatD0=    1 NMtDS0=    0 NMtDT0=    0
 Symmetry not used in FoFCou.
 Harris En= -862.832451924114    
 JPrj=0 DoOrth=F DoCkMO=F.
 Leave Link  401 at Thu Nov  2 20:35:37 2017, MaxMem=  3758096384 cpu:        49.0
 (Enter /share/apps/gaussian/g09_D01/g09/l502.exe)
 Closed shell SCF:
 Using DIIS extrapolation, IDIIS=  1040.
 Two-electron integral symmetry not used.
 IVT=     1164390 IEndB=     1164390 NGot=  3758096384 MDV=  3757328707
 LenX=  3757328707 LenY=  3756948635
 Requested convergence on RMS density matrix=1.00D-08 within 128 cycles.
 Requested convergence on MAX density matrix=1.00D-06.
 Requested convergence on             energy=1.00D-06.
 No special actions if energy rises.
 Fock matrices will be formed incrementally for  20 cycles.

 Cycle   1  Pass 1  IDiag  1:
 FoFJK:  IHMeth= 1 ICntrl=       0 DoSepK=T KAlg= 0 I1Cent=   0 FoldK=F
 IRaf=         1 NMat=   1 IRICut=       1 DoRegI=T DoRafI=F ISym2E= 0.
 FoFCou: FMM=F IPFlag=           0 FMFlag=      100000 FMFlg1=           0
         NFxFlg=           0 DoJE=T BraDBF=F KetDBF=F FulRan=T
         wScrn=  0.000000 ICntrl=     500 IOpCl=  0 I1Cent=           0 NGrid=           0
         NMat0=    1 NMatS0=      1 NMatT0=    0 NMatD0=    1 NMtDS0=    0 NMtDT0=    0
 Symmetry not used in FoFCou.
 E= -902.178421713707    
 DIIS: error= 4.27D-02 at cycle   1 NSaved=   1.
 NSaved= 1 IEnMin= 1 EnMin= -902.178421713707     IErMin= 1 ErrMin= 4.27D-02
 ErrMax= 4.27D-02  0.00D+00 EMaxC= 1.00D-01 BMatC= 1.95D+00 BMatP= 1.95D+00
 IDIUse=3 WtCom= 5.73D-01 WtEn= 4.27D-01
 Coeff-Com:  0.100D+01
 Coeff-En:   0.100D+01
 Coeff:      0.100D+01
 Gap=     0.281 Goal=   None    Shift=    0.000
 GapD=    0.281 DampG=1.000 DampE=0.500 DampFc=0.5000 IDamp=-1.
 Damping current iteration by 5.00D-01
 RMSDP=2.77D-02 MaxDP=2.82D+00              OVMax= 1.98D-01

 Cycle   2  Pass 1  IDiag  1:
 RMSU=  4.08D-03    CP:  8.29D-01
 E= -902.311916049186     Delta-E=       -0.133494335478 Rises=F Damp=T
 DIIS: error= 1.96D-02 at cycle   2 NSaved=   2.
 NSaved= 2 IEnMin= 2 EnMin= -902.311916049186     IErMin= 2 ErrMin= 1.96D-02
 ErrMax= 1.96D-02  0.00D+00 EMaxC= 1.00D-01 BMatC= 4.13D-01 BMatP= 1.95D+00
 IDIUse=3 WtCom= 8.04D-01 WtEn= 1.96D-01
 Coeff-Com: -0.590D+00 0.159D+01
 Coeff-En:   0.000D+00 0.100D+01
 Coeff:     -0.474D+00 0.147D+01
 Gap=     0.275 Goal=   None    Shift=    0.000
 RMSDP=1.68D-02 MaxDP=1.71D+00 DE=-1.33D-01 OVMax= 2.35D-01

 Cycle   3  Pass 1  IDiag  1:
 RMSU=  4.69D-03    CP:  6.21D-01  1.05D+00
 E= -902.342157671745     Delta-E=       -0.030241622559 Rises=F Damp=F
 DIIS: error= 2.67D-02 at cycle   3 NSaved=   3.
 NSaved= 3 IEnMin= 3 EnMin= -902.342157671745     IErMin= 2 ErrMin= 1.96D-02
 ErrMax= 2.67D-02  0.00D+00 EMaxC= 1.00D-01 BMatC= 1.55D-01 BMatP= 4.13D-01
 IDIUse=3 WtCom= 7.33D-01 WtEn= 2.67D-01
 Coeff-Com: -0.396D+00 0.849D+00 0.547D+00
 Coeff-En:   0.000D+00 0.357D+00 0.643D+00
 Coeff:     -0.290D+00 0.718D+00 0.573D+00
 Gap=     0.275 Goal=   None    Shift=    0.000
 RMSDP=3.65D-03 MaxDP=2.88D-01 DE=-3.02D-02 OVMax= 1.17D-01

 Cycle   4  Pass 1  IDiag  1:
 RMSU=  1.53D-03    CP:  5.91D-01  1.37D+00  5.65D-01
 E= -902.465869821997     Delta-E=       -0.123712150253 Rises=F Damp=F
 DIIS: error= 6.01D-03 at cycle   4 NSaved=   4.
 NSaved= 4 IEnMin= 4 EnMin= -902.465869821997     IErMin= 4 ErrMin= 6.01D-03
 ErrMax= 6.01D-03  0.00D+00 EMaxC= 1.00D-01 BMatC= 1.26D-02 BMatP= 1.55D-01
 IDIUse=3 WtCom= 9.40D-01 WtEn= 6.01D-02
 Coeff-Com: -0.143D+00 0.308D+00 0.328D+00 0.507D+00
 Coeff-En:   0.000D+00 0.000D+00 0.000D+00 0.100D+01
 Coeff:     -0.135D+00 0.290D+00 0.309D+00 0.536D+00
 Gap=     0.238 Goal=   None    Shift=    0.000
 RMSDP=1.02D-03 MaxDP=7.20D-02 DE=-1.24D-01 OVMax= 2.54D-02

 Cycle   5  Pass 1  IDiag  1:
 RMSU=  5.08D-04    CP:  5.99D-01  1.34D+00  6.61D-01  7.21D-01
 E= -902.476095644039     Delta-E=       -0.010225822041 Rises=F Damp=F
 DIIS: error= 9.19D-04 at cycle   5 NSaved=   5.
 NSaved= 5 IEnMin= 5 EnMin= -902.476095644039     IErMin= 5 ErrMin= 9.19D-04
 ErrMax= 9.19D-04  0.00D+00 EMaxC= 1.00D-01 BMatC= 2.25D-04 BMatP= 1.26D-02
 IDIUse=3 WtCom= 9.91D-01 WtEn= 9.19D-03
 Coeff-Com:  0.201D-01-0.426D-01 0.114D-01 0.174D+00 0.837D+00
 Coeff-En:   0.000D+00 0.000D+00 0.000D+00 0.000D+00 0.100D+01
 Coeff:      0.199D-01-0.422D-01 0.113D-01 0.172D+00 0.839D+00
 Gap=     0.239 Goal=   None    Shift=    0.000
 RMSDP=5.95D-04 MaxDP=5.47D-02 DE=-1.02D-02 OVMax= 8.59D-03

 Cycle   6  Pass 1  IDiag  1:
 RMSU=  2.39D-04    CP:  5.93D-01  1.33D+00  6.68D-01  8.67D-01  8.85D-01
 E= -902.476373838790     Delta-E=       -0.000278194751 Rises=F Damp=F
 DIIS: error= 5.48D-04 at cycle   6 NSaved=   6.
 NSaved= 6 IEnMin= 6 EnMin= -902.476373838790     IErMin= 6 ErrMin= 5.48D-04
 ErrMax= 5.48D-04  0.00D+00 EMaxC= 1.00D-01 BMatC= 7.22D-05 BMatP= 2.25D-04
 IDIUse=3 WtCom= 9.95D-01 WtEn= 5.48D-03
 Coeff-Com:  0.291D-01-0.623D-01-0.406D-01 0.308D-02 0.438D+00 0.633D+00
 Coeff-En:   0.000D+00 0.000D+00 0.000D+00 0.000D+00 0.000D+00 0.100D+01
 Coeff:      0.289D-01-0.619D-01-0.404D-01 0.306D-02 0.436D+00 0.635D+00
 Gap=     0.240 Goal=   None    Shift=    0.000
 RMSDP=1.08D-04 MaxDP=5.46D-03 DE=-2.78D-04 OVMax= 4.75D-03

 Cycle   7  Pass 1  IDiag  1:
 RMSU=  6.66D-05    CP:  5.93D-01  1.33D+00  6.69D-01  8.67D-01  1.04D+00
                    CP:  9.89D-01
 E= -902.476462717400     Delta-E=       -0.000088878610 Rises=F Damp=F
 DIIS: error= 1.43D-04 at cycle   7 NSaved=   7.
 NSaved= 7 IEnMin= 7 EnMin= -902.476462717400     IErMin= 7 ErrMin= 1.43D-04
 ErrMax= 1.43D-04  0.00D+00 EMaxC= 1.00D-01 BMatC= 5.05D-06 BMatP= 7.22D-05
 IDIUse=3 WtCom= 9.99D-01 WtEn= 1.43D-03
 Coeff-Com:  0.239D-02-0.514D-02-0.810D-02-0.206D-01-0.286D-01 0.163D+00
 Coeff-Com:  0.898D+00
 Coeff-En:   0.000D+00 0.000D+00 0.000D+00 0.000D+00 0.000D+00 0.000D+00
 Coeff-En:   0.100D+01
 Coeff:      0.239D-02-0.513D-02-0.809D-02-0.206D-01-0.286D-01 0.162D+00
 Coeff:      0.898D+00
 Gap=     0.240 Goal=   None    Shift=    0.000
 RMSDP=6.65D-05 MaxDP=4.09D-03 DE=-8.89D-05 OVMax= 2.74D-03

 Cycle   8  Pass 1  IDiag  1:
 RMSU=  4.11D-05    CP:  5.93D-01  1.33D+00  6.69D-01  8.87D-01  1.08D+00
                    CP:  1.06D+00  9.16D-01
 E= -902.476476286877     Delta-E=       -0.000013569477 Rises=F Damp=F
 DIIS: error= 7.87D-05 at cycle   8 NSaved=   8.
 NSaved= 8 IEnMin= 8 EnMin= -902.476476286877     IErMin= 8 ErrMin= 7.87D-05
 ErrMax= 7.87D-05  0.00D+00 EMaxC= 1.00D-01 BMatC= 1.39D-06 BMatP= 5.05D-06
 IDIUse=1 WtCom= 1.00D+00 WtEn= 0.00D+00
 Coeff-Com: -0.335D-02 0.720D-02 0.238D-02-0.121D-01-0.931D-01-0.215D-01
 Coeff-Com:  0.416D+00 0.705D+00
 Coeff:     -0.335D-02 0.720D-02 0.238D-02-0.121D-01-0.931D-01-0.215D-01
 Coeff:      0.416D+00 0.705D+00
 Gap=     0.240 Goal=   None    Shift=    0.000
 RMSDP=2.07D-05 MaxDP=1.28D-03 DE=-1.36D-05 OVMax= 1.45D-03

 Cycle   9  Pass 1  IDiag  1:
 RMSU=  1.04D-05    CP:  5.93D-01  1.33D+00  6.68D-01  8.90D-01  1.10D+00
                    CP:  1.10D+00  1.03D+00  1.13D+00
 E= -902.476479660655     Delta-E=       -0.000003373777 Rises=F Damp=F
 DIIS: error= 2.90D-05 at cycle   9 NSaved=   9.
 NSaved= 9 IEnMin= 9 EnMin= -902.476479660655     IErMin= 9 ErrMin= 2.90D-05
 ErrMax= 2.90D-05  0.00D+00 EMaxC= 1.00D-01 BMatC= 1.65D-07 BMatP= 1.39D-06
 IDIUse=1 WtCom= 1.00D+00 WtEn= 0.00D+00
 Coeff-Com: -0.134D-02 0.285D-02 0.261D-02 0.110D-02-0.199D-01-0.338D-01
 Coeff-Com: -0.846D-01 0.150D+00 0.983D+00
 Coeff:     -0.134D-02 0.285D-02 0.261D-02 0.110D-02-0.199D-01-0.338D-01
 Coeff:     -0.846D-01 0.150D+00 0.983D+00
 Gap=     0.240 Goal=   None    Shift=    0.000
 RMSDP=1.10D-05 MaxDP=8.34D-04 DE=-3.37D-06 OVMax= 8.02D-04

 Cycle  10  Pass 1  IDiag  1:
 RMSU=  6.22D-06    CP:  5.93D-01  1.33D+00  6.68D-01  8.90D-01  1.11D+00
                    CP:  1.12D+00  1.08D+00  1.23D+00  1.32D+00
 E= -902.476480336294     Delta-E=       -0.000000675640 Rises=F Damp=F
 DIIS: error= 1.04D-05 at cycle  10 NSaved=  10.
 NSaved=10 IEnMin=10 EnMin= -902.476480336294     IErMin=10 ErrMin= 1.04D-05
 ErrMax= 1.04D-05  0.00D+00 EMaxC= 1.00D-01 BMatC= 2.54D-08 BMatP= 1.65D-07
 IDIUse=1 WtCom= 1.00D+00 WtEn= 0.00D+00
 Coeff-Com:  0.178D-03-0.384D-03 0.377D-03 0.221D-02 0.716D-02-0.573D-02
 Coeff-Com: -0.871D-01-0.532D-01 0.306D+00 0.830D+00
 Coeff:      0.178D-03-0.384D-03 0.377D-03 0.221D-02 0.716D-02-0.573D-02
 Coeff:     -0.871D-01-0.532D-01 0.306D+00 0.830D+00
 Gap=     0.240 Goal=   None    Shift=    0.000
 RMSDP=5.33D-06 MaxDP=4.13D-04 DE=-6.76D-07 OVMax= 2.73D-04

 Cycle  11  Pass 1  IDiag  1:
 RMSU=  1.77D-06    CP:  5.93D-01  1.33D+00  6.68D-01  8.90D-01  1.12D+00
                    CP:  1.12D+00  1.09D+00  1.27D+00  1.51D+00  1.18D+00
 E= -902.476480417673     Delta-E=       -0.000000081379 Rises=F Damp=F
 DIIS: error= 5.05D-06 at cycle  11 NSaved=  11.
 NSaved=11 IEnMin=11 EnMin= -902.476480417673     IErMin=11 ErrMin= 5.05D-06
 ErrMax= 5.05D-06  0.00D+00 EMaxC= 1.00D-01 BMatC= 5.50D-09 BMatP= 2.54D-08
 IDIUse=1 WtCom= 1.00D+00 WtEn= 0.00D+00
 Coeff-Com:  0.281D-03-0.597D-03-0.272D-03 0.814D-03 0.582D-02 0.358D-02
 Coeff-Com: -0.137D-01-0.413D-01-0.804D-01 0.287D+00 0.839D+00
 Coeff:      0.281D-03-0.597D-03-0.272D-03 0.814D-03 0.582D-02 0.358D-02
 Coeff:     -0.137D-01-0.413D-01-0.804D-01 0.287D+00 0.839D+00
 Gap=     0.240 Goal=   None    Shift=    0.000
 RMSDP=2.39D-06 MaxDP=1.36D-04 DE=-8.14D-08 OVMax= 8.93D-05

 Cycle  12  Pass 1  IDiag  1:
 RMSU=  1.18D-06    CP:  5.93D-01  1.33D+00  6.68D-01  8.90D-01  1.12D+00
                    CP:  1.12D+00  1.10D+00  1.28D+00  1.59D+00  1.28D+00
                    CP:  1.19D+00
 E= -902.476480431968     Delta-E=       -0.000000014295 Rises=F Damp=F
 DIIS: error= 2.37D-06 at cycle  12 NSaved=  12.
 NSaved=12 IEnMin=12 EnMin= -902.476480431968     IErMin=12 ErrMin= 2.37D-06
 ErrMax= 2.37D-06  0.00D+00 EMaxC= 1.00D-01 BMatC= 7.77D-10 BMatP= 5.50D-09
 IDIUse=1 WtCom= 1.00D+00 WtEn= 0.00D+00
 Coeff-Com:  0.660D-04-0.138D-03-0.133D-03 0.196D-04 0.952D-03 0.167D-02
 Coeff-Com:  0.962D-02-0.472D-02-0.741D-01-0.384D-01 0.268D+00 0.837D+00
 Coeff:      0.660D-04-0.138D-03-0.133D-03 0.196D-04 0.952D-03 0.167D-02
 Coeff:      0.962D-02-0.472D-02-0.741D-01-0.384D-01 0.268D+00 0.837D+00
 Gap=     0.240 Goal=   None    Shift=    0.000
 RMSDP=1.22D-06 MaxDP=7.72D-05 DE=-1.43D-08 OVMax= 3.01D-05

 Cycle  13  Pass 1  IDiag  1:
 RMSU=  3.56D-07    CP:  5.93D-01  1.33D+00  6.68D-01  8.90D-01  1.12D+00
                    CP:  1.12D+00  1.10D+00  1.27D+00  1.61D+00  1.35D+00
                    CP:  1.35D+00  1.15D+00
 E= -902.476480433967     Delta-E=       -0.000000001999 Rises=F Damp=F
 DIIS: error= 7.26D-07 at cycle  13 NSaved=  13.
 NSaved=13 IEnMin=13 EnMin= -902.476480433967     IErMin=13 ErrMin= 7.26D-07
 ErrMax= 7.26D-07  0.00D+00 EMaxC= 1.00D-01 BMatC= 2.30D-10 BMatP= 7.77D-10
 IDIUse=1 WtCom= 1.00D+00 WtEn= 0.00D+00
 Coeff-Com: -0.104D-04 0.226D-04-0.277D-04-0.136D-03-0.509D-03 0.117D-03
 Coeff-Com:  0.732D-02 0.422D-02-0.226D-01-0.685D-01-0.122D-01 0.420D+00
 Coeff-Com:  0.672D+00
 Coeff:     -0.104D-04 0.226D-04-0.277D-04-0.136D-03-0.509D-03 0.117D-03
 Coeff:      0.732D-02 0.422D-02-0.226D-01-0.685D-01-0.122D-01 0.420D+00
 Coeff:      0.672D+00
 Gap=     0.240 Goal=   None    Shift=    0.000
 RMSDP=3.84D-07 MaxDP=1.72D-05 DE=-2.00D-09 OVMax= 1.07D-05

 Cycle  14  Pass 1  IDiag  1:
 RMSU=  1.50D-07    CP:  5.93D-01  1.33D+00  6.68D-01  8.90D-01  1.12D+00
                    CP:  1.12D+00  1.10D+00  1.27D+00  1.62D+00  1.36D+00
                    CP:  1.37D+00  1.31D+00  1.19D+00
 E= -902.476480434287     Delta-E=       -0.000000000320 Rises=F Damp=F
 DIIS: error= 3.91D-07 at cycle  14 NSaved=  14.
 NSaved=14 IEnMin=14 EnMin= -902.476480434287     IErMin=14 ErrMin= 3.91D-07
 ErrMax= 3.91D-07  0.00D+00 EMaxC= 1.00D-01 BMatC= 1.25D-11 BMatP= 2.30D-10
 IDIUse=1 WtCom= 1.00D+00 WtEn= 0.00D+00
 Coeff-Com: -0.994D-05 0.208D-04 0.999D-05-0.433D-04-0.245D-03-0.242D-03
 Coeff-Com:  0.283D-03 0.112D-02 0.620D-02-0.932D-02-0.414D-01-0.172D-01
 Coeff-Com:  0.986D-01 0.962D+00
 Coeff:     -0.994D-05 0.208D-04 0.999D-05-0.433D-04-0.245D-03-0.242D-03
 Coeff:      0.283D-03 0.112D-02 0.620D-02-0.932D-02-0.414D-01-0.172D-01
 Coeff:      0.986D-01 0.962D+00
 Gap=     0.240 Goal=   None    Shift=    0.000
 RMSDP=1.87D-07 MaxDP=1.07D-05 DE=-3.20D-10 OVMax= 5.86D-06

 Cycle  15  Pass 1  IDiag  1:
 RMSU=  5.22D-08    CP:  5.93D-01  1.33D+00  6.68D-01  8.90D-01  1.12D+00
                    CP:  1.12D+00  1.10D+00  1.27D+00  1.62D+00  1.36D+00
                    CP:  1.36D+00  1.39D+00  1.36D+00  1.26D+00
 E= -902.476480434410     Delta-E=       -0.000000000123 Rises=F Damp=F
 DIIS: error= 1.40D-07 at cycle  15 NSaved=  15.
 NSaved=15 IEnMin=15 EnMin= -902.476480434410     IErMin=15 ErrMin= 1.40D-07
 ErrMax= 1.40D-07  0.00D+00 EMaxC= 1.00D-01 BMatC= 2.77D-12 BMatP= 1.25D-11
 IDIUse=1 WtCom= 1.00D+00 WtEn= 0.00D+00
 Coeff-Com: -0.288D-05 0.603D-05 0.712D-05 0.262D-06-0.217D-04-0.928D-04
 Coeff-Com: -0.624D-03-0.198D-03 0.441D-02 0.460D-02-0.120D-01-0.453D-01
 Coeff-Com: -0.636D-01 0.292D+00 0.821D+00
 Coeff:     -0.288D-05 0.603D-05 0.712D-05 0.262D-06-0.217D-04-0.928D-04
 Coeff:     -0.624D-03-0.198D-03 0.441D-02 0.460D-02-0.120D-01-0.453D-01
 Coeff:     -0.636D-01 0.292D+00 0.821D+00
 Gap=     0.240 Goal=   None    Shift=    0.000
 RMSDP=8.27D-08 MaxDP=5.66D-06 DE=-1.23D-10 OVMax= 2.38D-06

 Cycle  16  Pass 1  IDiag  1:
 RMSU=  2.33D-08    CP:  5.93D-01  1.33D+00  6.68D-01  8.90D-01  1.12D+00
                    CP:  1.12D+00  1.10D+00  1.27D+00  1.62D+00  1.35D+00
                    CP:  1.36D+00  1.42D+00  1.40D+00  1.45D+00  1.29D+00
 E= -902.476480434319     Delta-E=        0.000000000092 Rises=F Damp=F
 DIIS: error= 6.46D-08 at cycle  16 NSaved=  16.
 NSaved=16 IEnMin=15 EnMin= -902.476480434410     IErMin=16 ErrMin= 6.46D-08
 ErrMax= 6.46D-08  0.00D+00 EMaxC= 1.00D-01 BMatC= 5.72D-13 BMatP= 2.77D-12
 IDIUse=1 WtCom= 1.00D+00 WtEn= 0.00D+00
 Coeff-Com:  0.103D-05-0.217D-05-0.208D-06 0.821D-05 0.443D-04 0.148D-04
 Coeff-Com: -0.209D-03-0.338D-03-0.338D-04 0.333D-02 0.458D-02-0.610D-02
 Coeff-Com: -0.481D-01-0.123D+00 0.235D+00 0.935D+00
 Coeff:      0.103D-05-0.217D-05-0.208D-06 0.821D-05 0.443D-04 0.148D-04
 Coeff:     -0.209D-03-0.338D-03-0.338D-04 0.333D-02 0.458D-02-0.610D-02
 Coeff:     -0.481D-01-0.123D+00 0.235D+00 0.935D+00
 Gap=     0.240 Goal=   None    Shift=    0.000
 RMSDP=4.47D-08 MaxDP=2.87D-06 DE= 9.19D-11 OVMax= 1.31D-06

 Cycle  17  Pass 1  IDiag  1:
 RMSU=  1.04D-08    CP:  5.93D-01  1.33D+00  6.68D-01  8.90D-01  1.12D+00
                    CP:  1.12D+00  1.10D+00  1.27D+00  1.62D+00  1.35D+00
                    CP:  1.35D+00  1.44D+00  1.42D+00  1.54D+00  1.53D+00
                    CP:  1.45D+00
 E= -902.476480434303     Delta-E=        0.000000000015 Rises=F Damp=F
 DIIS: error= 2.13D-08 at cycle  17 NSaved=  17.
 NSaved=17 IEnMin=15 EnMin= -902.476480434410     IErMin=17 ErrMin= 2.13D-08
 ErrMax= 2.13D-08  0.00D+00 EMaxC= 1.00D-01 BMatC= 8.58D-14 BMatP= 5.72D-13
 IDIUse=1 WtCom= 1.00D+00 WtEn= 0.00D+00
 Coeff-Com:  0.445D-06-0.930D-06-0.640D-06 0.288D-05 0.161D-04 0.142D-04
 Coeff-Com:  0.294D-04-0.771D-04-0.602D-03 0.419D-03 0.272D-02 0.588D-02
 Coeff-Com: -0.713D-02-0.762D-01-0.372D-01 0.303D+00 0.809D+00
 Coeff:      0.445D-06-0.930D-06-0.640D-06 0.288D-05 0.161D-04 0.142D-04
 Coeff:      0.294D-04-0.771D-04-0.602D-03 0.419D-03 0.272D-02 0.588D-02
 Coeff:     -0.713D-02-0.762D-01-0.372D-01 0.303D+00 0.809D+00
 Gap=     0.240 Goal=   None    Shift=    0.000
 RMSDP=1.34D-08 MaxDP=1.46D-06 DE= 1.55D-11 OVMax= 4.29D-07

 Cycle  18  Pass 1  IDiag  1:
 RMSU=  3.34D-09    CP:  5.93D-01  1.33D+00  6.68D-01  8.90D-01  1.12D+00
                    CP:  1.12D+00  1.10D+00  1.27D+00  1.62D+00  1.35D+00
                    CP:  1.35D+00  1.44D+00  1.41D+00  1.56D+00  1.60D+00
                    CP:  1.67D+00  1.25D+00
 E= -902.476480434276     Delta-E=        0.000000000027 Rises=F Damp=F
 DIIS: error= 8.66D-09 at cycle  18 NSaved=  18.
 NSaved=18 IEnMin=15 EnMin= -902.476480434410     IErMin=18 ErrMin= 8.66D-09
 ErrMax= 8.66D-09  0.00D+00 EMaxC= 1.00D-01 BMatC= 1.68D-14 BMatP= 8.58D-14
 IDIUse=1 WtCom= 1.00D+00 WtEn= 0.00D+00
 Coeff-Com:  0.679D-07-0.143D-06-0.340D-06-0.633D-06-0.172D-05 0.334D-05
 Coeff-Com:  0.449D-04 0.294D-04-0.201D-03-0.436D-03-0.172D-03 0.321D-02
 Coeff-Com:  0.657D-02 0.962D-03-0.630D-01-0.105D+00 0.281D+00 0.877D+00
 Coeff:      0.679D-07-0.143D-06-0.340D-06-0.633D-06-0.172D-05 0.334D-05
 Coeff:      0.449D-04 0.294D-04-0.201D-03-0.436D-03-0.172D-03 0.321D-02
 Coeff:      0.657D-02 0.962D-03-0.630D-01-0.105D+00 0.281D+00 0.877D+00
 Gap=     0.240 Goal=   None    Shift=    0.000
 RMSDP=7.61D-09 MaxDP=7.65D-07 DE= 2.73D-11 OVMax= 1.98D-07

 SCF Done:  E(RwB97XD) =  -902.476480434     A.U. after   18 cycles
            NFock= 18  Conv=0.76D-08     -V/T= 2.0047
 KE= 8.982547910341D+02 PE=-5.062261048145D+03 EE= 1.780442104244D+03
 Leave Link  502 at Thu Nov  2 20:48:50 2017, MaxMem=  3758096384 cpu:      3168.6
 (Enter /share/apps/gaussian/g09_D01/g09/l801.exe)
 DoSCS=F DFT=T ScalE2(SS,OS)=  1.000000  1.000000
 ExpMin= 3.60D-02 ExpMax= 8.59D+03 ExpMxC= 1.30D+03 IAcc=3 IRadAn=         5 AccDes= 0.00D+00
 HarFok:  IExCor=  205 AccDes= 0.00D+00 IRadAn=         5 IDoV=-2 UseB2=F ITyADJ=14
 ICtDFT= 12500011 ScaDFX=  1.000000  1.000000  1.000000  1.000000
 Largest valence mixing into a core orbital is  5.69D-05
 Largest core mixing into a valence orbital is  1.60D-05
 Range of M.O.s used for correlation:    22   588
 NBasis=   595 NAE=    75 NBE=    75 NFC=    21 NFV=     0
 NROrb=    567 NOA=    54 NOB=    54 NVA=   513 NVB=   513

 **** Warning!!: The largest alpha MO coefficient is  0.14228590D+03

 Leave Link  801 at Thu Nov  2 20:48:50 2017, MaxMem=  3758096384 cpu:         1.4
 (Enter /share/apps/gaussian/g09_D01/g09/l914.exe)
 RHF ground state
 MDV=  3758096384 DFT=T DoStab=F Mixed=T DoRPA=T DoScal=F NonHer=T
 Would need an additional         90685500000 words for in-memory AO integral storage.
 Making orbital integer symmetry assigments:
    16 initial guesses have been made.
 Convergence on wavefunction:    0.001000000000000
 Davidson Disk Diagonalization:  ConvIn= 1.00D-03 SkipCon=T Conv= 1.00D-03.
 Max sub-space:   200 roots to seek:    16 dimension of matrix:        55404
 Iteration     1 Dimension    16 NMult     0 NNew     16
 CISAX will form    16 AO SS matrices at one time.
 NMat=    16 NSing=    16 JSym2X= 0.
 FoFJK:  IHMeth= 1 ICntrl=       0 DoSepK=T KAlg= 0 I1Cent=   0 FoldK=F
 IRaf=         1 NMat=  32 IRICut=       1 DoRegI=T DoRafI=F ISym2E= 0.
 FoFCou: FMM=F IPFlag=           0 FMFlag=      100000 FMFlg1=           0
         NFxFlg=           0 DoJE=F BraDBF=F KetDBF=F FulRan=T
         wScrn=  0.000000 ICntrl=     500 IOpCl=  0 I1Cent=           0 NGrid=           0
         NMat0=   16 NMatS0=     16 NMatT0=    0 NMatD0=   16 NMtDS0=    0 NMtDT0=    0
 Symmetry not used in FoFCou.
 New state      2 was old state      7
 New state      3 was old state      2
 New state      4 was old state     10
 Excitation Energies [eV] at current iteration:
 Root      1 :     3.784221152274611
 Root      2 :     4.251382384177096
 Root      3 :     4.405755630087450
 Root      4 :     5.099036002407821
 Root      5 :     5.433035962882379
 Root      6 :     5.587245573820875
 Root      7 :     5.850708678793864
 Root      8 :     5.918410997250706
 Root      9 :     6.057833614755566
 Root     10 :     6.167773002830193
 Root     11 :     6.255437492107298
 Root     12 :     6.393536817271334
 Root     13 :     6.448950758613187
 Root     14 :     6.815818279618830
 Root     15 :     7.103075389844194
 Root     16 :     7.356719044804463
 Iteration     2 Dimension    24 NMult    16 NNew      8
 CISAX will form     8 AO SS matrices at one time.
 NMat=     8 NSing=     8 JSym2X= 0.
 Root      1 not converged, maximum delta is    0.058447250058388
 Root      2 not converged, maximum delta is    0.100783401449867
 Root      3 not converged, maximum delta is    0.089461947742034
 Root      4 not converged, maximum delta is    0.151618926415229
 Excitation Energies [eV] at current iteration:
 Root      1 :     3.348416734743989   Change is   -0.435804417530622
 Root      2 :     3.802599598573880   Change is   -0.448782785603216
 Root      3 :     3.840399568864783   Change is   -0.565356061222668
 Root      4 :     4.536925740372782   Change is   -0.562110262035039
 Iteration     3 Dimension    32 NMult    24 NNew      8
 CISAX will form     8 AO SS matrices at one time.
 NMat=     8 NSing=     8 JSym2X= 0.
 Root      1 not converged, maximum delta is    0.010719064970676
 Root      2 not converged, maximum delta is    0.142379275616944
 Root      3 not converged, maximum delta is    0.143476315641277
 Root      4 not converged, maximum delta is    0.032416259502552
 Excitation Energies [eV] at current iteration:
 Root      1 :     3.315810323127189   Change is   -0.032606411616800
 Root      2 :     3.771470200846616   Change is   -0.031129397727264
 Root      3 :     3.794407731440082   Change is   -0.045991837424700
 Root      4 :     4.485536376327028   Change is   -0.051389364045754
 Iteration     4 Dimension    40 NMult    32 NNew      8
 CISAX will form     8 AO SS matrices at one time.
 NMat=     8 NSing=     8 JSym2X= 0.
 Root      1 not converged, maximum delta is    0.007932203155238
 Root      2 not converged, maximum delta is    0.079664401051364
 Root      3 not converged, maximum delta is    0.083485704367949
 Root      4 not converged, maximum delta is    0.009383689643709
 Excitation Energies [eV] at current iteration:
 Root      1 :     3.311231712423649   Change is   -0.004578610703540
 Root      2 :     3.767112250853710   Change is   -0.004357949992906
 Root      3 :     3.786378226572576   Change is   -0.008029504867506
 Root      4 :     4.478758330664436   Change is   -0.006778045662591
 Iteration     5 Dimension    48 NMult    40 NNew      8
 CISAX will form     8 AO SS matrices at one time.
 NMat=     8 NSing=     8 JSym2X= 0.
 Root      1 not converged, maximum delta is    0.002572263831005
 Root      2 not converged, maximum delta is    0.015291585704126
 Root      3 not converged, maximum delta is    0.014555172432549
 Root      4 not converged, maximum delta is    0.004088615394995
 Excitation Energies [eV] at current iteration:
 Root      1 :     3.310735892032425   Change is   -0.000495820391224
 Root      2 :     3.766507714381981   Change is   -0.000604536471729
 Root      3 :     3.785493932544695   Change is   -0.000884294027881
 Root      4 :     4.478187523185592   Change is   -0.000570807478845
 Iteration     6 Dimension    56 NMult    48 NNew      8
 CISAX will form     8 AO SS matrices at one time.
 NMat=     8 NSing=     8 JSym2X= 0.
 Root      1 has converged.
 Root      2 not converged, maximum delta is    0.001913543518046
 Root      3 not converged, maximum delta is    0.002073081938768
 Root      4 not converged, maximum delta is    0.002356113877572
 Excitation Energies [eV] at current iteration:
 Root      1 :     3.310681214580829   Change is   -0.000054677451596
 Root      2 :     3.766435567233620   Change is   -0.000072147148362
 Root      3 :     3.785384283409847   Change is   -0.000109649134849
 Root      4 :     4.478040468566315   Change is   -0.000147054619277
 Iteration     7 Dimension    62 NMult    56 NNew      6
 CISAX will form     6 AO SS matrices at one time.
 NMat=     6 NSing=     6 JSym2X= 0.
 Root      1 has converged.
 Root      2 has converged.
 Root      3 has converged.
 Root      4 not converged, maximum delta is    0.002490778070651
 Excitation Energies [eV] at current iteration:
 Root      1 :     3.310680667459978   Change is   -0.000000547120851
 Root      2 :     3.766429622404960   Change is   -0.000005944828660
 Root      3 :     3.785375740068440   Change is   -0.000008543341407
 Root      4 :     4.477995568504895   Change is   -0.000044900061420
 Iteration     8 Dimension    64 NMult    62 NNew      2
 CISAX will form     2 AO SS matrices at one time.
 NMat=     2 NSing=     2 JSym2X= 0.
 Root      1 has converged.
 Root      2 has converged.
 Root      3 has converged.
 Root      4 not converged, maximum delta is    0.001036728674365
 Excitation Energies [eV] at current iteration:
 Root      1 :     3.310680522103875   Change is   -0.000000145356103
 Root      2 :     3.766429596354677   Change is   -0.000000026050282
 Root      3 :     3.785375725768468   Change is   -0.000000014299972
 Root      4 :     4.477982624596526   Change is   -0.000012943908368
 Iteration     9 Dimension    66 NMult    64 NNew      2
 CISAX will form     2 AO SS matrices at one time.
 NMat=     2 NSing=     2 JSym2X= 0.
 Root      1 has converged.
 Root      2 has converged.
 Root      3 has converged.
 Root      4 has converged.
 Excitation Energies [eV] at current iteration:
 Root      1 :     3.310680395800369   Change is   -0.000000126303506
 Root      2 :     3.766429586287567   Change is   -0.000000010067110
 Root      3 :     3.785375718855231   Change is   -0.000000006913236
 Root      4 :     4.477979784693283   Change is   -0.000002839903244
 Convergence achieved on expansion vectors.
 ***********************************************************************
 Excited states from <AA,BB:AA,BB> singles matrix:
 ***********************************************************************
 
 1PDM for each excited state written to RWF  633
 Ground to excited state transition densities written to RWF  633
 Ground to excited state transition electric dipole moments (Au):
       state          X           Y           Z        Dip. S.      Osc.
         1         0.5627     -2.7235     -2.4557     13.7645      1.1164
         2         0.0543      0.6026      0.5398      0.6574      0.0607
         3        -0.0918     -0.4663     -0.3334      0.3371      0.0313
         4        -0.3831      0.0859      0.5408      0.4466      0.0490
 Ground to excited state transition velocity dipole moments (Au):
       state          X           Y           Z        Dip. S.      Osc.
         1        -0.0656      0.3304      0.2934      0.1995      1.0933
         2        -0.0076     -0.0777     -0.0741      0.0116      0.0558
         3         0.0105      0.0609      0.0448      0.0058      0.0279
         4         0.0677     -0.0079     -0.0904      0.0128      0.0519
 Ground to excited state transition magnetic dipole moments (Au):
       state          X           Y           Z
         1         1.6879     -2.6373      3.2501
         2        -0.9327      0.9751     -1.1008
         3         0.9148     -0.1314      0.6096
         4        -0.7490      0.8708     -0.6189
 Ground to excited state transition velocity quadrupole moments (Au):
       state          XX          YY          ZZ          XY          XZ          YZ
         1        -0.8373      4.7551      1.7660      1.6624      1.6268      2.9863
         2        -0.1642     -0.0304      0.0572     -0.7878     -0.5724      0.0580
         3         0.1438     -0.1016     -0.2388      0.6889      0.4125     -0.3155
         4         1.0487     -0.4231     -0.0580      0.1527     -0.7302     -0.5534
 <0|del|b> * <b|rxdel|0> + <0|del|b> * <b|delr+rdel|0>
 Rotatory Strengths (R) in cgs (10**-40 erg-esu-cm/Gauss)
       state          XX          YY          ZZ    R(velocity)    E-M Angle
         1        93.8485    461.9474   -722.5165    -55.5735       90.82
         2        50.1794     76.1503    -60.8348     21.8316       86.08
         3        63.5932      6.9858     76.3560     48.9783       69.99
         4        63.4002    -39.6258    -30.8405     -2.3554       90.64
 1/2[<0|r|b>*<b|rxdel|0> + (<0|rxdel|b>*<b|r|0>)*]
 Rotatory Strengths (R) in cgs (10**-40 erg-esu-cm/Gauss)
       state          XX          YY          ZZ     R(length)
         1      -671.6213  -5079.1955   5644.1809    -35.5453
         2        35.8164   -415.5048    420.2045     13.5054
         3        59.3840    -43.3297    143.7479     53.2674
         4      -202.9026    -52.9204    236.6935     -6.3765
  1/2[<0|del|b>*<b|r|0> + (<0|r|b>*<b|del|0>)*] (Au)
       state          X           Y           Z        Dip. S.   Osc.(frdel)
         1        -0.0369     -0.8998     -0.7204      1.6572      1.1048
         2        -0.0004     -0.0468     -0.0400      0.0873      0.0582
         3        -0.0010     -0.0284     -0.0149      0.0443      0.0295
         4        -0.0259     -0.0007     -0.0489      0.0755      0.0503

 Excitation energies and oscillator strengths:
 
 Excited state symmetry could not be determined.
 Excited State   1:      Singlet-?Sym    3.3107 eV  374.50 nm  f=1.1164  <S**2>=0.000
      74 -> 76         0.15240
      74 -> 78         0.14057
      75 -> 76         0.65679
 This state for optimization and/or second-order correction.
 Total Energy, E(TD-HF/TD-KS) =  -902.354815163    
 Copying the excited state density for this state as the 1-particle RhoCI density.
 
 Excited state symmetry could not be determined.
 Excited State   2:      Singlet-?Sym    3.7664 eV  329.18 nm  f=0.0607  <S**2>=0.000
      72 -> 76         0.42912
      73 -> 76        -0.11380
      74 -> 76         0.47236
      74 -> 78         0.10674
      75 -> 76        -0.12461
      75 -> 78         0.11427
 
 Excited state symmetry could not be determined.
 Excited State   3:      Singlet-?Sym    3.7854 eV  327.53 nm  f=0.0313  <S**2>=0.000
      72 -> 76         0.49205
      72 -> 78         0.10132
      74 -> 76        -0.42800
 
 Excited state symmetry could not be determined.
 Excited State   4:      Singlet-?Sym    4.4780 eV  276.88 nm  f=0.0490  <S**2>=0.000
      71 -> 76        -0.26732
      71 -> 78         0.12161
      74 -> 81        -0.16515
      75 -> 78        -0.29012
      75 -> 81         0.51535
 SavETr:  write IOETrn=   770 NScale= 10 NData=  16 NLR=1 NState=    4 LETran=      82.
 Leave Link  914 at Thu Nov  2 21:24:13 2017, MaxMem=  3758096384 cpu:      8485.9
 (Enter /share/apps/gaussian/g09_D01/g09/l601.exe)
 Copying SCF densities to generalized density rwf, IOpCl= 0 IROHF=0.

 **********************************************************************

            Population analysis using the SCF density.

 **********************************************************************

 Alpha  occ. eigenvalues --  -19.24138 -19.23138 -14.47942 -10.37983 -10.35549
 Alpha  occ. eigenvalues --  -10.35064 -10.33791 -10.33705 -10.31759 -10.30855
 Alpha  occ. eigenvalues --  -10.30807 -10.30102 -10.30009 -10.29828 -10.29492
 Alpha  occ. eigenvalues --  -10.29485 -10.29374 -10.29149 -10.28869 -10.28179
 Alpha  occ. eigenvalues --  -10.28148  -1.14548  -1.10830  -1.08184  -0.97169
 Alpha  occ. eigenvalues --   -0.95905  -0.91079  -0.87656  -0.87193  -0.86100
 Alpha  occ. eigenvalues --   -0.84732  -0.84254  -0.79492  -0.77507  -0.74701
 Alpha  occ. eigenvalues --   -0.72255  -0.71512  -0.68606  -0.66960  -0.64278
 Alpha  occ. eigenvalues --   -0.63412  -0.60675  -0.59649  -0.58809  -0.57878
 Alpha  occ. eigenvalues --   -0.57772  -0.55722  -0.54997  -0.54341  -0.52781
 Alpha  occ. eigenvalues --   -0.52084  -0.51590  -0.51464  -0.51288  -0.50842
 Alpha  occ. eigenvalues --   -0.50215  -0.49766  -0.48706  -0.48364  -0.48181
 Alpha  occ. eigenvalues --   -0.47114  -0.46230  -0.45934  -0.45332  -0.44311
 Alpha  occ. eigenvalues --   -0.42725  -0.41873  -0.41382  -0.40544  -0.35143
 Alpha  occ. eigenvalues --   -0.35026  -0.34051  -0.33333  -0.28776  -0.26960
 Alpha virt. eigenvalues --   -0.02934   0.02547   0.03310   0.03713   0.04291
 Alpha virt. eigenvalues --    0.04428   0.04878   0.05654   0.06190   0.06288
 Alpha virt. eigenvalues --    0.06669   0.06770   0.07784   0.07969   0.08128
 Alpha virt. eigenvalues --    0.08206   0.08423   0.08998   0.09593   0.09931
 Alpha virt. eigenvalues --    0.10382   0.10805   0.11335   0.11927   0.12091
 Alpha virt. eigenvalues --    0.12410   0.13099   0.13152   0.13851   0.14253
 Alpha virt. eigenvalues --    0.14341   0.14735   0.15025   0.15340   0.15685
 Alpha virt. eigenvalues --    0.15820   0.16123   0.16419   0.16621   0.16752
 Alpha virt. eigenvalues --    0.17101   0.17461   0.17664   0.18018   0.18229
 Alpha virt. eigenvalues --    0.18542   0.19100   0.19195   0.19352   0.19775
 Alpha virt. eigenvalues --    0.19930   0.20269   0.20540   0.20677   0.20732
 Alpha virt. eigenvalues --    0.21198   0.21407   0.21659   0.22095   0.22380
 Alpha virt. eigenvalues --    0.22422   0.22514   0.23000   0.23500   0.23675
 Alpha virt. eigenvalues --    0.23774   0.24185   0.24438   0.24575   0.24952
 Alpha virt. eigenvalues --    0.25494   0.25692   0.26340   0.26426   0.26578
 Alpha virt. eigenvalues --    0.26757   0.27106   0.27254   0.27864   0.28314
 Alpha virt. eigenvalues --    0.28520   0.28771   0.29053   0.29330   0.29531
 Alpha virt. eigenvalues --    0.30291   0.30308   0.30431   0.31106   0.31340
 Alpha virt. eigenvalues --    0.31808   0.32084   0.32378   0.32498   0.32873
 Alpha virt. eigenvalues --    0.33406   0.33649   0.33969   0.34213   0.34707
 Alpha virt. eigenvalues --    0.34915   0.35039   0.35578   0.36012   0.36757
 Alpha virt. eigenvalues --    0.37047   0.37140   0.37593   0.37769   0.38308
 Alpha virt. eigenvalues --    0.38663   0.39000   0.39137   0.39462   0.39819
 Alpha virt. eigenvalues --    0.40079   0.40515   0.40870   0.41521   0.41786
 Alpha virt. eigenvalues --    0.42313   0.42896   0.43315   0.43496   0.44533
 Alpha virt. eigenvalues --    0.44558   0.45253   0.45957   0.46331   0.47432
 Alpha virt. eigenvalues --    0.48590   0.49108   0.49771   0.50108   0.50224
 Alpha virt. eigenvalues --    0.51100   0.51854   0.52512   0.53750   0.54439
 Alpha virt. eigenvalues --    0.55089   0.55500   0.56623   0.57517   0.58584
 Alpha virt. eigenvalues --    0.59560   0.60964   0.61252   0.61823   0.62248
 Alpha virt. eigenvalues --    0.62774   0.62975   0.63532   0.64312   0.64633
 Alpha virt. eigenvalues --    0.65065   0.65912   0.66170   0.66587   0.66905
 Alpha virt. eigenvalues --    0.67336   0.68119   0.68653   0.68852   0.69413
 Alpha virt. eigenvalues --    0.69942   0.70742   0.71090   0.71551   0.72267
 Alpha virt. eigenvalues --    0.72448   0.73098   0.73434   0.73928   0.74190
 Alpha virt. eigenvalues --    0.74860   0.75035   0.75287   0.75880   0.76403
 Alpha virt. eigenvalues --    0.77118   0.77827   0.78585   0.78676   0.78894
 Alpha virt. eigenvalues --    0.79357   0.79733   0.80154   0.80215   0.80759
 Alpha virt. eigenvalues --    0.81510   0.82675   0.82852   0.84078   0.84728
 Alpha virt. eigenvalues --    0.85458   0.86198   0.87396   0.88030   0.88870
 Alpha virt. eigenvalues --    0.90033   0.90933   0.91781   0.92197   0.94304
 Alpha virt. eigenvalues --    0.94643   0.95433   0.95684   0.96672   0.96754
 Alpha virt. eigenvalues --    0.97550   0.98141   0.98332   0.98850   0.99467
 Alpha virt. eigenvalues --    1.00323   1.01154   1.01761   1.02461   1.03363
 Alpha virt. eigenvalues --    1.03865   1.04090   1.05110   1.05391   1.05719
 Alpha virt. eigenvalues --    1.06635   1.06842   1.07620   1.08534   1.09062
 Alpha virt. eigenvalues --    1.10082   1.10821   1.11681   1.12863   1.13039
 Alpha virt. eigenvalues --    1.13260   1.14840   1.15178   1.15956   1.16482
 Alpha virt. eigenvalues --    1.17228   1.18849   1.20095   1.20418   1.21080
 Alpha virt. eigenvalues --    1.21977   1.22828   1.24688   1.25183   1.27809
 Alpha virt. eigenvalues --    1.30895   1.31713   1.32905   1.34352   1.35225
 Alpha virt. eigenvalues --    1.36487   1.38304   1.39731   1.41220   1.41857
 Alpha virt. eigenvalues --    1.45240   1.47825   1.48025   1.49398   1.50063
 Alpha virt. eigenvalues --    1.51186   1.51530   1.52182   1.54715   1.55463
 Alpha virt. eigenvalues --    1.55976   1.56557   1.57144   1.57280   1.58979
 Alpha virt. eigenvalues --    1.59127   1.61153   1.61730   1.62319   1.62581
 Alpha virt. eigenvalues --    1.62868   1.62983   1.63418   1.64287   1.64484
 Alpha virt. eigenvalues --    1.64989   1.65658   1.66559   1.66959   1.68116
 Alpha virt. eigenvalues --    1.68297   1.69043   1.69937   1.70371   1.70464
 Alpha virt. eigenvalues --    1.74715   1.74992   1.75438   1.76319   1.77199
 Alpha virt. eigenvalues --    1.78818   1.79550   1.79770   1.80521   1.81010
 Alpha virt. eigenvalues --    1.81311   1.83083   1.83869   1.84540   1.84799
 Alpha virt. eigenvalues --    1.86479   1.86542   1.87186   1.88403   1.89115
 Alpha virt. eigenvalues --    1.90981   1.92197   1.93788   1.94107   1.94850
 Alpha virt. eigenvalues --    1.96450   1.96768   1.98090   1.99159   2.00662
 Alpha virt. eigenvalues --    2.01429   2.01838   2.02353   2.03762   2.04364
 Alpha virt. eigenvalues --    2.05417   2.05882   2.06320   2.06433   2.07636
 Alpha virt. eigenvalues --    2.09167   2.10557   2.11207   2.11549   2.13856
 Alpha virt. eigenvalues --    2.14407   2.14635   2.15172   2.17389   2.17794
 Alpha virt. eigenvalues --    2.19785   2.20583   2.21370   2.22926   2.23740
 Alpha virt. eigenvalues --    2.24975   2.25848   2.27058   2.27695   2.28513
 Alpha virt. eigenvalues --    2.31632   2.33174   2.35254   2.36410   2.38807
 Alpha virt. eigenvalues --    2.39791   2.40775   2.42330   2.43619   2.46073
 Alpha virt. eigenvalues --    2.46181   2.47480   2.48017   2.49905   2.52522
 Alpha virt. eigenvalues --    2.54677   2.54989   2.55209   2.55558   2.56746
 Alpha virt. eigenvalues --    2.56971   2.57329   2.60487   2.61980   2.63569
 Alpha virt. eigenvalues --    2.64028   2.66947   2.67689   2.68156   2.68549
 Alpha virt. eigenvalues --    2.69921   2.72147   2.72442   2.73743   2.76378
 Alpha virt. eigenvalues --    2.76702   2.77686   2.78222   2.78666   2.79470
 Alpha virt. eigenvalues --    2.80515   2.81162   2.81537   2.82111   2.82951
 Alpha virt. eigenvalues --    2.83020   2.84307   2.85802   2.86270   2.86385
 Alpha virt. eigenvalues --    2.87668   2.90002   2.90525   2.90839   2.91652
 Alpha virt. eigenvalues --    2.92135   2.94342   2.94680   2.95462   2.96760
 Alpha virt. eigenvalues --    2.98418   2.99901   3.00738   3.01775   3.03277
 Alpha virt. eigenvalues --    3.03674   3.04707   3.05468   3.07179   3.07834
 Alpha virt. eigenvalues --    3.09330   3.09887   3.14560   3.17947   3.19592
 Alpha virt. eigenvalues --    3.20470   3.20954   3.21616   3.24269   3.26099
 Alpha virt. eigenvalues --    3.27864   3.30121   3.30674   3.32997   3.34048
 Alpha virt. eigenvalues --    3.34961   3.38433   3.39237   3.41648   3.45509
 Alpha virt. eigenvalues --    3.47130   3.47738   3.52569   3.57481   3.60001
 Alpha virt. eigenvalues --    3.60665   3.61728   3.63141   3.65418   3.66143
 Alpha virt. eigenvalues --    3.72916   3.76258   3.77021   3.77534   3.78392
 Alpha virt. eigenvalues --    3.78652   3.80488   3.85977   3.87400   3.88599
 Alpha virt. eigenvalues --    3.89945   3.92853   3.94271   4.01052   4.05188
 Alpha virt. eigenvalues --    4.07938   4.09389   4.13050   4.16482   4.26672
 Alpha virt. eigenvalues --    4.27854   4.29008   4.30153   4.36537   4.43385
 Alpha virt. eigenvalues --    4.53313   4.77715   4.92548   4.94196   4.99901
 Alpha virt. eigenvalues --    5.15743   5.17752   5.19493   5.37292   5.64450
 Alpha virt. eigenvalues --    5.85256   5.94050  23.71001  23.79713  23.94116
 Alpha virt. eigenvalues --   24.01874  24.03373  24.03412  24.04634  24.07439
 Alpha virt. eigenvalues --   24.08202  24.08691  24.09613  24.13616  24.15052
 Alpha virt. eigenvalues --   24.23087  24.25155  24.28278  24.30419  24.30827
 Alpha virt. eigenvalues --   35.74098  50.13653  50.17822
          Condensed to atoms (all electrons):
               1          2          3          4          5          6
     1  N    6.993480   0.311139   0.302050   0.276906  -0.055421  -0.046077
     2  C    0.311139   5.272289  -0.111471  -0.148963   0.411828   0.404699
     3  C    0.302050  -0.111471   5.234721  -0.203730  -0.001334  -0.011696
     4  C    0.276906  -0.148963  -0.203730  11.039299   0.015236  -0.003280
     5  H   -0.055421   0.411828  -0.001334   0.015236   0.567728  -0.022689
     6  H   -0.046077   0.404699  -0.011696  -0.003280  -0.022689   0.513406
     7  H   -0.055195   0.423811   0.000138  -0.042152  -0.062550  -0.020475
     8  H   -0.047335  -0.015300   0.400560  -0.016164  -0.001860   0.012770
     9  H   -0.055307   0.001133   0.416998  -0.009959  -0.002377  -0.001600
    10  H   -0.052059  -0.002597   0.418897  -0.001851   0.002444  -0.002295
    11  C   -0.290138  -0.122788   0.115647   0.369878  -0.004877   0.015843
    12  C   -0.248267   0.191385  -0.162034  -0.070492   0.007125   0.015818
    13  C   -0.041094  -0.031377  -0.037843  -0.305424  -0.004896   0.004165
    14  H   -0.036161  -0.004446   0.017318  -0.253244  -0.001129   0.002457
    15  C    0.041309  -0.068150  -0.023633  -1.831980  -0.015048  -0.016103
    16  H   -0.033427   0.017321  -0.005002  -0.072147  -0.009614   0.005926
    17  C   -0.027389  -0.161804   0.016795  -1.585591   0.006317  -0.009497
    18  H   -0.001289   0.000717   0.002466   0.236116   0.000063  -0.000528
    19  H   -0.000855   0.002607   0.000561   0.013216   0.000601  -0.000012
    20  C   -0.003150   0.030945  -0.008464  -0.021482  -0.001968   0.003597
    21  C    0.005015  -0.009815   0.017184  -0.372014   0.001407  -0.000321
    22  H   -0.000789  -0.000572  -0.000407   0.024059  -0.000061  -0.000011
    23  C    0.002556  -0.000833   0.005626  -0.253561   0.000252  -0.000061
    24  H   -0.000955  -0.000113  -0.000127  -0.083912  -0.000036   0.000066
    25  O   -0.000001   0.000009   0.000000  -0.000439  -0.000001   0.000000
    26  C    0.000422  -0.000990   0.002486  -0.081836   0.000089  -0.000069
    27  H    0.000002  -0.000005   0.000004  -0.000495   0.000001   0.000000
    28  C    0.000018  -0.000033   0.000091  -0.004628   0.000009  -0.000002
    29  C   -0.000002   0.000092  -0.000729  -0.000391   0.000019   0.000013
    30  O    0.000000   0.000000   0.000000  -0.000006   0.000000   0.000000
    31  C   -0.000001  -0.000001  -0.000010   0.000956   0.000000   0.000000
    32  C    0.000004  -0.000005  -0.000107   0.002945   0.000003  -0.000001
    33  H    0.000054   0.000003  -0.000016  -0.001120  -0.000001  -0.000001
    34  C    0.000001   0.000000   0.000004  -0.000627   0.000000   0.000000
    35  H    0.000000   0.000000   0.000000   0.000011   0.000000   0.000000
    36  C    0.000001   0.000001   0.000027  -0.000630   0.000000   0.000000
    37  H    0.000000   0.000000   0.000000  -0.000007   0.000000   0.000000
    38  H    0.000000   0.000000   0.000000   0.000011   0.000000   0.000000
    39  H    0.000000   0.000000   0.000000   0.000000   0.000000   0.000000
    40  H    0.000001  -0.000003  -0.000002  -0.000117   0.000001   0.000000
               7          8          9         10         11         12
     1  N   -0.055195  -0.047335  -0.055307  -0.052059  -0.290138  -0.248267
     2  C    0.423811  -0.015300   0.001133  -0.002597  -0.122788   0.191385
     3  C    0.000138   0.400560   0.416998   0.418897   0.115647  -0.162034
     4  C   -0.042152  -0.016164  -0.009959  -0.001851   0.369878  -0.070492
     5  H   -0.062550  -0.001860  -0.002377   0.002444  -0.004877   0.007125
     6  H   -0.020475   0.012770  -0.001600  -0.002295   0.015843   0.015818
     7  H    0.548118  -0.002019   0.001866  -0.002338  -0.008445   0.025765
     8  H   -0.002019   0.507254  -0.022154  -0.020365   0.016143   0.005689
     9  H    0.001866  -0.022154   0.557845  -0.063464   0.035568  -0.011397
    10  H   -0.002338  -0.020365  -0.063464   0.563711   0.031147  -0.011010
    11  C   -0.008445   0.016143   0.035568   0.031147   8.568010  -1.563659
    12  C    0.025765   0.005689  -0.011397  -0.011010  -1.563659   9.459339
    13  C   -0.003398  -0.001626   0.001211  -0.003486   0.984393  -1.221453
    14  H    0.000155   0.007651  -0.013930  -0.012127   0.360363  -0.004802
    15  C    0.012761   0.009976  -0.005998  -0.005116  -1.038351   0.925135
    16  H   -0.008354   0.001404  -0.000288  -0.000361  -0.042423   0.493573
    17  C    0.008667   0.007222  -0.007493  -0.011451  -0.877286  -2.392384
    18  H   -0.000218  -0.000287   0.002628   0.002768   0.073567  -0.020205
    19  H    0.000506  -0.000054  -0.000171  -0.000246   0.030640  -0.013695
    20  C   -0.001855  -0.001663  -0.000102   0.000042  -0.310684   0.505650
    21  C   -0.000080   0.001113  -0.001428  -0.001309  -0.300171   0.383775
    22  H   -0.000118  -0.000048   0.000100   0.000123  -0.012147   0.026449
    23  C   -0.000063   0.000320  -0.000772  -0.000470   0.201069   0.015510
    24  H    0.000067   0.000029  -0.000508  -0.000570  -0.146531   0.042215
    25  O   -0.000001   0.000000   0.000000   0.000000   0.000087  -0.002014
    26  C    0.000071   0.000153  -0.000330  -0.000275   0.205893  -0.125922
    27  H    0.000000   0.000000  -0.000001   0.000000   0.000620  -0.000246
    28  C    0.000004   0.000005  -0.000022  -0.000009   0.039290  -0.015349
    29  C   -0.000034  -0.000046   0.000072   0.000119  -0.059622   0.036806
    30  O    0.000000   0.000000   0.000000   0.000000   0.000057  -0.000044
    31  C    0.000000  -0.000001   0.000003   0.000003   0.000800  -0.000953
    32  C   -0.000003  -0.000005   0.000028   0.000029   0.008983  -0.000195
    33  H   -0.000001  -0.000004   0.000046  -0.000007   0.002469   0.000417
    34  C    0.000000   0.000000  -0.000003  -0.000003  -0.002231   0.000262
    35  H    0.000000   0.000000   0.000000   0.000000   0.000021  -0.000018
    36  C    0.000000   0.000001  -0.000006   0.000003   0.005619   0.000211
    37  H    0.000000   0.000000   0.000000   0.000000   0.000001   0.000004
    38  H    0.000000   0.000000   0.000000   0.000000  -0.000036   0.000017
    39  H    0.000000   0.000000   0.000000   0.000000  -0.000009  -0.000001
    40  H    0.000000   0.000000  -0.000004   0.000003   0.000245  -0.000256
              13         14         15         16         17         18
     1  N   -0.041094  -0.036161   0.041309  -0.033427  -0.027389  -0.001289
     2  C   -0.031377  -0.004446  -0.068150   0.017321  -0.161804   0.000717
     3  C   -0.037843   0.017318  -0.023633  -0.005002   0.016795   0.002466
     4  C   -0.305424  -0.253244  -1.831980  -0.072147  -1.585591   0.236116
     5  H   -0.004896  -0.001129  -0.015048  -0.009614   0.006317   0.000063
     6  H    0.004165   0.002457  -0.016103   0.005926  -0.009497  -0.000528
     7  H   -0.003398   0.000155   0.012761  -0.008354   0.008667  -0.000218
     8  H   -0.001626   0.007651   0.009976   0.001404   0.007222  -0.000287
     9  H    0.001211  -0.013930  -0.005998  -0.000288  -0.007493   0.002628
    10  H   -0.003486  -0.012127  -0.005116  -0.000361  -0.011451   0.002768
    11  C    0.984393   0.360363  -1.038351  -0.042423  -0.877286   0.073567
    12  C   -1.221453  -0.004802   0.925135   0.493573  -2.392384  -0.020205
    13  C   11.056076  -0.043189  -0.813409   0.000012  -0.320240   0.579564
    14  H   -0.043189   0.547147  -0.020882  -0.000681   0.164884  -0.058758
    15  C   -0.813409  -0.020882   9.290048   0.032024   0.258233   0.031782
    16  H    0.000012  -0.000681   0.032024   0.510260  -0.041658   0.002605
    17  C   -0.320240   0.164884   0.258233  -0.041658  11.421471  -0.242033
    18  H    0.579564  -0.058758   0.031782   0.002605  -0.242033   0.646259
    19  H   -0.096720   0.002511   0.290455  -0.013009  -0.065341  -0.007144
    20  C    1.611072   0.010205  -0.836883   0.004143  -0.161111   0.057305
    21  C   -0.811843   0.046664  -0.102671  -0.020629  -0.847782  -0.117349
    22  H    0.111678  -0.001750   0.037237   0.002338  -0.152496   0.008813
    23  C   -2.368532   0.023214   0.139136  -0.006290   0.165260  -0.133737
    24  H   -0.329153   0.023926   0.042092  -0.001204   0.134162  -0.126031
    25  O    0.000679   0.000018  -0.012137   0.000038   0.046058   0.002079
    26  C   -1.212885   0.013257  -0.046303  -0.002521   0.339893  -0.125845
    27  H   -0.008272   0.000015   0.001008  -0.000014  -0.005802  -0.000157
    28  C   -0.177523   0.001407  -0.002114  -0.000481  -0.068002  -0.027057
    29  C    0.083752  -0.002536   0.027298   0.000218  -0.359221   0.015774
    30  O    0.000106  -0.000001  -0.000243  -0.000001   0.003027   0.000055
    31  C    0.042374  -0.000238  -0.000362  -0.000035  -0.047540   0.002203
    32  C    0.083770  -0.003090  -0.013636   0.000057  -0.128486   0.047782
    33  H    0.008446  -0.001124   0.002682   0.000033  -0.023126   0.009886
    34  C   -0.026506   0.000207   0.000019   0.000013   0.038561  -0.000372
    35  H    0.000608  -0.000003  -0.000019  -0.000001  -0.000991   0.000024
    36  C   -0.023003   0.000252   0.001368  -0.000011  -0.011169  -0.003387
    37  H   -0.000321   0.000006   0.000031   0.000000   0.000573  -0.000088
    38  H   -0.000172   0.000002  -0.000014   0.000000   0.000559   0.000002
    39  H    0.000258  -0.000017   0.000024   0.000000  -0.000387   0.000247
    40  H    0.001175   0.000111  -0.000481  -0.000006  -0.002600  -0.002881
              19         20         21         22         23         24
     1  N   -0.000855  -0.003150   0.005015  -0.000789   0.002556  -0.000955
     2  C    0.002607   0.030945  -0.009815  -0.000572  -0.000833  -0.000113
     3  C    0.000561  -0.008464   0.017184  -0.000407   0.005626  -0.000127
     4  C    0.013216  -0.021482  -0.372014   0.024059  -0.253561  -0.083912
     5  H    0.000601  -0.001968   0.001407  -0.000061   0.000252  -0.000036
     6  H   -0.000012   0.003597  -0.000321  -0.000011  -0.000061   0.000066
     7  H    0.000506  -0.001855  -0.000080  -0.000118  -0.000063   0.000067
     8  H   -0.000054  -0.001663   0.001113  -0.000048   0.000320   0.000029
     9  H   -0.000171  -0.000102  -0.001428   0.000100  -0.000772  -0.000508
    10  H   -0.000246   0.000042  -0.001309   0.000123  -0.000470  -0.000570
    11  C    0.030640  -0.310684  -0.300171  -0.012147   0.201069  -0.146531
    12  C   -0.013695   0.505650   0.383775   0.026449   0.015510   0.042215
    13  C   -0.096720   1.611072  -0.811843   0.111678  -2.368532  -0.329153
    14  H    0.002511   0.010205   0.046664  -0.001750   0.023214   0.023926
    15  C    0.290455  -0.836883  -0.102671   0.037237   0.139136   0.042092
    16  H   -0.013009   0.004143  -0.020629   0.002338  -0.006290  -0.001204
    17  C   -0.065341  -0.161111  -0.847782  -0.152496   0.165260   0.134162
    18  H   -0.007144   0.057305  -0.117349   0.008813  -0.133737  -0.126031
    19  H    0.491769   0.018019   0.030162  -0.009201   0.071516   0.005338
    20  C    0.018019  11.448194   3.965016   0.523714  -4.776124  -0.223699
    21  C    0.030162   3.965016  17.991786   0.169213  -0.137665   0.578965
    22  H   -0.009201   0.523714   0.169213   0.470789  -0.176131  -0.006065
    23  C    0.071516  -4.776124  -0.137665  -0.176131  14.930444   0.247792
    24  H    0.005338  -0.223699   0.578965  -0.006065   0.247792   1.041623
    25  O    0.001005   0.072667  -0.288437  -0.004447   0.845014  -0.005036
    26  C    0.027782  -3.736414  -7.070570  -0.192259   2.974622   0.377065
    27  H    0.000220  -0.041189  -0.026879  -0.001535   0.051689   0.000275
    28  C    0.008381  -1.755364  -5.947638  -0.086104  -4.187372   0.166961
    29  C   -0.004417  -0.382551  -0.225401   0.025096  -0.064110  -0.151672
    30  O    0.000081   0.017107  -0.006566  -0.001742  -0.050927   0.001775
    31  C    0.000158   0.160619   0.372155   0.003204   0.087353  -0.000454
    32  C   -0.000618  -0.108846  -0.747684   0.005684  -0.524668  -0.307279
    33  H    0.000012  -0.027523  -0.054521   0.001161  -0.056345  -0.091892
    34  C    0.000051  -0.091679  -0.349766  -0.001644  -0.718753  -0.035873
    35  H    0.000005   0.003083   0.005077  -0.000022   0.003244  -0.000147
    36  C    0.000142  -0.138818  -0.478095  -0.002392  -0.196247   0.024085
    37  H    0.000000   0.000030   0.000363   0.000008   0.008233  -0.000007
    38  H    0.000000  -0.000538   0.003846  -0.000014  -0.000582   0.000994
    39  H    0.000000   0.000291   0.002060   0.000012   0.000153  -0.000623
    40  H    0.000009  -0.000584  -0.015848  -0.000050   0.002951   0.006748
              25         26         27         28         29         30
     1  N   -0.000001   0.000422   0.000002   0.000018  -0.000002   0.000000
     2  C    0.000009  -0.000990  -0.000005  -0.000033   0.000092   0.000000
     3  C    0.000000   0.002486   0.000004   0.000091  -0.000729   0.000000
     4  C   -0.000439  -0.081836  -0.000495  -0.004628  -0.000391  -0.000006
     5  H   -0.000001   0.000089   0.000001   0.000009   0.000019   0.000000
     6  H    0.000000  -0.000069   0.000000  -0.000002   0.000013   0.000000
     7  H   -0.000001   0.000071   0.000000   0.000004  -0.000034   0.000000
     8  H    0.000000   0.000153   0.000000   0.000005  -0.000046   0.000000
     9  H    0.000000  -0.000330  -0.000001  -0.000022   0.000072   0.000000
    10  H    0.000000  -0.000275   0.000000  -0.000009   0.000119   0.000000
    11  C    0.000087   0.205893   0.000620   0.039290  -0.059622   0.000057
    12  C   -0.002014  -0.125922  -0.000246  -0.015349   0.036806  -0.000044
    13  C    0.000679  -1.212885  -0.008272  -0.177523   0.083752   0.000106
    14  H    0.000018   0.013257   0.000015   0.001407  -0.002536  -0.000001
    15  C   -0.012137  -0.046303   0.001008  -0.002114   0.027298  -0.000243
    16  H    0.000038  -0.002521  -0.000014  -0.000481   0.000218  -0.000001
    17  C    0.046058   0.339893  -0.005802  -0.068002  -0.359221   0.003027
    18  H    0.002079  -0.125845  -0.000157  -0.027057   0.015774   0.000055
    19  H    0.001005   0.027782   0.000220   0.008381  -0.004417   0.000081
    20  C    0.072667  -3.736414  -0.041189  -1.755364  -0.382551   0.017107
    21  C   -0.288437  -7.070570  -0.026879  -5.947638  -0.225401  -0.006566
    22  H   -0.004447  -0.192259  -0.001535  -0.086104   0.025096  -0.001742
    23  C    0.845014   2.974622   0.051689  -4.187372  -0.064110  -0.050927
    24  H   -0.005036   0.377065   0.000275   0.166961  -0.151672   0.001775
    25  O    8.099664  -0.087715   0.087148  -0.260098  -0.099125   0.005229
    26  C   -0.087715  24.111761  -0.134775  -0.420833  -1.294056   0.197220
    27  H    0.087148  -0.134775   0.288885   0.075185   0.032676   0.224573
    28  C   -0.260098  -0.420833   0.075185  19.340900  -1.641978   0.192753
    29  C   -0.099125  -1.294056   0.032676  -1.641978  10.535056  -0.038816
    30  O    0.005229   0.197220   0.224573   0.192753  -0.038816   8.151429
    31  C   -0.011861  -3.206293   0.028945   1.548883  -0.564285  -0.330008
    32  C   -0.054161  -5.919277   0.037029   0.132699   1.630304  -0.086664
    33  H    0.000624  -0.047642   0.001691   0.063137   0.401487  -0.002717
    34  C    0.006479   1.040967  -0.008656  -1.528868  -1.192382   0.092212
    35  H    0.000436  -0.123716   0.000644  -0.083467   0.002627  -0.024902
    36  C   -0.005543  -0.875681   0.003861   0.939053   0.104593  -0.010021
    37  H    0.000277   0.135826  -0.000251  -0.034552  -0.033703   0.003319
    38  H   -0.000064  -0.007732   0.000032   0.009627   0.008802  -0.000187
    39  H   -0.000024  -0.012453  -0.000052  -0.003405  -0.020532  -0.000158
    40  H   -0.000191   0.046088   0.000003  -0.001934   0.106505  -0.000020
              31         32         33         34         35         36
     1  N   -0.000001   0.000004   0.000054   0.000001   0.000000   0.000001
     2  C   -0.000001  -0.000005   0.000003   0.000000   0.000000   0.000001
     3  C   -0.000010  -0.000107  -0.000016   0.000004   0.000000   0.000027
     4  C    0.000956   0.002945  -0.001120  -0.000627   0.000011  -0.000630
     5  H    0.000000   0.000003  -0.000001   0.000000   0.000000   0.000000
     6  H    0.000000  -0.000001  -0.000001   0.000000   0.000000   0.000000
     7  H    0.000000  -0.000003  -0.000001   0.000000   0.000000   0.000000
     8  H   -0.000001  -0.000005  -0.000004   0.000000   0.000000   0.000001
     9  H    0.000003   0.000028   0.000046  -0.000003   0.000000  -0.000006
    10  H    0.000003   0.000029  -0.000007  -0.000003   0.000000   0.000003
    11  C    0.000800   0.008983   0.002469  -0.002231   0.000021   0.005619
    12  C   -0.000953  -0.000195   0.000417   0.000262  -0.000018   0.000211
    13  C    0.042374   0.083770   0.008446  -0.026506   0.000608  -0.023003
    14  H   -0.000238  -0.003090  -0.001124   0.000207  -0.000003   0.000252
    15  C   -0.000362  -0.013636   0.002682   0.000019  -0.000019   0.001368
    16  H   -0.000035   0.000057   0.000033   0.000013  -0.000001  -0.000011
    17  C   -0.047540  -0.128486  -0.023126   0.038561  -0.000991  -0.011169
    18  H    0.002203   0.047782   0.009886  -0.000372   0.000024  -0.003387
    19  H    0.000158  -0.000618   0.000012   0.000051   0.000005   0.000142
    20  C    0.160619  -0.108846  -0.027523  -0.091679   0.003083  -0.138818
    21  C    0.372155  -0.747684  -0.054521  -0.349766   0.005077  -0.478095
    22  H    0.003204   0.005684   0.001161  -0.001644  -0.000022  -0.002392
    23  C    0.087353  -0.524668  -0.056345  -0.718753   0.003244  -0.196247
    24  H   -0.000454  -0.307279  -0.091892  -0.035873  -0.000147   0.024085
    25  O   -0.011861  -0.054161   0.000624   0.006479   0.000436  -0.005543
    26  C   -3.206293  -5.919277  -0.047642   1.040967  -0.123716  -0.875681
    27  H    0.028945   0.037029   0.001691  -0.008656   0.000644   0.003861
    28  C    1.548883   0.132699   0.063137  -1.528868  -0.083467   0.939053
    29  C   -0.564285   1.630304   0.401487  -1.192382   0.002627   0.104593
    30  O   -0.330008  -0.086664  -0.002717   0.092212  -0.024902  -0.010021
    31  C    8.304089   0.165564   0.044355  -0.524937   0.565983  -0.113733
    32  C    0.165564  12.641918   0.031084  -0.221845   0.029584  -0.477148
    33  H    0.044355   0.031084   0.688144   0.049910   0.001197  -0.056128
    34  C   -0.524937  -0.221845   0.049910  10.510390  -0.071463  -1.034851
    35  H    0.565983   0.029584   0.001197  -0.071463   0.468385   0.004398
    36  C   -0.113733  -0.477148  -0.056128  -1.034851   0.004398   7.720712
    37  H   -0.109100  -0.071501  -0.002548   0.444521  -0.014856  -0.019200
    38  H    0.000681  -0.049635  -0.004998  -0.021120   0.000166   0.411685
    39  H    0.014165  -0.008503  -0.000431   0.026404   0.000801   0.359762
    40  H   -0.013205  -0.156655  -0.010117  -0.031842  -0.000081   0.404238
              37         38         39         40
     1  N    0.000000   0.000000   0.000000   0.000001
     2  C    0.000000   0.000000   0.000000  -0.000003
     3  C    0.000000   0.000000   0.000000  -0.000002
     4  C   -0.000007   0.000011   0.000000  -0.000117
     5  H    0.000000   0.000000   0.000000   0.000001
     6  H    0.000000   0.000000   0.000000   0.000000
     7  H    0.000000   0.000000   0.000000   0.000000
     8  H    0.000000   0.000000   0.000000   0.000000
     9  H    0.000000   0.000000   0.000000  -0.000004
    10  H    0.000000   0.000000   0.000000   0.000003
    11  C    0.000001  -0.000036  -0.000009   0.000245
    12  C    0.000004   0.000017  -0.000001  -0.000256
    13  C   -0.000321  -0.000172   0.000258   0.001175
    14  H    0.000006   0.000002  -0.000017   0.000111
    15  C    0.000031  -0.000014   0.000024  -0.000481
    16  H    0.000000   0.000000   0.000000  -0.000006
    17  C    0.000573   0.000559  -0.000387  -0.002600
    18  H   -0.000088   0.000002   0.000247  -0.002881
    19  H    0.000000   0.000000   0.000000   0.000009
    20  C    0.000030  -0.000538   0.000291  -0.000584
    21  C    0.000363   0.003846   0.002060  -0.015848
    22  H    0.000008  -0.000014   0.000012  -0.000050
    23  C    0.008233  -0.000582   0.000153   0.002951
    24  H   -0.000007   0.000994  -0.000623   0.006748
    25  O    0.000277  -0.000064  -0.000024  -0.000191
    26  C    0.135826  -0.007732  -0.012453   0.046088
    27  H   -0.000251   0.000032  -0.000052   0.000003
    28  C   -0.034552   0.009627  -0.003405  -0.001934
    29  C   -0.033703   0.008802  -0.020532   0.106505
    30  O    0.003319  -0.000187  -0.000158  -0.000020
    31  C   -0.109100   0.000681   0.014165  -0.013205
    32  C   -0.071501  -0.049635  -0.008503  -0.156655
    33  H   -0.002548  -0.004998  -0.000431  -0.010117
    34  C    0.444521  -0.021120   0.026404  -0.031842
    35  H   -0.014856   0.000166   0.000801  -0.000081
    36  C   -0.019200   0.411685   0.359762   0.404238
    37  H    0.487522  -0.002701  -0.002357   0.002327
    38  H   -0.002701   0.551349  -0.061399  -0.016521
    39  H   -0.002357  -0.061399   0.559073  -0.020446
    40  H    0.002327  -0.016521  -0.020446   0.537519
 Mulliken charges:
               1
     1  N    0.061951
     2  C   -0.388711
     3  C   -0.384968
     4  C   -0.612388
     5  H    0.170737
     6  H    0.155957
     7  H    0.185373
     8  H    0.158639
     9  H    0.179814
    10  H    0.172121
    11  C   -0.286955
    12  C   -0.270747
    13  C   -0.686973
    14  H    0.236339
    15  C   -0.289082
    16  H    0.188192
    17  C    0.939198
    18  H    0.144662
    19  H    0.215737
    20  C    0.198993
    21  C    0.360678
    22  H    0.240324
    23  C   -0.122714
    24  H   -0.182291
    25  O   -0.336214
    26  C    1.252795
    27  H    0.393820
    28  C   -0.271571
    29  C   -0.875703
    30  O   -0.335920
    31  C   -0.419481
    32  C    0.062545
    33  H    0.073424
    34  C   -0.346579
    35  H    0.233392
    36  C   -0.533951
    37  H    0.208152
    38  H    0.177940
    39  H    0.167544
    40  H    0.165919
 Sum of Mulliken charges =   0.00000
 Mulliken charges with hydrogens summed into heavy atoms:
               1
     1  N    0.061951
     2  C    0.123357
     3  C    0.125607
     4  C   -0.612388
    11  C   -0.050616
    12  C   -0.082555
    13  C   -0.542311
    15  C   -0.073345
    17  C    0.939198
    20  C    0.439317
    21  C    0.178388
    23  C   -0.122714
    25  O   -0.336214
    26  C    1.252795
    28  C   -0.271571
    29  C   -0.802279
    30  O    0.057900
    31  C   -0.186089
    32  C    0.062545
    34  C   -0.138427
    36  C   -0.022548
 Electronic spatial extent (au):  <R**2>=          27737.7807
 Charge=              0.0000 electrons
 Dipole moment (field-independent basis, Debye):
    X=             -1.3278    Y=             -9.0694    Z=             -3.4074  Tot=              9.7789
 Quadrupole moment (field-independent basis, Debye-Ang):
   XX=           -132.9746   YY=           -192.7755   ZZ=           -112.2196
   XY=            -40.9154   XZ=            -27.5797   YZ=            -12.6127
 Traceless Quadrupole moment (field-independent basis, Debye-Ang):
   XX=             13.0153   YY=            -46.7856   ZZ=             33.7703
   XY=            -40.9154   XZ=            -27.5797   YZ=            -12.6127
 Octapole moment (field-independent basis, Debye-Ang**2):
  XXX=          -1342.0841  YYY=          -2090.6617  ZZZ=           -608.5675  XYY=           -747.9483
  XXY=           -666.0260  XXZ=           -371.6953  XZZ=           -441.4217  YZZ=           -490.5243
  YYZ=           -381.8002  XYZ=           -117.4788
 Hexadecapole moment (field-independent basis, Debye-Ang**3):
 XXXX=         -10490.9192 YYYY=         -23948.2706 ZZZZ=          -8648.5404 XXXY=          -5353.2645
 XXXZ=          -1961.9845 YYYX=          -7416.0035 YYYZ=          -6858.8063 ZZZX=          -1482.9790
 ZZZY=          -4981.4312 XXYY=          -6198.4732 XXZZ=          -3356.9871 YYZZ=          -4710.4888
 XXYZ=          -2444.5912 YYXZ=          -1463.9411 ZZXY=          -1965.1010
 N-N= 1.481087672433D+03 E-N=-5.062261047851D+03  KE= 8.982547910341D+02
 Leave Link  601 at Thu Nov  2 21:24:13 2017, MaxMem=  3758096384 cpu:         0.4
 (Enter /share/apps/gaussian/g09_D01/g09/l9999.exe)
 1\1\GINC-NXV42\SP\RwB97XD TD-FC\6-311++G(d,p)\C18H19N1O2\BTX008\02-Nov
 -2017\0\\#p wb97xd 6-311++G** td=(nstates=4) nosymm\\Title\\0,1\N,0,4.
 09686,-0.396522,-2.06582\C,0,4.914092,-0.594323,-3.253037\C,0,3.163159
 ,-1.438129,-1.656186\C,0,4.204238,0.745615,-1.34135\H,0,5.985241,-0.51
 5578,-3.016782\H,0,4.72163,-1.590357,-3.661002\H,0,4.678475,0.148074,-
 4.031589\H,0,3.194547,-2.254703,-2.384121\H,0,3.426361,-1.840379,-0.66
 6002\H,0,2.132892,-1.051529,-1.609305\C,0,3.413868,0.951299,-0.172407\
 C,0,5.105907,1.781145,-1.718\C,0,3.513859,2.115618,0.551623\H,0,2.7174
 8,0.184157,0.157913\C,0,5.190742,2.939792,-0.973811\H,0,5.734864,1.666
 28,-2.598454\C,0,4.398282,3.159007,0.178919\H,0,2.887427,2.226603,1.43
 6169\H,0,5.886118,3.721553,-1.27793\C,0,4.496192,4.399678,0.88254\C,0,
 3.789319,4.758355,1.999082\H,0,5.192785,5.135733,0.466766\C,0,3.907551
 ,6.047638,2.622715\H,0,3.0854,4.051435,2.433749\O,0,4.659939,6.968406,
 2.136689\C,0,3.129087,6.351643,3.839616\H,0,4.236105,8.170739,2.91642\
 C,0,3.036202,7.700413,4.28606\C,0,2.462429,5.361451,4.58863\O,0,3.6754
 49,8.692082,3.625623\C,0,2.257594,8.00905,5.412007\C,0,1.725437,5.6527
 81,5.72879\H,0,2.517632,4.321162,4.272261\C,0,1.622154,7.001359,6.1223
 56\H,0,2.171953,9.051438,5.719167\C,0,1.047788,4.556747,6.505795\H,0,1
 .032658,7.255414,7.006038\H,0,1.472863,4.459112,7.51775\H,0,-0.022793,
 4.767561,6.636276\H,0,1.14507,3.593672,5.98728\\Version=ES64L-G09RevD.
 01\HF=-902.4764804\RMSD=7.612e-09\PG=C01 [X(C18H19N1O2)]\\@


 THE MOST INCOMPREHENSIBLE THING ABOUT THE WORLD
 IS THAT IT IS COMPREHENSIBLE. -- A. EINSTEIN
 Job cpu time:       0 days  3 hours 15 minutes 19.5 seconds.
 File lengths (MBytes):  RWF=    513 Int=      0 D2E=      0 Chk=     58 Scr=      1
 Normal termination of Gaussian 09 at Thu Nov  2 21:24:16 2017.
