
     Program PWSCF v.6.1 (svn rev. 13369) starts on 10Oct2017 at 16:55: 3 

     This program is part of the open-source Quantum ESPRESSO suite
     for quantum simulation of materials; please cite
         "P. Giannozzi et al., J. Phys.:Condens. Matter 21 395502 (2009);
          URL http://www.quantum-espresso.org", 
     in publications or presentations arising from this work. More details at
     http://www.quantum-espresso.org/quote

     Parallel version (MPI), running on     1 processors
     Waiting for input...
     Reading input from standard input

     Current dimensions of program PWSCF are:
     Max number of different atomic species (ntypx) = 10
     Max number of k-points (npk) =  40000
     Max angular momentum in pseudopotentials (lmaxx) =  3
     Message from routine iosys:
     london is obsolete, use "vdw_corr='grimme-d2'" instead

     IMPORTANT: XC functional enforced from input :
     Exchange-correlation      = PBE ( 1  4  3  4 0 0)
     Any further DFT definition will be discarded
     Please, verify this is what you really want

               file C.pbe-rrkjus.UPF: wavefunction(s)  2S 2P renormalized
               file H.pbe-rrkjus.UPF: wavefunction(s)  1S renormalized
               file O.pbe-rrkjus.UPF: wavefunction(s)  2S renormalized
               file N.pbe-rrkjus.UPF: wavefunction(s)  2S renormalized

     -------------------------------------
     Parameters for Dispersion Correction:
     -------------------------------------
       atom      VdW radius       C_6     

        C          2.744         60.710
        H          1.892          4.857
        O          2.536         24.284
        N          2.640         42.670

     Subspace diagonalization in iterative solution of the eigenvalue problem:
     a serial algorithm will be used

 
     G-vector sticks info
     --------------------
     sticks:   dense  smooth     PW     G-vecs:    dense   smooth      PW
     Sum        4821    4821   1297               469205   469205   65263
 


     bravais-lattice index     =            0
     lattice parameter (alat)  =      20.3146  a.u.
     unit-cell volume          =   21137.7230 (a.u.)^3
     number of atoms/cell      =          320
     number of atomic types    =            4
     number of electrons       =       864.00
     number of Kohn-Sham states=          432
     kinetic-energy cutoff     =      30.0000  Ry
     charge density cutoff     =     120.0000  Ry
     convergence threshold     =      1.0E-07
     mixing beta               =       0.7000
     number of iterations used =            8  plain     mixing
     Exchange-correlation      = PBE ( 1  4  3  4 0 0)
     nstep                     =           50


     celldm(1)=  20.314556  celldm(2)=   0.000000  celldm(3)=   0.000000
     celldm(4)=   0.000000  celldm(5)=   0.000000  celldm(6)=   0.000000

     crystal axes: (cart. coord. in units of alat)
               a(1) = (   1.000000   0.000000   0.000000 )  
               a(2) = (   0.000000   1.224186   0.000000 )  
               a(3) = (   0.000000   0.000000   2.059628 )  

     reciprocal axes: (cart. coord. in units 2 pi/alat)
               b(1) = (  1.000000  0.000000  0.000000 )  
               b(2) = (  0.000000  0.816869  0.000000 )  
               b(3) = (  0.000000  0.000000  0.485525 )  


     PseudoPot. # 1 for C  read from file:
     /data/home/btx156/espresso/pseudo/C.pbe-rrkjus.UPF
     MD5 check sum: 00fb224312de0c5b6853bd333518df6f
     Pseudo is Ultrasoft, Zval =  4.0
     Generated by new atomic code, or converted to UPF format
     Using radial grid of  627 points,  4 beta functions with: 
                l(1) =   0
                l(2) =   0
                l(3) =   1
                l(4) =   1
     Q(r) pseudized with 0 coefficients 


     PseudoPot. # 2 for H  read from file:
     /data/home/btx156/espresso/pseudo/H.pbe-rrkjus.UPF
     MD5 check sum: 7cc9d459525c9a0585f487a71c3c9563
     Pseudo is Ultrasoft, Zval =  1.0
     Generated by new atomic code, or converted to UPF format
     Using radial grid of 1061 points,  2 beta functions with: 
                l(1) =   0
                l(2) =   0
     Q(r) pseudized with 0 coefficients 


     PseudoPot. # 3 for O  read from file:
     /data/home/btx156/espresso/pseudo/O.pbe-rrkjus.UPF
     MD5 check sum: 390ba29e75625707450f3bd3f0eb6be9
     Pseudo is Ultrasoft, Zval =  6.0
     Generated by new atomic code, or converted to UPF format
     Using radial grid of 1269 points,  4 beta functions with: 
                l(1) =   0
                l(2) =   0
                l(3) =   1
                l(4) =   1
     Q(r) pseudized with 0 coefficients 


     PseudoPot. # 4 for N  read from file:
     /data/home/btx156/espresso/pseudo/N.pbe-rrkjus.UPF
     MD5 check sum: 0c3fbe5807a93f9ba59d5a7019aa238b
     Pseudo is Ultrasoft, Zval =  5.0
     Generated by new atomic code, or converted to UPF format
     Using radial grid of 1257 points,  4 beta functions with: 
                l(1) =   0
                l(2) =   0
                l(3) =   1
                l(4) =   1
     Q(r) pseudized with 0 coefficients 


     atomic species   valence    mass     pseudopotential
        C              4.00    12.00000     C ( 1.00)
        H              1.00     1.00790     H ( 1.00)
        O              6.00    15.99940     O ( 1.00)
        N              5.00    14.00670     N ( 1.00)

      8 Sym. Ops., with inversion, found ( 6 have fractional translation)



   Cartesian axes

     site n.     atom                  positions (alat units)
         1           O   tau(   1) = (   0.1558205   0.1965312   0.3445758  )
         2           O   tau(   2) = (   0.0688102   0.0341423   0.1984660  )
         3           C   tau(   3) = (   0.1357702   1.1752428   0.2453637  )
         4           C   tau(   4) = (   0.0915098   0.9064363   0.0166623  )
         5           C   tau(   5) = (   0.2061702   1.2026158   0.3600233  )
         6           C   tau(   6) = (   0.1474000   1.0538651   0.1870140  )
         7           C   tau(   7) = (   0.2156698   0.1017544   0.4028837  )
         8           C   tau(   8) = (   0.1831005   0.7035274   2.0404530  )
         9           N   tau(   9) = (   0.1196698   0.5771423   1.8658791  )
        10           C   tau(  10) = (   0.1100000   0.6842958   1.9335991  )
        11           C   tau(  11) = (   0.0821005   1.0216326   0.0851247  )
        12           C   tau(  12) = (   0.2671005   1.1099693   0.4286288  )
        13           C   tau(  13) = (   0.1728000   0.8104847   0.0494521  )
        14           C   tau(  14) = (   0.3469005   0.0352809   0.5703526  )
        15           C   tau(  15) = (   0.2893005   0.1286251   0.5058037  )
        16           C   tau(  16) = (   0.3358000   1.1353349   0.5341237  )
        17           C   tau(  17) = (   0.0195005   0.8868865   1.9704670  )
        18           C   tau(  18) = (   0.0281005   0.7797702   1.9001302  )
        19           C   tau(  19) = (   0.0392000   0.5540670   1.7611051  )
        20           C   tau(  20) = (   0.2034000   0.4787423   1.9039405  )
        21           C   tau(  21) = (   0.3985005   1.0323926   0.6062716  )
        22           H   tau(  22) = (   0.3600000   1.0245209   0.6864744  )
        23           H   tau(  23) = (   0.4851005   1.0516986   0.6166530  )
        24           H   tau(  24) = (   0.3903005   0.9554772   0.5616605  )
        25           H   tau(  25) = (   0.2620000   1.0237870   0.4010093  )
        26           H   tau(  26) = (   0.9600000   0.9514372   1.9457302  )
        27           H   tau(  27) = (   0.0250000   1.0812009   0.0533442  )
        28           H   tau(  28) = (   0.2410000   0.6395144   0.0086502  )
        29           H   tau(  29) = (   0.2960000   0.2186400   0.5268530  )
        30           H   tau(  30) = (   0.3980000   0.0547209   0.6415740  )
        31           H   tau(  31) = (   0.2300000   0.8215516   0.1223423  )
        32           H   tau(  32) = (   0.2060000   0.9973442   0.2205860  )
        33           H   tau(  33) = (   0.9560000   0.5680223   1.7832260  )
        34           H   tau(  34) = (   0.9740000   0.7712372   1.8285377  )
        35           H   tau(  35) = (   0.2020000   0.4125507   1.8408958  )
        36           H   tau(  36) = (   0.1830000   0.4448688   1.9875405  )
        37           H   tau(  37) = (   0.0540000   0.4762084   1.7269981  )
        38           H   tau(  38) = (   0.2900000   0.5080372   1.9142186  )
        39           H   tau(  39) = (   0.1030000   0.1505749   0.2801098  )
        40           H   tau(  40) = (   0.0530000   0.6218865   1.6946614  )
        41           O   tau(  41) = (   0.3441805   1.0276549   1.3743898  )
        42           O   tau(  42) = (   0.8441795   0.8086242   0.6852381  )
        43           O   tau(  43) = (   0.6558205   0.4155619   1.7150521  )
        44           O   tau(  44) = (   0.8441805   1.0276549   1.7150521  )
        45           O   tau(  45) = (   0.6558205   0.1965312   0.6852381  )
        46           O   tau(  46) = (   0.1558205   0.4155619   1.3743898  )
        47           O   tau(  47) = (   0.3441805   0.8086242   0.3445758  )
        48           O   tau(  48) = (   0.4311898   1.1900437   1.2282800  )
        49           O   tau(  49) = (   0.9311898   0.6462353   0.8313479  )
        50           O   tau(  50) = (   0.5688102   0.5779507   1.8611619  )
        51           O   tau(  51) = (   0.9311898   1.1900437   1.8611619  )
        52           O   tau(  52) = (   0.5688102   0.0341423   0.8313479  )
        53           O   tau(  53) = (   0.0688102   0.5779507   1.2282800  )
        54           O   tau(  54) = (   0.4311898   0.6462353   0.1984660  )
        55           C   tau(  55) = (   0.3642298   0.0489433   1.2751777  )
        56           C   tau(  56) = (   0.8642298   0.5631498   0.7844502  )
        57           C   tau(  57) = (   0.6357702   0.6610363   1.8142642  )
        58           C   tau(  58) = (   0.8642298   0.0489433   1.8142642  )
        59           C   tau(  59) = (   0.6357702   1.1752428   0.7844502  )
        60           C   tau(  60) = (   0.1357702   0.6610363   1.2751777  )
        61           C   tau(  61) = (   0.3642298   0.5631498   0.2453637  )
        62           C   tau(  62) = (   0.4084902   0.3177498   1.0464763  )
        63           C   tau(  63) = (   0.9084902   0.2943433   1.0131516  )
        64           C   tau(  64) = (   0.5915098   0.9298428   2.0429656  )
        65           C   tau(  65) = (   0.9084902   0.3177498   2.0429656  )
        66           C   tau(  66) = (   0.5915098   0.9064363   1.0131516  )
        67           C   tau(  67) = (   0.0915098   0.9298428   1.0464763  )
        68           C   tau(  68) = (   0.4084902   0.2943433   0.0166623  )
        69           C   tau(  69) = (   0.2938298   0.0215702   1.3898372  )
        70           C   tau(  70) = (   0.7938298   0.5905228   0.6697907  )
        71           C   tau(  71) = (   0.7061702   0.6336633   1.6996047  )
        72           C   tau(  72) = (   0.7938298   0.0215702   1.6996047  )
        73           C   tau(  73) = (   0.7061702   1.2026158   0.6697907  )
        74           C   tau(  74) = (   0.2061702   0.6336633   1.3898372  )
        75           C   tau(  75) = (   0.2938298   0.5905228   0.3600233  )
        76           C   tau(  76) = (   0.3526000   0.1703209   1.2168279  )
        77           C   tau(  77) = (   0.8526000   0.4417721   0.8428000  )
        78           C   tau(  78) = (   0.6474000   0.7824140   1.8726140  )
        79           C   tau(  79) = (   0.8526000   0.1703209   1.8726140  )
        80           C   tau(  80) = (   0.6474000   1.0538651   0.8428000  )
        81           C   tau(  81) = (   0.1474000   0.7824140   1.2168279  )
        82           C   tau(  82) = (   0.3526000   0.4417721   0.1870140  )
        83           C   tau(  83) = (   0.2843302   1.1224316   1.4326977  )
        84           C   tau(  84) = (   0.7843302   0.7138474   0.6269302  )
        85           C   tau(  85) = (   0.7156698   0.5103386   1.6567442  )
        86           C   tau(  86) = (   0.7843302   1.1224316   1.6567442  )
        87           C   tau(  87) = (   0.7156698   0.1017544   0.6269302  )
        88           C   tau(  88) = (   0.2156698   0.5103386   1.4326977  )
        89           C   tau(  89) = (   0.2843302   0.7138474   0.4028837  )
        90           C   tau(  90) = (   0.3169005   0.5206586   1.0106391  )
        91           C   tau(  91) = (   0.8168995   0.0914344   1.0489888  )
        92           C   tau(  92) = (   0.6831005   1.1327516   0.0191749  )
        93           C   tau(  93) = (   0.8168995   0.5206586   0.0191749  )
        94           C   tau(  94) = (   0.6831005   0.7035274   1.0489888  )
        95           C   tau(  95) = (   0.1831005   1.1327516   1.0106391  )
        96           C   tau(  96) = (   0.3169005   0.0914344   2.0404530  )
        97           N   tau(  97) = (   0.3803302   0.6470437   0.8360651  )
        98           N   tau(  98) = (   0.8803302   1.1892353   1.2235628  )
        99           N   tau(  99) = (   0.6196698   0.0349507   0.1937488  )
       100           N   tau( 100) = (   0.8803302   0.6470437   0.1937488  )
       101           N   tau( 101) = (   0.6196698   0.5771423   1.2235628  )
       102           N   tau( 102) = (   0.1196698   0.0349507   0.8360651  )
       103           N   tau( 103) = (   0.3803302   1.1892353   1.8658791  )
       104           C   tau( 104) = (   0.3900000   0.5398902   0.9037851  )
       105           C   tau( 105) = (   0.8900000   0.0722028   1.1558428  )
       106           C   tau( 106) = (   0.6100000   1.1519833   0.1260288  )
       107           C   tau( 107) = (   0.8900000   0.5398902   0.1260288  )
       108           C   tau( 108) = (   0.6100000   0.6842958   1.1558428  )
       109           C   tau( 109) = (   0.1100000   1.1519833   0.9037851  )
       110           C   tau( 110) = (   0.3900000   0.0722028   1.9335991  )
       111           C   tau( 111) = (   0.4179005   0.2025535   1.1149386  )
       112           C   tau( 112) = (   0.9178995   0.4095395   0.9446893  )
       113           C   tau( 113) = (   0.5821005   0.8146465   1.9745033  )
       114           C   tau( 114) = (   0.9179005   0.2025535   1.9745033  )
       115           C   tau( 115) = (   0.5821005   1.0216326   0.9446893  )
       116           C   tau( 116) = (   0.0821005   0.8146465   1.1149386  )
       117           C   tau( 117) = (   0.4178995   0.4095395   0.0851247  )
       118           C   tau( 118) = (   0.2329005   0.1142167   1.4584428  )
       119           C   tau( 119) = (   0.7328995   0.4978763   0.6011851  )
       120           C   tau( 120) = (   0.7671005   0.7263098   1.6309991  )
       121           C   tau( 121) = (   0.7328995   0.1142167   1.6309991  )
       122           C   tau( 122) = (   0.7671005   1.1099693   0.6011851  )
       123           C   tau( 123) = (   0.2671005   0.7263098   1.4584428  )
       124           C   tau( 124) = (   0.2329005   0.4978763   0.4286288  )
       125           C   tau( 125) = (   0.3272000   0.4137014   1.0792660  )
       126           C   tau( 126) = (   0.8272000   0.1983916   0.9803619  )
       127           C   tau( 127) = (   0.6728000   1.0257944   2.0101758  )
       128           C   tau( 128) = (   0.8272000   0.4137014   2.0101758  )
       129           C   tau( 129) = (   0.6728000   0.8104847   0.9803619  )
       130           C   tau( 130) = (   0.1728000   1.0257944   1.0792660  )
       131           C   tau( 131) = (   0.3272000   0.1983916   0.0494521  )
       132           C   tau( 132) = (   0.1531005   1.1889051   1.6001665  )
       133           C   tau( 133) = (   0.6531005   0.6473740   0.4594614  )
       134           C   tau( 134) = (   0.8469005   0.5768121   1.4892753  )
       135           C   tau( 135) = (   0.6531005   1.1889051   1.4892753  )
       136           C   tau( 136) = (   0.8468995   0.0352809   0.4594614  )
       137           C   tau( 137) = (   0.3469005   0.5768121   1.6001665  )
       138           C   tau( 138) = (   0.1531005   0.6473740   0.5703526  )
       139           C   tau( 139) = (   0.2107005   1.0955609   1.5356177  )
       140           C   tau( 140) = (   0.7107005   0.7407181   0.5240102  )
       141           C   tau( 141) = (   0.7893005   0.4834679   1.5538242  )
       142           C   tau( 142) = (   0.7107005   1.0955609   1.5538242  )
       143           C   tau( 143) = (   0.7893005   0.1286251   0.5240102  )
       144           C   tau( 144) = (   0.2893005   0.4834679   1.5356177  )
       145           C   tau( 145) = (   0.2107005   0.7407181   0.5058037  )
       146           C   tau( 146) = (   0.1642000   0.0888512   1.5639377  )
       147           C   tau( 147) = (   0.6642000   0.5232419   0.4956902  )
       148           C   tau( 148) = (   0.8358000   0.7009442   1.5255042  )
       149           C   tau( 149) = (   0.6642000   0.0888512   1.5255042  )
       150           C   tau( 150) = (   0.8358000   1.1353349   0.4956902  )
       151           C   tau( 151) = (   0.3358000   0.7009442   1.5639377  )
       152           C   tau( 152) = (   0.1642000   0.5232419   0.5341237  )
       153           H   tau( 153) = (   0.5440000   0.6561637   0.7534121  )
       154           H   tau( 154) = (   0.0440000   1.1801153   1.3062158  )
       155           H   tau( 155) = (   0.4560000   0.0440707   0.2764019  )
       156           H   tau( 156) = (   0.0440000   0.6561637   0.2764019  )
       157           H   tau( 157) = (   0.4560000   0.5680223   1.3062158  )
       158           H   tau( 158) = (   0.9560000   0.0440707   0.7534121  )
       159           H   tau( 159) = (   0.5440000   1.1801153   1.7832260  )
       160           C   tau( 160) = (   0.4805005   0.3372995   0.9406530  )
       161           C   tau( 161) = (   0.9805005   0.2747935   1.1189749  )
       162           C   tau( 162) = (   0.5195005   0.9493926   0.0891609  )
       163           C   tau( 163) = (   0.9805005   0.3372995   0.0891609  )
       164           C   tau( 164) = (   0.5195005   0.8868865   1.1189749  )
       165           C   tau( 165) = (   0.0195005   0.9493926   0.9406530  )
       166           C   tau( 166) = (   0.4805005   0.2747935   1.9704670  )
       167           C   tau( 167) = (   0.4719005   0.4444158   0.8703163  )
       168           C   tau( 168) = (   0.9718995   0.1676772   1.1893116  )
       169           C   tau( 169) = (   0.5281005   1.0565088   0.1594977  )
       170           C   tau( 170) = (   0.9718995   0.4444158   0.1594977  )
       171           C   tau( 171) = (   0.5281005   0.7797702   1.1893116  )
       172           C   tau( 172) = (   0.0281005   1.0565088   0.8703163  )
       173           C   tau( 173) = (   0.4719005   0.1676772   1.9001302  )
       174           C   tau( 174) = (   0.4608000   0.6701191   0.7312912  )
       175           C   tau( 175) = (   0.9608000   1.1661600   1.3283367  )
       176           C   tau( 176) = (   0.5392000   0.0580260   0.2985228  )
       177           C   tau( 177) = (   0.9608000   0.6701191   0.2985228  )
       178           C   tau( 178) = (   0.5392000   0.5540670   1.3283367  )
       179           C   tau( 179) = (   0.0392000   0.0580260   0.7312912  )
       180           C   tau( 180) = (   0.4608000   1.1661600   1.7611051  )
       181           C   tau( 181) = (   0.2966000   0.7454437   0.8741265  )
       182           C   tau( 182) = (   0.7966000   1.0908353   1.1855014  )
       183           C   tau( 183) = (   0.7034000   0.1333507   0.1556874  )
       184           C   tau( 184) = (   0.7966000   0.7454437   0.1556874  )
       185           C   tau( 185) = (   0.7034000   0.4787423   1.1855014  )
       186           C   tau( 186) = (   0.2034000   0.1333507   0.8741265  )
       187           C   tau( 187) = (   0.2966000   1.0908353   1.9039405  )
       188           C   tau( 188) = (   0.1015005   0.1917935   1.6360856  )
       189           C   tau( 189) = (   0.6015005   0.4202995   0.4235423  )
       190           C   tau( 190) = (   0.8985005   0.8038865   1.4533563  )
       191           C   tau( 191) = (   0.6015005   0.1917935   1.4533563  )
       192           C   tau( 192) = (   0.8985005   1.0323926   0.4235423  )
       193           C   tau( 193) = (   0.3985005   0.8038865   1.6360856  )
       194           C   tau( 194) = (   0.1015005   0.4202995   0.6062716  )
       195           H   tau( 195) = (   0.1400000   0.1996651   1.7162884  )
       196           H   tau( 196) = (   0.6400000   0.4124279   0.3433395  )
       197           H   tau( 197) = (   0.8600000   0.8117581   1.3731535  )
       198           H   tau( 198) = (   0.6400000   0.1996651   1.3731535  )
       199           H   tau( 199) = (   0.8600000   1.0245209   0.3433395  )
       200           H   tau( 200) = (   0.3600000   0.8117581   1.7162884  )
       201           H   tau( 201) = (   0.1400000   0.4124279   0.6864744  )
       202           H   tau( 202) = (   0.0149005   0.1724874   1.6464670  )
       203           H   tau( 203) = (   0.5149005   0.4396056   0.4131609  )
       204           H   tau( 204) = (   0.9851005   0.7845805   1.4429749  )
       205           H   tau( 205) = (   0.5149005   0.1724874   1.4429749  )
       206           H   tau( 206) = (   0.9850995   1.0516986   0.4131609  )
       207           H   tau( 207) = (   0.4851005   0.7845805   1.6464670  )
       208           H   tau( 208) = (   0.0149005   0.4396056   0.6166530  )
       209           H   tau( 209) = (   0.1097005   0.2687088   1.5914744  )
       210           H   tau( 210) = (   0.6097005   0.3433842   0.4681535  )
       211           H   tau( 211) = (   0.8903005   0.8808019   1.4979674  )
       212           H   tau( 212) = (   0.6097005   0.2687088   1.4979674  )
       213           H   tau( 213) = (   0.8902995   0.9554772   0.4681535  )
       214           H   tau( 214) = (   0.3903005   0.8808019   1.5914744  )
       215           H   tau( 215) = (   0.1097005   0.3433842   0.5616605  )
       216           H   tau( 216) = (   0.2380000   0.2003991   1.4308233  )
       217           H   tau( 217) = (   0.7380000   0.4116940   0.6288047  )
       218           H   tau( 218) = (   0.7620000   0.8124921   1.6586186  )
       219           H   tau( 219) = (   0.7380000   0.2003991   1.6586186  )
       220           H   tau( 220) = (   0.7620000   1.0237870   0.6288047  )
       221           H   tau( 221) = (   0.2620000   0.8124921   1.4308233  )
       222           H   tau( 222) = (   0.2380000   0.4116940   0.4010093  )
       223           H   tau( 223) = (   0.5400000   0.2727488   0.9159163  )
       224           H   tau( 224) = (   0.0400000   0.3393442   1.1437116  )
       225           H   tau( 225) = (   0.4600000   0.8848419   0.1138977  )
       226           H   tau( 226) = (   0.0400000   0.2727488   0.1138977  )
       227           H   tau( 227) = (   0.4600000   0.9514372   1.1437116  )
       228           H   tau( 228) = (   0.9600000   0.8848419   0.9159163  )
       229           H   tau( 229) = (   0.5400000   0.3393442   1.9457302  )
       230           H   tau( 230) = (   0.4750000   0.1429851   1.0831581  )
       231           H   tau( 231) = (   0.9750000   0.4691079   0.9764698  )
       232           H   tau( 232) = (   0.5250000   0.7550781   2.0062837  )
       233           H   tau( 233) = (   0.9750000   0.1429851   2.0062837  )
       234           H   tau( 234) = (   0.5250000   1.0812009   0.9764698  )
       235           H   tau( 235) = (   0.0250000   0.7550781   1.0831581  )
       236           H   tau( 236) = (   0.4750000   0.4691079   0.0533442  )
       237           H   tau( 237) = (   0.2590000   0.5846716   1.0384642  )
       238           H   tau( 238) = (   0.7590000   0.0274214   1.0211637  )
       239           H   tau( 239) = (   0.7410000   1.1967647   2.0509777  )
       240           H   tau( 240) = (   0.7590000   0.5846716   2.0509777  )
       241           H   tau( 241) = (   0.7410000   0.6395144   1.0211637  )
       242           H   tau( 242) = (   0.2410000   1.1967647   1.0384642  )
       243           H   tau( 243) = (   0.2590000   0.0274214   0.0086502  )
       244           H   tau( 244) = (   0.2040000   1.0055460   1.5566670  )
       245           H   tau( 245) = (   0.7040000   0.8307330   0.5029609  )
       246           H   tau( 246) = (   0.7960000   0.3934530   1.5327749  )
       247           H   tau( 247) = (   0.7040000   1.0055460   1.5327749  )
       248           H   tau( 248) = (   0.7960000   0.2186400   0.5029609  )
       249           H   tau( 249) = (   0.2960000   0.3934530   1.5566670  )
       250           H   tau( 250) = (   0.2040000   0.8307330   0.5268530  )
       251           H   tau( 251) = (   0.1020000   1.1694651   1.6713879  )
       252           H   tau( 252) = (   0.6020000   0.6668140   0.3882400  )
       253           H   tau( 253) = (   0.8980000   0.5573721   1.4180540  )
       254           H   tau( 254) = (   0.6020000   1.1694651   1.4180540  )
       255           H   tau( 255) = (   0.8980000   0.0547209   0.3882400  )
       256           H   tau( 256) = (   0.3980000   0.5573721   1.6713879  )
       257           H   tau( 257) = (   0.1020000   0.6668140   0.6415740  )
       258           H   tau( 258) = (   0.2700000   0.4026344   1.1521563  )
       259           H   tau( 259) = (   0.7700000   0.2094586   0.9074716  )
       260           H   tau( 260) = (   0.7300000   1.0147274   1.9372856  )
       261           H   tau( 261) = (   0.7700000   0.4026344   1.9372856  )
       262           H   tau( 262) = (   0.7300000   0.8215516   0.9074716  )
       263           H   tau( 263) = (   0.2300000   1.0147274   1.1521563  )
       264           H   tau( 264) = (   0.2700000   0.2094586   0.1223423  )
       265           H   tau( 265) = (   0.2940000   0.2268419   1.2504000  )
       266           H   tau( 266) = (   0.7940000   0.3852512   0.8092279  )
       267           H   tau( 267) = (   0.7060000   0.8389349   1.8390419  )
       268           H   tau( 268) = (   0.7940000   0.2268419   1.8390419  )
       269           H   tau( 269) = (   0.7060000   0.9973442   0.8092279  )
       270           H   tau( 270) = (   0.2060000   0.8389349   1.2504000  )
       271           H   tau( 271) = (   0.2940000   0.3852512   0.2205860  )
       272           H   tau( 272) = (   0.5260000   0.4529488   0.7987237  )
       273           H   tau( 273) = (   0.0260000   0.1591442   1.2609042  )
       274           H   tau( 274) = (   0.4740000   1.0650419   0.2310902  )
       275           H   tau( 275) = (   0.0260000   0.4529488   0.2310902  )
       276           H   tau( 276) = (   0.4740000   0.7712372   1.2609042  )
       277           H   tau( 277) = (   0.9740000   1.0650419   0.7987237  )
       278           H   tau( 278) = (   0.5260000   0.1591442   1.8285377  )
       279           H   tau( 279) = (   0.2980000   0.8116353   0.8110819  )
       280           H   tau( 280) = (   0.7980000   1.0246437   1.2485460  )
       281           H   tau( 281) = (   0.7020000   0.1995423   0.2187321  )
       282           H   tau( 282) = (   0.7980000   0.8116353   0.2187321  )
       283           H   tau( 283) = (   0.7020000   0.4125507   1.2485460  )
       284           H   tau( 284) = (   0.2020000   0.1995423   0.8110819  )
       285           H   tau( 285) = (   0.2980000   1.0246437   1.8408958  )
       286           H   tau( 286) = (   0.3170000   0.7793172   0.9577265  )
       287           H   tau( 287) = (   0.8170000   1.0569619   1.1019014  )
       288           H   tau( 288) = (   0.6830000   0.1672242   0.0720874  )
       289           H   tau( 289) = (   0.8170000   0.7793172   0.0720874  )
       290           H   tau( 290) = (   0.6830000   0.4448688   1.1019014  )
       291           H   tau( 291) = (   0.1830000   0.1672242   0.9577265  )
       292           H   tau( 292) = (   0.3170000   1.0569619   1.9875405  )
       293           H   tau( 293) = (   0.4460000   0.7479777   0.6971842  )
       294           H   tau( 294) = (   0.9460000   1.0883014   1.3624437  )
       295           H   tau( 295) = (   0.5540000   0.1358847   0.3326298  )
       296           H   tau( 296) = (   0.9460000   0.7479777   0.3326298  )
       297           H   tau( 297) = (   0.5540000   0.4762084   1.3624437  )
       298           H   tau( 298) = (   0.0540000   0.1358847   0.6971842  )
       299           H   tau( 299) = (   0.4460000   1.0883014   1.7269981  )
       300           H   tau( 300) = (   0.2100000   0.7161488   0.8844047  )
       301           H   tau( 301) = (   0.7100000   1.1201302   1.1752233  )
       302           H   tau( 302) = (   0.7900000   0.1040558   0.1454093  )
       303           H   tau( 303) = (   0.7100000   0.7161488   0.1454093  )
       304           H   tau( 304) = (   0.7900000   0.5080372   1.1752233  )
       305           H   tau( 305) = (   0.2900000   0.1040558   0.8844047  )
       306           H   tau( 306) = (   0.2100000   1.1201302   1.9142186  )
       307           H   tau( 307) = (   0.3970000   1.0736112   1.3099237  )
       308           H   tau( 308) = (   0.8970000   0.7626679   0.7497042  )
       309           H   tau( 309) = (   0.6030000   0.4615181   1.7795181  )
       310           H   tau( 310) = (   0.8970000   1.0736112   1.7795181  )
       311           H   tau( 311) = (   0.6030000   0.1505749   0.7497042  )
       312           H   tau( 312) = (   0.1030000   0.4615181   1.3099237  )
       313           H   tau( 313) = (   0.3970000   0.7626679   0.2801098  )
       314           H   tau( 314) = (   0.4470000   0.6022995   0.6648474  )
       315           H   tau( 315) = (   0.9470000   0.0097935   1.3947805  )
       316           H   tau( 316) = (   0.5530000   1.2143926   0.3649665  )
       317           H   tau( 317) = (   0.9470000   0.6022995   0.3649665  )
       318           H   tau( 318) = (   0.5530000   0.6218865   1.3947805  )
       319           H   tau( 319) = (   0.0530000   1.2143926   0.6648474  )
       320           H   tau( 320) = (   0.4470000   0.0097935   1.6946614  )

     number of k points=     4
                       cart. coord. in units 2pi/alat
        k(    1) = (   0.0000000   0.0000000   0.0000000), wk =   0.5000000
        k(    2) = (   0.0000000  -0.4084347   0.0000000), wk =   0.5000000
        k(    3) = (  -0.5000000   0.0000000   0.0000000), wk =   0.5000000
        k(    4) = (  -0.5000000  -0.4084347   0.0000000), wk =   0.5000000

     Dense  grid:   469205 G-vectors     FFT dimensions: (  72,  90, 150)

     Estimated max dynamical RAM per process >    6879.23MB

     Initial potential from superposition of free atoms

     starting charge  849.36928, renormalised to  864.00000
     Starting wfc are  824 randomized atomic wfcs

     total cpu time spent up to now is      384.8 secs

     Self-consistent Calculation

     iteration #  1     ecut=    30.00 Ry     beta=0.70
     Davidson diagonalization with overlap
     ethr =  1.00E-02,  avg # of iterations =  2.0

     total cpu time spent up to now is     1105.2 secs

     total energy              =   -2465.72210013 Ry
     Harris-Foulkes estimate   =   -2517.72312139 Ry
     estimated scf accuracy    <      78.02163934 Ry

     iteration #  2     ecut=    30.00 Ry     beta=0.70
     Davidson diagonalization with overlap
     ethr =  9.03E-03,  avg # of iterations =  3.0

     total cpu time spent up to now is     1823.5 secs

     total energy              =   -2475.92573287 Ry
     Harris-Foulkes estimate   =   -2494.97176270 Ry
     estimated scf accuracy    <      32.86985694 Ry

     iteration #  3     ecut=    30.00 Ry     beta=0.70
     Davidson diagonalization with overlap
     ethr =  3.80E-03,  avg # of iterations =  4.0

     total cpu time spent up to now is     2551.0 secs

     total energy              =   -2484.02307451 Ry
     Harris-Foulkes estimate   =   -2487.84947599 Ry
     estimated scf accuracy    <       7.52310801 Ry

     iteration #  4     ecut=    30.00 Ry     beta=0.70
     Davidson diagonalization with overlap
     ethr =  8.71E-04,  avg # of iterations =  4.0

     total cpu time spent up to now is     3214.6 secs

     total energy              =   -2485.70080005 Ry
     Harris-Foulkes estimate   =   -2486.19909611 Ry
     estimated scf accuracy    <       1.00723074 Ry

     iteration #  5     ecut=    30.00 Ry     beta=0.70
     Davidson diagonalization with overlap
     ethr =  1.17E-04,  avg # of iterations =  4.0

     total cpu time spent up to now is     3917.2 secs

     total energy              =   -2485.90428553 Ry
     Harris-Foulkes estimate   =   -2485.99341154 Ry
     estimated scf accuracy    <       0.19012657 Ry

     iteration #  6     ecut=    30.00 Ry     beta=0.70
     Davidson diagonalization with overlap
     ethr =  2.20E-05,  avg # of iterations =  5.0

     negative rho (up, down):  2.264E-06 0.000E+00

     total cpu time spent up to now is     4591.9 secs

     total energy              =   -2485.94697648 Ry
     Harris-Foulkes estimate   =   -2485.95811072 Ry
     estimated scf accuracy    <       0.02564654 Ry

     iteration #  7     ecut=    30.00 Ry     beta=0.70
     Davidson diagonalization with overlap
     ethr =  2.97E-06,  avg # of iterations =  5.0

     negative rho (up, down):  5.651E-06 0.000E+00

     total cpu time spent up to now is     5276.1 secs

     total energy              =   -2485.95226769 Ry
     Harris-Foulkes estimate   =   -2485.95424477 Ry
     estimated scf accuracy    <       0.00450029 Ry

     iteration #  8     ecut=    30.00 Ry     beta=0.70
     Davidson diagonalization with overlap
     ethr =  5.21E-07,  avg # of iterations =  4.0

     negative rho (up, down):  6.980E-06 0.000E+00

     total cpu time spent up to now is     5929.0 secs

     total energy              =   -2485.95319235 Ry
     Harris-Foulkes estimate   =   -2485.95349032 Ry
     estimated scf accuracy    <       0.00064786 Ry

     iteration #  9     ecut=    30.00 Ry     beta=0.70
     Davidson diagonalization with overlap
     ethr =  7.50E-08,  avg # of iterations =  4.0

     negative rho (up, down):  7.393E-06 0.000E+00

     total cpu time spent up to now is     6639.3 secs

     total energy              =   -2485.95334856 Ry
     Harris-Foulkes estimate   =   -2485.95340387 Ry
     estimated scf accuracy    <       0.00012580 Ry

     iteration # 10     ecut=    30.00 Ry     beta=0.70
     Davidson diagonalization with overlap
     ethr =  1.46E-08,  avg # of iterations =  4.0

     negative rho (up, down):  7.489E-06 0.000E+00

     total cpu time spent up to now is     7301.6 secs

     total energy              =   -2485.95337481 Ry
     Harris-Foulkes estimate   =   -2485.95338049 Ry
     estimated scf accuracy    <       0.00001219 Ry

     iteration # 11     ecut=    30.00 Ry     beta=0.70
     Davidson diagonalization with overlap
     ethr =  1.41E-09,  avg # of iterations =  4.0

     negative rho (up, down):  7.521E-06 0.000E+00

     total cpu time spent up to now is     7985.0 secs

     total energy              =   -2485.95337785 Ry
     Harris-Foulkes estimate   =   -2485.95337834 Ry
     estimated scf accuracy    <       0.00000119 Ry

     iteration # 12     ecut=    30.00 Ry     beta=0.70
     Davidson diagonalization with overlap
     ethr =  1.38E-10,  avg # of iterations =  4.0

     negative rho (up, down):  7.527E-06 0.000E+00

     total cpu time spent up to now is     8693.6 secs

     total energy              =   -2485.95337813 Ry
     Harris-Foulkes estimate   =   -2485.95337823 Ry
     estimated scf accuracy    <       0.00000024 Ry

     iteration # 13     ecut=    30.00 Ry     beta=0.70
     Davidson diagonalization with overlap
     ethr =  2.78E-11,  avg # of iterations =  4.0

     negative rho (up, down):  7.527E-06 0.000E+00

     total cpu time spent up to now is     9376.3 secs

     End of self-consistent calculation

          k = 0.0000 0.0000 0.0000 ( 58633 PWs)   bands (ev):

   -20.7932 -20.7929 -20.7926 -20.7922 -20.7915 -20.7912 -20.7909 -20.7906
   -19.8868 -19.8867 -19.8859 -19.8857 -19.8854 -19.8853 -19.8845 -19.8843
   -18.2541 -18.2539 -18.2521 -18.2520 -18.2417 -18.2415 -18.2400 -18.2399
   -15.7904 -15.7858 -15.7855 -15.7848 -15.7715 -15.7703 -15.7693 -15.7679
   -15.6443 -15.6412 -15.6225 -15.6205 -15.6169 -15.6162 -15.6133 -15.6130
   -14.2525 -14.2474 -14.2471 -14.2470 -14.2452 -14.2368 -14.2293 -14.2214
   -13.6626 -13.6623 -13.6608 -13.6604 -13.6318 -13.6207 -13.6149 -13.6099
   -13.4633 -13.4359 -13.4335 -13.4197 -13.4186 -13.3884 -13.3849 -13.3815
   -13.2779 -13.2776 -13.2707 -13.2693 -13.2385 -13.2359 -13.2236 -13.2216
   -12.8032 -12.7799 -12.7771 -12.7766 -12.7663 -12.7623 -12.7553 -12.7433
   -12.6988 -12.6976 -12.6850 -12.6836 -12.6680 -12.6671 -12.6310 -12.6298
   -11.5954 -11.5892 -11.5869 -11.5773 -11.5751 -11.5628 -11.5565 -11.5523
   -11.3840 -11.3695 -11.3567 -11.3407 -11.3371 -11.3302 -11.3277 -11.3155
   -10.5091 -10.5052 -10.4927 -10.4705 -10.4702 -10.4690 -10.4533 -10.4394
    -9.9741  -9.9700  -9.9696  -9.9550  -9.8828  -9.8804  -9.8717  -9.8583
    -9.6894  -9.6893  -9.6220  -9.6188  -9.6141  -9.6137  -9.6002  -9.5991
    -9.0397  -9.0370  -9.0032  -8.9969  -8.9832  -8.9601  -8.9158  -8.9090
    -8.7016  -8.6919  -8.6158  -8.6137  -8.5650  -8.5636  -8.5523  -8.5440
    -8.0839  -8.0815  -8.0574  -8.0511  -8.0477  -8.0338  -8.0301  -8.0072
    -7.8305  -7.8221  -7.8124  -7.8121  -7.7995  -7.7975  -7.7584  -7.7542
    -7.2857  -7.2737  -7.2731  -7.2626  -7.2357  -7.2239  -7.2206  -7.2187
    -6.8981  -6.8918  -6.8845  -6.8828  -6.8774  -6.8762  -6.8732  -6.8621
    -6.5084  -6.5067  -6.4787  -6.4518  -6.4350  -6.4256  -6.4225  -6.4199
    -6.4147  -6.4120  -6.4053  -6.3811  -6.3514  -6.3330  -6.3327  -6.3250
    -6.0191  -5.9828  -5.9729  -5.9608  -5.9501  -5.9448  -5.9223  -5.9056
    -5.8801  -5.8780  -5.8699  -5.8648  -5.8620  -5.8508  -5.7757  -5.7675
    -5.7573  -5.7298  -5.6863  -5.6651  -5.6570  -5.6413  -5.6198  -5.6123
    -5.4207  -5.4205  -5.4165  -5.3847  -5.3739  -5.3685  -5.3459  -5.3352
    -5.3043  -5.2930  -5.2557  -5.2159  -5.0985  -5.0972  -5.0899  -5.0882
    -5.0806  -5.0662  -5.0660  -5.0561  -5.0444  -5.0422  -5.0382  -5.0046
    -4.9980  -4.9948  -4.9838  -4.9341  -4.9191  -4.9151  -4.9112  -4.9036
    -4.8972  -4.8903  -4.8859  -4.8547  -4.8481  -4.8348  -4.8040  -4.7940
    -4.7842  -4.7200  -4.6740  -4.6238  -4.6094  -4.5964  -4.5881  -4.5877
    -4.5471  -4.5452  -4.5275  -4.5216  -4.5117  -4.5012  -4.4967  -4.4900
    -4.4846  -4.4734  -4.4688  -4.4544  -4.4533  -4.4526  -4.4312  -4.4246
    -4.3728  -4.3721  -4.3604  -4.3583  -4.3475  -4.3343  -4.3324  -4.3257
    -4.2985  -4.2741  -4.2629  -4.2574  -4.2527  -4.2335  -4.2279  -4.2247
    -4.0349  -4.0311  -4.0271  -4.0237  -4.0206  -4.0198  -4.0190  -4.0162
    -3.8230  -3.8060  -3.7805  -3.7502  -3.7462  -3.7217  -3.7142  -3.7059
    -3.6981  -3.6892  -3.6890  -3.6709  -3.6518  -3.6357  -3.6312  -3.6257
    -3.5542  -3.5000  -3.4991  -3.4914  -3.4898  -3.4781  -3.4754  -3.4556
    -3.4273  -3.4194  -3.4126  -3.3866  -3.3559  -3.3488  -3.3223  -3.3017
    -3.1281  -3.1154  -3.1151  -3.1124  -3.1013  -3.0656  -3.0440  -3.0310
    -3.0272  -3.0227  -3.0035  -2.9980  -2.9866  -2.9829  -2.9674  -2.9576
    -2.6819  -2.6692  -2.6547  -2.6342  -2.4730  -2.4517  -2.4391  -2.4107
    -2.3967  -2.3607  -2.3187  -2.3123  -2.3044  -2.2958  -2.2743  -2.2688
    -2.2682  -2.2544  -2.2462  -2.2462  -2.2424  -2.2279  -2.2159  -2.1911
    -2.1367  -2.1151  -2.1089  -2.0779  -1.9813  -1.9812  -1.9197  -1.9141
    -0.9072  -0.8964  -0.8860  -0.8827  -0.8480  -0.8209  -0.8122  -0.7883
    -0.6873  -0.6854  -0.6724  -0.6709  -0.6119  -0.6060  -0.5954  -0.5873
    -0.5744  -0.5733  -0.5677  -0.5526  -0.5230  -0.5135  -0.4788  -0.4767
    -0.2753  -0.2548  -0.2439  -0.2401  -0.2250  -0.2188  -0.2111  -0.1890
     0.2251   0.2453   0.2465   0.2569   0.2634   0.2826   0.2848   0.2954
     1.0473   1.0752   1.0787   1.0804   1.1083   1.1088   1.1544   1.1817

          k = 0.0000-0.4084 0.0000 ( 58700 PWs)   bands (ev):

   -20.7924 -20.7924 -20.7921 -20.7921 -20.7917 -20.7917 -20.7914 -20.7914
   -19.8862 -19.8861 -19.8860 -19.8860 -19.8852 -19.8852 -19.8850 -19.8850
   -18.2531 -18.2531 -18.2529 -18.2529 -18.2408 -18.2408 -18.2407 -18.2407
   -15.7883 -15.7882 -15.7847 -15.7847 -15.7710 -15.7709 -15.7685 -15.7684
   -15.6353 -15.6352 -15.6332 -15.6331 -15.6144 -15.6143 -15.6117 -15.6116
   -14.2542 -14.2542 -14.2477 -14.2476 -14.2379 -14.2378 -14.2239 -14.2239
   -13.6667 -13.6667 -13.6570 -13.6570 -13.6224 -13.6223 -13.6157 -13.6156
   -13.4423 -13.4423 -13.4110 -13.4110 -13.4104 -13.4103 -13.3994 -13.3994
   -13.2757 -13.2756 -13.2739 -13.2739 -13.2294 -13.2293 -13.2285 -13.2285
   -12.7860 -12.7859 -12.7805 -12.7805 -12.7577 -12.7577 -12.7567 -12.7566
   -12.6962 -12.6961 -12.6945 -12.6945 -12.6472 -12.6472 -12.6459 -12.6459
   -11.5883 -11.5882 -11.5723 -11.5723 -11.5688 -11.5688 -11.5659 -11.5659
   -11.3598 -11.3598 -11.3561 -11.3561 -11.3446 -11.3446 -11.3216 -11.3215
   -10.4921 -10.4921 -10.4831 -10.4831 -10.4728 -10.4728 -10.4532 -10.4531
    -9.9276  -9.9276  -9.9257  -9.9257  -9.9157  -9.9157  -9.9041  -9.9041
    -9.6606  -9.6606  -9.6586  -9.6586  -9.6089  -9.6088  -9.6079  -9.6078
    -9.0269  -9.0269  -8.9942  -8.9942  -8.9602  -8.9602  -8.9579  -8.9579
    -8.6709  -8.6709  -8.6578  -8.6578  -8.5462  -8.5461  -8.5459  -8.5459
    -8.0843  -8.0843  -8.0623  -8.0623  -8.0398  -8.0398  -8.0107  -8.0107
    -7.8183  -7.8183  -7.8173  -7.8173  -7.7773  -7.7773  -7.7720  -7.7720
    -7.2599  -7.2599  -7.2576  -7.2575  -7.2470  -7.2470  -7.2332  -7.2332
    -6.8893  -6.8893  -6.8840  -6.8840  -6.8835  -6.8835  -6.8668  -6.8668
    -6.4517  -6.4517  -6.4502  -6.4502  -6.4280  -6.4280  -6.4214  -6.4213
    -6.3940  -6.3940  -6.3799  -6.3799  -6.3687  -6.3687  -6.3637  -6.3637
    -5.9779  -5.9779  -5.9482  -5.9482  -5.9211  -5.9211  -5.8998  -5.8998
    -5.8615  -5.8615  -5.8606  -5.8606  -5.8502  -5.8502  -5.8446  -5.8446
    -5.7351  -5.7351  -5.7306  -5.7306  -5.6372  -5.6372  -5.6253  -5.6252
    -5.4319  -5.4319  -5.3997  -5.3997  -5.3748  -5.3748  -5.3512  -5.3512
    -5.3109  -5.3109  -5.2520  -5.2520  -5.1095  -5.1095  -5.0782  -5.0782
    -5.0755  -5.0755  -5.0665  -5.0665  -5.0568  -5.0568  -5.0354  -5.0354
    -5.0065  -5.0065  -4.9551  -4.9551  -4.9326  -4.9326  -4.9137  -4.9137
    -4.8747  -4.8747  -4.8746  -4.8746  -4.8336  -4.8336  -4.8157  -4.8157
    -4.7514  -4.7514  -4.6412  -4.6412  -4.6015  -4.6015  -4.5939  -4.5939
    -4.5531  -4.5531  -4.5263  -4.5263  -4.4887  -4.4887  -4.4842  -4.4842
    -4.4802  -4.4802  -4.4559  -4.4559  -4.4320  -4.4320  -4.4317  -4.4317
    -4.3608  -4.3608  -4.3479  -4.3479  -4.3334  -4.3334  -4.3159  -4.3159
    -4.2870  -4.2870  -4.2597  -4.2597  -4.2418  -4.2418  -4.2207  -4.2207
    -4.0497  -4.0497  -4.0334  -4.0334  -4.0149  -4.0148  -4.0108  -4.0107
    -3.7809  -3.7809  -3.7753  -3.7752  -3.7446  -3.7446  -3.7182  -3.7182
    -3.6904  -3.6904  -3.6834  -3.6834  -3.6557  -3.6557  -3.6414  -3.6414
    -3.5264  -3.5264  -3.4952  -3.4952  -3.4700  -3.4700  -3.4635  -3.4635
    -3.4071  -3.4071  -3.3999  -3.3999  -3.3806  -3.3806  -3.3743  -3.3743
    -3.1372  -3.1372  -3.0953  -3.0953  -3.0657  -3.0656  -3.0334  -3.0334
    -3.0236  -3.0235  -3.0059  -3.0059  -2.9949  -2.9949  -2.9769  -2.9769
    -2.4977  -2.4977  -2.4733  -2.4733  -2.4696  -2.4696  -2.4355  -2.4354
    -2.4135  -2.4135  -2.3998  -2.3998  -2.3570  -2.3570  -2.3112  -2.3112
    -2.2829  -2.2829  -2.2636  -2.2635  -2.2302  -2.2302  -2.2045  -2.2044
    -2.1240  -2.1239  -2.1013  -2.1013  -1.9496  -1.9496  -1.9454  -1.9454
    -0.9015  -0.9014  -0.8851  -0.8850  -0.8373  -0.8373  -0.8041  -0.8041
    -0.7066  -0.7066  -0.6928  -0.6928  -0.5835  -0.5835  -0.5736  -0.5736
    -0.5604  -0.5603  -0.5582  -0.5582  -0.4990  -0.4990  -0.4981  -0.4980
    -0.2589  -0.2589  -0.2393  -0.2393  -0.2267  -0.2266  -0.2049  -0.2049
     0.2355   0.2355   0.2511   0.2511   0.2784   0.2784   0.2825   0.2825
     1.0614   1.0614   1.0706   1.0706   1.1327   1.1327   1.1403   1.1404

          k =-0.5000 0.0000 0.0000 ( 58748 PWs)   bands (ev):

   -20.7928 -20.7928 -20.7927 -20.7927 -20.7911 -20.7910 -20.7910 -20.7910
   -19.8865 -19.8865 -19.8864 -19.8864 -19.8848 -19.8847 -19.8847 -19.8847
   -18.2531 -18.2531 -18.2531 -18.2530 -18.2407 -18.2407 -18.2407 -18.2406
   -15.7807 -15.7807 -15.7785 -15.7785 -15.7781 -15.7781 -15.7758 -15.7758
   -15.6327 -15.6327 -15.6291 -15.6291 -15.6175 -15.6174 -15.6148 -15.6147
   -14.2482 -14.2481 -14.2409 -14.2409 -14.2400 -14.2399 -14.2342 -14.2341
   -13.6485 -13.6485 -13.6460 -13.6460 -13.6364 -13.6364 -13.6348 -13.6347
   -13.4501 -13.4501 -13.4254 -13.4253 -13.3977 -13.3976 -13.3849 -13.3849
   -13.2740 -13.2740 -13.2733 -13.2733 -13.2305 -13.2304 -13.2303 -13.2303
   -12.7960 -12.7959 -12.7729 -12.7729 -12.7657 -12.7657 -12.7486 -12.7486
   -12.6912 -12.6912 -12.6908 -12.6908 -12.6493 -12.6492 -12.6490 -12.6490
   -11.5923 -11.5922 -11.5837 -11.5837 -11.5680 -11.5680 -11.5543 -11.5543
   -11.3776 -11.3775 -11.3479 -11.3479 -11.3323 -11.3323 -11.3223 -11.3223
   -10.4993 -10.4993 -10.4892 -10.4892 -10.4624 -10.4624 -10.4533 -10.4533
    -9.9721  -9.9721  -9.9628  -9.9628  -9.8766  -9.8766  -9.8717  -9.8717
    -9.6571  -9.6571  -9.6567  -9.6566  -9.6069  -9.6069  -9.6054  -9.6054
    -9.0358  -9.0358  -9.0147  -9.0146  -8.9365  -8.9365  -8.9324  -8.9324
    -8.6607  -8.6607  -8.6528  -8.6528  -8.5548  -8.5548  -8.5524  -8.5524
    -8.0698  -8.0697  -8.0695  -8.0695  -8.0309  -8.0308  -8.0281  -8.0281
    -7.8151  -7.8151  -7.8139  -7.8138  -7.7845  -7.7845  -7.7814  -7.7814
    -7.2738  -7.2738  -7.2732  -7.2732  -7.2295  -7.2295  -7.2189  -7.2189
    -6.8953  -6.8952  -6.8787  -6.8787  -6.8748  -6.8748  -6.8731  -6.8731
    -6.4947  -6.4946  -6.4808  -6.4808  -6.4338  -6.4338  -6.4253  -6.4252
    -6.4129  -6.4129  -6.3896  -6.3896  -6.3404  -6.3404  -6.3278  -6.3278
    -5.9940  -5.9939  -5.9702  -5.9702  -5.9364  -5.9364  -5.9340  -5.9340
    -5.8695  -5.8695  -5.8511  -5.8511  -5.8494  -5.8493  -5.8268  -5.8268
    -5.7083  -5.7083  -5.6969  -5.6968  -5.6501  -5.6501  -5.6192  -5.6191
    -5.4255  -5.4255  -5.4122  -5.4121  -5.3397  -5.3397  -5.3337  -5.3337
    -5.2334  -5.2334  -5.2205  -5.2204  -5.1650  -5.1650  -5.1581  -5.1581
    -5.0730  -5.0730  -5.0725  -5.0724  -5.0551  -5.0551  -5.0380  -5.0380
    -4.9386  -4.9386  -4.9150  -4.9150  -4.9043  -4.9043  -4.9005  -4.9005
    -4.8761  -4.8760  -4.8671  -4.8671  -4.8551  -4.8551  -4.8466  -4.8466
    -4.7305  -4.7305  -4.6656  -4.6656  -4.6053  -4.6053  -4.5960  -4.5959
    -4.5519  -4.5519  -4.5183  -4.5183  -4.5136  -4.5136  -4.4947  -4.4947
    -4.4850  -4.4850  -4.4596  -4.4596  -4.4366  -4.4366  -4.4303  -4.4303
    -4.3905  -4.3905  -4.3545  -4.3544  -4.3458  -4.3458  -4.2992  -4.2992
    -4.2690  -4.2690  -4.2611  -4.2611  -4.2528  -4.2528  -4.2093  -4.2092
    -4.0457  -4.0457  -4.0430  -4.0429  -4.0240  -4.0239  -4.0223  -4.0222
    -3.7857  -3.7857  -3.7638  -3.7637  -3.7292  -3.7292  -3.7141  -3.7141
    -3.7100  -3.7100  -3.7049  -3.7049  -3.6364  -3.6364  -3.6113  -3.6112
    -3.5390  -3.5390  -3.5034  -3.5034  -3.4870  -3.4869  -3.4542  -3.4541
    -3.4190  -3.4189  -3.3988  -3.3988  -3.3342  -3.3341  -3.3290  -3.3290
    -3.1026  -3.1025  -3.0946  -3.0946  -3.0592  -3.0592  -3.0508  -3.0508
    -3.0308  -3.0308  -3.0210  -3.0210  -2.9832  -2.9832  -2.9813  -2.9813
    -2.6611  -2.6611  -2.6558  -2.6557  -2.3961  -2.3961  -2.3959  -2.3959
    -2.3816  -2.3816  -2.3773  -2.3773  -2.2885  -2.2885  -2.2792  -2.2792
    -2.2600  -2.2600  -2.2460  -2.2460  -2.2342  -2.2342  -2.2317  -2.2316
    -2.1212  -2.1212  -2.1157  -2.1157  -1.9469  -1.9469  -1.9456  -1.9456
    -0.8641  -0.8641  -0.8635  -0.8634  -0.8524  -0.8523  -0.8486  -0.8486
    -0.6507  -0.6506  -0.6439  -0.6438  -0.6284  -0.6284  -0.6276  -0.6275
    -0.5703  -0.5703  -0.5680  -0.5679  -0.5000  -0.5000  -0.4987  -0.4987
    -0.2569  -0.2569  -0.2549  -0.2549  -0.2097  -0.2097  -0.2080  -0.2079
     0.2513   0.2513   0.2584   0.2584   0.2681   0.2682   0.2725   0.2725
     1.0498   1.0498   1.0849   1.0849   1.1288   1.1289   1.1597   1.1598

          k =-0.5000-0.4084 0.0000 ( 58528 PWs)   bands (ev):

   -20.7921 -20.7921 -20.7920 -20.7920 -20.7918 -20.7917 -20.7917 -20.7917
   -19.8861 -19.8861 -19.8860 -19.8860 -19.8851 -19.8851 -19.8851 -19.8850
   -18.2531 -18.2530 -18.2530 -18.2530 -18.2408 -18.2408 -18.2407 -18.2407
   -15.7796 -15.7796 -15.7796 -15.7796 -15.7768 -15.7768 -15.7767 -15.7767
   -15.6297 -15.6297 -15.6296 -15.6296 -15.6177 -15.6176 -15.6176 -15.6175
   -14.2480 -14.2480 -14.2479 -14.2479 -14.2338 -14.2337 -14.2337 -14.2336
   -13.6454 -13.6454 -13.6454 -13.6454 -13.6377 -13.6377 -13.6377 -13.6377
   -13.4240 -13.4240 -13.4239 -13.4239 -13.4050 -13.4050 -13.4050 -13.4050
   -13.2734 -13.2734 -13.2733 -13.2733 -13.2304 -13.2304 -13.2304 -13.2303
   -12.7832 -12.7832 -12.7832 -12.7832 -12.7574 -12.7573 -12.7573 -12.7573
   -12.6917 -12.6917 -12.6917 -12.6916 -12.6504 -12.6504 -12.6503 -12.6503
   -11.5806 -11.5806 -11.5806 -11.5806 -11.5675 -11.5675 -11.5674 -11.5674
   -11.3582 -11.3581 -11.3581 -11.3581 -11.3323 -11.3323 -11.3323 -11.3323
   -10.4811 -10.4811 -10.4811 -10.4811 -10.4692 -10.4692 -10.4692 -10.4692
    -9.9238  -9.9238  -9.9237  -9.9237  -9.9136  -9.9136  -9.9135  -9.9135
    -9.6367  -9.6367  -9.6366  -9.6366  -9.6332  -9.6332  -9.6332  -9.6331
    -9.0077  -9.0077  -9.0076  -9.0076  -8.9594  -8.9593  -8.9593  -8.9593
    -8.6600  -8.6600  -8.6599  -8.6599  -8.5492  -8.5492  -8.5491  -8.5491
    -8.0737  -8.0736  -8.0736  -8.0736  -8.0260  -8.0259  -8.0259  -8.0259
    -7.8044  -7.8043  -7.8043  -7.8043  -7.7882  -7.7882  -7.7882  -7.7881
    -7.2592  -7.2592  -7.2591  -7.2591  -7.2392  -7.2391  -7.2391  -7.2391
    -6.8871  -6.8871  -6.8871  -6.8871  -6.8741  -6.8740  -6.8740  -6.8740
    -6.4513  -6.4513  -6.4513  -6.4512  -6.4235  -6.4235  -6.4235  -6.4234
    -6.3885  -6.3885  -6.3885  -6.3884  -6.3676  -6.3676  -6.3676  -6.3676
    -5.9479  -5.9479  -5.9479  -5.9479  -5.9247  -5.9247  -5.9247  -5.9247
    -5.8712  -5.8712  -5.8712  -5.8712  -5.8394  -5.8394  -5.8394  -5.8394
    -5.7239  -5.7239  -5.7238  -5.7238  -5.6518  -5.6517  -5.6517  -5.6517
    -5.3891  -5.3890  -5.3890  -5.3890  -5.3818  -5.3818  -5.3818  -5.3817
    -5.2098  -5.2098  -5.2098  -5.2098  -5.2017  -5.2017  -5.2016  -5.2016
    -5.0671  -5.0671  -5.0671  -5.0671  -5.0519  -5.0519  -5.0519  -5.0519
    -4.9246  -4.9246  -4.9245  -4.9245  -4.9098  -4.9098  -4.9097  -4.9097
    -4.8937  -4.8937  -4.8936  -4.8936  -4.8298  -4.8297  -4.8297  -4.8297
    -4.7119  -4.7119  -4.7118  -4.7118  -4.5787  -4.5787  -4.5786  -4.5786
    -4.5463  -4.5462  -4.5462  -4.5462  -4.4937  -4.4937  -4.4937  -4.4937
    -4.4695  -4.4695  -4.4695  -4.4695  -4.4353  -4.4353  -4.4353  -4.4353
    -4.3632  -4.3632  -4.3632  -4.3631  -4.3115  -4.3115  -4.3115  -4.3115
    -4.2608  -4.2607  -4.2607  -4.2607  -4.2242  -4.2242  -4.2242  -4.2242
    -4.0345  -4.0345  -4.0345  -4.0344  -4.0264  -4.0263  -4.0263  -4.0263
    -3.7926  -3.7926  -3.7925  -3.7925  -3.7230  -3.7230  -3.7230  -3.7230
    -3.6829  -3.6829  -3.6829  -3.6829  -3.6577  -3.6577  -3.6577  -3.6577
    -3.5074  -3.5074  -3.5073  -3.5073  -3.4677  -3.4676  -3.4676  -3.4676
    -3.4003  -3.4002  -3.4002  -3.4002  -3.3791  -3.3791  -3.3791  -3.3791
    -3.0856  -3.0856  -3.0856  -3.0856  -3.0677  -3.0677  -3.0677  -3.0676
    -3.0088  -3.0088  -3.0088  -3.0088  -3.0001  -3.0001  -3.0000  -3.0000
    -2.4620  -2.4619  -2.4619  -2.4619  -2.4528  -2.4528  -2.4528  -2.4528
    -2.3964  -2.3964  -2.3963  -2.3963  -2.3530  -2.3530  -2.3529  -2.3529
    -2.2579  -2.2579  -2.2579  -2.2579  -2.2411  -2.2411  -2.2411  -2.2411
    -2.1177  -2.1176  -2.1176  -2.1176  -1.9483  -1.9483  -1.9483  -1.9482
    -0.8620  -0.8619  -0.8619  -0.8619  -0.8565  -0.8565  -0.8564  -0.8564
    -0.6638  -0.6638  -0.6637  -0.6637  -0.6354  -0.6354  -0.6353  -0.6353
    -0.5387  -0.5386  -0.5386  -0.5386  -0.4966  -0.4966  -0.4965  -0.4965
    -0.2502  -0.2501  -0.2501  -0.2501  -0.2147  -0.2146  -0.2146  -0.2146
     0.2583   0.2583   0.2583   0.2583   0.2654   0.2654   0.2655   0.2655
     1.0684   1.0685   1.0685   1.0685   1.1372   1.1372   1.1372   1.1373

     highest occupied level (ev):     1.1817

!    total energy              =   -2485.95337817 Ry
     Harris-Foulkes estimate   =   -2485.95337820 Ry
     estimated scf accuracy    <       0.00000003 Ry

     The total energy is the sum of the following terms:

     one-electron contribution =   -2391.38216074 Ry
     hartree contribution      =    1476.37382167 Ry
     xc contribution           =    -779.12992876 Ry
     ewald contribution        =    -790.51144167 Ry
     Dispersion Correction     =      -1.30366866 Ry

     convergence has been achieved in  13 iterations

     Forces acting on atoms (cartesian axes, Ry/au):

     atom    1 type  3   force =     0.00321005   -0.00340535    0.00432043
     atom    2 type  3   force =    -0.02939955    0.04499794   -0.01364846
     atom    3 type  1   force =     0.02106031   -0.04094689    0.00873643
     atom    4 type  1   force =     0.00412267    0.02279247    0.02347434
     atom    5 type  1   force =    -0.00410051   -0.00673540   -0.00927099
     atom    6 type  1   force =    -0.15279911    0.17855521   -0.07061851
     atom    7 type  1   force =    -0.00949984    0.00803039   -0.00975813
     atom    8 type  1   force =    -0.11310035    0.12703580   -0.04462684
     atom    9 type  4   force =     0.00612062    0.01658426    0.02417952
     atom   10 type  1   force =     0.00728666   -0.03279735   -0.01555167
     atom   11 type  1   force =     0.15064077   -0.19045228    0.05841991
     atom   12 type  1   force =     0.01086275    0.17269799    0.05431873
     atom   13 type  1   force =    -0.05812209   -0.01947222   -0.09731556
     atom   14 type  1   force =    -0.10589036   -0.05532275   -0.15512466
     atom   15 type  1   force =    -0.02562819   -0.11614168   -0.05017771
     atom   16 type  1   force =    -0.00120353   -0.00678307   -0.00267886
     atom   17 type  1   force =     0.10231374   -0.12765120    0.03318115
     atom   18 type  1   force =     0.10307769    0.03414489    0.15678003
     atom   19 type  1   force =     0.20149383    0.22472448    0.10051106
     atom   20 type  1   force =    -0.10367545    0.13118544   -0.02415843
     atom   21 type  1   force =    -0.11160623    0.18359158   -0.13351295
     atom   22 type  2   force =    -0.10701611   -0.02177633    0.23228224
     atom   23 type  2   force =     0.24570923    0.05358377    0.03289255
     atom   24 type  2   force =    -0.02215614   -0.21935237   -0.12738615
     atom   25 type  2   force =    -0.01308416   -0.19923271   -0.06542988
     atom   26 type  2   force =    -0.12768655    0.13909097   -0.05602421
     atom   27 type  2   force =    -0.18235865    0.18591407   -0.10379117
     atom   28 type  2   force =     0.13408428   -0.14510484    0.06222262
     atom   29 type  2   force =     0.01891791    0.15194425    0.04970094
     atom   30 type  2   force =     0.13234449    0.05437824    0.18835919
     atom   31 type  2   force =     0.08533448    0.01344852    0.11776168
     atom   32 type  2   force =     0.18711983   -0.17970049    0.11263417
     atom   33 type  2   force =    -0.30956709    0.02662368    0.08978987
     atom   34 type  2   force =    -0.13137215   -0.02167477   -0.17803679
     atom   35 type  2   force =    -0.00464582   -0.14205339   -0.13047770
     atom   36 type  2   force =    -0.05842430   -0.07020237    0.15570997
     atom   37 type  2   force =     0.05575498   -0.30908384   -0.13036480
     atom   38 type  2   force =     0.17844814    0.07090310    0.00511739
     atom   39 type  2   force =    -0.00126882    0.00377077   -0.00978038
     atom   40 type  2   force =     0.03119188    0.06814856   -0.08280813
     atom   41 type  3   force =    -0.00321005    0.00340535    0.00432043
     atom   42 type  3   force =    -0.00321005   -0.00340535   -0.00432043
     atom   43 type  3   force =     0.00321005    0.00340535   -0.00432043
     atom   44 type  3   force =    -0.00321005    0.00340535   -0.00432043
     atom   45 type  3   force =     0.00321005   -0.00340535   -0.00432043
     atom   46 type  3   force =     0.00321005    0.00340535    0.00432043
     atom   47 type  3   force =    -0.00321005   -0.00340535    0.00432043
     atom   48 type  3   force =     0.02939955   -0.04499794   -0.01364846
     atom   49 type  3   force =     0.02939955    0.04499794    0.01364846
     atom   50 type  3   force =    -0.02939955   -0.04499794    0.01364846
     atom   51 type  3   force =     0.02939955   -0.04499794    0.01364846
     atom   52 type  3   force =    -0.02939955    0.04499794    0.01364846
     atom   53 type  3   force =    -0.02939955   -0.04499794   -0.01364846
     atom   54 type  3   force =     0.02939955    0.04499794   -0.01364846
     atom   55 type  1   force =    -0.02106031    0.04094689    0.00873643
     atom   56 type  1   force =    -0.02106031   -0.04094689   -0.00873643
     atom   57 type  1   force =     0.02106031    0.04094689   -0.00873643
     atom   58 type  1   force =    -0.02106031    0.04094689   -0.00873643
     atom   59 type  1   force =     0.02106031   -0.04094689   -0.00873643
     atom   60 type  1   force =     0.02106031    0.04094689    0.00873643
     atom   61 type  1   force =    -0.02106031   -0.04094689    0.00873643
     atom   62 type  1   force =    -0.00412267   -0.02279247    0.02347434
     atom   63 type  1   force =    -0.00412267    0.02279247   -0.02347434
     atom   64 type  1   force =     0.00412267   -0.02279247   -0.02347434
     atom   65 type  1   force =    -0.00412267   -0.02279247   -0.02347434
     atom   66 type  1   force =     0.00412267    0.02279247   -0.02347434
     atom   67 type  1   force =     0.00412267   -0.02279247    0.02347434
     atom   68 type  1   force =    -0.00412267    0.02279247    0.02347434
     atom   69 type  1   force =     0.00410051    0.00673540   -0.00927099
     atom   70 type  1   force =     0.00410051   -0.00673540    0.00927099
     atom   71 type  1   force =    -0.00410051    0.00673540    0.00927099
     atom   72 type  1   force =     0.00410051    0.00673540    0.00927099
     atom   73 type  1   force =    -0.00410051   -0.00673540    0.00927099
     atom   74 type  1   force =    -0.00410051    0.00673540   -0.00927099
     atom   75 type  1   force =     0.00410051   -0.00673540   -0.00927099
     atom   76 type  1   force =     0.15279911   -0.17855521   -0.07061851
     atom   77 type  1   force =     0.15279911    0.17855521    0.07061851
     atom   78 type  1   force =    -0.15279911   -0.17855521    0.07061851
     atom   79 type  1   force =     0.15279911   -0.17855521    0.07061851
     atom   80 type  1   force =    -0.15279911    0.17855521    0.07061851
     atom   81 type  1   force =    -0.15279911   -0.17855521   -0.07061851
     atom   82 type  1   force =     0.15279911    0.17855521   -0.07061851
     atom   83 type  1   force =     0.00949984   -0.00803039   -0.00975813
     atom   84 type  1   force =     0.00949984    0.00803039    0.00975813
     atom   85 type  1   force =    -0.00949984   -0.00803039    0.00975813
     atom   86 type  1   force =     0.00949984   -0.00803039    0.00975813
     atom   87 type  1   force =    -0.00949984    0.00803039    0.00975813
     atom   88 type  1   force =    -0.00949984   -0.00803039   -0.00975813
     atom   89 type  1   force =     0.00949984    0.00803039   -0.00975813
     atom   90 type  1   force =     0.11310035   -0.12703580   -0.04462684
     atom   91 type  1   force =     0.11310035    0.12703580    0.04462684
     atom   92 type  1   force =    -0.11310035   -0.12703580    0.04462684
     atom   93 type  1   force =     0.11310035   -0.12703580    0.04462684
     atom   94 type  1   force =    -0.11310035    0.12703580    0.04462684
     atom   95 type  1   force =    -0.11310035   -0.12703580   -0.04462684
     atom   96 type  1   force =     0.11310035    0.12703580   -0.04462684
     atom   97 type  4   force =    -0.00612062   -0.01658426    0.02417952
     atom   98 type  4   force =    -0.00612062    0.01658426   -0.02417952
     atom   99 type  4   force =     0.00612062   -0.01658426   -0.02417952
     atom  100 type  4   force =    -0.00612062   -0.01658426   -0.02417952
     atom  101 type  4   force =     0.00612062    0.01658426   -0.02417952
     atom  102 type  4   force =     0.00612062   -0.01658426    0.02417952
     atom  103 type  4   force =    -0.00612062    0.01658426    0.02417952
     atom  104 type  1   force =    -0.00728666    0.03279735   -0.01555167
     atom  105 type  1   force =    -0.00728666   -0.03279735    0.01555167
     atom  106 type  1   force =     0.00728666    0.03279735    0.01555167
     atom  107 type  1   force =    -0.00728666    0.03279735    0.01555167
     atom  108 type  1   force =     0.00728666   -0.03279735    0.01555167
     atom  109 type  1   force =     0.00728666    0.03279735   -0.01555167
     atom  110 type  1   force =    -0.00728666   -0.03279735   -0.01555167
     atom  111 type  1   force =    -0.15064077    0.19045228    0.05841991
     atom  112 type  1   force =    -0.15064077   -0.19045228   -0.05841991
     atom  113 type  1   force =     0.15064077    0.19045228   -0.05841991
     atom  114 type  1   force =    -0.15064077    0.19045228   -0.05841991
     atom  115 type  1   force =     0.15064077   -0.19045228   -0.05841991
     atom  116 type  1   force =     0.15064077    0.19045228    0.05841991
     atom  117 type  1   force =    -0.15064077   -0.19045228    0.05841991
     atom  118 type  1   force =    -0.01086275   -0.17269799    0.05431873
     atom  119 type  1   force =    -0.01086275    0.17269799   -0.05431873
     atom  120 type  1   force =     0.01086275   -0.17269799   -0.05431873
     atom  121 type  1   force =    -0.01086275   -0.17269799   -0.05431873
     atom  122 type  1   force =     0.01086275    0.17269799   -0.05431873
     atom  123 type  1   force =     0.01086275   -0.17269799    0.05431873
     atom  124 type  1   force =    -0.01086275    0.17269799    0.05431873
     atom  125 type  1   force =     0.05812209    0.01947222   -0.09731556
     atom  126 type  1   force =     0.05812209   -0.01947222    0.09731556
     atom  127 type  1   force =    -0.05812209    0.01947222    0.09731556
     atom  128 type  1   force =     0.05812209    0.01947222    0.09731556
     atom  129 type  1   force =    -0.05812209   -0.01947222    0.09731556
     atom  130 type  1   force =    -0.05812209    0.01947222   -0.09731556
     atom  131 type  1   force =     0.05812209   -0.01947222   -0.09731556
     atom  132 type  1   force =     0.10589036    0.05532275   -0.15512466
     atom  133 type  1   force =     0.10589036   -0.05532275    0.15512466
     atom  134 type  1   force =    -0.10589036    0.05532275    0.15512466
     atom  135 type  1   force =     0.10589036    0.05532275    0.15512466
     atom  136 type  1   force =    -0.10589036   -0.05532275    0.15512466
     atom  137 type  1   force =    -0.10589036    0.05532275   -0.15512466
     atom  138 type  1   force =     0.10589036   -0.05532275   -0.15512466
     atom  139 type  1   force =     0.02562819    0.11614168   -0.05017771
     atom  140 type  1   force =     0.02562819   -0.11614168    0.05017771
     atom  141 type  1   force =    -0.02562819    0.11614168    0.05017771
     atom  142 type  1   force =     0.02562819    0.11614168    0.05017771
     atom  143 type  1   force =    -0.02562819   -0.11614168    0.05017771
     atom  144 type  1   force =    -0.02562819    0.11614168   -0.05017771
     atom  145 type  1   force =     0.02562819   -0.11614168   -0.05017771
     atom  146 type  1   force =     0.00120353    0.00678307   -0.00267886
     atom  147 type  1   force =     0.00120353   -0.00678307    0.00267886
     atom  148 type  1   force =    -0.00120353    0.00678307    0.00267886
     atom  149 type  1   force =     0.00120353    0.00678307    0.00267886
     atom  150 type  1   force =    -0.00120353   -0.00678307    0.00267886
     atom  151 type  1   force =    -0.00120353    0.00678307   -0.00267886
     atom  152 type  1   force =     0.00120353   -0.00678307   -0.00267886
     atom  153 type  2   force =     0.30956709   -0.02662368    0.08978987
     atom  154 type  2   force =     0.30956709    0.02662368   -0.08978987
     atom  155 type  2   force =    -0.30956709   -0.02662368   -0.08978987
     atom  156 type  2   force =     0.30956709   -0.02662368   -0.08978987
     atom  157 type  2   force =    -0.30956709    0.02662368   -0.08978987
     atom  158 type  2   force =    -0.30956709   -0.02662368    0.08978987
     atom  159 type  2   force =     0.30956709    0.02662368    0.08978987
     atom  160 type  1   force =    -0.10231374    0.12765120    0.03318115
     atom  161 type  1   force =    -0.10231374   -0.12765120   -0.03318115
     atom  162 type  1   force =     0.10231374    0.12765120   -0.03318115
     atom  163 type  1   force =    -0.10231374    0.12765120   -0.03318115
     atom  164 type  1   force =     0.10231374   -0.12765120   -0.03318115
     atom  165 type  1   force =     0.10231374    0.12765120    0.03318115
     atom  166 type  1   force =    -0.10231374   -0.12765120    0.03318115
     atom  167 type  1   force =    -0.10307769   -0.03414489    0.15678003
     atom  168 type  1   force =    -0.10307769    0.03414489   -0.15678003
     atom  169 type  1   force =     0.10307769   -0.03414489   -0.15678003
     atom  170 type  1   force =    -0.10307769   -0.03414489   -0.15678003
     atom  171 type  1   force =     0.10307769    0.03414489   -0.15678003
     atom  172 type  1   force =     0.10307769   -0.03414489    0.15678003
     atom  173 type  1   force =    -0.10307769    0.03414489    0.15678003
     atom  174 type  1   force =    -0.20149383   -0.22472448    0.10051106
     atom  175 type  1   force =    -0.20149383    0.22472448   -0.10051106
     atom  176 type  1   force =     0.20149383   -0.22472448   -0.10051106
     atom  177 type  1   force =    -0.20149383   -0.22472448   -0.10051106
     atom  178 type  1   force =     0.20149383    0.22472448   -0.10051106
     atom  179 type  1   force =     0.20149383   -0.22472448    0.10051106
     atom  180 type  1   force =    -0.20149383    0.22472448    0.10051106
     atom  181 type  1   force =     0.10367545   -0.13118544   -0.02415843
     atom  182 type  1   force =     0.10367545    0.13118544    0.02415843
     atom  183 type  1   force =    -0.10367545   -0.13118544    0.02415843
     atom  184 type  1   force =     0.10367545   -0.13118544    0.02415843
     atom  185 type  1   force =    -0.10367545    0.13118544    0.02415843
     atom  186 type  1   force =    -0.10367545   -0.13118544   -0.02415843
     atom  187 type  1   force =     0.10367545    0.13118544   -0.02415843
     atom  188 type  1   force =     0.11160623   -0.18359158   -0.13351295
     atom  189 type  1   force =     0.11160623    0.18359158    0.13351295
     atom  190 type  1   force =    -0.11160623   -0.18359158    0.13351295
     atom  191 type  1   force =     0.11160623   -0.18359158    0.13351295
     atom  192 type  1   force =    -0.11160623    0.18359158    0.13351295
     atom  193 type  1   force =    -0.11160623   -0.18359158   -0.13351295
     atom  194 type  1   force =     0.11160623    0.18359158   -0.13351295
     atom  195 type  2   force =     0.10701611    0.02177633    0.23228224
     atom  196 type  2   force =     0.10701611   -0.02177633   -0.23228224
     atom  197 type  2   force =    -0.10701611    0.02177633   -0.23228224
     atom  198 type  2   force =     0.10701611    0.02177633   -0.23228224
     atom  199 type  2   force =    -0.10701611   -0.02177633   -0.23228224
     atom  200 type  2   force =    -0.10701611    0.02177633    0.23228224
     atom  201 type  2   force =     0.10701611   -0.02177633    0.23228224
     atom  202 type  2   force =    -0.24570923   -0.05358377    0.03289255
     atom  203 type  2   force =    -0.24570923    0.05358377   -0.03289255
     atom  204 type  2   force =     0.24570923   -0.05358377   -0.03289255
     atom  205 type  2   force =    -0.24570923   -0.05358377   -0.03289255
     atom  206 type  2   force =     0.24570923    0.05358377   -0.03289255
     atom  207 type  2   force =     0.24570923   -0.05358377    0.03289255
     atom  208 type  2   force =    -0.24570923    0.05358377    0.03289255
     atom  209 type  2   force =     0.02215614    0.21935237   -0.12738615
     atom  210 type  2   force =     0.02215614   -0.21935237    0.12738615
     atom  211 type  2   force =    -0.02215614    0.21935237    0.12738615
     atom  212 type  2   force =     0.02215614    0.21935237    0.12738615
     atom  213 type  2   force =    -0.02215614   -0.21935237    0.12738615
     atom  214 type  2   force =    -0.02215614    0.21935237   -0.12738615
     atom  215 type  2   force =     0.02215614   -0.21935237   -0.12738615
     atom  216 type  2   force =     0.01308416    0.19923271   -0.06542988
     atom  217 type  2   force =     0.01308416   -0.19923271    0.06542988
     atom  218 type  2   force =    -0.01308416    0.19923271    0.06542988
     atom  219 type  2   force =     0.01308416    0.19923271    0.06542988
     atom  220 type  2   force =    -0.01308416   -0.19923271    0.06542988
     atom  221 type  2   force =    -0.01308416    0.19923271   -0.06542988
     atom  222 type  2   force =     0.01308416   -0.19923271   -0.06542988
     atom  223 type  2   force =     0.12768655   -0.13909097   -0.05602421
     atom  224 type  2   force =     0.12768655    0.13909097    0.05602421
     atom  225 type  2   force =    -0.12768655   -0.13909097    0.05602421
     atom  226 type  2   force =     0.12768655   -0.13909097    0.05602421
     atom  227 type  2   force =    -0.12768655    0.13909097    0.05602421
     atom  228 type  2   force =    -0.12768655   -0.13909097   -0.05602421
     atom  229 type  2   force =     0.12768655    0.13909097   -0.05602421
     atom  230 type  2   force =     0.18235865   -0.18591407   -0.10379117
     atom  231 type  2   force =     0.18235865    0.18591407    0.10379117
     atom  232 type  2   force =    -0.18235865   -0.18591407    0.10379117
     atom  233 type  2   force =     0.18235865   -0.18591407    0.10379117
     atom  234 type  2   force =    -0.18235865    0.18591407    0.10379117
     atom  235 type  2   force =    -0.18235865   -0.18591407   -0.10379117
     atom  236 type  2   force =     0.18235865    0.18591407   -0.10379117
     atom  237 type  2   force =    -0.13408428    0.14510484    0.06222262
     atom  238 type  2   force =    -0.13408428   -0.14510484   -0.06222262
     atom  239 type  2   force =     0.13408428    0.14510484   -0.06222262
     atom  240 type  2   force =    -0.13408428    0.14510484   -0.06222262
     atom  241 type  2   force =     0.13408428   -0.14510484   -0.06222262
     atom  242 type  2   force =     0.13408428    0.14510484    0.06222262
     atom  243 type  2   force =    -0.13408428   -0.14510484    0.06222262
     atom  244 type  2   force =    -0.01891791   -0.15194425    0.04970094
     atom  245 type  2   force =    -0.01891791    0.15194425   -0.04970094
     atom  246 type  2   force =     0.01891791   -0.15194425   -0.04970094
     atom  247 type  2   force =    -0.01891791   -0.15194425   -0.04970094
     atom  248 type  2   force =     0.01891791    0.15194425   -0.04970094
     atom  249 type  2   force =     0.01891791   -0.15194425    0.04970094
     atom  250 type  2   force =    -0.01891791    0.15194425    0.04970094
     atom  251 type  2   force =    -0.13234449   -0.05437824    0.18835919
     atom  252 type  2   force =    -0.13234449    0.05437824   -0.18835919
     atom  253 type  2   force =     0.13234449   -0.05437824   -0.18835919
     atom  254 type  2   force =    -0.13234449   -0.05437824   -0.18835919
     atom  255 type  2   force =     0.13234449    0.05437824   -0.18835919
     atom  256 type  2   force =     0.13234449   -0.05437824    0.18835919
     atom  257 type  2   force =    -0.13234449    0.05437824    0.18835919
     atom  258 type  2   force =    -0.08533448   -0.01344852    0.11776168
     atom  259 type  2   force =    -0.08533448    0.01344852   -0.11776168
     atom  260 type  2   force =     0.08533448   -0.01344852   -0.11776168
     atom  261 type  2   force =    -0.08533448   -0.01344852   -0.11776168
     atom  262 type  2   force =     0.08533448    0.01344852   -0.11776168
     atom  263 type  2   force =     0.08533448   -0.01344852    0.11776168
     atom  264 type  2   force =    -0.08533448    0.01344852    0.11776168
     atom  265 type  2   force =    -0.18711983    0.17970049    0.11263417
     atom  266 type  2   force =    -0.18711983   -0.17970049   -0.11263417
     atom  267 type  2   force =     0.18711983    0.17970049   -0.11263417
     atom  268 type  2   force =    -0.18711983    0.17970049   -0.11263417
     atom  269 type  2   force =     0.18711983   -0.17970049   -0.11263417
     atom  270 type  2   force =     0.18711983    0.17970049    0.11263417
     atom  271 type  2   force =    -0.18711983   -0.17970049    0.11263417
     atom  272 type  2   force =     0.13137215    0.02167477   -0.17803679
     atom  273 type  2   force =     0.13137215   -0.02167477    0.17803679
     atom  274 type  2   force =    -0.13137215    0.02167477    0.17803679
     atom  275 type  2   force =     0.13137215    0.02167477    0.17803679
     atom  276 type  2   force =    -0.13137215   -0.02167477    0.17803679
     atom  277 type  2   force =    -0.13137215    0.02167477   -0.17803679
     atom  278 type  2   force =     0.13137215   -0.02167477   -0.17803679
     atom  279 type  2   force =     0.00464582    0.14205339   -0.13047770
     atom  280 type  2   force =     0.00464582   -0.14205339    0.13047770
     atom  281 type  2   force =    -0.00464582    0.14205339    0.13047770
     atom  282 type  2   force =     0.00464582    0.14205339    0.13047770
     atom  283 type  2   force =    -0.00464582   -0.14205339    0.13047770
     atom  284 type  2   force =    -0.00464582    0.14205339   -0.13047770
     atom  285 type  2   force =     0.00464582   -0.14205339   -0.13047770
     atom  286 type  2   force =     0.05842430    0.07020237    0.15570997
     atom  287 type  2   force =     0.05842430   -0.07020237   -0.15570997
     atom  288 type  2   force =    -0.05842430    0.07020237   -0.15570997
     atom  289 type  2   force =     0.05842430    0.07020237   -0.15570997
     atom  290 type  2   force =    -0.05842430   -0.07020237   -0.15570997
     atom  291 type  2   force =    -0.05842430    0.07020237    0.15570997
     atom  292 type  2   force =     0.05842430   -0.07020237    0.15570997
     atom  293 type  2   force =    -0.05575498    0.30908384   -0.13036480
     atom  294 type  2   force =    -0.05575498   -0.30908384    0.13036480
     atom  295 type  2   force =     0.05575498    0.30908384    0.13036480
     atom  296 type  2   force =    -0.05575498    0.30908384    0.13036480
     atom  297 type  2   force =     0.05575498   -0.30908384    0.13036480
     atom  298 type  2   force =     0.05575498    0.30908384   -0.13036480
     atom  299 type  2   force =    -0.05575498   -0.30908384   -0.13036480
     atom  300 type  2   force =    -0.17844814   -0.07090310    0.00511739
     atom  301 type  2   force =    -0.17844814    0.07090310   -0.00511739
     atom  302 type  2   force =     0.17844814   -0.07090310   -0.00511739
     atom  303 type  2   force =    -0.17844814   -0.07090310   -0.00511739
     atom  304 type  2   force =     0.17844814    0.07090310   -0.00511739
     atom  305 type  2   force =     0.17844814   -0.07090310    0.00511739
     atom  306 type  2   force =    -0.17844814    0.07090310    0.00511739
     atom  307 type  2   force =     0.00126882   -0.00377077   -0.00978038
     atom  308 type  2   force =     0.00126882    0.00377077    0.00978038
     atom  309 type  2   force =    -0.00126882   -0.00377077    0.00978038
     atom  310 type  2   force =     0.00126882   -0.00377077    0.00978038
     atom  311 type  2   force =    -0.00126882    0.00377077    0.00978038
     atom  312 type  2   force =    -0.00126882   -0.00377077   -0.00978038
     atom  313 type  2   force =     0.00126882    0.00377077   -0.00978038
     atom  314 type  2   force =    -0.03119188   -0.06814856   -0.08280813
     atom  315 type  2   force =    -0.03119188    0.06814856    0.08280813
     atom  316 type  2   force =     0.03119188   -0.06814856    0.08280813
     atom  317 type  2   force =    -0.03119188   -0.06814856    0.08280813
     atom  318 type  2   force =     0.03119188    0.06814856    0.08280813
     atom  319 type  2   force =     0.03119188   -0.06814856   -0.08280813
     atom  320 type  2   force =    -0.03119188    0.06814856   -0.08280813

     Total force =     3.456412     Total SCF correction =     0.000441

     BFGS Geometry Optimization

     number of scf cycles    =   1
     number of bfgs steps    =   0

     energy   new            =   -2485.9533781739 Ry

     new trust radius        =       0.3400535485 bohr
     new conv_thr            =       0.0000001000 Ry


ATOMIC_POSITIONS (angstrom)
O        1.676768686   2.110907968   3.706476271
O        0.724152430   0.390841885   2.126287546
C        1.470674634  12.612191837   2.642283120
C        0.985911620   9.756251257   0.191542087
C        2.214160106  12.924555779   3.865344003
C        1.503692194  11.423537346   1.973030296
C        2.313422903   1.098109498   4.325836222
C        1.908479875   7.630144451  21.911254494
N        1.289688894   6.213056012  20.070995253
C        1.186355937   7.338824391  20.777960411
C        0.962295664  10.881766992   0.946004487
C        2.877078320  12.023557838   4.636504235
C        1.826843113   8.702405745   0.480112825
C        3.673145233   0.349994461   6.049201566
C        3.096418144   1.321260469   5.410837097
C        3.609213121  12.201260552   5.740412407
C        0.263772098   9.466479892  21.200078707
C        0.356626364   8.400598696  20.509364420
C        0.528025945   6.075139073  18.985068162
C        2.131687315   5.215900342  20.454575909
C        4.224820527  11.195372480   6.446767987
H        3.813369515  11.002076464   7.502518469
H        5.344853725  11.334115308   6.646425988
H        4.184005474  10.155303725   5.970440154
H        2.809576162  10.900280592   4.276226001
H       10.252431189  10.301553771  20.886953263
H        0.172249958  11.721291489   0.518526080
H        2.661704347   6.797993827   0.125916790
H        3.192010928   2.430785436   5.689970606
H        4.348533686   0.617025724   6.996595389
H        2.517657060   8.838796652   1.377496798
H        2.313519549  10.626356598   2.430903437
H       10.113184149   6.120328644  19.217194751
H       10.400980851   8.279330208  19.562566987
H        2.169041539   4.359748582  19.720584176
H        1.936333192   4.745190506  21.448458165
H        0.610004267   4.955679878  18.496243922
[...]
     atom  302 type  2   force =     0.00031122    0.00048668    0.00013615
     atom  303 type  2   force =    -0.00031122    0.00048668    0.00013615
     atom  304 type  2   force =     0.00031122   -0.00048668    0.00013615
     atom  305 type  2   force =     0.00031122    0.00048668   -0.00013615
     atom  306 type  2   force =    -0.00031122   -0.00048668   -0.00013615
     atom  307 type  2   force =     0.00045863   -0.00037199    0.00015391
     atom  308 type  2   force =     0.00045863    0.00037199   -0.00015391
     atom  309 type  2   force =    -0.00045863   -0.00037199   -0.00015391
     atom  310 type  2   force =     0.00045863   -0.00037199   -0.00015391
     atom  311 type  2   force =    -0.00045863    0.00037199   -0.00015391
     atom  312 type  2   force =    -0.00045863   -0.00037199    0.00015391
     atom  313 type  2   force =     0.00045863    0.00037199    0.00015391
     atom  314 type  2   force =    -0.00035015   -0.00031196   -0.00008138
     atom  315 type  2   force =    -0.00035015    0.00031196    0.00008138
     atom  316 type  2   force =     0.00035015   -0.00031196    0.00008138
     atom  317 type  2   force =    -0.00035015   -0.00031196    0.00008138
     atom  318 type  2   force =     0.00035015    0.00031196    0.00008138
     atom  319 type  2   force =     0.00035015   -0.00031196   -0.00008138
     atom  320 type  2   force =    -0.00035015    0.00031196   -0.00008138

     Total force =     0.008463     Total SCF correction =     0.000055

     bfgs converged in  39 scf cycles and  38 bfgs steps
     (criteria: energy <  1.0E-04 Ry, force <  1.0E-03 Ry/Bohr)

     End of BFGS Geometry Optimization

     Final energy   =   -2489.5336356705 Ry
Begin final coordinates

ATOMIC_POSITIONS (angstrom)
O        1.699560739   2.112081958   3.625623370
O        0.715060588   0.388405600   2.136688790
C        1.467448611  12.627638088   2.622714713
C        0.976718179   9.739007145   0.178918755
C        2.245912500  12.931642993   3.839616063
C        1.585680603  11.338354870   1.999082349
C        2.338798365   1.120412635   4.286060267
C        1.961141746   7.531298541  21.968593254
N        1.278139992   6.183477743  20.075180971
C        1.170761722   7.325615315  20.799650299
C        0.878808402  10.979678158   0.882539506
C        2.912580582  11.941450859   4.588630323
C        1.861141476   8.695618013   0.551622816
C        3.752856127   0.421358513   6.122356454
C        3.117415706   1.429049606   5.412006551
C        3.649562919  12.232780500   5.728790392
C        0.184268307   9.519791645  21.167189693
C        0.269102597   8.361145006  20.423001066
C        0.460907811   5.985676807  18.887964053
C        2.211841161   5.141870586  20.484814685
C        4.327221632  11.136747087   6.505794856
H        3.902137280  11.039112415   7.517749569
H        5.397803089  11.347560845   6.636276042
H        4.229940231  10.173672201   5.987279722
H        2.857368414  10.901162257   4.272261287
H       10.238881971  10.301553289  20.863071085
H        0.182215234  11.715733369   0.466766146
H        2.657519740   6.764156937   0.157913393
H        3.203047041   2.471437544   5.719167342
H        4.342342289   0.675413913   7.006038108
H        2.487572597   8.806602748   1.436169477
H        2.289599921  10.631435104   2.433748960
H       10.139758581   6.064421800  19.124218407
H       10.390136155   8.246279692  19.542546477
H        2.180452909   4.325297021  19.756879435
H        1.948638810   4.739621029  21.474999008
H        0.653369531   4.989643334  18.479998858
H        3.242108432   5.528470494  20.531695801
H        1.138895207   1.590738679   2.916419903
H        0.696524765   6.728073878  18.109411998
O        3.675449261  11.047918042  14.696123370
O        9.050439261   8.692081958   7.444876630
O        7.074560739   4.467918042  18.515376630
O        9.050449261  11.047918042  18.515376630
O        7.074560739   2.112081958   7.444876630
O        1.699560739   4.467918042  14.696123370
O        3.675449261   8.692081958   3.625623370
O        4.659939412  12.771594400  13.207188790
O       10.034939412   6.968405600   8.933811210
O        6.090060588   6.191594400  20.004311210
O       10.034939412  12.771594400  20.004311210
O        6.090060588   0.388405600   8.933811210
O        0.715060588   6.191594400  13.207188790
O        4.659939412   6.968405600   2.136688790
C        3.907551389   0.532361912  13.693214713
C        9.282551389   6.047638088   8.447785287
C        6.842448611   7.112361912  19.518285287
C        9.282551389   0.532361912  19.518285287
C        6.842448611  12.627638088   8.447785287
C        1.467448611   7.112361912  13.693214713
C        3.907551389   6.047638088   2.622714713
C        4.398281821   3.420992855  11.249418755
C        9.773281821   3.159007145  10.891581245
C        6.351718179  10.000992855  21.962081245
C        9.773281821   3.420992855  21.962081245
C        6.351718179   9.739007145  10.891581245
C        0.976718179  10.000992855  11.249418755
C        4.398281821   3.159007145   0.178918755
C        3.129087500   0.228357007  14.910116063
C        8.504087500   6.351642993   7.230883937
C        7.620912500   6.808357007  18.301383937
C        8.504087500   0.228357007  18.301383937
C        7.620912500  12.931642993   7.230883937
C        2.245912500   6.808357007  14.910116063
C        3.129087500   6.351642993   3.839616063
C        3.789319397   1.821645130  13.069582349
C        9.164319397   4.758354870   9.071417651
C        6.960680603   8.401645130  20.141917651
C        9.164319397   1.821645130  20.141917651
C        6.960680603  11.338354870   9.071417651
C        1.585680603   8.401645130  13.069582349
C        3.789319397   4.758354870   1.999082349
C        3.036201635  12.039587365  15.356560267
C        8.411201635   7.700412635   6.784439733
C        7.713798365   5.459587365  17.854939733
C        8.411201635  12.039587365  17.854939733
C        7.713798365   1.120412635   6.784439733
C        2.338798365   5.459587365  15.356560267
C        3.036201635   7.700412635   4.286060267
C        3.413868254   5.628701459  10.898093254
C        8.788858254   0.951298541  11.242906746
C        7.336141746  12.208701459   0.172406746
C        8.788858254   5.628701459   0.172406746
C        7.336141746   7.531298541  11.242906746
C        1.961141746  12.208701459  10.898093254
C        3.413868254   0.951298541  21.968593254
N        4.096860008   6.976522257   9.004680971
N        9.471860008  12.763477743  13.136319029
N        6.653139992   0.396522257   2.065819029
N        9.471860008   6.976522257   2.065819029
N        6.653139992   6.183477743  13.136319029
N        1.278139992   0.396522257   9.004680971
N        4.096860008  12.763477743  20.075180971
C        4.204238278   5.834384685   9.729150299
C        9.579238278   0.745615315  12.411849701
C        6.545761722  12.414384685   1.341349701
C        9.579238278   5.834384685   1.341349701
C        6.545761722   7.325615315  12.411849701
C        1.170761722  12.414384685   9.729150299
C        4.204238278   0.745615315  20.799650299
C        4.496201598   2.180321842  11.953039506
C        9.871191598   4.399678158  10.187960494
C        6.253808402   8.760321842  21.258460494
C        9.871201598   2.180321842  21.258460494
C        6.253808402  10.979678158  10.187960494
C        0.878808402   8.760321842  11.953039506
C        4.496191598   4.399678158   0.882539506
C        2.462429418   1.218549141  15.659130323
C        7.837419418   5.361450859   6.481869677
C        8.287580582   7.798549141  17.552369677
C        7.837419418   1.218549141  17.552369677
C        8.287580582  11.941450859   6.481869677
C        2.912580582   7.798549141  15.659130323
C        2.462429418   5.361450859   4.588630323
C        3.513858524   4.464381987  11.622122816
C        8.888858524   2.115618013  10.518877184
C        7.236141476  11.044381987  21.589377184
C        8.888858524   4.464381987  21.589377184
C        7.236141476   8.695618013  10.518877184
C        1.861141476  11.044381987  11.622122816
C        3.513858524   2.115618013   0.551622816
C        1.622153873  12.738641487  17.192856454
C        6.997153873   7.001358513   4.948143546
C        9.127856127   6.158641487  16.018643546
C        6.997153873  12.738641487  16.018643546
C        9.127846127   0.421358513   4.948143546
C        3.752856127   6.158641487  17.192856454
C        1.622153873   7.001358513   6.122356454
C        2.257594294  11.730950394  16.482506551
C        7.632594294   8.009049606   5.658493449
C        8.492415706   5.150950394  16.728993449
C        7.632594294  11.730950394  16.728993449
C        8.492415706   1.429049606   5.658493449
C        3.117415706   5.150950394  16.482506551
C        2.257594294   8.009049606   5.412006551
C        1.725437081   0.927219500  16.799290392
C        7.100437081   5.652780500   5.341709608
C        9.024562919   7.507219500  16.412209608
C        7.100437081   0.927219500  16.412209608
C        9.024562919  12.232780500   5.341709608
C        3.649562919   7.507219500  16.799290392
C        1.725437081   5.652780500   5.728790392
H        5.985241419   7.095578200   8.053718407
H        0.610241419  12.644421800  14.087281593
H        4.764758581   0.515578200   3.016781593
H        0.610241419   7.095578200   3.016781593
H        4.764758581   6.064421800  14.087281593
H       10.139758581   0.515578200   8.053718407
H        5.985241419  12.644421800  19.124218407
C        5.190741693   3.640208355  10.096689693
C       10.565741693   2.939791645  12.044310307
C        5.559268307  10.220208355   0.973810307
C       10.565741693   3.640208355   0.973810307
C        5.559268307   9.519791645  12.044310307
C        0.184268307  10.220208355  10.096689693
C        5.190741693   2.939791645  21.167189693
C        5.105907403   4.798854994   9.352501066
C       10.480897403   1.781145006  12.788498934
C        5.644102597  11.378854994   1.717998934
C       10.480897403   4.798854994   1.717998934
C        5.644102597   8.361145006  12.788498934
C        0.269102597  11.378854994   9.352501066
C        5.105907403   1.781145006  20.423001066
C        4.914092189   7.174323193   7.817464053
C       10.289092189  12.565676807  14.323535947
C        5.835907811   0.594323193   3.253035947
C       10.289092189   7.174323193   3.253035947
C        5.835907811   5.985676807  14.323535947
C        0.460907811   0.594323193   7.817464053
C        4.914092189  12.565676807  18.887964053
C        3.163158839   8.018129414   9.414314685
C        8.538158839  11.721870586  12.726685315
C        7.586841161   1.438129414   1.656185315
C        8.538158839   8.018129414   1.656185315
C        7.586841161   5.141870586  12.726685315
C        2.211841161   1.438129414   9.414314685
C        3.163158839  11.721870586  20.484814685
C        1.047788368   2.023252913  17.576294856
C        6.422788368   4.556747087   4.564705144
C        9.702221632   8.603252913  15.635205144
C        6.422788368   2.023252913  15.635205144
C        9.702221632  11.136747087   4.564705144
C        4.327221632   8.603252913  17.576294856
C        1.047788368   4.556747087   6.505794856
H        1.472862720   2.120887585  18.588249569
H        6.847862720   4.459112415   3.552750431
H        9.277137280   8.700887585  14.623250431
H        6.847862720   2.120887585  14.623250431
H        9.277137280  11.039112415   3.552750431
H        3.902137280   8.700887585  18.588249569
H        1.472862720   4.459112415   7.517749569
H       -0.022793089   1.812439155  17.706776042
H        5.352206911   4.767560845   4.434223958
H       10.772803089   8.392439155  15.504723958
H        5.352206911   1.812439155  15.504723958
H       10.772793089  11.347560845   4.434223958
H        5.397803089   8.392439155  17.706776042
H       -0.022793089   4.767560845   6.636276042
H        1.145069769   2.986327799  17.057779722
H        6.520069769   3.593672201   5.083220278
H        9.604940231   9.566327799  16.153720278
H        6.520069769   2.986327799  16.153720278
H        9.604930231  10.173672201   5.083220278
H        4.229940231   9.566327799  17.057779722
H        1.145069769   3.593672201   5.987279722
H        2.517631586   2.258837743  15.342761287
H        7.892631586   4.321162257   6.798238713
H        8.232368414   8.838837743  17.868738713
H        7.892631586   2.258837743  17.868738713
H        8.232368414  10.901162257   6.798238713
H        2.857368414   8.838837743  15.342761287
H        2.517631586   4.321162257   4.272261287
H        5.886118029   2.858446711   9.792571085
H        0.511118029   3.721553289  12.348428915
H        4.863881971   9.438446711   1.277928915
H        0.511118029   2.858446711   1.277928915
H        4.863881971  10.301553289  12.348428915
H       10.238881971   9.438446711   9.792571085
H        5.886118029   3.721553289  20.863071085
H        5.192784766   1.444266631  11.537266146
H       10.567784766   5.135733369  10.603733854
H        5.557215234   8.024266631  21.674233854
H       10.567784766   1.444266631  21.674233854
H        5.557215234  11.715733369  10.603733854
H        0.182215234   8.024266631  11.537266146
H        5.192784766   5.135733369   0.466766146
H        2.717480260   6.395843063  11.228413393
H        8.092480260   0.184156937  10.912586607
H        8.032519740  12.975843063  21.983086607
H        8.092480260   6.395843063  21.983086607
H        8.032519740   6.764156937  10.912586607
H        2.657519740  12.975843063  11.228413393
H        2.717480260   0.184156937   0.157913393
H        2.171952959  10.688562456  16.789667342
H        7.546952959   9.051437544   5.351332658
H        8.578047041   4.108562456  16.421832658
H        7.546952959  10.688562456  16.421832658
H        8.578047041   2.471437544   5.351332658
H        3.203047041   4.108562456  16.789667342
H        2.171952959   9.051437544   5.719167342
H        1.032657711  12.484586087  18.076538108
H        6.407657711   7.255413913   4.064461892
H        9.717342289   5.904586087  15.134961892
H        6.407657711  12.484586087  15.134961892
H        9.717342289   0.675413913   4.064461892
H        4.342342289   5.904586087  18.076538108
H        1.032657711   7.255413913   7.006038108
H        2.887427403   4.353397252  12.506669477
H        8.262427403   2.226602748   9.634330523
H        7.862572597  10.933397252  20.704830523
H        8.262427403   4.353397252  20.704830523
H        7.862572597   8.806602748   9.634330523
H        2.487572597  10.933397252  12.506669477
H        2.887427403   2.226602748   1.436169477
H        3.085400079   2.528564896  13.504248960
H        8.460400079   4.051435104   8.636751040
H        7.664599921   9.108564896  19.707251040
H        8.460400079   2.528564896  19.707251040
H        7.664599921  10.631435104   8.636751040
H        2.289599921   9.108564896  13.504248960
H        3.085400079   4.051435104   2.433748960
H        5.734863845   4.913720308   8.472046477
H        0.359863845   1.666279692  13.668953523
H        5.015136155  11.493720308   2.598453523
H        0.359863845   4.913720308   2.598453523
H        5.015136155   8.246279692  13.668953523
H       10.390136155  11.493720308   8.472046477
H        5.734863845   1.666279692  19.542546477
H        3.194547091   8.834702979   8.686379435
H        8.569547091  10.905297021  13.454620565
H        7.555452909   2.254702979   2.384120565
H        8.569547091   8.834702979   2.384120565
H        7.555452909   4.325297021  13.454620565
H        2.180452909   2.254702979   8.686379435
H        3.194547091  10.905297021  19.756879435
H        3.426361190   8.420378971  10.404499008
H        8.801361190  11.319621029  11.736500992
H        7.323638810   1.840378971   0.666000992
H        8.801361190   8.420378971   0.666000992
H        7.323638810   4.739621029  11.736500992
H        1.948638810   1.840378971  10.404499008
H        3.426361190  11.319621029  21.474999008
H        4.721630469   8.170356666   7.409498858
H       10.096630469  11.569643334  14.731501142
H        6.028369531   1.590356666   3.661001142
H       10.096630469   8.170356666   3.661001142
H        6.028369531   4.989643334  14.731501142
H        0.653369531   1.590356666   7.409498858
H        4.721630469  11.569643334  18.479998858
H        2.132891568   7.631529506   9.461195801
H        7.507891568  12.108470494  12.679804199
H        8.617108432   1.051529506   1.609304199
H        7.507891568   7.631529506   1.609304199
H        8.617108432   5.528470494  12.679804199
H        3.242108432   1.051529506   9.461195801
H        2.132891568  12.108470494  20.531695801
H        4.236104793  11.569261321  13.986919903
H        9.611104793   8.170738679   8.154080097
H        6.513895207   4.989261321  19.224580097
H        9.611104793  11.569261321  19.224580097
H        6.513895207   1.590738679   8.154080097
H        1.138895207   4.989261321  13.986919903
H        4.236104793   8.170738679   2.916419903
H        4.678475235   6.431926122   7.038911998
H       10.053475235   0.148073878  15.102088002
H        6.071524765  13.011926122   4.031588002
H       10.053475235   6.431926122   4.031588002
H        6.071524765   6.728073878  15.102088002
H        0.696524765  13.011926122   7.038911998
H        4.678475235   0.148073878  18.109411998
End final coordinates



     Writing output data file 2hc_2_221.save
 
     init_run     :    380.06s CPU    384.19s WALL (       1 calls)
     electrons    : 303123.84s CPU 305554.02s WALL (      39 calls)
     update_pot   :    100.21s CPU    100.57s WALL (      38 calls)
     forces       :   6583.16s CPU   6664.91s WALL (      39 calls)

     Called by init_run:
     wfcinit      :    370.68s CPU    373.51s WALL (       1 calls)
     potinit      :      2.69s CPU      2.74s WALL (       1 calls)

     Called by electrons:
     c_bands      : 275010.09s CPU 276863.35s WALL (     420 calls)
     sum_band     :  26470.67s CPU  26759.27s WALL (     420 calls)
     v_of_rho     :    225.86s CPU    226.39s WALL (     459 calls)
     newd         :    815.86s CPU   1125.04s WALL (     459 calls)
     mix_rho      :     49.20s CPU     51.86s WALL (     420 calls)

     Called by c_bands:
     init_us_2    :   1411.34s CPU   1412.29s WALL (    3520 calls)
     cegterg      : 270091.80s CPU 271941.94s WALL (    1680 calls)

     Called by sum_band:
     sum_band:bec :      8.74s CPU      8.76s WALL (    1680 calls)
     addusdens    :    816.20s CPU   1097.45s WALL (     420 calls)

     Called by *egterg:
     h_psi        : 142146.58s CPU 142189.70s WALL (    8780 calls)
     s_psi        :  41467.33s CPU  41470.90s WALL (    8780 calls)
     g_psi        :    600.57s CPU    600.63s WALL (    7096 calls)
     cdiaghg      :   7729.30s CPU   7732.44s WALL (    8624 calls)

     Called by h_psi:
     h_psi:pot    : 141413.13s CPU 141454.72s WALL (    8780 calls)
     h_psi:calbec :  39870.56s CPU  39875.90s WALL (    8780 calls)
     vloc_psi     :  60085.37s CPU  60117.87s WALL (    8780 calls)
     add_vuspsi   :  41457.17s CPU  41460.87s WALL (    8780 calls)

     General routines
     calbec       :  57995.87s CPU  58002.95s WALL (   11084 calls)
     fft          :    104.03s CPU    104.64s WALL (    5968 calls)
     fftw         :  59293.68s CPU  59320.46s WALL ( 5040338 calls)
     davcio       :      0.04s CPU      6.05s WALL (       4 calls)
 
     Parallel routines
     fft_scatter  :   8345.93s CPU   8339.75s WALL ( 5046306 calls)
 
     PWSCF        :     3d   14h11m CPU        3d   14h54m WALL

 
   This run was terminated on:   7:49:35  14Oct2017            

=------------------------------------------------------------------------------=
   JOB DONE.
=------------------------------------------------------------------------------=
