
     Program PWSCF v.6.1 (svn rev. 13369) starts on 11Oct2017 at 11:31: 3 

     This program is part of the open-source Quantum ESPRESSO suite
     for quantum simulation of materials; please cite
         "P. Giannozzi et al., J. Phys.:Condens. Matter 21 395502 (2009);
          URL http://www.quantum-espresso.org", 
     in publications or presentations arising from this work. More details at
     http://www.quantum-espresso.org/quote

     Parallel version (MPI), running on     1 processors
     Waiting for input...
     Reading input from standard input

     Current dimensions of program PWSCF are:
     Max number of different atomic species (ntypx) = 10
     Max number of k-points (npk) =  40000
     Max angular momentum in pseudopotentials (lmaxx) =  3
     Message from routine iosys:
     london is obsolete, use "vdw_corr='grimme-d2'" instead

     IMPORTANT: XC functional enforced from input :
     Exchange-correlation      = PBE ( 1  4  3  4 0 0)
     Any further DFT definition will be discarded
     Please, verify this is what you really want

               file C.pbe-rrkjus.UPF: wavefunction(s)  2S 2P renormalized
               file H.pbe-rrkjus.UPF: wavefunction(s)  1S renormalized
               file O.pbe-rrkjus.UPF: wavefunction(s)  2S renormalized
               file N.pbe-rrkjus.UPF: wavefunction(s)  2S renormalized

     -------------------------------------
     Parameters for Dispersion Correction:
     -------------------------------------
       atom      VdW radius       C_6     

        C          2.744         60.710
        H          1.892          4.857
        O          2.536         24.284
        N          2.640         42.670

     Subspace diagonalization in iterative solution of the eigenvalue problem:
     a serial algorithm will be used

 
     G-vector sticks info
     --------------------
     sticks:   dense  smooth     PW     G-vecs:    dense   smooth      PW
     Sum        3019    3019    817               169855   169855   24131
 


     bravais-lattice index     =            0
     lattice parameter (alat)  =      14.0342  a.u.
     unit-cell volume          =    7653.1420 (a.u.)^3
     number of atoms/cell      =          124
     number of atomic types    =            4
     number of electrons       =       344.00
     number of Kohn-Sham states=          172
     kinetic-energy cutoff     =      30.0000  Ry
     charge density cutoff     =     120.0000  Ry
     convergence threshold     =      1.0E-07
     mixing beta               =       0.7000
     number of iterations used =            8  plain     mixing
     Exchange-correlation      = PBE ( 1  4  3  4 0 0)
     nstep                     =           50


     celldm(1)=  14.034240  celldm(2)=   0.000000  celldm(3)=   0.000000
     celldm(4)=   0.000000  celldm(5)=   0.000000  celldm(6)=   0.000000

     crystal axes: (cart. coord. in units of alat)
               a(1) = (   1.000000   0.000000   0.000000 )  
               a(2) = (   0.000000   1.600867   0.000000 )  
               a(3) = (  -0.373929   0.000000   1.729489 )  

     reciprocal axes: (cart. coord. in units 2 pi/alat)
               b(1) = (  1.000000  0.000000  0.216208 )  
               b(2) = (  0.000000  0.624661  0.000000 )  
               b(3) = (  0.000000  0.000000  0.578206 )  


     PseudoPot. # 1 for C  read from file:
     /data/home/btx156/espresso/pseudo/C.pbe-rrkjus.UPF
     MD5 check sum: 00fb224312de0c5b6853bd333518df6f
     Pseudo is Ultrasoft, Zval =  4.0
     Generated by new atomic code, or converted to UPF format
     Using radial grid of  627 points,  4 beta functions with: 
                l(1) =   0
                l(2) =   0
                l(3) =   1
                l(4) =   1
     Q(r) pseudized with 0 coefficients 


     PseudoPot. # 2 for H  read from file:
     /data/home/btx156/espresso/pseudo/H.pbe-rrkjus.UPF
     MD5 check sum: 7cc9d459525c9a0585f487a71c3c9563
     Pseudo is Ultrasoft, Zval =  1.0
     Generated by new atomic code, or converted to UPF format
     Using radial grid of 1061 points,  2 beta functions with: 
                l(1) =   0
                l(2) =   0
     Q(r) pseudized with 0 coefficients 


     PseudoPot. # 3 for O  read from file:
     /data/home/btx156/espresso/pseudo/O.pbe-rrkjus.UPF
     MD5 check sum: 390ba29e75625707450f3bd3f0eb6be9
     Pseudo is Ultrasoft, Zval =  6.0
     Generated by new atomic code, or converted to UPF format
     Using radial grid of 1269 points,  4 beta functions with: 
                l(1) =   0
                l(2) =   0
                l(3) =   1
                l(4) =   1
     Q(r) pseudized with 0 coefficients 


     PseudoPot. # 4 for N  read from file:
     /data/home/btx156/espresso/pseudo/N.pbe-rrkjus.UPF
     MD5 check sum: 0c3fbe5807a93f9ba59d5a7019aa238b
     Pseudo is Ultrasoft, Zval =  5.0
     Generated by new atomic code, or converted to UPF format
     Using radial grid of 1257 points,  4 beta functions with: 
                l(1) =   0
                l(2) =   0
                l(3) =   1
                l(4) =   1
     Q(r) pseudized with 0 coefficients 


     atomic species   valence    mass     pseudopotential
        C              4.00    12.00000     C ( 1.00)
        H              1.00     1.00790     H ( 1.00)
        O              6.00    15.99940     O ( 1.00)
        N              5.00    14.00670     N ( 1.00)

      4 Sym. Ops., with inversion, found ( 2 have fractional translation)



   Cartesian axes

     site n.     atom                  positions (alat units)
         1           O   tau(   1) = (   0.1032729   1.4720067   0.1285692  )
         2           C   tau(   2) = (   0.0230087   1.4485935   0.6866609  )
         3           O   tau(   3) = (  -0.0940585   1.1486817   0.6498309  )
         4           C   tau(   4) = (  -0.0051101   1.4366401   0.8827769  )
         5           C   tau(   5) = (   0.0721427   1.4566880   0.3086460  )
         6           C   tau(   6) = (  -0.0011726   1.3037965   0.3888193  )
         7           C   tau(   7) = (  -0.0250591   1.2990683   0.5762114  )
         8           O   tau(   8) = (  -0.0745004   1.2898007   0.9466707  )
         9           N   tau(   9) = (   0.0643311   0.0900572   1.3041609  )
        10           C   tau(  10) = (   0.0245516   1.5648650   1.1832220  )
        11           C   tau(  11) = (   0.0947817  -0.0002200   0.5982230  )
        12           C   tau(  12) = (   0.0452821   1.5801754   0.9990839  )
        13           C   tau(  13) = (   0.1202887   0.0061425   0.4141137  )
        14           C   tau(  14) = (   0.1321879   0.2651908   1.2482712  )
        15           C   tau(  15) = (   0.0435820   0.0590965   1.4964663  )
        16           C   tau(  16) = (   0.0548619   1.3231707   0.0159116  )
        17           H   tau(  17) = (   0.1390925   1.2049741   0.0471161  )
        18           H   tau(  18) = (  -0.2943050   1.3679708   1.6071962  )
        19           H   tau(  19) = (   0.9117496   1.2877192   0.0314297  )
        20           H   tau(  20) = (  -0.0423342   1.1864885   0.3114257  )
        21           H   tau(  21) = (  -0.0286114   1.4394504   1.2379985  )
        22           H   tau(  22) = (   0.1011383   0.1019553   0.9427448  )
        23           H   tau(  23) = (   0.1816801   0.1224928   0.3491587  )
        24           H   tau(  24) = (   0.1345066   0.1167892   0.6769753  )
        25           H   tau(  25) = (  -0.0491237   0.1593766   1.5532698  )
        26           H   tau(  26) = (   0.0391984   0.3254658   1.1499815  )
        27           H   tau(  27) = (   0.1403476   0.3531964   1.3663872  )
        28           H   tau(  28) = (  -0.0078433   1.5237891   1.5192804  )
        29           H   tau(  29) = (   0.2665035   0.2513770   1.1868531  )
        30           H   tau(  30) = (   0.1750454   0.0718039   1.5638205  )
        31           H   tau(  31) = (  -0.0994191   1.1817088   0.7889054  )
        32           O   tau(  32) = (   0.2097627   0.6715731   0.7361764  )
        33           O   tau(  33) = (   0.5227983   0.1288605   1.6009207  )
        34           O   tau(  34) = (   0.4163084   0.9292941   0.9933135  )
        35           C   tau(  35) = (   0.2900268   0.6481599   0.1780848  )
        36           C   tau(  36) = (   0.6030624   0.1522737   1.0428291  )
        37           C   tau(  37) = (   0.3360443   0.9527073   1.5514052  )
        38           O   tau(  38) = (   0.4070941   0.3482481   0.2149134  )
        39           O   tau(  39) = (   0.7201296   0.4521854   1.0796577  )
        40           O   tau(  40) = (   0.2189771   1.2526190   1.5145752  )
        41           C   tau(  41) = (  -0.0557832   0.6362065   1.7114573  )
        42           C   tau(  42) = (   0.6311813   0.1642271   0.8467130  )
        43           C   tau(  43) = (   0.6818543   0.9646607   0.0180313  )
        44           C   tau(  44) = (   0.2408929   0.6562545   0.5560983  )
        45           C   tau(  45) = (   0.5539285   0.1441791   1.4208426  )
        46           C   tau(  46) = (   0.3851783   0.9446127   1.1733903  )
        47           C   tau(  47) = (   0.3142082   0.5033629   0.4759250  )
        48           C   tau(  48) = (   0.6272438   0.2970707   1.3406693  )
        49           C   tau(  49) = (   0.3118630   1.0975043   1.2535636  )
        50           C   tau(  50) = (   0.3380947   0.4986347   0.2885329  )
        51           C   tau(  51) = (   0.6511303   0.3017989   1.1532772  )
        52           C   tau(  52) = (   0.2879765   1.1022325   1.4409557  )
        53           O   tau(  53) = (   0.0136072   0.4893671   1.6475622  )
        54           O   tau(  54) = (   0.7005716   0.3110665   0.7828179  )
        55           O   tau(  55) = (   0.6124640   1.1115001   0.0819264  )
        56           N   tau(  56) = (  -0.1252244   0.8904908   1.2900720  )
        57           N   tau(  57) = (   0.5617400   1.5108099   0.4253277  )
        58           N   tau(  58) = (   0.7512956   0.7103763   0.4394166  )
        59           C   tau(  59) = (  -0.0854448   0.7644314   1.4110109  )
        60           C   tau(  60) = (   0.6015196   0.0360021   0.5462666  )
        61           C   tau(  61) = (   0.7115160   0.8364357   0.3184777  )
        62           C   tau(  62) = (   0.2182538   0.8002136   0.2665213  )
        63           C   tau(  63) = (   0.5312894   1.6010872   1.1312656  )
        64           C   tau(  64) = (   0.4078173   0.8006536   1.4629673  )
        65           C   tau(  65) = (  -0.1061753   0.7797419   1.5951504  )
        66           C   tau(  66) = (   0.5807891   0.0206917   0.7304061  )
        67           C   tau(  67) = (   0.7322465   0.8211253   0.1343382  )
        68           C   tau(  68) = (   0.1927469   0.8065761   0.4506306  )
        69           C   tau(  69) = (   0.5057824   1.5947246   1.3153749  )
        70           C   tau(  70) = (   0.4333243   0.7942910   1.2788593  )
        71           C   tau(  71) = (  -0.1930812   1.0656244   1.3459617  )
        72           C   tau(  72) = (   0.4938832   1.3356763   0.4812174  )
        73           C   tau(  73) = (   0.8191524   0.5352427   0.3835269  )
        74           C   tau(  74) = (  -0.1044753   0.8595301   1.0977666  )
        75           C   tau(  75) = (   0.5824892   1.5417706   0.2330223  )
        76           C   tau(  76) = (   0.7305464   0.7413371   0.6317220  )
        77           C   tau(  77) = (   0.2581737   0.5227371   0.8488327  )
        78           C   tau(  78) = (   0.5712093   0.2776965   1.7135784  )
        79           C   tau(  79) = (   0.3678975   1.0781301   0.8806559  )
        80           H   tau(  80) = (   0.1739431   0.4045405   0.8176295  )
        81           H   tau(  81) = (   0.4869787   0.3958930   1.6823738  )
        82           H   tau(  82) = (   0.4521280   1.1963266   0.9118604  )
        83           H   tau(  83) = (   0.2334117   0.5675372   0.9870367  )
        84           H   tau(  84) = (   0.9203761   0.2328964   0.1222924  )
        85           H   tau(  85) = (   0.3926594   1.0333300   0.7424519  )
        86           H   tau(  86) = (   0.4012860   0.4872856   0.8333160  )
        87           H   tau(  87) = (  -0.2856785   0.3131480   1.6980603  )
        88           H   tau(  88) = (   0.2247852   1.1135816   0.8961740  )
        89           H   tau(  89) = (   0.3553698   0.3860549   0.5533186  )
        90           H   tau(  90) = (   0.6684053   0.4143786   1.4180629  )
        91           H   tau(  91) = (   0.2707014   1.2148122   1.1761700  )
        92           H   tau(  92) = (  -0.0322819   0.6390169   1.3562344  )
        93           H   tau(  93) = (   0.6546825   0.1614167   0.4914901  )
        94           H   tau(  94) = (   0.6583531   0.9618503   0.3732542  )
        95           H   tau(  95) = (  -0.1620316   0.9023889   1.6514894  )
        96           H   tau(  96) = (   0.5249328   1.4989119   0.7867451  )
        97           H   tau(  97) = (   0.7881027   0.6984783   0.0780005  )
        98           H   tau(  98) = (   0.1313554   0.9229264   0.5155856  )
        99           H   tau(  99) = (   0.4443910   1.4783743   1.3803299  )
       100           H   tau( 100) = (   0.4947157   0.6779407   1.2139043  )
       101           H   tau( 101) = (   0.1785289   0.9172227   0.1877690  )
       102           H   tau( 102) = (   0.4915659   1.4840780   1.0525133  )
       103           H   tau( 103) = (   0.4475422   0.6836444   1.5417196  )
       104           H   tau( 104) = (  -0.0117695   0.9598102   1.0409644  )
       105           H   tau( 105) = (   0.6751949   1.4414905   0.1762201  )
       106           H   tau( 106) = (   0.6378407   0.6410569   0.6885255  )
       107           H   tau( 107) = (  -0.1000917   1.1258994   1.4442514  )
       108           H   tau( 108) = (   0.5868727   1.2754013   0.5795071  )
       109           H   tau( 109) = (   0.7261629   0.4749678   0.2852372  )
       110           H   tau( 110) = (  -0.2012396   1.1536300   1.2278471  )
       111           H   tau( 111) = (   0.4857248   1.2476707   0.3631028  )
       112           H   tau( 112) = (   0.8273121   0.4472372   0.5016429  )
       113           H   tau( 113) = (  -0.0530499   0.7233555   1.0749525  )
       114           H   tau( 114) = (   0.6339145   0.0770781   0.2102082  )
       115           H   tau( 115) = (   0.6791211   0.8775116   0.6545361  )
       116           H   tau( 116) = (   0.6726032   1.0518106   1.4073798  )
       117           H   tau( 117) = (   0.3595677   1.3494901   0.5426355  )
       118           H   tau( 118) = (  -0.0465321   0.5490566   0.3221088  )
       119           H   tau( 119) = (  -0.2359387   0.8722375   1.0304137  )
       120           H   tau( 120) = (   0.4510258   1.5290633   0.1656694  )
       121           H   tau( 121) = (   0.8620098   0.7286297   0.6990762  )
       122           H   tau( 122) = (   0.4124547   0.3812752   0.0758389  )
       123           H   tau( 123) = (   0.7254902   0.4191583   0.9405832  )
       124           H   tau( 124) = (   0.2136165   1.2195919   1.6536497  )

     number of k points=    16
                       cart. coord. in units 2pi/alat
        k(    1) = (   0.0000000   0.0000000   0.0000000), wk =   0.0444444
        k(    2) = (   0.0000000   0.0000000   0.1927352), wk =   0.0888889
        k(    3) = (   0.0000000   0.2082205   0.0000000), wk =   0.0888889
        k(    4) = (   0.0000000   0.2082205   0.1927352), wk =   0.1777778
        k(    5) = (   0.2000000   0.0000000   0.0432415), wk =   0.0888889
        k(    6) = (   0.2000000   0.0000000   0.2359767), wk =   0.0888889
        k(    7) = (   0.2000000   0.0000000  -0.1494936), wk =   0.0888889
        k(    8) = (   0.2000000   0.2082205   0.0432415), wk =   0.1777778
        k(    9) = (   0.2000000   0.2082205   0.2359767), wk =   0.1777778
        k(   10) = (   0.2000000   0.2082205  -0.1494936), wk =   0.1777778
        k(   11) = (   0.4000000   0.0000000   0.0864830), wk =   0.0888889
        k(   12) = (   0.4000000   0.0000000   0.2792182), wk =   0.0888889
        k(   13) = (   0.4000000   0.0000000  -0.1062521), wk =   0.0888889
        k(   14) = (   0.4000000   0.2082205   0.0864830), wk =   0.1777778
        k(   15) = (   0.4000000   0.2082205   0.2792182), wk =   0.1777778
        k(   16) = (   0.4000000   0.2082205  -0.1062521), wk =   0.1777778

     Dense  grid:   169855 G-vectors     FFT dimensions: (  50,  80,  90)

     Estimated max dynamical RAM per process >    1714.78MB

     Initial potential from superposition of free atoms

     starting charge  338.22517, renormalised to  344.00000
     Starting wfc are  316 randomized atomic wfcs

     total cpu time spent up to now is       92.8 secs

     per-process dynamical memory:  1313.0 Mb

     Self-consistent Calculation

     iteration #  1     ecut=    30.00 Ry     beta=0.70
     Davidson diagonalization with overlap
     ethr =  1.00E-02,  avg # of iterations =  2.0

     total cpu time spent up to now is      281.0 secs

     total energy              =   -1073.67889894 Ry
     Harris-Foulkes estimate   =   -1088.65198221 Ry
     estimated scf accuracy    <      22.77814746 Ry

     iteration #  2     ecut=    30.00 Ry     beta=0.70
     Davidson diagonalization with overlap
     ethr =  6.62E-03,  avg # of iterations =  4.0

     total cpu time spent up to now is      477.7 secs

     total energy              =   -1075.97737402 Ry
     Harris-Foulkes estimate   =   -1083.60592549 Ry
     estimated scf accuracy    <      13.84806345 Ry

     iteration #  3     ecut=    30.00 Ry     beta=0.70
     Davidson diagonalization with overlap
     ethr =  4.03E-03,  avg # of iterations =  4.0

     total cpu time spent up to now is      668.6 secs

     total energy              =   -1079.10348512 Ry
     Harris-Foulkes estimate   =   -1080.80162961 Ry
     estimated scf accuracy    <       3.50464271 Ry

     iteration #  4     ecut=    30.00 Ry     beta=0.70
     Davidson diagonalization with overlap
     ethr =  1.02E-03,  avg # of iterations =  4.0

     total cpu time spent up to now is      852.0 secs

     total energy              =   -1079.83307365 Ry
     Harris-Foulkes estimate   =   -1080.23629454 Ry
     estimated scf accuracy    <       0.94719147 Ry

     iteration #  5     ecut=    30.00 Ry     beta=0.70
     Davidson diagonalization with overlap
     ethr =  2.75E-04,  avg # of iterations =  4.0

     total cpu time spent up to now is     1023.4 secs

     total energy              =   -1080.00960365 Ry
     Harris-Foulkes estimate   =   -1080.03568643 Ry
     estimated scf accuracy    <       0.05292876 Ry

     iteration #  6     ecut=    30.00 Ry     beta=0.70
     Davidson diagonalization with overlap
     ethr =  1.54E-05,  avg # of iterations =  4.0

     total cpu time spent up to now is     1215.6 secs

     total energy              =   -1080.02355437 Ry
     Harris-Foulkes estimate   =   -1080.02578192 Ry
     estimated scf accuracy    <       0.00501914 Ry

     iteration #  7     ecut=    30.00 Ry     beta=0.70
     Davidson diagonalization with overlap
     ethr =  1.46E-06,  avg # of iterations =  4.0

     total cpu time spent up to now is     1401.9 secs

     total energy              =   -1080.02461088 Ry
     Harris-Foulkes estimate   =   -1080.02518656 Ry
     estimated scf accuracy    <       0.00124030 Ry

     iteration #  8     ecut=    30.00 Ry     beta=0.70
     Davidson diagonalization with overlap
     ethr =  3.61E-07,  avg # of iterations =  4.0

     total cpu time spent up to now is     1588.5 secs

     total energy              =   -1080.02490401 Ry
     Harris-Foulkes estimate   =   -1080.02498216 Ry
     estimated scf accuracy    <       0.00018045 Ry

     iteration #  9     ecut=    30.00 Ry     beta=0.70
     Davidson diagonalization with overlap
     ethr =  5.25E-08,  avg # of iterations =  4.0

     total cpu time spent up to now is     1791.1 secs

     total energy              =   -1080.02494237 Ry
     Harris-Foulkes estimate   =   -1080.02495659 Ry
     estimated scf accuracy    <       0.00003105 Ry

     iteration # 10     ecut=    30.00 Ry     beta=0.70
     Davidson diagonalization with overlap
     ethr =  9.03E-09,  avg # of iterations =  4.0

     total cpu time spent up to now is     1983.3 secs

     total energy              =   -1080.02494883 Ry
     Harris-Foulkes estimate   =   -1080.02495035 Ry
     estimated scf accuracy    <       0.00000334 Ry

     iteration # 11     ecut=    30.00 Ry     beta=0.70
     Davidson diagonalization with overlap
     ethr =  9.72E-10,  avg # of iterations =  3.0

     total cpu time spent up to now is     2184.3 secs

     total energy              =   -1080.02494970 Ry
     Harris-Foulkes estimate   =   -1080.02494988 Ry
     estimated scf accuracy    <       0.00000051 Ry

     iteration # 12     ecut=    30.00 Ry     beta=0.70
     Davidson diagonalization with overlap
     ethr =  1.48E-10,  avg # of iterations =  3.0

     total cpu time spent up to now is     2378.6 secs

     End of self-consistent calculation

          k = 0.0000 0.0000 0.0000 ( 21265 PWs)   bands (ev):

   -20.7019 -20.7010 -20.6584 -20.6581 -20.0532 -20.0518 -20.0498 -20.0490
   -18.8374 -18.8352 -18.8348 -18.8283 -18.0371 -18.0368 -18.0361 -18.0326
   -14.9400 -14.9357 -14.9353 -14.9311 -13.2504 -13.2299 -13.1630 -13.1363
   -12.6946 -12.6802 -12.6064 -12.6003 -12.2449 -12.2238 -12.1956 -12.1757
   -11.8673 -11.8487 -11.8289 -11.8067 -11.3993 -11.3721 -11.3514 -11.3447
   -10.7887 -10.7427 -10.7081 -10.6890  -9.1202  -9.1029  -9.0905  -9.0700
    -8.7844  -8.7502  -8.7345  -8.7251  -8.3786  -8.3329  -8.2115  -8.1709
    -7.3825  -7.3724  -7.2427  -7.2222  -6.9789  -6.9279  -6.9184  -6.8690
    -6.7391  -6.6927  -6.6800  -6.6196  -6.2094  -6.1745  -6.1731  -6.1631
    -5.8279  -5.8108  -5.8088  -5.7968  -5.7881  -5.7001  -5.6388  -5.6292
    -5.5003  -5.4643  -5.4222  -5.3534  -5.1881  -5.1859  -5.0777  -5.0656
    -4.9231  -4.8942  -4.8857  -4.8583  -4.6846  -4.6244  -4.5730  -4.5213
    -4.3525  -4.2517  -4.2446  -4.1761  -4.1601  -4.1148  -4.1115  -4.0259
    -3.9644  -3.9466  -3.9057  -3.8288  -3.6971  -3.6544  -3.5920  -3.5917
    -3.5512  -3.5400  -3.5041  -3.4545  -3.4489  -3.4323  -3.3930  -3.3394
    -3.2051  -3.1718  -3.1318  -3.1190  -3.0742  -3.0190  -3.0132  -3.0039
    -2.9615  -2.9185  -2.8913  -2.8194  -2.7730  -2.7579  -2.7215  -2.6827
    -2.5106  -2.4589  -2.4343  -2.4293  -2.0256  -2.0235  -2.0089  -1.9910
    -1.8665  -1.8376  -1.7905  -1.7056  -1.6514  -1.5774  -1.4745  -1.4358
    -1.2170  -1.1895  -1.0905  -1.0140   0.2275   0.2721   0.2897   0.3001
     0.3214   0.3307   0.3549   0.3883   0.5574   0.6438   0.6928   0.8291
     1.1528   1.1727   1.3413   1.4026

          k = 0.0000 0.0000 0.1927 ( 21253 PWs)   bands (ev):

   -20.7017 -20.7012 -20.6583 -20.6582 -20.0528 -20.0521 -20.0497 -20.0493
   -18.8370 -18.8359 -18.8330 -18.8298 -18.0368 -18.0363 -18.0357 -18.0336
   -14.9395 -14.9378 -14.9329 -14.9314 -13.2483 -13.2373 -13.1608 -13.1468
   -12.6821 -12.6783 -12.6035 -12.5961 -12.2391 -12.2284 -12.1887 -12.1790
   -11.8629 -11.8533 -11.8178 -11.8108 -11.4005 -11.3892 -11.3615 -11.3595
   -10.7632 -10.7565 -10.7018 -10.6862  -9.1320  -9.1148  -9.0680  -9.0653
    -8.7586  -8.7575  -8.7349  -8.7123  -8.3470  -8.3351  -8.2263  -8.2205
    -7.3714  -7.3405  -7.3040  -7.2684  -6.9461  -6.9264  -6.9203  -6.8889
    -6.7188  -6.7026  -6.6669  -6.5934  -6.1946  -6.1720  -6.1359  -6.1246
    -5.9153  -5.9004  -5.7730  -5.7581  -5.7528  -5.7166  -5.6574  -5.6367
    -5.4533  -5.4287  -5.4144  -5.3924  -5.1717  -5.1658  -5.1027  -5.0882
    -4.9673  -4.9391  -4.8686  -4.8501  -4.6584  -4.6327  -4.5493  -4.5363
    -4.2946  -4.2387  -4.2089  -4.2012  -4.1906  -4.1578  -4.1130  -4.0515
    -3.9466  -3.9017  -3.8611  -3.8431  -3.6730  -3.6674  -3.6441  -3.6196
    -3.5304  -3.5295  -3.4855  -3.4717  -3.4626  -3.4342  -3.4028  -3.3499
    -3.2016  -3.2016  -3.1640  -3.1159  -3.0924  -3.0499  -2.9937  -2.9808
    -2.9070  -2.9014  -2.8714  -2.8048  -2.7559  -2.7536  -2.7392  -2.6908
    -2.5147  -2.4842  -2.4358  -2.4153  -2.0300  -2.0194  -2.0173  -2.0032
    -1.8725  -1.8530  -1.7665  -1.7323  -1.6172  -1.5899  -1.4635  -1.4472
    -1.1781  -1.1411  -1.1154  -1.0537   0.2496   0.2887   0.2910   0.3099
     0.3160   0.3189   0.3473   0.3510   0.5948   0.6352   0.7118   0.7745
     1.1457   1.1576   1.3785   1.4056

          k = 0.0000 0.2082 0.0000 ( 21245 PWs)   bands (ev):

   -20.7017 -20.7012 -20.6583 -20.6582 -20.0529 -20.0522 -20.0496 -20.0492
   -18.8374 -18.8369 -18.8320 -18.8294 -18.0373 -18.0370 -18.0349 -18.0333
   -14.9389 -14.9367 -14.9343 -14.9321 -13.2454 -13.2351 -13.1565 -13.1431
   -12.6910 -12.6839 -12.6044 -12.6014 -12.2343 -12.2114 -12.2097 -12.1874
   -11.8566 -11.8389 -11.8372 -11.8182 -11.3870 -11.3651 -11.3626 -11.3516
   -10.7768 -10.7536 -10.7041 -10.6946  -9.1125  -9.0980  -9.0979  -9.0813
    -8.7798  -8.7662  -8.7202  -8.7191  -8.3386  -8.2926  -8.2554  -8.2113
    -7.3504  -7.3370  -7.2804  -7.2628  -6.9599  -6.9279  -6.9090  -6.8800
    -6.7275  -6.7072  -6.6695  -6.6428  -6.2086  -6.1937  -6.1668  -6.1584
    -5.8270  -5.8212  -5.8132  -5.7957  -5.7415  -5.7050  -5.6718  -5.6646
    -5.4757  -5.4593  -5.3935  -5.3575  -5.1911  -5.1883  -5.0714  -5.0698
    -4.9191  -4.9041  -4.8795  -4.8622  -4.6472  -4.6025  -4.5865  -4.5553
    -4.2936  -4.2498  -4.2294  -4.1812  -4.1798  -4.1576  -4.0871  -4.0281
    -3.9657  -3.9452  -3.8996  -3.8525  -3.6777  -3.6380  -3.6258  -3.5666
    -3.5645  -3.5418  -3.5010  -3.4851  -3.4261  -3.4084  -3.3817  -3.3688
    -3.2279  -3.2040  -3.1386  -3.1005  -3.0456  -3.0425  -2.9964  -2.9831
    -2.9756  -2.9523  -2.8787  -2.8372  -2.7692  -2.7568  -2.7252  -2.7027
    -2.4813  -2.4569  -2.4219  -2.4207  -2.0254  -2.0229  -2.0110  -1.9964
    -1.8351  -1.8032  -1.8009  -1.7238  -1.6557  -1.6203  -1.4632  -1.4466
    -1.2128  -1.1972  -1.0702  -1.0322   0.2371   0.2622   0.2998   0.3062
     0.3224   0.3362   0.3452   0.3773   0.5790   0.6220   0.7323   0.7996
     1.1546   1.1648   1.3595   1.3899

          k = 0.0000 0.2082 0.1927 ( 21233 PWs)   bands (ev):

   -20.7016 -20.7013 -20.6583 -20.6582 -20.0526 -20.0522 -20.0496 -20.0494
   -18.8369 -18.8364 -18.8319 -18.8305 -18.0367 -18.0361 -18.0355 -18.0342
   -14.9388 -14.9378 -14.9330 -14.9321 -13.2452 -13.2396 -13.1580 -13.1509
   -12.6795 -12.6775 -12.6030 -12.5992 -12.2287 -12.2186 -12.2001 -12.1905
   -11.8553 -11.8491 -11.8227 -11.8184 -11.3914 -11.3810 -11.3710 -11.3646
   -10.7526 -10.7457 -10.7112 -10.6998  -9.1159  -9.1008  -9.0830  -9.0745
    -8.7659  -8.7642  -8.7251  -8.7159  -8.3182  -8.3056  -8.2564  -8.2454
    -7.3478  -7.3200  -7.3112  -7.2811  -6.9484  -6.9333  -6.9316  -6.9105
    -6.7091  -6.6826  -6.6688  -6.6171  -6.1788  -6.1578  -6.1473  -6.1323
    -5.8939  -5.8793  -5.8183  -5.8131  -5.7473  -5.7230  -5.6672  -5.6508
    -5.4145  -5.4062  -5.3881  -5.3808  -5.1818  -5.1740  -5.0908  -5.0839
    -4.9484  -4.9289  -4.9005  -4.8828  -4.6206  -4.6034  -4.5618  -4.5531
    -4.2742  -4.2474  -4.2339  -4.2082  -4.1703  -4.1318  -4.1229  -4.0735
    -3.9171  -3.8862  -3.8587  -3.8514  -3.6760  -3.6577  -3.6296  -3.6207
    -3.5505  -3.5226  -3.4996  -3.4855  -3.4611  -3.4416  -3.3972  -3.3765
    -3.1993  -3.1789  -3.1577  -3.1065  -3.0986  -3.0664  -2.9849  -2.9753
    -2.9551  -2.9385  -2.8469  -2.8164  -2.7641  -2.7471  -2.7262  -2.7032
    -2.4982  -2.4820  -2.4220  -2.4119  -2.0271  -2.0219  -2.0107  -2.0034
    -1.8330  -1.8148  -1.7759  -1.7433  -1.6458  -1.6305  -1.4555  -1.4488
    -1.1739  -1.1571  -1.0952  -1.0667   0.2567   0.2759   0.2985   0.3041
     0.3198   0.3309   0.3416   0.3517   0.6022   0.6232   0.7325   0.7634
     1.1483   1.1547   1.3845   1.3982

          k = 0.2000 0.0000 0.0432 ( 21248 PWs)   bands (ev):

   -20.7018 -20.7011 -20.6583 -20.6581 -20.0530 -20.0519 -20.0498 -20.0491
   -18.8372 -18.8354 -18.8341 -18.8289 -18.0369 -18.0363 -18.0361 -18.0329
   -14.9405 -14.9368 -14.9359 -14.9324 -13.2425 -13.2216 -13.1709 -13.1450
   -12.6871 -12.6748 -12.6123 -12.6081 -12.2434 -12.2271 -12.1918 -12.1765
   -11.8660 -11.8511 -11.8270 -11.8092 -11.3963 -11.3744 -11.3497 -11.3441
   -10.7823 -10.7378 -10.7171 -10.6943  -9.1202  -9.1066  -9.0876  -9.0704
    -8.7789  -8.7492  -8.7359  -8.7303  -8.3744  -8.3374  -8.2090  -8.1761
    -7.3837  -7.3748  -7.2414  -7.2240  -6.9742  -6.9332  -6.9136  -6.8745
    -6.7361  -6.6866  -6.6852  -6.6274  -6.2067  -6.1795  -6.1718  -6.1636
    -5.8322  -5.8077  -5.7892  -5.7862  -5.7238  -5.6424  -5.5970  -5.5763
    -5.5073  -5.4698  -5.4245  -5.3557  -5.2153  -5.1812  -5.1011  -5.0917
    -4.9206  -4.8999  -4.8950  -4.8570  -4.6795  -4.6309  -4.5682  -4.5295
    -4.3370  -4.2773  -4.2570  -4.1969  -4.1593  -4.1055  -4.0824  -4.0275
    -3.9592  -3.9503  -3.8999  -3.8389  -3.7032  -3.6953  -3.6482  -3.5772
    -3.5539  -3.5378  -3.5261  -3.5098  -3.4552  -3.4068  -3.3830  -3.3704
    -3.2180  -3.1693  -3.1497  -3.1155  -3.0828  -3.0413  -3.0024  -2.9966
    -2.9390  -2.9160  -2.9060  -2.8383  -2.7623  -2.7500  -2.7447  -2.6920
    -2.5090  -2.4423  -2.4414  -2.4199  -2.0310  -2.0303  -2.0045  -1.9910
    -1.8589  -1.8400  -1.7569  -1.7152  -1.6148  -1.6015  -1.4502  -1.4494
    -1.2171  -1.1777  -1.1056  -1.0483   0.2500   0.2773   0.2903   0.2992
     0.3283   0.3436   0.3568   0.3824   0.5715   0.6593   0.6819   0.8123
     1.1567   1.1704   1.3197   1.3667

          k = 0.2000 0.0000 0.2360 ( 21217 PWs)   bands (ev):

   -20.7014 -20.7013 -20.6583 -20.6581 -20.0525 -20.0523 -20.0496 -20.0494
   -18.8365 -18.8363 -18.8317 -18.8311 -18.0365 -18.0364 -18.0348 -18.0345
   -14.9408 -14.9375 -14.9341 -14.9327 -13.2390 -13.2309 -13.1666 -13.1573
   -12.6756 -12.6701 -12.6088 -12.6063 -12.2344 -12.2341 -12.1842 -12.1811
   -11.8585 -11.8576 -11.8189 -11.8112 -11.3980 -11.3901 -11.3653 -11.3547
   -10.7599 -10.7547 -10.7021 -10.6935  -9.1320  -9.1159  -9.0745  -9.0587
    -8.7604  -8.7559  -8.7282  -8.7179  -8.3480  -8.3344  -8.2354  -8.2150
    -7.3743  -7.3453  -7.2996  -7.2703  -6.9402  -6.9320  -6.9121  -6.8974
    -6.7223  -6.7048  -6.6418  -6.6179  -6.1858  -6.1795  -6.1307  -6.1279
    -5.9270  -5.8861  -5.7609  -5.7562  -5.6687  -5.6617  -5.6209  -5.5880
    -5.4717  -5.4342  -5.4026  -5.3954  -5.2002  -5.1634  -5.1301  -5.1041
    -4.9596  -4.9511  -4.8800  -4.8463  -4.6501  -4.6466  -4.5564  -4.5328
    -4.2790  -4.2647  -4.2365  -4.2049  -4.1804  -4.1370  -4.0974  -4.0620
    -3.9371  -3.9142  -3.8525  -3.8430  -3.6918  -3.6900  -3.6469  -3.6390
    -3.6099  -3.5229  -3.4906  -3.4820  -3.4772  -3.4446  -3.3975  -3.3635
    -3.2278  -3.1897  -3.1540  -3.1287  -3.0837  -3.0310  -3.0103  -2.9841
    -2.9268  -2.8839  -2.8610  -2.8372  -2.7881  -2.7530  -2.7068  -2.7061
    -2.5032  -2.4959  -2.4262  -2.4054  -2.0279  -2.0254  -2.0198  -2.0022
    -1.8581  -1.8563  -1.7571  -1.7141  -1.6081  -1.5920  -1.4773  -1.4258
    -1.1546  -1.1512  -1.1149  -1.1076   0.2695   0.2967   0.3032   0.3070
     0.3124   0.3319   0.3365   0.3603   0.6087   0.6516   0.7019   0.7536
     1.1394   1.1647   1.3608   1.3664

          k = 0.2000 0.0000-0.1495 ( 21232 PWs)   bands (ev):

   -20.7017 -20.7010 -20.6583 -20.6582 -20.0531 -20.0517 -20.0500 -20.0491
   -18.8373 -18.8353 -18.8345 -18.8286 -18.0368 -18.0365 -18.0361 -18.0328
   -14.9393 -14.9390 -14.9341 -14.9327 -13.2429 -13.2293 -13.1690 -13.1516
   -12.6799 -12.6689 -12.6114 -12.6014 -12.2422 -12.2247 -12.1896 -12.1770
   -11.8642 -11.8476 -11.8271 -11.8063 -11.4079 -11.3821 -11.3646 -11.3571
   -10.7709 -10.7578 -10.7041 -10.6735  -9.1295  -9.1180  -9.0774  -9.0570
    -8.7684  -8.7601  -8.7293  -8.7048  -8.3596  -8.3260  -8.2403  -8.2099
    -7.3678  -7.3497  -7.2987  -7.2734  -6.9485  -6.9250  -6.9216  -6.8862
    -6.7150  -6.7075  -6.6750  -6.5812  -6.1949  -6.1651  -6.1409  -6.1259
    -5.9017  -5.8966  -5.7837  -5.7772  -5.7200  -5.6360  -5.6036  -5.5514
    -5.4406  -5.4388  -5.4182  -5.3698  -5.2088  -5.2037  -5.1255  -5.1004
    -4.9730  -4.9459  -4.8959  -4.8239  -4.6653  -4.6283  -4.5650  -4.5206
    -4.3187  -4.2662  -4.2178  -4.2007  -4.1521  -4.1516  -4.1212  -4.0320
    -3.9452  -3.9003  -3.8662  -3.8408  -3.6987  -3.6897  -3.6475  -3.6156
    -3.5484  -3.5287  -3.5274  -3.5033  -3.4959  -3.4633  -3.3819  -3.3585
    -3.2249  -3.1726  -3.1503  -3.1463  -3.0528  -3.0395  -3.0163  -2.9737
    -2.9487  -2.9420  -2.8714  -2.8446  -2.7530  -2.7427  -2.7120  -2.6888
    -2.5265  -2.4650  -2.4347  -2.3832  -2.0359  -2.0218  -2.0108  -2.0048
    -1.8670  -1.8456  -1.7760  -1.6931  -1.6125  -1.5885  -1.4778  -1.4268
    -1.2251  -1.1659  -1.1084  -1.0429   0.2487   0.2807   0.2895   0.3164
     0.3177   0.3380   0.3470   0.3826   0.5964   0.6384   0.7045   0.7736
     1.1552   1.1631   1.3379   1.3743

          k = 0.2000 0.2082 0.0432 ( 21230 PWs)   bands (ev):

   -20.7016 -20.7012 -20.6583 -20.6582 -20.0527 -20.0521 -20.0496 -20.0493
   -18.8372 -18.8366 -18.8321 -18.8298 -18.0370 -18.0366 -18.0350 -18.0336
   -14.9394 -14.9373 -14.9355 -14.9335 -13.2374 -13.2269 -13.1646 -13.1517
   -12.6840 -12.6779 -12.6108 -12.6087 -12.2331 -12.2182 -12.2023 -12.1880
   -11.8556 -11.8431 -11.8337 -11.8200 -11.3848 -11.3688 -11.3587 -11.3512
   -10.7709 -10.7485 -10.7121 -10.7007  -9.1140  -9.1060  -9.0903  -9.0801
    -8.7749  -8.7630  -8.7251  -8.7231  -8.3346  -8.2975  -8.2519  -8.2163
    -7.3518  -7.3408  -7.2785  -7.2643  -6.9554  -6.9237  -6.9132  -6.8842
    -6.7282  -6.7077  -6.6698  -6.6459  -6.2056  -6.1907  -6.1721  -6.1619
    -5.8331  -5.8198  -5.7796  -5.7771  -5.6933  -5.6564  -5.6256  -5.6135
    -5.4814  -5.4658  -5.3950  -5.3580  -5.2095  -5.1915  -5.1017  -5.0926
    -4.9144  -4.9037  -4.8853  -4.8640  -4.6438  -4.6083  -4.5840  -4.5589
    -4.2879  -4.2627  -4.2382  -4.1871  -4.1811  -4.1555  -4.0716  -4.0275
    -3.9690  -3.9436  -3.9096  -3.8674  -3.6915  -3.6358  -3.6304  -3.6134
    -3.5644  -3.5541  -3.5433  -3.5314  -3.4396  -3.3948  -3.3814  -3.3657
    -3.2329  -3.2054  -3.1392  -3.1106  -3.0582  -3.0328  -3.0251  -2.9718
    -2.9631  -2.9401  -2.8904  -2.8449  -2.7606  -2.7578  -2.7306  -2.7033
    -2.4906  -2.4623  -2.4218  -2.4122  -2.0292  -2.0258  -2.0065  -1.9961
    -1.8319  -1.8064  -1.7831  -1.7265  -1.6332  -1.6025  -1.4517  -1.4497
    -1.2125  -1.1910  -1.0919  -1.0632   0.2570   0.2754   0.3012   0.3056
     0.3320   0.3377   0.3466   0.3735   0.5936   0.6374   0.7183   0.7830
     1.1581   1.1651   1.3340   1.3574

          k = 0.2000 0.2082 0.2360 ( 21219 PWs)   bands (ev):

   -20.7014 -20.7013 -20.6583 -20.6582 -20.0524 -20.0522 -20.0497 -20.0495
   -18.8365 -18.8363 -18.8315 -18.8312 -18.0361 -18.0360 -18.0352 -18.0350
   -14.9398 -14.9380 -14.9341 -14.9332 -13.2363 -13.2322 -13.1652 -13.1605
   -12.6723 -12.6694 -12.6099 -12.6083 -12.2250 -12.2239 -12.1950 -12.1927
   -11.8544 -11.8501 -11.8241 -11.8182 -11.3893 -11.3806 -11.3730 -11.3627
   -10.7457 -10.7403 -10.7164 -10.7093  -9.1177  -9.1006  -9.0868  -9.0702
    -8.7663  -8.7615  -8.7242  -8.7190  -8.3186  -8.3057  -8.2601  -8.2447
    -7.3510  -7.3286  -7.3047  -7.2815  -6.9422  -6.9389  -6.9253  -6.9180
    -6.7043  -6.6813  -6.6600  -6.6354  -6.1729  -6.1595  -6.1429  -6.1389
    -5.9071  -5.8771  -5.8102  -5.7884  -5.6733  -5.6705  -5.6245  -5.6068
    -5.4235  -5.4033  -5.3950  -5.3728  -5.2062  -5.1818  -5.1197  -5.1037
    -4.9441  -4.9343  -4.9035  -4.8821  -4.6188  -4.6084  -4.5670  -4.5482
    -4.2710  -4.2498  -4.2376  -4.2209  -4.1710  -4.1356  -4.1072  -4.0737
    -3.9290  -3.8896  -3.8647  -3.8478  -3.6930  -3.6635  -3.6523  -3.6357
    -3.6007  -3.5511  -3.5071  -3.4916  -3.4586  -3.4526  -3.4089  -3.3873
    -3.2115  -3.1686  -3.1461  -3.1214  -3.0960  -3.0484  -3.0200  -2.9724
    -2.9504  -2.9079  -2.8616  -2.8435  -2.7651  -2.7415  -2.7275  -2.7019
    -2.5017  -2.4902  -2.4173  -2.4067  -2.0307  -2.0265  -2.0071  -2.0004
    -1.8352  -1.8121  -1.7637  -1.7391  -1.6374  -1.6017  -1.4601  -1.4348
    -1.1578  -1.1523  -1.1176  -1.1128   0.2765   0.2905   0.3045   0.3076
     0.3198   0.3343   0.3364   0.3528   0.6173   0.6390   0.7191   0.7448
     1.1455   1.1583   1.3615   1.3648

          k = 0.2000 0.2082-0.1495 ( 21235 PWs)   bands (ev):

   -20.7016 -20.7012 -20.6583 -20.6582 -20.0527 -20.0520 -20.0497 -20.0493
   -18.8373 -18.8367 -18.8321 -18.8296 -18.0370 -18.0367 -18.0350 -18.0335
   -14.9389 -14.9385 -14.9343 -14.9334 -13.2393 -13.2324 -13.1652 -13.1564
   -12.6759 -12.6702 -12.6100 -12.6048 -12.2305 -12.2130 -12.2039 -12.1888
   -11.8567 -11.8454 -11.8285 -11.8152 -11.3971 -11.3791 -11.3705 -11.3624
   -10.7614 -10.7510 -10.7073 -10.6882  -9.1139  -9.1030  -9.0876  -9.0718
    -8.7724  -8.7700  -8.7184  -8.7087  -8.3306  -8.2964  -8.2694  -8.2368
    -7.3448  -7.3267  -7.3073  -7.2867  -6.9522  -6.9366  -6.9289  -6.9075
    -6.7156  -6.6930  -6.6598  -6.6035  -6.1841  -6.1631  -6.1423  -6.1259
    -5.8889  -5.8757  -5.8331  -5.8091  -5.7062  -5.6663  -5.5970  -5.5707
    -5.4215  -5.4066  -5.3897  -5.3588  -5.2201  -5.2013  -5.1233  -5.1065
    -4.9562  -4.9312  -4.9148  -4.8655  -4.6262  -4.5978  -4.5752  -4.5419
    -4.2775  -4.2587  -4.2389  -4.1988  -4.1633  -4.1470  -4.1145  -4.0620
    -3.9038  -3.8940  -3.8693  -3.8457  -3.7058  -3.6748  -3.6319  -3.6219
    -3.5588  -3.5570  -3.5356  -3.5279  -3.4828  -3.4667  -3.3795  -3.3711
    -3.2089  -3.1806  -3.1396  -3.1106  -3.0905  -3.0427  -3.0327  -2.9789
    -2.9649  -2.9198  -2.8793  -2.8525  -2.7717  -2.7534  -2.6938  -2.6824
    -2.5129  -2.4810  -2.4097  -2.3867  -2.0290  -2.0197  -2.0144  -2.0045
    -1.8276  -1.8147  -1.7812  -1.7247  -1.6273  -1.6051  -1.4632  -1.4380
    -1.2175  -1.1892  -1.0886  -1.0574   0.2548   0.2719   0.2972   0.3077
     0.3277   0.3349   0.3546   0.3751   0.6063   0.6282   0.7256   0.7602
     1.1565   1.1611   1.3461   1.3645

          k = 0.4000 0.0000 0.0865 ( 21240 PWs)   bands (ev):

   -20.7015 -20.7012 -20.6582 -20.6581 -20.0526 -20.0522 -20.0496 -20.0493
   -18.8367 -18.8360 -18.8325 -18.8305 -18.0365 -18.0362 -18.0352 -18.0339
   -14.9407 -14.9393 -14.9363 -14.9350 -13.2221 -13.2045 -13.1870 -13.1675
   -12.6692 -12.6633 -12.6256 -12.6253 -12.2393 -12.2334 -12.1848 -12.1793
   -11.8621 -11.8565 -11.8220 -11.8154 -11.3889 -11.3805 -11.3462 -11.3440
   -10.7644 -10.7396 -10.7246 -10.7080  -9.1185  -9.1134  -9.0808  -9.0739
    -8.7647  -8.7499  -8.7405  -8.7392  -8.3632  -8.3491  -8.2010  -8.1885
    -7.3840  -7.3802  -7.2367  -7.2296  -6.9620  -6.9464  -6.9019  -6.8873
    -6.7236  -6.7039  -6.6676  -6.6462  -6.1989  -6.1889  -6.1689  -6.1658
    -5.8185  -5.8090  -5.7830  -5.7828  -5.5800  -5.5233  -5.5137  -5.4863
    -5.4835  -5.4441  -5.4143  -5.3562  -5.2859  -5.2259  -5.1934  -5.1673
    -4.9142  -4.9124  -4.8924  -4.8713  -4.6649  -4.6470  -4.5585  -4.5454
    -4.3016  -4.2903  -4.2619  -4.2334  -4.1436  -4.0821  -4.0709  -4.0320
    -3.9594  -3.9593  -3.8827  -3.8609  -3.7562  -3.7348  -3.6835  -3.6260
    -3.5965  -3.5927  -3.5316  -3.5285  -3.4643  -3.4306  -3.3745  -3.3664
    -3.1876  -3.1638  -3.1569  -3.1140  -3.0937  -3.0913  -2.9770  -2.9699
    -2.9239  -2.9194  -2.9073  -2.8719  -2.7831  -2.7816  -2.7219  -2.7063
    -2.4933  -2.4639  -2.4191  -2.4125  -2.0357  -2.0352  -2.0028  -1.9975
    -1.8468  -1.8422  -1.7143  -1.7142  -1.6063  -1.5849  -1.4488  -1.4315
    -1.1964  -1.1625  -1.1426  -1.1254   0.2850   0.2888   0.2903   0.3031
     0.3444   0.3548   0.3617   0.3713   0.6053   0.6468   0.7014   0.7610
     1.1836   1.1881   1.2715   1.2889

          k = 0.4000 0.0000 0.2792 ( 21260 PWs)   bands (ev):

   -20.7015 -20.7011 -20.6582 -20.6581 -20.0529 -20.0518 -20.0499 -20.0492
   -18.8370 -18.8356 -18.8336 -18.8294 -18.0365 -18.0362 -18.0358 -18.0333
   -14.9419 -14.9373 -14.9367 -14.9350 -13.2196 -13.2178 -13.1796 -13.1767
   -12.6651 -12.6480 -12.6255 -12.6243 -12.2397 -12.2289 -12.1836 -12.1792
   -11.8609 -11.8507 -11.8286 -11.8073 -11.4057 -11.3817 -11.3676 -11.3525
   -10.7676 -10.7536 -10.7086 -10.6807  -9.1294  -9.1200  -9.0818  -9.0526
    -8.7679  -8.7604  -8.7201  -8.7129  -8.3602  -8.3258  -8.2476  -8.2084
    -7.3721  -7.3564  -7.2902  -7.2788  -6.9396  -6.9331  -6.9080  -6.9007
    -6.7225  -6.7087  -6.6441  -6.6114  -6.1846  -6.1734  -6.1348  -6.1293
    -5.9172  -5.8877  -5.7736  -5.7583  -5.5375  -5.5203  -5.4913  -5.4810
    -5.4705  -5.4295  -5.3892  -5.3647  -5.2884  -5.2405  -5.1938  -5.1935
    -4.9661  -4.9610  -4.9082  -4.8247  -4.6597  -4.6411  -4.5723  -4.5184
    -4.3046  -4.2855  -4.2397  -4.1975  -4.1640  -4.1218  -4.0924  -4.0235
    -3.9292  -3.9230  -3.8504  -3.8486  -3.7329  -3.7270  -3.7167  -3.6752
    -3.6262  -3.5511  -3.5502  -3.5407  -3.4596  -3.4525  -3.3873  -3.3695
    -3.2483  -3.1679  -3.1289  -3.1110  -3.0764  -3.0744  -3.0121  -2.9920
    -2.9311  -2.9181  -2.8852  -2.8597  -2.7881  -2.7303  -2.7236  -2.6917
    -2.5180  -2.4674  -2.4221  -2.3743  -2.0329  -2.0285  -2.0167  -2.0071
    -1.8478  -1.8469  -1.7493  -1.6889  -1.6019  -1.5752  -1.4657  -1.4189
    -1.2279  -1.1550  -1.1354  -1.1014   0.2783   0.2943   0.3000   0.3161
     0.3185   0.3449   0.3491   0.3926   0.6287   0.6654   0.6884   0.7171
     1.1635   1.2024   1.2884   1.2948

          k = 0.4000 0.0000-0.1063 ( 21255 PWs)   bands (ev):

   -20.7017 -20.7010 -20.6583 -20.6581 -20.0531 -20.0516 -20.0501 -20.0490
   -18.8372 -18.8352 -18.8348 -18.8285 -18.0366 -18.0365 -18.0360 -18.0326
   -14.9412 -14.9386 -14.9356 -14.9354 -13.2275 -13.2093 -13.1889 -13.1676
   -12.6673 -12.6500 -12.6258 -12.6203 -12.2425 -12.2252 -12.1869 -12.1766
   -11.8632 -11.8429 -11.8353 -11.8054 -11.4097 -11.3789 -11.3676 -11.3536
   -10.7726 -10.7573 -10.7063 -10.6718  -9.1250  -9.1241  -9.0831  -9.0521
    -8.7721  -8.7622  -8.7234  -8.7036  -8.3652  -8.3227  -8.2496  -8.2063
    -7.3641  -7.3628  -7.2894  -7.2811  -6.9460  -6.9273  -6.9172  -6.8909
    -6.7169  -6.7120  -6.6649  -6.5880  -6.1895  -6.1652  -6.1411  -6.1287
    -5.9030  -5.8943  -5.7878  -5.7648  -5.5854  -5.4772  -5.4770  -5.4726
    -5.4488  -5.4116  -5.4049  -5.3356  -5.3290  -5.2643  -5.2004  -5.1806
    -4.9737  -4.9599  -4.9147  -4.8125  -4.6659  -4.6326  -4.5750  -4.5134
    -4.3184  -4.3085  -4.2226  -4.1967  -4.1386  -4.1383  -4.1160  -3.9871
    -3.9365  -3.9089  -3.8691  -3.8446  -3.7430  -3.7357  -3.6794  -3.6704
    -3.6097  -3.5700  -3.5524  -3.5407  -3.4809  -3.4613  -3.3738  -3.3600
    -3.2492  -3.1496  -3.1493  -3.1132  -3.0835  -3.0801  -3.0071  -2.9934
    -2.9650  -2.9189  -2.8809  -2.8619  -2.7657  -2.7371  -2.7081  -2.6964
    -2.5227  -2.4517  -2.4246  -2.3660  -2.0372  -2.0279  -2.0102  -2.0088
    -1.8494  -1.8437  -1.7497  -1.6883  -1.6138  -1.5612  -1.4585  -1.4313
    -1.2606  -1.1725  -1.1216  -1.0726   0.2745   0.2788   0.2933   0.3203
     0.3217   0.3503   0.3518   0.4051   0.6224   0.6454   0.6921   0.7374
     1.1769   1.2108   1.2701   1.2914

          k = 0.4000 0.2082 0.0865 ( 21237 PWs)   bands (ev):

   -20.7014 -20.7012 -20.6582 -20.6581 -20.0524 -20.0522 -20.0496 -20.0495
   -18.8366 -18.8363 -18.8318 -18.8309 -18.0363 -18.0356 -18.0354 -18.0344
   -14.9397 -14.9385 -14.9371 -14.9360 -13.2169 -13.2074 -13.1839 -13.1734
   -12.6679 -12.6649 -12.6251 -12.6249 -12.2297 -12.2246 -12.1951 -12.1902
   -11.8528 -11.8483 -11.8293 -11.8244 -11.3796 -11.3737 -11.3540 -11.3513
   -10.7545 -10.7346 -10.7319 -10.7162  -9.1153  -9.1126  -9.0839  -9.0801
    -8.7631  -8.7570  -8.7349  -8.7326  -8.3237  -8.3096  -8.2422  -8.2286
    -7.3526  -7.3483  -7.2738  -7.2684  -6.9432  -6.9278  -6.9096  -6.8954
    -6.7249  -6.7153  -6.6642  -6.6541  -6.1967  -6.1840  -6.1821  -6.1711
    -5.8255  -5.8203  -5.7674  -5.7671  -5.5676  -5.5412  -5.5197  -5.5046
    -5.4722  -5.4541  -5.3884  -5.3622  -5.2700  -5.2383  -5.1922  -5.1784
    -4.9030  -4.9002  -4.8884  -4.8743  -4.6344  -4.6216  -4.5771  -4.5675
    -4.2704  -4.2592  -4.2374  -4.2065  -4.1730  -4.1460  -4.0568  -4.0462
    -3.9615  -3.9352  -3.9305  -3.9015  -3.7180  -3.6900  -3.6674  -3.6483
    -3.6237  -3.6147  -3.5483  -3.5420  -3.4506  -3.4313  -3.3590  -3.3556
    -3.2132  -3.2009  -3.1342  -3.1207  -3.0711  -3.0655  -2.9928  -2.9708
    -2.9414  -2.9206  -2.9081  -2.8740  -2.7639  -2.7528  -2.7271  -2.7140
    -2.5016  -2.4894  -2.4108  -2.4057  -2.0333  -2.0316  -2.0003  -1.9962
    -1.8233  -1.8145  -1.7545  -1.7353  -1.5890  -1.5698  -1.4456  -1.4372
    -1.1959  -1.1777  -1.1434  -1.1335   0.2937   0.2993   0.3039   0.3074
     0.3398   0.3447   0.3482   0.3626   0.6293   0.6698   0.6846   0.7340
     1.1852   1.1877   1.2768   1.2857

          k = 0.4000 0.2082 0.2792 ( 21224 PWs)   bands (ev):

   -20.7014 -20.7012 -20.6582 -20.6581 -20.0526 -20.0520 -20.0498 -20.0494
   -18.8370 -18.8364 -18.8321 -18.8302 -18.0365 -18.0361 -18.0352 -18.0339
   -14.9407 -14.9383 -14.9364 -14.9354 -13.2175 -13.2165 -13.1810 -13.1793
   -12.6589 -12.6491 -12.6288 -12.6253 -12.2280 -12.2193 -12.1962 -12.1906
   -11.8560 -11.8462 -11.8302 -11.8157 -11.3949 -11.3771 -11.3730 -11.3602
   -10.7552 -10.7416 -10.7179 -10.6973  -9.1173  -9.1014  -9.0921  -9.0671
    -8.7721  -8.7674  -8.7163  -8.7135  -8.3310  -8.2964  -8.2735  -8.2378
    -7.3497  -7.3361  -7.3003  -7.2882  -6.9470  -6.9360  -6.9267  -6.9164
    -6.7099  -6.6835  -6.6590  -6.6248  -6.1781  -6.1559  -6.1486  -6.1301
    -5.9029  -5.8852  -5.8097  -5.7875  -5.5540  -5.5254  -5.4946  -5.4764
    -5.4241  -5.4005  -5.3707  -5.3655  -5.2952  -5.2535  -5.2043  -5.1970
    -4.9544  -4.9319  -4.9214  -4.8639  -4.6252  -4.6037  -4.5781  -4.5386
    -4.2656  -4.2630  -4.2222  -4.2155  -4.1812  -4.1487  -4.0872  -4.0487
    -3.9296  -3.8995  -3.8800  -3.8418  -3.7293  -3.7055  -3.7014  -3.6842
    -3.6376  -3.5987  -3.5367  -3.5327  -3.4668  -3.4635  -3.3996  -3.3815
    -3.2160  -3.1602  -3.1276  -3.1106  -3.0967  -3.0573  -3.0158  -2.9804
    -2.9473  -2.9101  -2.9040  -2.8751  -2.7808  -2.7542  -2.6960  -2.6795
    -2.5186  -2.4870  -2.4067  -2.3851  -2.0349  -2.0280  -2.0081  -1.9992
    -1.8314  -1.8064  -1.7618  -1.7310  -1.5881  -1.5677  -1.4544  -1.4312
    -1.2216  -1.1882  -1.1228  -1.1106   0.2830   0.2916   0.3042   0.3139
     0.3277   0.3425   0.3534   0.3795   0.6407   0.6643   0.6895   0.7107
     1.1730   1.1927   1.2897   1.2928

          k = 0.4000 0.2082-0.1063 ( 21241 PWs)   bands (ev):

   -20.7015 -20.7011 -20.6582 -20.6581 -20.0527 -20.0519 -20.0498 -20.0493
   -18.8372 -18.8368 -18.8321 -18.8295 -18.0369 -18.0367 -18.0349 -18.0333
   -14.9402 -14.9386 -14.9363 -14.9357 -13.2230 -13.2139 -13.1837 -13.1730
   -12.6615 -12.6521 -12.6264 -12.6226 -12.2302 -12.2141 -12.2012 -12.1885
   -11.8569 -11.8429 -11.8331 -11.8146 -11.3983 -11.3788 -11.3701 -11.3601
   -10.7623 -10.7502 -10.7094 -10.6877  -9.1148  -9.1029  -9.0930  -9.0678
    -8.7757  -8.7714  -8.7147  -8.7068  -8.3362  -8.2921  -8.2783  -8.2347
    -7.3443  -7.3371  -7.2992  -7.2934  -6.9520  -6.9354  -6.9296  -6.9098
    -6.7160  -6.6915  -6.6578  -6.6065  -6.1832  -6.1634  -6.1416  -6.1255
    -5.8959  -5.8832  -5.8245  -5.7940  -5.5572  -5.5086  -5.4886  -5.4708
    -5.4230  -5.4006  -5.3808  -5.3434  -5.3067  -5.2699  -5.2087  -5.1928
    -4.9594  -4.9374  -4.9223  -4.8571  -4.6277  -4.5990  -4.5814  -4.5364
    -4.2773  -4.2653  -4.2258  -4.2062  -4.1838  -4.1613  -4.0823  -4.0267
    -3.9120  -3.8911  -3.8890  -3.8447  -3.7401  -3.7209  -3.6829  -3.6737
    -3.6244  -3.5970  -3.5527  -3.5463  -3.4779  -3.4690  -3.3837  -3.3700
    -3.2204  -3.1697  -3.1304  -3.1141  -3.0957  -3.0405  -3.0166  -2.9997
    -2.9591  -2.9314  -2.8961  -2.8682  -2.7805  -2.7612  -2.6796  -2.6747
    -2.5150  -2.4792  -2.4045  -2.3779  -2.0341  -2.0232  -2.0125  -2.0017
    -1.8284  -1.8015  -1.7757  -1.7226  -1.5901  -1.5609  -1.4535  -1.4402
    -1.2505  -1.2083  -1.1062  -1.0850   0.2738   0.2796   0.3003   0.3113
     0.3315   0.3444   0.3635   0.3918   0.6327   0.6478   0.6990   0.7254
     1.1850   1.2020   1.2749   1.2856

     highest occupied level (ev):     1.4056

!    total energy              =   -1080.02494980 Ry
     Harris-Foulkes estimate   =   -1080.02494982 Ry
     estimated scf accuracy    <       0.00000003 Ry

     The total energy is the sum of the following terms:

     one-electron contribution =    -866.06512652 Ry
     hartree contribution      =     552.38221471 Ry
     xc contribution           =    -315.22946694 Ry
     ewald contribution        =    -450.56508108 Ry
     Dispersion Correction     =      -0.54748997 Ry

     convergence has been achieved in  12 iterations

     Forces acting on atoms (cartesian axes, Ry/au):

     atom    1 type  3   force =    -0.00008980   -0.00008293   -0.00001878
     atom    2 type  1   force =    -0.00033202    0.00013319   -0.00041859
     atom    3 type  3   force =    -0.00029247    0.00018966    0.00023751
     atom    4 type  1   force =    -0.00019372    0.00037566    0.00051342
     atom    5 type  1   force =    -0.00065999   -0.00045873    0.00000681
     atom    6 type  1   force =    -0.00002970    0.00042900    0.00014822
     atom    7 type  1   force =     0.00022780    0.00023690   -0.00018901
     atom    8 type  3   force =     0.00003451    0.00002510   -0.00010678
     atom    9 type  4   force =     0.00095337    0.00013741    0.00027199
     atom   10 type  1   force =    -0.00007243   -0.00011279   -0.00005419
     atom   11 type  1   force =     0.00053576   -0.00006006   -0.00020225
     atom   12 type  1   force =    -0.00006033   -0.00055051   -0.00020556
     atom   13 type  1   force =    -0.00000063    0.00001588   -0.00000434
     atom   14 type  1   force =    -0.00040775    0.00000732    0.00007500
     atom   15 type  1   force =    -0.00019529   -0.00013815    0.00023237
     atom   16 type  1   force =     0.00011505   -0.00014977    0.00012182
     atom   17 type  2   force =     0.00023710   -0.00014948    0.00021525
     atom   18 type  2   force =     0.00012368    0.00023976   -0.00003776
     atom   19 type  2   force =     0.00025382    0.00042981    0.00048618
     atom   20 type  2   force =     0.00019239   -0.00045328   -0.00055059
     atom   21 type  2   force =     0.00066691   -0.00028494    0.00026993
     atom   22 type  2   force =     0.00019669    0.00000197   -0.00075790
     atom   23 type  2   force =    -0.00024785    0.00038037   -0.00001509
     atom   24 type  2   force =    -0.00036208    0.00030665   -0.00003514
     atom   25 type  2   force =    -0.00025055    0.00020550    0.00045346
     atom   26 type  2   force =    -0.00042087    0.00066811   -0.00024100
     atom   27 type  2   force =    -0.00018463    0.00018942    0.00050336
     atom   28 type  2   force =    -0.00008495   -0.00018483   -0.00017010
     atom   29 type  2   force =    -0.00083355   -0.00006242    0.00040014
     atom   30 type  2   force =    -0.00043566    0.00019439   -0.00027156
     atom   31 type  2   force =     0.00041886    0.00014062    0.00035710
     atom   32 type  3   force =     0.00008980   -0.00008293    0.00001878
     atom   33 type  3   force =     0.00008980    0.00008293    0.00001878
     atom   34 type  3   force =    -0.00008980    0.00008293   -0.00001878
     atom   35 type  1   force =     0.00033202    0.00013319    0.00041859
     atom   36 type  1   force =     0.00033202   -0.00013319    0.00041859
     atom   37 type  1   force =    -0.00033202   -0.00013319   -0.00041859
     atom   38 type  3   force =     0.00029247    0.00018966   -0.00023751
     atom   39 type  3   force =     0.00029247   -0.00018966   -0.00023751
     atom   40 type  3   force =    -0.00029247   -0.00018966    0.00023751
     atom   41 type  1   force =     0.00019372    0.00037566   -0.00051342
     atom   42 type  1   force =     0.00019372   -0.00037566   -0.00051342
     atom   43 type  1   force =    -0.00019372   -0.00037566    0.00051342
     atom   44 type  1   force =     0.00065999   -0.00045873   -0.00000681
     atom   45 type  1   force =     0.00065999    0.00045873   -0.00000681
     atom   46 type  1   force =    -0.00065999    0.00045873    0.00000681
     atom   47 type  1   force =     0.00002970    0.00042900   -0.00014822
     atom   48 type  1   force =     0.00002970   -0.00042900   -0.00014822
     atom   49 type  1   force =    -0.00002970   -0.00042900    0.00014822
     atom   50 type  1   force =    -0.00022780    0.00023690    0.00018901
     atom   51 type  1   force =    -0.00022780   -0.00023690    0.00018901
     atom   52 type  1   force =     0.00022780   -0.00023690   -0.00018901
     atom   53 type  3   force =    -0.00003451    0.00002510    0.00010678
     atom   54 type  3   force =    -0.00003451   -0.00002510    0.00010678
     atom   55 type  3   force =     0.00003451   -0.00002510   -0.00010678
     atom   56 type  4   force =    -0.00095337    0.00013741   -0.00027199
     atom   57 type  4   force =    -0.00095337   -0.00013741   -0.00027199
     atom   58 type  4   force =     0.00095337   -0.00013741    0.00027199
     atom   59 type  1   force =     0.00007243   -0.00011279    0.00005419
     atom   60 type  1   force =     0.00007243    0.00011279    0.00005419
     atom   61 type  1   force =    -0.00007243    0.00011279   -0.00005419
     atom   62 type  1   force =    -0.00053576   -0.00006006    0.00020225
     atom   63 type  1   force =    -0.00053576    0.00006006    0.00020225
     atom   64 type  1   force =     0.00053576    0.00006006   -0.00020225
     atom   65 type  1   force =     0.00006033   -0.00055051    0.00020556
     atom   66 type  1   force =     0.00006033    0.00055051    0.00020556
     atom   67 type  1   force =    -0.00006033    0.00055051   -0.00020556
     atom   68 type  1   force =     0.00000063    0.00001588    0.00000434
     atom   69 type  1   force =     0.00000063   -0.00001588    0.00000434
     atom   70 type  1   force =    -0.00000063   -0.00001588   -0.00000434
     atom   71 type  1   force =     0.00040775    0.00000732   -0.00007500
     atom   72 type  1   force =     0.00040775   -0.00000732   -0.00007500
     atom   73 type  1   force =    -0.00040775   -0.00000732    0.00007500
     atom   74 type  1   force =     0.00019529   -0.00013815   -0.00023237
     atom   75 type  1   force =     0.00019529    0.00013815   -0.00023237
     atom   76 type  1   force =    -0.00019529    0.00013815    0.00023237
     atom   77 type  1   force =    -0.00011505   -0.00014977   -0.00012182
     atom   78 type  1   force =    -0.00011505    0.00014977   -0.00012182
     atom   79 type  1   force =     0.00011505    0.00014977    0.00012182
     atom   80 type  2   force =    -0.00023710   -0.00014948   -0.00021525
     atom   81 type  2   force =    -0.00023710    0.00014948   -0.00021525
     atom   82 type  2   force =     0.00023710    0.00014948    0.00021525
     atom   83 type  2   force =    -0.00012368    0.00023976    0.00003776
     atom   84 type  2   force =    -0.00012368   -0.00023976    0.00003776
     atom   85 type  2   force =     0.00012368   -0.00023976   -0.00003776
     atom   86 type  2   force =    -0.00025382    0.00042981   -0.00048618
     atom   87 type  2   force =    -0.00025382   -0.00042981   -0.00048618
     atom   88 type  2   force =     0.00025382   -0.00042981    0.00048618
     atom   89 type  2   force =    -0.00019239   -0.00045328    0.00055059
     atom   90 type  2   force =    -0.00019239    0.00045328    0.00055059
     atom   91 type  2   force =     0.00019239    0.00045328   -0.00055059
     atom   92 type  2   force =    -0.00066691   -0.00028494   -0.00026993
     atom   93 type  2   force =    -0.00066691    0.00028494   -0.00026993
     atom   94 type  2   force =     0.00066691    0.00028494    0.00026993
     atom   95 type  2   force =    -0.00019669    0.00000197    0.00075790
     atom   96 type  2   force =    -0.00019669   -0.00000197    0.00075790
     atom   97 type  2   force =     0.00019669   -0.00000197   -0.00075790
     atom   98 type  2   force =     0.00024785    0.00038037    0.00001509
     atom   99 type  2   force =     0.00024785   -0.00038037    0.00001509
     atom  100 type  2   force =    -0.00024785   -0.00038037   -0.00001509
     atom  101 type  2   force =     0.00036208    0.00030665    0.00003514
     atom  102 type  2   force =     0.00036208   -0.00030665    0.00003514
     atom  103 type  2   force =    -0.00036208   -0.00030665   -0.00003514
     atom  104 type  2   force =     0.00025055    0.00020550   -0.00045346
     atom  105 type  2   force =     0.00025055   -0.00020550   -0.00045346
     atom  106 type  2   force =    -0.00025055   -0.00020550    0.00045346
     atom  107 type  2   force =     0.00042087    0.00066811    0.00024100
     atom  108 type  2   force =     0.00042087   -0.00066811    0.00024100
     atom  109 type  2   force =    -0.00042087   -0.00066811   -0.00024100
     atom  110 type  2   force =     0.00018463    0.00018942   -0.00050336
     atom  111 type  2   force =     0.00018463   -0.00018942   -0.00050336
     atom  112 type  2   force =    -0.00018463   -0.00018942    0.00050336
     atom  113 type  2   force =     0.00008495   -0.00018483    0.00017010
     atom  114 type  2   force =     0.00008495    0.00018483    0.00017010
     atom  115 type  2   force =    -0.00008495    0.00018483   -0.00017010
     atom  116 type  2   force =     0.00083355   -0.00006242   -0.00040014
     atom  117 type  2   force =     0.00083355    0.00006242   -0.00040014
     atom  118 type  2   force =    -0.00083355    0.00006242    0.00040014
     atom  119 type  2   force =     0.00043566    0.00019439    0.00027156
     atom  120 type  2   force =     0.00043566   -0.00019439    0.00027156
     atom  121 type  2   force =    -0.00043566   -0.00019439   -0.00027156
     atom  122 type  2   force =    -0.00041886    0.00014062   -0.00035710
     atom  123 type  2   force =    -0.00041886   -0.00014062   -0.00035710
     atom  124 type  2   force =     0.00041886   -0.00014062    0.00035710

     Total force =     0.006238     Total SCF correction =     0.000317

     BFGS Geometry Optimization

     bfgs converged in   1 scf cycles and   0 bfgs steps
     (criteria: energy <  1.0E-04 Ry, force <  1.0E-03 Ry/Bohr)

     End of BFGS Geometry Optimization

     Final energy   =   -1080.0249498001 Ry
Begin final coordinates

ATOMIC_POSITIONS (angstrom)
O        0.766966230  10.932004596   0.954832159
C        0.170876763  10.758124139   5.099555524
O       -0.698534821   8.530799677   4.826034016
C       -0.037950739  10.669350995   6.556030974
C        0.535774800  10.818239320   2.292190508
C       -0.008708515   9.682774894   2.887605337
C       -0.186103962   9.647660403   4.279291865
O       -0.553284967   9.578833704   7.030544483
N        0.477761551   0.668819130   9.685480975
C        0.182334712  11.621626535   8.787316214
C        0.703906093  -0.001633948   4.442763192
C        0.336291712  11.735330861   7.419796284
C        0.893336209   0.045618196   3.075456638
C        0.981706862   1.969466289   9.270410838
C        0.323665945   0.438886161  11.113656586
C        0.407437217   9.826659300   0.118168919
H        1.032984046   8.948860785   0.349912461
H       -2.185685408  10.159371807  11.936003587
H        6.771199759   9.563375197   0.233415523
H       -0.314399040   8.811575536   2.312834005
H       -0.212485156  10.690222617   9.194119640
H        0.751113790   0.757181117   7.001388790
H        1.349265780   0.909705331   2.593061864
H        0.998926911   0.867346329   5.027624664
H       -0.364822339   1.183626474  11.535513652
H        0.291111168   2.417104497   8.540452245
H        1.042305841   2.623048569  10.147611021
H       -0.058249422  11.316572079  11.283087991
H        1.979214720   1.866876503   8.814283532
H        1.299992008   0.533258893  11.613869545
H       -0.738345742   8.776078733   5.858884745
O        1.557823770   4.987504596   5.467287841
O        3.882613770   0.956995404  11.889397841
O        3.091756230   6.901495404   7.376942159
C        2.153913237   4.813624139   1.322564476
C        4.478703237   1.130875861   7.744674476
C        2.495666763   7.075375861  11.521665524
O        3.023324821   2.586299677   1.596075984
O        5.348114821   3.358200323   8.018185984
O        1.626255179   9.302700323  11.248144016
C       -0.414279261   4.724850995  12.710309026
C        4.687530739   1.219649005   6.288199026
C        5.063859261   7.164149005   0.133910974
C        1.789015200   4.873739320   4.129919492
C        4.113805200   1.070760680  10.552029492
C        2.860564800   7.015260680   8.714300508
C        2.333498515   3.738274894   3.534504663
C        4.658288515   2.206225106   9.956614663
C        2.316081485   8.150725106   9.309715337
C        2.510893962   3.703160403   2.142818135
C        4.835683962   2.241339597   8.564928135
C        2.138686038   8.185839597  10.701401865
O        0.101054967   3.634333704  12.235785517
O        5.202864967   2.310166296   5.813675517
O        4.548525033   8.254666296   0.608434483
N       -0.929991551   6.613319130   9.580849025
N        4.171818449  11.220180870   3.158739025
N        5.579571551   5.275680870   3.263370975
C       -0.634564712   5.677126535  10.479013786
C        4.467245288   0.267373465   4.056903786
C        5.284144712   6.211873465   2.365206214
C        1.620883907   5.942866052   1.979346808
C        3.945673907  11.890633948   8.401456808
C        3.028696093   5.946133948  10.864873192
C       -0.788521712   5.790830861  11.846543716
C        4.313288288   0.153669139   5.424433716
C        5.438101712   6.098169139   0.997676284
C        1.431453791   5.990118196   3.346653362
C        3.756243791  11.843381804   9.768763362
C        3.218126209   5.898881804   9.497576638
C       -1.433936862   7.913966289   9.995919162
C        3.667873138   9.919533711   3.573809162
C        6.083516862   3.975033711   2.848300838
C       -0.775895945   6.383386161   8.152673414
C        4.325914055  11.450113839   1.730563414
C        5.425475945   5.505613839   4.691546586
C        1.917352783   3.882159300   6.303941081
C        4.242142783   2.062340700  12.726061081
C        2.732227217   8.006840700   6.540278919
H        1.291805954   3.004360785   6.072207539
H        3.616595954   2.940139215  12.494317539
H        3.357774046   8.884639215   6.772022461
H        1.733455408   4.214871807   7.330326413
H        6.835265408   1.729628193   0.908216413
H        2.916124592   7.674128193   5.513893587
H        2.980190241   3.618875197   6.188704477
H       -2.121619759   2.325624803  12.610814477
H        1.669389759   8.270124803   6.655525523
H        2.639189040   2.867075536   4.109275995
H        4.963979040   3.077424464  10.531385995
H        2.010390960   9.021924464   8.734944005
H       -0.239744844   4.745722617  10.072210360
H        4.862065156   1.198777383   3.650100360
H        4.889324844   7.143277383   2.772009640
H       -1.203343790   6.701681117  12.264951210
H        3.898466210  11.131818883   5.842841210
H        5.852923790   5.187318883   0.579278790
H        0.975524220   6.854205331   3.829048136
H        3.300314220  10.979294669  10.251158136
H        3.674055780   5.034794669   9.015181864
H        1.325863089   6.811846329   1.394485336
H        3.650663089  11.021653671   7.816595336
H        3.323716911   5.077153671  11.449734664
H       -0.087407661   7.128126474   7.730826348
H        5.014402339  10.705373526   1.308716348
H        4.736987661   4.760873526   5.113403652
H       -0.743341168   8.361604497  10.725877755
H        4.358468832   9.471895503   4.303767755
H        5.392921168   3.527395503   2.118342245
H       -1.494525841   8.567548569   9.118728979
H        3.607284159   9.265951431   2.696618979
H        6.144115841   3.321451431   3.725501021
H       -0.393980578   5.372072079   7.983242009
H        4.707829422   0.572427921   1.561132009
H        5.043560578   6.516927921   4.860977991
H        4.995155280   7.811376503  10.452046468
H        2.670365280  10.022123497   4.029936468
H       -0.345575280   4.077623497   2.392173532
H       -1.752222008   6.477758893   7.652470455
H        3.349587992  11.355741107   1.230360455
H        6.401802008   5.411241107   5.191759545
H        3.063135742   2.831578733   0.563225255
H        5.387925742   3.112921267   6.985335255
H        1.586444258   9.057421267  12.280994745
End final coordinates



     Writing output data file 2hp_3_533.save
 
     init_run     :     91.60s CPU     92.69s WALL (       1 calls)
     electrons    :   2256.25s CPU   2286.05s WALL (       1 calls)
     forces       :     40.15s CPU     40.45s WALL (       1 calls)

     Called by init_run:
     wfcinit      :     88.10s CPU     89.03s WALL (       1 calls)
     potinit      :      1.35s CPU      1.36s WALL (       1 calls)

     Called by electrons:
     c_bands      :   2031.73s CPU   2058.41s WALL (      12 calls)
     sum_band     :    212.02s CPU    213.53s WALL (      12 calls)
     v_of_rho     :      1.84s CPU      1.85s WALL (      13 calls)
     newd         :      3.97s CPU      5.48s WALL (      13 calls)
     mix_rho      :      0.42s CPU      0.43s WALL (      12 calls)

     Called by c_bands:
     init_us_2    :     21.73s CPU     21.77s WALL (     416 calls)
     cegterg      :   1959.11s CPU   1985.72s WALL (     192 calls)

     Called by sum_band:
     sum_band:bec :      0.12s CPU      0.12s WALL (     192 calls)
     addusdens    :      4.36s CPU      5.76s WALL (      12 calls)

     Called by *egterg:
     h_psi        :   1159.21s CPU   1160.01s WALL (     912 calls)
     s_psi        :    280.46s CPU    280.45s WALL (     912 calls)
     g_psi        :      8.91s CPU      8.91s WALL (     704 calls)
     cdiaghg      :     66.88s CPU     66.88s WALL (     896 calls)

     Called by h_psi:
     h_psi:pot    :   1147.96s CPU   1148.42s WALL (     912 calls)
     h_psi:calbec :    256.09s CPU    256.09s WALL (     912 calls)
     vloc_psi     :    611.60s CPU    612.07s WALL (     912 calls)
     add_vuspsi   :    280.26s CPU    280.25s WALL (     912 calls)

     General routines
     calbec       :    364.93s CPU    364.92s WALL (    1168 calls)
     fft          :      0.67s CPU      0.68s WALL (     170 calls)
     fftw         :    621.84s CPU    622.31s WALL (  233776 calls)
     davcio       :      0.03s CPU      5.30s WALL (      16 calls)
 
     Parallel routines
     fft_scatter  :     71.51s CPU     71.60s WALL (  233946 calls)
 
     PWSCF        : 39m48.51s CPU    40m26.76s WALL

 
   This run was terminated on:  12:11:29  11Oct2017            

=------------------------------------------------------------------------------=
   JOB DONE.
=------------------------------------------------------------------------------=
