 Entering Gaussian System, Link 0=g09
 Input=2hp_3_866-mega_dimer_0_mon-0.com
 Output=2hp_3_866-mega_dimer_0_mon-0.out
 Initial command:
 /share/apps/gaussian/g09_D01/g09/l1.exe "/tmp/161001.1.all.q/Gau-15034.inp" -scrdir="/tmp/161001.1.all.q/"
 Entering Link 1 = /share/apps/gaussian/g09_D01/g09/l1.exe PID=     15036.
  
 Copyright (c) 1988,1990,1992,1993,1995,1998,2003,2009,2013,
            Gaussian, Inc.  All Rights Reserved.
  
 This is part of the Gaussian(R) 09 program.  It is based on
 the Gaussian(R) 03 system (copyright 2003, Gaussian, Inc.),
 the Gaussian(R) 98 system (copyright 1998, Gaussian, Inc.),
 the Gaussian(R) 94 system (copyright 1995, Gaussian, Inc.),
 the Gaussian 92(TM) system (copyright 1992, Gaussian, Inc.),
 the Gaussian 90(TM) system (copyright 1990, Gaussian, Inc.),
 the Gaussian 88(TM) system (copyright 1988, Gaussian, Inc.),
 the Gaussian 86(TM) system (copyright 1986, Carnegie Mellon
 University), and the Gaussian 82(TM) system (copyright 1983,
 Carnegie Mellon University). Gaussian is a federally registered
 trademark of Gaussian, Inc.
  
 This software contains proprietary and confidential information,
 including trade secrets, belonging to Gaussian, Inc.
  
 This software is provided under written license and may be
 used, copied, transmitted, or stored only in accord with that
 written license.
  
 The following legend is applicable only to US Government
 contracts under FAR:
  
                    RESTRICTED RIGHTS LEGEND
  
 Use, reproduction and disclosure by the US Government is
 subject to restrictions as set forth in subparagraphs (a)
 and (c) of the Commercial Computer Software - Restricted
 Rights clause in FAR 52.227-19.
  
 Gaussian, Inc.
 340 Quinnipiac St., Bldg. 40, Wallingford CT 06492
  
  
 ---------------------------------------------------------------
 Warning -- This program may not be used in any manner that
 competes with the business of Gaussian, Inc. or will provide
 assistance to any competitor of Gaussian, Inc.  The licensee
 of this program is prohibited from giving any competitor of
 Gaussian, Inc. access to this program.  By using this program,
 the user acknowledges that Gaussian, Inc. is engaged in the
 business of creating and licensing software in the field of
 computational chemistry and represents and warrants to the
 licensee that it is not a competitor of Gaussian, Inc. and that
 it will not use this program in any manner prohibited above.
 ---------------------------------------------------------------
  

 Cite this work as:
 Gaussian 09, Revision D.01,
 M. J. Frisch, G. W. Trucks, H. B. Schlegel, G. E. Scuseria, 
 M. A. Robb, J. R. Cheeseman, G. Scalmani, V. Barone, B. Mennucci, 
 G. A. Petersson, H. Nakatsuji, M. Caricato, X. Li, H. P. Hratchian, 
 A. F. Izmaylov, J. Bloino, G. Zheng, J. L. Sonnenberg, M. Hada, 
 M. Ehara, K. Toyota, R. Fukuda, J. Hasegawa, M. Ishida, T. Nakajima, 
 Y. Honda, O. Kitao, H. Nakai, T. Vreven, J. A. Montgomery, Jr., 
 J. E. Peralta, F. Ogliaro, M. Bearpark, J. J. Heyd, E. Brothers, 
 K. N. Kudin, V. N. Staroverov, T. Keith, R. Kobayashi, J. Normand, 
 K. Raghavachari, A. Rendell, J. C. Burant, S. S. Iyengar, J. Tomasi, 
 M. Cossi, N. Rega, J. M. Millam, M. Klene, J. E. Knox, J. B. Cross, 
 V. Bakken, C. Adamo, J. Jaramillo, R. Gomperts, R. E. Stratmann, 
 O. Yazyev, A. J. Austin, R. Cammi, C. Pomelli, J. W. Ochterski, 
 R. L. Martin, K. Morokuma, V. G. Zakrzewski, G. A. Voth, 
 P. Salvador, J. J. Dannenberg, S. Dapprich, A. D. Daniels, 
 O. Farkas, J. B. Foresman, J. V. Ortiz, J. Cioslowski, 
 and D. J. Fox, Gaussian, Inc., Wallingford CT, 2013.
 
 ******************************************
 Gaussian 09:  ES64L-G09RevD.01 24-Apr-2013
                 3-Nov-2017 
 ******************************************
 %chk=2hp_3_866-mega_dimer_0_mon-0.chk
 %nproc=4
 Will use up to    4 processors via shared memory.
 %mem=28GB
 ------------------------------------------
 #p wb97xd 6-311++G** td=(nstates=4) nosymm
 ------------------------------------------
 1/38=1/1;
 2/12=2,15=1,17=6,18=5,40=1/2;
 3/5=4,6=6,7=1111,11=9,16=1,25=1,30=1,74=-58/1,2,8,3;
 4//1;
 5/5=2,38=5/2;
 8/6=1,10=2,108=4/1;
 9/41=4,42=1,70=2/14;
 6/7=2,8=2,9=2,10=2/1;
 99/5=1,9=1/99;
 Leave Link    1 at Fri Nov  3 00:37:38 2017, MaxMem=  3758096384 cpu:         0.5
 (Enter /share/apps/gaussian/g09_D01/g09/l101.exe)
 -----
 Title
 -----
 Symbolic Z-matrix:
 Charge =  0 Multiplicity = 1
 O                    -1.55783  -4.98751  -5.46728 
 C                    -1.78902  -4.87374  -4.12992 
 C                    -1.91735  -3.88216  -6.30394 
 C                    -2.3335   -3.73828  -3.53451 
 C                    -1.43146  -5.99012  -3.34665 
 H                    -1.29181  -3.00436  -6.0722 
 H                    -1.73346  -4.21487  -7.33033 
 H                    -2.98019  -3.61888  -6.1887 
 C                    -2.5109   -3.70316  -2.14282 
 H                    -2.63919  -2.86708  -4.10928 
 C                    -1.62089  -5.94287  -1.97935 
 H                    -0.97553  -6.85421  -3.82904 
 C                    -2.15392  -4.81362  -1.32256 
 O                    -3.02333  -2.5863   -1.59608 
 H                    -1.32587  -6.81185  -1.39449 
 C                    -2.36274  -4.72485   0.13391 
 H                    -3.06314  -2.83158  -0.56323 
 O                    -2.87808  -3.63433   0.60843 
 C                    -1.9885   -5.79083   0.99768 
 C                    -2.14245  -5.67713   2.36521 
 H                    -1.57368  -6.70168   0.57928 
 N                    -1.84703  -6.61332   3.26337 
 H                    -2.53728  -4.74572   2.77201 
 C                    -1.34308  -7.91397   2.8483 
 C                    -2.00112  -6.38339   4.69155 
 H                    -2.03368  -8.3616    2.11834 
 H                    -1.28248  -8.56755   3.7255 
 H                    -0.34558  -7.81138   2.39217 
 H                    -2.68961  -7.12813   5.1134 
 H                    -2.38304  -5.37207   4.86098 
 H                    -1.0248   -6.47776   5.19176 
 
 NAtoms=     31 NQM=       31 NQMF=       0 NMMI=      0 NMMIF=      0
                NMic=       0 NMicF=      0.
                    Isotopes and Nuclear Properties:
 (Nuclear quadrupole moments (NQMom) in fm**2, nuclear magnetic moments (NMagM)
  in nuclear magnetons)

  Atom         1           2           3           4           5           6           7           8           9          10
 IAtWgt=          16          12          12          12          12           1           1           1          12           1
 AtmWgt=  15.9949146  12.0000000  12.0000000  12.0000000  12.0000000   1.0078250   1.0078250   1.0078250  12.0000000   1.0078250
 NucSpn=           0           0           0           0           0           1           1           1           0           1
 AtZEff=   0.0000000   0.0000000   0.0000000   0.0000000   0.0000000   0.0000000   0.0000000   0.0000000   0.0000000   0.0000000
 NQMom=    0.0000000   0.0000000   0.0000000   0.0000000   0.0000000   0.0000000   0.0000000   0.0000000   0.0000000   0.0000000
 NMagM=    0.0000000   0.0000000   0.0000000   0.0000000   0.0000000   2.7928460   2.7928460   2.7928460   0.0000000   2.7928460
 AtZNuc=   8.0000000   6.0000000   6.0000000   6.0000000   6.0000000   1.0000000   1.0000000   1.0000000   6.0000000   1.0000000

  Atom        11          12          13          14          15          16          17          18          19          20
 IAtWgt=          12           1          12          16           1          12           1          16          12          12
 AtmWgt=  12.0000000   1.0078250  12.0000000  15.9949146   1.0078250  12.0000000   1.0078250  15.9949146  12.0000000  12.0000000
 NucSpn=           0           1           0           0           1           0           1           0           0           0
 AtZEff=   0.0000000   0.0000000   0.0000000   0.0000000   0.0000000   0.0000000   0.0000000   0.0000000   0.0000000   0.0000000
 NQMom=    0.0000000   0.0000000   0.0000000   0.0000000   0.0000000   0.0000000   0.0000000   0.0000000   0.0000000   0.0000000
 NMagM=    0.0000000   2.7928460   0.0000000   0.0000000   2.7928460   0.0000000   2.7928460   0.0000000   0.0000000   0.0000000
 AtZNuc=   6.0000000   1.0000000   6.0000000   8.0000000   1.0000000   6.0000000   1.0000000   8.0000000   6.0000000   6.0000000

  Atom        21          22          23          24          25          26          27          28          29          30
 IAtWgt=           1          14           1          12          12           1           1           1           1           1
 AtmWgt=   1.0078250  14.0030740   1.0078250  12.0000000  12.0000000   1.0078250   1.0078250   1.0078250   1.0078250   1.0078250
 NucSpn=           1           2           1           0           0           1           1           1           1           1
 AtZEff=   0.0000000   0.0000000   0.0000000   0.0000000   0.0000000   0.0000000   0.0000000   0.0000000   0.0000000   0.0000000
 NQMom=    0.0000000   2.0440000   0.0000000   0.0000000   0.0000000   0.0000000   0.0000000   0.0000000   0.0000000   0.0000000
 NMagM=    2.7928460   0.4037610   2.7928460   0.0000000   0.0000000   2.7928460   2.7928460   2.7928460   2.7928460   2.7928460
 AtZNuc=   1.0000000   7.0000000   1.0000000   6.0000000   6.0000000   1.0000000   1.0000000   1.0000000   1.0000000   1.0000000

  Atom        31
 IAtWgt=           1
 AtmWgt=   1.0078250
 NucSpn=           1
 AtZEff=   0.0000000
 NQMom=    0.0000000
 NMagM=    2.7928460
 AtZNuc=   1.0000000
 Leave Link  101 at Fri Nov  3 00:37:39 2017, MaxMem=  3758096384 cpu:         0.4
 (Enter /share/apps/gaussian/g09_D01/g09/l202.exe)
                          Input orientation:                          
 ---------------------------------------------------------------------
 Center     Atomic      Atomic             Coordinates (Angstroms)
 Number     Number       Type             X           Y           Z
 ---------------------------------------------------------------------
      1          8           0       -1.557825   -4.987505   -5.467280
      2          6           0       -1.789017   -4.873739   -4.129922
      3          6           0       -1.917354   -3.882159   -6.303943
      4          6           0       -2.333500   -3.738275   -3.534507
      5          6           0       -1.431455   -5.990118   -3.346646
      6          1           0       -1.291808   -3.004361   -6.072200
      7          1           0       -1.733457   -4.214872   -7.330329
      8          1           0       -2.980192   -3.618875   -6.188697
      9          6           0       -2.510896   -3.703160   -2.142820
     10          1           0       -2.639191   -2.867075   -4.109278
     11          6           0       -1.620885   -5.942866   -1.979349
     12          1           0       -0.975526   -6.854205   -3.829040
     13          6           0       -2.153915   -4.813624   -1.322557
     14          8           0       -3.023326   -2.586300   -1.596078
     15          1           0       -1.325865   -6.811846   -1.394488
     16          6           0       -2.362741   -4.724851    0.133911
     17          1           0       -3.063137   -2.831579   -0.563227
     18          8           0       -2.878075   -3.634334    0.608434
     19          6           0       -1.988498   -5.790831    0.997676
     20          6           0       -2.142455   -5.677126    2.365206
     21          1           0       -1.573676   -6.701681    0.579279
     22          7           0       -1.847028   -6.613319    3.263371
     23          1           0       -2.537275   -4.745723    2.772010
     24          6           0       -1.343083   -7.913966    2.848301
     25          6           0       -2.001124   -6.383386    4.691547
     26          1           0       -2.033679   -8.361604    2.118342
     27          1           0       -1.282484   -8.567549    3.725501
     28          1           0       -0.345575   -7.811376    2.392174
     29          1           0       -2.689612   -7.128126    5.113404
     30          1           0       -2.383039   -5.372072    4.860978
     31          1           0       -1.024798   -6.477759    5.191760
 ---------------------------------------------------------------------
                    Distance matrix (angstroms):
                    1          2          3          4          5
     1  O    0.000000
     2  C    1.361954   0.000000
     3  C    1.432151   2.392921   0.000000
     4  C    2.428551   1.392932   2.804221   0.000000
     5  C    2.349104   1.409849   3.664041   2.433059   0.000000
     6  H    2.090348   2.741210   1.102516   2.839655   4.045107
     7  H    2.024539   3.267996   1.094525   3.872397   4.371777
     8  H    2.101599   2.689263   1.101011   2.734445   4.012310
     9  C    3.689163   2.416597   4.207051   1.403387   2.800815
    10  H    2.740391   2.179432   2.523489   1.087565   3.434186
    11  C    3.616954   2.407543   4.799638   2.790440   1.381165
    12  H    2.550975   2.162069   3.980608   3.411724   1.089597
    13  C    4.190977   2.831618   5.073243   2.466039   2.450107
    14  O    4.785361   3.629912   5.006637   2.358053   4.145421
    15  H    4.468743   3.384282   5.747667   3.878382   2.120686
    16  C    5.664823   4.304834   6.508031   3.798879   3.818700
    17  H    5.564505   4.302919   5.947466   3.191077   4.515105
    18  O    6.363052   5.017389   6.983220   4.179872   4.825462
    19  C    6.528895   5.212783   7.547300   4.987253   4.384421
    20  C    7.884492   6.554162   8.855886   6.213071   5.764437
    21  H    6.284865   5.056117   7.446245   5.126631   3.992422
    22  N    8.885447   7.595412   9.949758   7.396869   6.652323
    23  H    8.300824   6.943554   9.137996   6.389729   6.341081
    24  C    8.818116   7.624791  10.017426   7.691395   6.487401
    25  C   10.263857   8.952225  11.276700   8.647257   8.067945
    26  H    8.315807   7.160018   9.540118   7.308883   5.987714
    27  H    9.869131   8.695314  11.088088   8.782610   7.528652
    28  H    8.438887   7.297326   9.671178   7.461069   6.118020
    29  H   10.854219   9.556799  11.894894   9.295390   8.628468
    30  H   10.368307   9.024272  11.273516   8.553123   8.285686
    31  H   10.775904   9.489503  11.818840   9.239329   8.561982
                    6          7          8          9         10
     6  H    0.000000
     7  H    1.800911   0.000000
     8  H    1.800511   1.792452   0.000000
     9  C    4.173071   5.270343   4.073876   0.000000
    10  H    2.384817   3.607226   2.237290   2.140667   0.000000
    11  C    5.049211   5.624200   4.996725   2.415600   3.877375
    12  H    4.466889   4.449670   4.478172   3.889702   4.329379
    13  C    5.155169   6.052158   5.078334   1.425972   3.433709
    14  O    4.817530   6.098987   4.707464   1.344949   2.557845
    15  H    6.031508   6.491888   5.993021   3.410019   4.965494
    16  C    6.528614   7.508059   6.448240   2.499861   4.640303
    17  H    5.789322   7.033862   5.680900   1.886727   3.571480
    18  O    6.895214   8.041836   6.797916   2.776501   4.785662
    19  C    7.631051   8.479644   7.572635   3.807097   5.920535
    20  C    8.891406   9.813708   8.837842   4.935037   7.075456
    21  H    7.615235   8.292867   7.568849   4.156842   6.149967
    22  N   10.024257  10.862409   9.979596   6.175488   8.307696
    23  H    9.099647  10.148161   9.042136   5.024260   7.133851
    24  C   10.182445  10.836983  10.138800   6.633699   8.692463
    25  C   11.303946  12.218822  11.268576   7.358808   9.498742
    26  H    9.815060  10.322931   9.612297   6.331377   8.327049
    27  H   11.266947  11.890355  11.209947   7.720652   9.783651
    28  H    9.779999  10.458878   9.907049   6.490934   8.483847
    29  H   12.003209  12.815919  11.837938   8.025903  10.159575
    30  H   11.239716  12.263321  11.203821   7.201028   9.316980
    31  H   11.790360  12.744629  11.895864   7.981413  10.107058
                   11         12         13         14         15
    11  C    0.000000
    12  H    2.160644   0.000000
    13  C    1.410916   3.440208   0.000000
    14  O    3.657906   5.233987   2.406587   0.000000
    15  H    1.088221   2.459995   2.164193   4.558207   0.000000
    16  C    2.549466   4.707812   1.474038   2.828893   2.786873
    17  H    3.710202   5.586159   2.309062   1.062322   4.421723
    18  O    3.688695   5.803313   2.375681   2.445270   4.064189
    19  C    3.003487   5.045202   2.523049   4.250582   2.684027
    20  C    4.383812   6.412170   3.787527   5.101069   4.011198
    21  H    2.669196   4.451328   2.741973   4.875451   1.992311
    22  N    5.290251   7.149814   4.935972   6.419876   4.691127
    23  H    4.984810   7.103423   4.113035   4.896891   4.805839
    24  C    5.221936   6.770899   5.259812   7.138610   4.383631
    25  C    6.696230   8.594994   6.217471   7.415995   6.138353
    26  H    4.776166   6.226017   4.943926   6.937612   3.904193
    27  H    6.288783   7.752474   6.350924   8.192989   5.412824
    28  H    4.922190   6.325861   5.104492   7.097741   4.037182
    29  H    7.270087   9.109359   6.860429   8.109050   6.656763
    30  H    6.906284   8.927162   6.212927   7.061449   6.505492
    31  H    7.215694   9.028786   6.817666   8.075414   6.601585
                   16         17         18         19         20
    16  C    0.000000
    17  H    2.135658   0.000000
    18  O    1.296136   1.432289   0.000000
    19  C    1.422133   3.514035   2.365023   0.000000
    20  C    2.435987   4.185751   2.792917   1.380858   0.000000
    21  H    2.174588   4.301337   3.333305   1.084795   2.136061
    22  N    3.691313   5.515735   4.121420   2.414513   1.330577
    23  H    2.643949   3.881273   2.456093   2.131119   1.090360
    24  C    4.310229   6.358283   5.068378   2.889477   2.424011
    25  C    4.863492   6.430852   4.999814   3.741118   2.435291
    26  H    4.155986   6.231514   5.033876   2.804783   2.697999
    27  H    5.369618   7.380059   6.049680   3.955964   3.308247
    28  H    4.323812   6.396711   5.200285   2.954052   2.790077
    29  H    5.538766   7.129094   5.704109   4.383963   3.155531
    30  H    4.771213   6.028154   4.620490   3.905909   2.525830
    31  H    5.517664   7.111212   5.703208   4.357858   3.143180
                   21         22         23         24         25
    21  H    0.000000
    22  N    2.699422   0.000000
    23  H    3.092307   2.050803   0.000000
    24  C    2.582880   1.455310   3.386691   0.000000
    25  C    4.146658   1.454751   2.579539   2.484602   0.000000
    26  H    2.309905   2.098197   3.708839   1.100065   3.245888
    27  H    3.669464   2.085974   4.134005   1.095592   2.494044
    28  H    2.454841   2.109191   3.787618   1.101635   3.172872
    29  H    4.688865   2.097045   3.343827   2.749796   1.098461
    30  H    4.555862   2.092929   2.186296   3.404938   1.094222
    31  H    4.650418   2.100743   3.338072   2.766911   1.101059
                   26         27         28         29         30
    26  H    0.000000
    27  H    1.785964   0.000000
    28  H    1.796505   1.796485   0.000000
    29  H    3.304862   2.445040   3.656013   0.000000
    30  H    4.072027   3.565333   4.024482   1.800398   0.000000
    31  H    3.743342   2.565841   3.174517   1.789056   1.782352
                   31
    31  H    0.000000
 Symmetry turned off by external request.
 Stoichiometry    C12H15NO3
 Framework group  C1[X(C12H15NO3)]
 Deg. of freedom    87
 Full point group                 C1      NOp   1
 Rotational constants (GHZ):      1.4203417      0.2068586      0.1812479
 Leave Link  202 at Fri Nov  3 00:37:39 2017, MaxMem=  3758096384 cpu:         0.2
 (Enter /share/apps/gaussian/g09_D01/g09/l301.exe)
 Standard basis: 6-311++G(d,p) (5D, 7F)
 Ernie: Thresh=  0.10000D-02 Tol=  0.10000D-05 Strict=F.
   457 basis functions,   711 primitive gaussians,   473 cartesian basis functions
    59 alpha electrons       59 beta electrons
       nuclear repulsion energy      1044.6599234631 Hartrees.
 IExCor= 4639 DFT=T Ex+Corr=wB97XD ExCW=0 ScaHFX=  1.000000
 ScaDFX=  1.000000  1.000000  1.000000  1.000000 ScalE2=  1.000000  1.000000
 IRadAn=      0 IRanWt=     -1 IRanGd=            0 ICorTp=0 IEmpDi=121
  HFx wShort=  0.000000 wLong=  0.200000 cFull=  0.222036 cShort=  0.000000 cLong=  0.777964
  DFx wShort=  0.000000 wLong=  0.200000 cFull=  0.000000 cShort=  0.000000 cLong=  1.000000
 NAtoms=   31 NActive=   31 NUniq=   31 SFac= 1.00D+00 NAtFMM=   60 NAOKFM=F Big=F
 Integral buffers will be    131072 words long.
 Raffenetti 1 integral format.
 Two-electron integral symmetry is turned off.
 R6Disp:  Grimme-D2 Dispersion energy=       -0.0177919004 Hartrees.
 Nuclear repulsion after empirical dispersion term =     1044.6421315627 Hartrees.
 Leave Link  301 at Fri Nov  3 00:37:39 2017, MaxMem=  3758096384 cpu:         0.2
 (Enter /share/apps/gaussian/g09_D01/g09/l302.exe)
 NPDir=0 NMtPBC=     1 NCelOv=     1 NCel=       1 NClECP=     1 NCelD=      1
         NCelK=      1 NCelE2=     1 NClLst=     1 CellRange=     0.0.
 One-electron integrals computed using PRISM.
 NBasis=   457 RedAO= T EigKep=  1.04D-06  NBF=   457
 NBsUse=   454 1.00D-06 EigRej=  4.31D-07 NBFU=   454
 Precomputing XC quadrature grid using
 IXCGrd= 4 IRadAn=           0 IRanWt=          -1 IRanGd=           0 AccXCQ= 0.00D+00.
 Generated NRdTot=       0 NPtTot=           0 NUsed=           0 NTot=          32
 NSgBfM=   469   469   469   469   469 MxSgAt=    31 MxSgA2=    31.
 Leave Link  302 at Fri Nov  3 00:37:45 2017, MaxMem=  3758096384 cpu:        13.8
 (Enter /share/apps/gaussian/g09_D01/g09/l308.exe)
 Leave Link  308 at Fri Nov  3 00:37:45 2017, MaxMem=  3758096384 cpu:         1.4
 (Enter /share/apps/gaussian/g09_D01/g09/l303.exe)
 DipDrv:  MaxL=1.
 Leave Link  303 at Fri Nov  3 00:37:46 2017, MaxMem=  3758096384 cpu:         0.9
 (Enter /share/apps/gaussian/g09_D01/g09/l401.exe)
 ExpMin= 3.60D-02 ExpMax= 8.59D+03 ExpMxC= 1.30D+03 IAcc=3 IRadAn=         5 AccDes= 0.00D+00
 Harris functional with IExCor= 4639 and IRadAn=       5 diagonalized for initial guess.
 HarFok:  IExCor= 4639 AccDes= 0.00D+00 IRadAn=         5 IDoV= 1 UseB2=F ITyADJ=14
 ICtDFT=  3500011 ScaDFX=  1.000000  1.000000  1.000000  1.000000
 FoFCou: FMM=F IPFlag=           0 FMFlag=      100000 FMFlg1=           0
         NFxFlg=           0 DoJE=T BraDBF=F KetDBF=T FulRan=T
         wScrn=  0.000000 ICntrl=     500 IOpCl=  0 I1Cent=   200000004 NGrid=           0
         NMat0=    1 NMatS0=      1 NMatT0=    0 NMatD0=    1 NMtDS0=    0 NMtDT0=    0
 Symmetry not used in FoFCou.
 Harris En= -715.030926662823    
 JPrj=0 DoOrth=F DoCkMO=F.
 Leave Link  401 at Fri Nov  3 00:38:15 2017, MaxMem=  3758096384 cpu:        79.1
 (Enter /share/apps/gaussian/g09_D01/g09/l502.exe)
 Closed shell SCF:
 Using DIIS extrapolation, IDIIS=  1040.
 Two-electron integral symmetry not used.
 IVT=      695475 IEndB=      695475 NGot=  3758096384 MDV=  3757641752
 LenX=  3757641752 LenY=  3757417550
 Requested convergence on RMS density matrix=1.00D-08 within 128 cycles.
 Requested convergence on MAX density matrix=1.00D-06.
 Requested convergence on             energy=1.00D-06.
 No special actions if energy rises.
 Fock matrices will be formed incrementally for  20 cycles.

 Cycle   1  Pass 1  IDiag  1:
 FoFJK:  IHMeth= 1 ICntrl=       0 DoSepK=T KAlg= 0 I1Cent=   0 FoldK=F
 IRaf=         1 NMat=   1 IRICut=       1 DoRegI=T DoRafI=F ISym2E= 0.
 FoFCou: FMM=F IPFlag=           0 FMFlag=      100000 FMFlg1=           0
         NFxFlg=           0 DoJE=T BraDBF=F KetDBF=F FulRan=T
         wScrn=  0.000000 ICntrl=     500 IOpCl=  0 I1Cent=           0 NGrid=           0
         NMat0=    1 NMatS0=      1 NMatT0=    0 NMatD0=    1 NMtDS0=    0 NMtDT0=    0
 Symmetry not used in FoFCou.
 E= -746.376417673938    
 DIIS: error= 9.46D-02 at cycle   1 NSaved=   1.
 NSaved= 1 IEnMin= 1 EnMin= -746.376417673938     IErMin= 1 ErrMin= 9.46D-02
 ErrMax= 9.46D-02  0.00D+00 EMaxC= 1.00D-01 BMatC= 1.68D+00 BMatP= 1.68D+00
 IDIUse=3 WtCom= 5.36D-02 WtEn= 9.46D-01
 Coeff-Com:  0.100D+01
 Coeff-En:   0.100D+01
 Coeff:      0.100D+01
 Gap=     0.305 Goal=   None    Shift=    0.000
 GapD=    0.305 DampG=1.000 DampE=0.500 DampFc=0.5000 IDamp=-1.
 Damping current iteration by 5.00D-01
 RMSDP=4.05D-02 MaxDP=5.30D+00              OVMax= 1.59D-01

 Cycle   2  Pass 1  IDiag  1:
 RMSU=  7.02D-03    CP:  8.08D-01
 E= -746.506370085813     Delta-E=       -0.129952411875 Rises=F Damp=T
 DIIS: error= 4.24D-02 at cycle   2 NSaved=   2.
 NSaved= 2 IEnMin= 2 EnMin= -746.506370085813     IErMin= 2 ErrMin= 4.24D-02
 ErrMax= 4.24D-02  0.00D+00 EMaxC= 1.00D-01 BMatC= 3.34D-01 BMatP= 1.68D+00
 IDIUse=3 WtCom= 5.76D-01 WtEn= 4.24D-01
 Coeff-Com: -0.460D+00 0.146D+01
 Coeff-En:   0.000D+00 0.100D+01
 Coeff:     -0.265D+00 0.127D+01
 Gap=     0.301 Goal=   None    Shift=    0.000
 RMSDP=1.82D-02 MaxDP=2.47D+00 DE=-1.30D-01 OVMax= 1.68D-01

 Cycle   3  Pass 1  IDiag  1:
 RMSU=  4.36D-03    CP:  6.32D-01  1.36D+00
 E= -746.600778010945     Delta-E=       -0.094407925132 Rises=F Damp=F
 DIIS: error= 1.44D-02 at cycle   3 NSaved=   3.
 NSaved= 3 IEnMin= 3 EnMin= -746.600778010945     IErMin= 3 ErrMin= 1.44D-02
 ErrMax= 1.44D-02  0.00D+00 EMaxC= 1.00D-01 BMatC= 8.87D-02 BMatP= 3.34D-01
 IDIUse=3 WtCom= 8.56D-01 WtEn= 1.44D-01
 Coeff-Com: -0.298D+00 0.654D+00 0.644D+00
 Coeff-En:   0.000D+00 0.000D+00 0.100D+01
 Coeff:     -0.255D+00 0.560D+00 0.696D+00
 Gap=     0.289 Goal=   None    Shift=    0.000
 RMSDP=5.36D-03 MaxDP=5.24D-01 DE=-9.44D-02 OVMax= 6.53D-02

 Cycle   4  Pass 1  IDiag  1:
 RMSU=  2.19D-03    CP:  5.88D-01  1.50D+00  5.10D-01
 E= -746.663217916523     Delta-E=       -0.062439905578 Rises=F Damp=F
 DIIS: error= 3.85D-03 at cycle   4 NSaved=   4.
 NSaved= 4 IEnMin= 4 EnMin= -746.663217916523     IErMin= 4 ErrMin= 3.85D-03
 ErrMax= 3.85D-03  0.00D+00 EMaxC= 1.00D-01 BMatC= 8.10D-03 BMatP= 8.87D-02
 IDIUse=3 WtCom= 9.61D-01 WtEn= 3.85D-02
 Coeff-Com: -0.115D+00 0.250D+00 0.373D+00 0.492D+00
 Coeff-En:   0.000D+00 0.000D+00 0.183D-01 0.982D+00
 Coeff:     -0.110D+00 0.240D+00 0.359D+00 0.511D+00
 Gap=     0.278 Goal=   None    Shift=    0.000
 RMSDP=1.25D-03 MaxDP=1.13D-01 DE=-6.24D-02 OVMax= 1.67D-02

 Cycle   5  Pass 1  IDiag  1:
 RMSU=  5.34D-04    CP:  5.96D-01  1.50D+00  6.17D-01  6.84D-01
 E= -746.669452315702     Delta-E=       -0.006234399179 Rises=F Damp=F
 DIIS: error= 5.24D-04 at cycle   5 NSaved=   5.
 NSaved= 5 IEnMin= 5 EnMin= -746.669452315702     IErMin= 5 ErrMin= 5.24D-04
 ErrMax= 5.24D-04  0.00D+00 EMaxC= 1.00D-01 BMatC= 1.35D-04 BMatP= 8.10D-03
 IDIUse=3 WtCom= 9.95D-01 WtEn= 5.24D-03
 Coeff-Com:  0.420D-02-0.970D-02 0.379D-01 0.164D+00 0.803D+00
 Coeff-En:   0.000D+00 0.000D+00 0.000D+00 0.000D+00 0.100D+01
 Coeff:      0.417D-02-0.965D-02 0.377D-01 0.163D+00 0.804D+00
 Gap=     0.278 Goal=   None    Shift=    0.000
 RMSDP=4.02D-04 MaxDP=3.75D-02 DE=-6.23D-03 OVMax= 3.50D-03

 Cycle   6  Pass 1  IDiag  1:
 RMSU=  1.97D-04    CP:  5.93D-01  1.48D+00  6.28D-01  7.76D-01  9.27D-01
 E= -746.669589839837     Delta-E=       -0.000137524135 Rises=F Damp=F
 DIIS: error= 3.45D-04 at cycle   6 NSaved=   6.
 NSaved= 6 IEnMin= 6 EnMin= -746.669589839837     IErMin= 6 ErrMin= 3.45D-04
 ErrMax= 3.45D-04  0.00D+00 EMaxC= 1.00D-01 BMatC= 3.74D-05 BMatP= 1.35D-04
 IDIUse=3 WtCom= 9.97D-01 WtEn= 3.45D-03
 Coeff-Com:  0.207D-01-0.451D-01-0.395D-01-0.236D-02 0.402D+00 0.665D+00
 Coeff-En:   0.000D+00 0.000D+00 0.000D+00 0.000D+00 0.000D+00 0.100D+01
 Coeff:      0.207D-01-0.450D-01-0.393D-01-0.235D-02 0.400D+00 0.666D+00
 Gap=     0.280 Goal=   None    Shift=    0.000
 RMSDP=1.10D-04 MaxDP=7.01D-03 DE=-1.38D-04 OVMax= 2.81D-03

 Cycle   7  Pass 1  IDiag  1:
 RMSU=  5.35D-05    CP:  5.93D-01  1.48D+00  6.26D-01  7.97D-01  1.06D+00
                    CP:  9.97D-01
 E= -746.669630400735     Delta-E=       -0.000040560898 Rises=F Damp=F
 DIIS: error= 1.13D-04 at cycle   7 NSaved=   7.
 NSaved= 7 IEnMin= 7 EnMin= -746.669630400735     IErMin= 7 ErrMin= 1.13D-04
 ErrMax= 1.13D-04  0.00D+00 EMaxC= 1.00D-01 BMatC= 3.17D-06 BMatP= 3.74D-05
 IDIUse=3 WtCom= 9.99D-01 WtEn= 1.13D-03
 Coeff-Com:  0.540D-02-0.116D-01-0.146D-01-0.188D-01 0.201D-01 0.225D+00
 Coeff-Com:  0.795D+00
 Coeff-En:   0.000D+00 0.000D+00 0.000D+00 0.000D+00 0.000D+00 0.000D+00
 Coeff-En:   0.100D+01
 Coeff:      0.539D-02-0.116D-01-0.146D-01-0.188D-01 0.200D-01 0.225D+00
 Coeff:      0.795D+00
 Gap=     0.280 Goal=   None    Shift=    0.000
 RMSDP=4.30D-05 MaxDP=2.88D-03 DE=-4.06D-05 OVMax= 7.86D-04

 Cycle   8  Pass 1  IDiag  1:
 RMSU=  2.20D-05    CP:  5.93D-01  1.48D+00  6.26D-01  8.05D-01  1.09D+00
                    CP:  1.12D+00  9.58D-01
 E= -746.669635069921     Delta-E=       -0.000004669186 Rises=F Damp=F
 DIIS: error= 5.32D-05 at cycle   8 NSaved=   8.
 NSaved= 8 IEnMin= 8 EnMin= -746.669635069921     IErMin= 8 ErrMin= 5.32D-05
 ErrMax= 5.32D-05  0.00D+00 EMaxC= 1.00D-01 BMatC= 6.44D-07 BMatP= 3.17D-06
 IDIUse=1 WtCom= 1.00D+00 WtEn= 0.00D+00
 Coeff-Com: -0.870D-03 0.197D-02-0.689D-04-0.853D-02-0.613D-01-0.365D-02
 Coeff-Com:  0.352D+00 0.721D+00
 Coeff:     -0.870D-03 0.197D-02-0.689D-04-0.853D-02-0.613D-01-0.365D-02
 Coeff:      0.352D+00 0.721D+00
 Gap=     0.280 Goal=   None    Shift=    0.000
 RMSDP=1.83D-05 MaxDP=2.07D-03 DE=-4.67D-06 OVMax= 6.17D-04

 Cycle   9  Pass 1  IDiag  1:
 RMSU=  1.03D-05    CP:  5.93D-01  1.48D+00  6.27D-01  8.06D-01  1.10D+00
                    CP:  1.16D+00  1.04D+00  1.14D+00
 E= -746.669636178860     Delta-E=       -0.000001108939 Rises=F Damp=F
 DIIS: error= 1.43D-05 at cycle   9 NSaved=   9.
 NSaved= 9 IEnMin= 9 EnMin= -746.669636178860     IErMin= 9 ErrMin= 1.43D-05
 ErrMax= 1.43D-05  0.00D+00 EMaxC= 1.00D-01 BMatC= 8.28D-08 BMatP= 6.44D-07
 IDIUse=1 WtCom= 1.00D+00 WtEn= 0.00D+00
 Coeff-Com: -0.113D-02 0.246D-02 0.269D-02 0.906D-03-0.234D-01-0.353D-01
 Coeff-Com: -0.348D-01 0.222D+00 0.866D+00
 Coeff:     -0.113D-02 0.246D-02 0.269D-02 0.906D-03-0.234D-01-0.353D-01
 Coeff:     -0.348D-01 0.222D+00 0.866D+00
 Gap=     0.280 Goal=   None    Shift=    0.000
 RMSDP=1.12D-05 MaxDP=7.70D-04 DE=-1.11D-06 OVMax= 1.97D-04

 Cycle  10  Pass 1  IDiag  1:
 RMSU=  5.23D-06    CP:  5.93D-01  1.48D+00  6.27D-01  8.06D-01  1.11D+00
                    CP:  1.18D+00  1.08D+00  1.34D+00  1.18D+00
 E= -746.669636343589     Delta-E=       -0.000000164729 Rises=F Damp=F
 DIIS: error= 6.72D-06 at cycle  10 NSaved=  10.
 NSaved=10 IEnMin=10 EnMin= -746.669636343589     IErMin=10 ErrMin= 6.72D-06
 ErrMax= 6.72D-06  0.00D+00 EMaxC= 1.00D-01 BMatC= 9.75D-09 BMatP= 8.28D-08
 IDIUse=1 WtCom= 1.00D+00 WtEn= 0.00D+00
 Coeff-Com: -0.146D-03 0.311D-03 0.718D-03 0.144D-02 0.539D-03-0.835D-02
 Coeff-Com: -0.622D-01-0.114D-01 0.277D+00 0.802D+00
 Coeff:     -0.146D-03 0.311D-03 0.718D-03 0.144D-02 0.539D-03-0.835D-02
 Coeff:     -0.622D-01-0.114D-01 0.277D+00 0.802D+00
 Gap=     0.280 Goal=   None    Shift=    0.000
 RMSDP=3.46D-06 MaxDP=2.58D-04 DE=-1.65D-07 OVMax= 7.47D-05

 Cycle  11  Pass 1  IDiag  1:
 RMSU=  1.18D-06    CP:  5.93D-01  1.48D+00  6.28D-01  8.06D-01  1.11D+00
                    CP:  1.19D+00  1.09D+00  1.40D+00  1.27D+00  1.24D+00
 E= -746.669636363457     Delta-E=       -0.000000019868 Rises=F Damp=F
 DIIS: error= 2.16D-06 at cycle  11 NSaved=  11.
 NSaved=11 IEnMin=11 EnMin= -746.669636363457     IErMin=11 ErrMin= 2.16D-06
 ErrMax= 2.16D-06  0.00D+00 EMaxC= 1.00D-01 BMatC= 1.63D-09 BMatP= 9.75D-09
 IDIUse=1 WtCom= 1.00D+00 WtEn= 0.00D+00
 Coeff-Com:  0.105D-03-0.228D-03-0.953D-04 0.513D-03 0.346D-02 0.195D-02
 Coeff-Com: -0.197D-01-0.321D-01-0.361D-01 0.288D+00 0.794D+00
 Coeff:      0.105D-03-0.228D-03-0.953D-04 0.513D-03 0.346D-02 0.195D-02
 Coeff:     -0.197D-01-0.321D-01-0.361D-01 0.288D+00 0.794D+00
 Gap=     0.280 Goal=   None    Shift=    0.000
 RMSDP=1.45D-06 MaxDP=1.07D-04 DE=-1.99D-08 OVMax= 3.10D-05

 Cycle  12  Pass 1  IDiag  1:
 RMSU=  5.65D-07    CP:  5.93D-01  1.48D+00  6.28D-01  8.06D-01  1.11D+00
                    CP:  1.19D+00  1.09D+00  1.44D+00  1.32D+00  1.35D+00
                    CP:  1.10D+00
 E= -746.669636366476     Delta-E=       -0.000000003019 Rises=F Damp=F
 DIIS: error= 9.22D-07 at cycle  12 NSaved=  12.
 NSaved=12 IEnMin=12 EnMin= -746.669636366476     IErMin=12 ErrMin= 9.22D-07
 ErrMax= 9.22D-07  0.00D+00 EMaxC= 1.00D-01 BMatC= 2.06D-10 BMatP= 1.63D-09
 IDIUse=1 WtCom= 1.00D+00 WtEn= 0.00D+00
 Coeff-Com:  0.438D-04-0.949D-04-0.928D-04 0.591D-04 0.109D-02 0.148D-02
 Coeff-Com:  0.104D-02-0.744D-02-0.479D-01-0.839D-02 0.253D+00 0.807D+00
 Coeff:      0.438D-04-0.949D-04-0.928D-04 0.591D-04 0.109D-02 0.148D-02
 Coeff:      0.104D-02-0.744D-02-0.479D-01-0.839D-02 0.253D+00 0.807D+00
 Gap=     0.280 Goal=   None    Shift=    0.000
 RMSDP=5.89D-07 MaxDP=5.11D-05 DE=-3.02D-09 OVMax= 1.45D-05

 Cycle  13  Pass 1  IDiag  1:
 RMSU=  1.79D-07    CP:  5.93D-01  1.48D+00  6.28D-01  8.06D-01  1.11D+00
                    CP:  1.19D+00  1.09D+00  1.45D+00  1.33D+00  1.39D+00
                    CP:  1.23D+00  1.31D+00
 E= -746.669636366912     Delta-E=       -0.000000000436 Rises=F Damp=F
 DIIS: error= 5.36D-07 at cycle  13 NSaved=  13.
 NSaved=13 IEnMin=13 EnMin= -746.669636366912     IErMin=13 ErrMin= 5.36D-07
 ErrMax= 5.36D-07  0.00D+00 EMaxC= 1.00D-01 BMatC= 4.17D-11 BMatP= 2.06D-10
 IDIUse=1 WtCom= 1.00D+00 WtEn= 0.00D+00
 Coeff-Com:  0.275D-06-0.179D-06-0.229D-04-0.586D-04-0.187D-03 0.175D-03
 Coeff-Com:  0.408D-02 0.299D-02-0.130D-01-0.589D-01-0.428D-01 0.332D+00
 Coeff-Com:  0.776D+00
 Coeff:      0.275D-06-0.179D-06-0.229D-04-0.586D-04-0.187D-03 0.175D-03
 Coeff:      0.408D-02 0.299D-02-0.130D-01-0.589D-01-0.428D-01 0.332D+00
 Coeff:      0.776D+00
 Gap=     0.280 Goal=   None    Shift=    0.000
 RMSDP=2.17D-07 MaxDP=1.58D-05 DE=-4.36D-10 OVMax= 5.80D-06

 Cycle  14  Pass 1  IDiag  1:
 RMSU=  6.26D-08    CP:  5.93D-01  1.48D+00  6.28D-01  8.06D-01  1.11D+00
                    CP:  1.19D+00  1.09D+00  1.45D+00  1.33D+00  1.41D+00
                    CP:  1.28D+00  1.46D+00  1.07D+00
 E= -746.669636366946     Delta-E=       -0.000000000034 Rises=F Damp=F
 DIIS: error= 1.72D-07 at cycle  14 NSaved=  14.
 NSaved=14 IEnMin=14 EnMin= -746.669636366946     IErMin=14 ErrMin= 1.72D-07
 ErrMax= 1.72D-07  0.00D+00 EMaxC= 1.00D-01 BMatC= 4.29D-12 BMatP= 4.17D-11
 IDIUse=1 WtCom= 1.00D+00 WtEn= 0.00D+00
 Coeff-Com: -0.257D-05 0.581D-05 0.156D-05-0.182D-04-0.155D-03-0.865D-04
 Coeff-Com:  0.916D-03 0.134D-02 0.271D-02-0.145D-01-0.347D-01-0.623D-03
 Coeff-Com:  0.225D+00 0.820D+00
 Coeff:     -0.257D-05 0.581D-05 0.156D-05-0.182D-04-0.155D-03-0.865D-04
 Coeff:      0.916D-03 0.134D-02 0.271D-02-0.145D-01-0.347D-01-0.623D-03
 Coeff:      0.225D+00 0.820D+00
 Gap=     0.280 Goal=   None    Shift=    0.000
 RMSDP=5.38D-08 MaxDP=3.13D-06 DE=-3.43D-11 OVMax= 2.54D-06

 Cycle  15  Pass 1  IDiag  1:
 RMSU=  2.56D-08    CP:  5.93D-01  1.48D+00  6.28D-01  8.06D-01  1.11D+00
                    CP:  1.19D+00  1.09D+00  1.45D+00  1.33D+00  1.41D+00
                    CP:  1.29D+00  1.50D+00  1.12D+00  1.23D+00
 E= -746.669636367013     Delta-E=       -0.000000000067 Rises=F Damp=F
 DIIS: error= 8.20D-08 at cycle  15 NSaved=  15.
 NSaved=15 IEnMin=15 EnMin= -746.669636367013     IErMin=15 ErrMin= 8.20D-08
 ErrMax= 8.20D-08  0.00D+00 EMaxC= 1.00D-01 BMatC= 8.24D-13 BMatP= 4.29D-12
 IDIUse=1 WtCom= 1.00D+00 WtEn= 0.00D+00
 Coeff-Com: -0.160D-05 0.339D-05 0.645D-05 0.553D-05-0.309D-04-0.796D-04
 Coeff-Com: -0.428D-03-0.217D-03 0.364D-02 0.462D-02-0.500D-02-0.626D-01
 Coeff-Com: -0.762D-01 0.214D+00 0.922D+00
 Coeff:     -0.160D-05 0.339D-05 0.645D-05 0.553D-05-0.309D-04-0.796D-04
 Coeff:     -0.428D-03-0.217D-03 0.364D-02 0.462D-02-0.500D-02-0.626D-01
 Coeff:     -0.762D-01 0.214D+00 0.922D+00
 Gap=     0.280 Goal=   None    Shift=    0.000
 RMSDP=3.32D-08 MaxDP=2.11D-06 DE=-6.66D-11 OVMax= 1.45D-06

 Cycle  16  Pass 1  IDiag  1:
 RMSU=  9.11D-09    CP:  5.93D-01  1.48D+00  6.28D-01  8.06D-01  1.11D+00
                    CP:  1.19D+00  1.09D+00  1.45D+00  1.33D+00  1.41D+00
                    CP:  1.30D+00  1.52D+00  1.18D+00  1.41D+00  1.17D+00
 E= -746.669636367031     Delta-E=       -0.000000000018 Rises=F Damp=F
 DIIS: error= 3.74D-08 at cycle  16 NSaved=  16.
 NSaved=16 IEnMin=16 EnMin= -746.669636367031     IErMin=16 ErrMin= 3.74D-08
 ErrMax= 3.74D-08  0.00D+00 EMaxC= 1.00D-01 BMatC= 1.17D-13 BMatP= 8.24D-13
 IDIUse=1 WtCom= 1.00D+00 WtEn= 0.00D+00
 Coeff-Com: -0.558D-07 0.679D-07 0.102D-05 0.415D-05 0.177D-04-0.547D-05
 Coeff-Com: -0.187D-03-0.295D-03 0.331D-03 0.295D-02 0.473D-02-0.703D-02
 Coeff-Com: -0.414D-01-0.111D+00 0.114D+00 0.104D+01
 Coeff:     -0.558D-07 0.679D-07 0.102D-05 0.415D-05 0.177D-04-0.547D-05
 Coeff:     -0.187D-03-0.295D-03 0.331D-03 0.295D-02 0.473D-02-0.703D-02
 Coeff:     -0.414D-01-0.111D+00 0.114D+00 0.104D+01
 Gap=     0.280 Goal=   None    Shift=    0.000
 RMSDP=1.13D-08 MaxDP=8.60D-07 DE=-1.84D-11 OVMax= 6.64D-07

 Cycle  17  Pass 1  IDiag  1:
 RMSU=  3.11D-09    CP:  5.93D-01  1.48D+00  6.28D-01  8.06D-01  1.11D+00
                    CP:  1.19D+00  1.09D+00  1.45D+00  1.33D+00  1.41D+00
                    CP:  1.30D+00  1.52D+00  1.18D+00  1.45D+00  1.32D+00
                    CP:  1.34D+00
 E= -746.669636366907     Delta-E=        0.000000000124 Rises=F Damp=F
 DIIS: error= 1.44D-08 at cycle  17 NSaved=  17.
 NSaved=17 IEnMin=16 EnMin= -746.669636367031     IErMin=17 ErrMin= 1.44D-08
 ErrMax= 1.44D-08  0.00D+00 EMaxC= 1.00D-01 BMatC= 2.78D-14 BMatP= 1.17D-13
 IDIUse=1 WtCom= 1.00D+00 WtEn= 0.00D+00
 Coeff-Com:  0.206D-06-0.444D-06-0.685D-06 0.628D-06 0.121D-04 0.111D-04
 Coeff-Com:  0.103D-04-0.952D-04-0.458D-03 0.341D-03 0.234D-02 0.758D-02
 Coeff-Com: -0.215D-02-0.827D-01-0.114D+00 0.398D+00 0.791D+00
 Coeff:      0.206D-06-0.444D-06-0.685D-06 0.628D-06 0.121D-04 0.111D-04
 Coeff:      0.103D-04-0.952D-04-0.458D-03 0.341D-03 0.234D-02 0.758D-02
 Coeff:     -0.215D-02-0.827D-01-0.114D+00 0.398D+00 0.791D+00
 Gap=     0.280 Goal=   None    Shift=    0.000
 RMSDP=4.22D-09 MaxDP=2.97D-07 DE= 1.24D-10 OVMax= 1.91D-07

 SCF Done:  E(RwB97XD) =  -746.669636367     A.U. after   17 cycles
            NFock= 17  Conv=0.42D-08     -V/T= 2.0045
 KE= 7.433277256171D+02 PE=-3.831911551892D+03 EE= 1.297272058346D+03
 Leave Link  502 at Fri Nov  3 00:58:13 2017, MaxMem=  3758096384 cpu:      3580.8
 (Enter /share/apps/gaussian/g09_D01/g09/l801.exe)
 DoSCS=F DFT=T ScalE2(SS,OS)=  1.000000  1.000000
 ExpMin= 3.60D-02 ExpMax= 8.59D+03 ExpMxC= 1.30D+03 IAcc=3 IRadAn=         5 AccDes= 0.00D+00
 HarFok:  IExCor=  205 AccDes= 0.00D+00 IRadAn=         5 IDoV=-2 UseB2=F ITyADJ=14
 ICtDFT= 12500011 ScaDFX=  1.000000  1.000000  1.000000  1.000000
 Largest valence mixing into a core orbital is  5.73D-05
 Largest core mixing into a valence orbital is  1.60D-05
 Range of M.O.s used for correlation:    17   454
 NBasis=   457 NAE=    59 NBE=    59 NFC=    16 NFV=     0
 NROrb=    438 NOA=    43 NOB=    43 NVA=   395 NVB=   395

 **** Warning!!: The largest alpha MO coefficient is  0.25033632D+03

 Leave Link  801 at Fri Nov  3 00:58:16 2017, MaxMem=  3758096384 cpu:         5.8
 (Enter /share/apps/gaussian/g09_D01/g09/l914.exe)
 RHF ground state
 MDV=  3758096384 DFT=T DoStab=F Mixed=T DoRPA=T DoScal=F NonHer=T
 Would need an additional         29175500000 words for in-memory AO integral storage.
 Making orbital integer symmetry assigments:
    16 initial guesses have been made.
 Convergence on wavefunction:    0.001000000000000
 Davidson Disk Diagonalization:  ConvIn= 1.00D-03 SkipCon=T Conv= 1.00D-03.
 Max sub-space:   200 roots to seek:    16 dimension of matrix:        33970
 Iteration     1 Dimension    16 NMult     0 NNew     16
 CISAX will form    16 AO SS matrices at one time.
 NMat=    16 NSing=    16 JSym2X= 0.
 FoFJK:  IHMeth= 1 ICntrl=       0 DoSepK=T KAlg= 0 I1Cent=   0 FoldK=F
 IRaf=         1 NMat=  32 IRICut=       1 DoRegI=T DoRafI=F ISym2E= 0.
 FoFCou: FMM=F IPFlag=           0 FMFlag=      100000 FMFlg1=           0
         NFxFlg=           0 DoJE=F BraDBF=F KetDBF=F FulRan=T
         wScrn=  0.000000 ICntrl=     500 IOpCl=  0 I1Cent=           0 NGrid=           0
         NMat0=   16 NMatS0=     16 NMatT0=    0 NMatD0=   16 NMtDS0=    0 NMtDT0=    0
 Symmetry not used in FoFCou.
 New state      2 was old state     10
 New state      4 was old state      2
 Excitation Energies [eV] at current iteration:
 Root      1 :     4.510574613807501
 Root      2 :     4.568403857184956
 Root      3 :     5.287557418452369
 Root      4 :     5.682486771076214
 Root      5 :     5.775631973002795
 Root      6 :     6.091581086466142
 Root      7 :     6.481929703488055
 Root      8 :     6.588514008622531
 Root      9 :     6.627357528146226
 Root     10 :     6.840658778895199
 Root     11 :     6.953515062546905
 Root     12 :     6.998158318171138
 Root     13 :     7.206022565062884
 Root     14 :     7.372015746654061
 Root     15 :     7.521399022040547
 Root     16 :     7.598527916066709
 Iteration     2 Dimension    24 NMult    16 NNew      8
 CISAX will form     8 AO SS matrices at one time.
 NMat=     8 NSing=     8 JSym2X= 0.
 Root      1 not converged, maximum delta is    0.057668408382268
 Root      2 not converged, maximum delta is    0.053679762456914
 Root      3 not converged, maximum delta is    0.109997208565705
 Root      4 not converged, maximum delta is    0.076101070817963
 Excitation Energies [eV] at current iteration:
 Root      1 :     3.992356655898873   Change is   -0.518217957908628
 Root      2 :     4.284712657919825   Change is   -0.283691199265131
 Root      3 :     4.662565768682466   Change is   -0.624991649769904
 Root      4 :     5.424154949360187   Change is   -0.258331821716028
 Iteration     3 Dimension    32 NMult    24 NNew      8
 CISAX will form     8 AO SS matrices at one time.
 NMat=     8 NSing=     8 JSym2X= 0.
 Root      1 not converged, maximum delta is    0.022996184503751
 Root      2 not converged, maximum delta is    0.008831297808298
 Root      3 not converged, maximum delta is    0.072941759166965
 Root      4 not converged, maximum delta is    0.111346908174293
 Excitation Energies [eV] at current iteration:
 Root      1 :     3.951021803322622   Change is   -0.041334852576251
 Root      2 :     4.270126200964794   Change is   -0.014586456955031
 Root      3 :     4.592246500847991   Change is   -0.070319267834475
 Root      4 :     5.387452354001287   Change is   -0.036702595358900
 Iteration     4 Dimension    40 NMult    32 NNew      8
 CISAX will form     8 AO SS matrices at one time.
 NMat=     8 NSing=     8 JSym2X= 0.
 Root      1 not converged, maximum delta is    0.014905438026016
 Root      2 not converged, maximum delta is    0.002946192710858
 Root      3 not converged, maximum delta is    0.026772403274560
 Root      4 not converged, maximum delta is    0.457645920448101
 Excitation Energies [eV] at current iteration:
 Root      1 :     3.942858245374515   Change is   -0.008163557948108
 Root      2 :     4.269198528885384   Change is   -0.000927672079410
 Root      3 :     4.576069884235813   Change is   -0.016176616612178
 Root      4 :     5.159771106136610   Change is   -0.227681247864677
 Iteration     5 Dimension    48 NMult    40 NNew      8
 CISAX will form     8 AO SS matrices at one time.
 NMat=     8 NSing=     8 JSym2X= 0.
 Root      1 not converged, maximum delta is    0.004170793350346
 Root      2 not converged, maximum delta is    0.001254598675669
 Root      3 not converged, maximum delta is    0.008157238173425
 Root      4 not converged, maximum delta is    0.059660255722371
 Excitation Energies [eV] at current iteration:
 Root      1 :     3.941913600433129   Change is   -0.000944644941385
 Root      2 :     4.269100435215978   Change is   -0.000098093669406
 Root      3 :     4.574131942457148   Change is   -0.001937941778665
 Root      4 :     5.028435441583991   Change is   -0.131335664552620
 Iteration     6 Dimension    56 NMult    48 NNew      8
 CISAX will form     8 AO SS matrices at one time.
 NMat=     8 NSing=     8 JSym2X= 0.
 Root      1 not converged, maximum delta is    0.001174101476353
 Root      2 has converged.
 Root      3 not converged, maximum delta is    0.002108887093383
 Root      4 not converged, maximum delta is    0.019646699529786
 Excitation Energies [eV] at current iteration:
 Root      1 :     3.941794905582450   Change is   -0.000118694850679
 Root      2 :     4.269091491063765   Change is   -0.000008944152212
 Root      3 :     4.573909000715800   Change is   -0.000222941741348
 Root      4 :     5.006675590198035   Change is   -0.021759851385956
 Iteration     7 Dimension    62 NMult    56 NNew      6
 CISAX will form     6 AO SS matrices at one time.
 NMat=     6 NSing=     6 JSym2X= 0.
 Root      1 has converged.
 Root      2 has converged.
 Root      3 has converged.
 Root      4 not converged, maximum delta is    0.005056658555413
 Excitation Energies [eV] at current iteration:
 Root      1 :     3.941786208183644   Change is   -0.000008697398806
 Root      2 :     4.269091408272621   Change is   -0.000000082791144
 Root      3 :     4.573883869670001   Change is   -0.000025131045799
 Root      4 :     5.004138530750369   Change is   -0.002537059447665
 Iteration     8 Dimension    64 NMult    62 NNew      2
 CISAX will form     2 AO SS matrices at one time.
 NMat=     2 NSing=     2 JSym2X= 0.
 Root      1 has converged.
 Root      2 has converged.
 Root      3 has converged.
 Root      4 not converged, maximum delta is    0.001542023560710
 Excitation Energies [eV] at current iteration:
 Root      1 :     3.941786116908067   Change is   -0.000000091275577
 Root      2 :     4.269091399245664   Change is   -0.000000009026957
 Root      3 :     4.573883405427860   Change is   -0.000000464242142
 Root      4 :     5.003927363807645   Change is   -0.000211166942724
 Iteration     9 Dimension    66 NMult    64 NNew      2
 CISAX will form     2 AO SS matrices at one time.
 NMat=     2 NSing=     2 JSym2X= 0.
 Root      1 has converged.
 Root      2 has converged.
 Root      3 has converged.
 Root      4 has converged.
 Excitation Energies [eV] at current iteration:
 Root      1 :     3.941786099006338   Change is   -0.000000017901729
 Root      2 :     4.269091398265838   Change is   -0.000000000979826
 Root      3 :     4.573883387772098   Change is   -0.000000017655761
 Root      4 :     5.003904404962536   Change is   -0.000022958845110
 Convergence achieved on expansion vectors.
 ***********************************************************************
 Excited states from <AA,BB:AA,BB> singles matrix:
 ***********************************************************************
 
 1PDM for each excited state written to RWF  633
 Ground to excited state transition densities written to RWF  633
 Ground to excited state transition electric dipole moments (Au):
       state          X           Y           Z        Dip. S.      Osc.
         1        -0.1251      0.9240     -2.5040      7.1393      0.6895
         2         0.0296      0.0038     -0.0076      0.0010      0.0001
         3         0.1079     -0.5099      1.2805      1.9113      0.2142
         4        -0.2338      0.3945      0.3797      0.3545      0.0435
 Ground to excited state transition velocity dipole moments (Au):
       state          X           Y           Z        Dip. S.      Osc.
         1         0.0191     -0.1345      0.3571      0.1460      0.6717
         2        -0.0051     -0.0007      0.0009      0.0000      0.0001
         3        -0.0174      0.0823     -0.2104      0.0514      0.2037
         4         0.0412     -0.0714     -0.0587      0.0102      0.0371
 Ground to excited state transition magnetic dipole moments (Au):
       state          X           Y           Z
         1        -3.8554      1.3241      0.7011
         2         0.1325     -0.3868     -0.1797
         3         1.1461     -1.2124     -0.6222
         4         0.4362     -0.3151      0.6823
 Ground to excited state transition velocity quadrupole moments (Au):
       state          XX          YY          ZZ          XY          XZ          YZ
         1        -0.1321      2.5953     -0.4860      0.3929     -1.2981     -3.5982
         2         0.0668     -0.0194     -0.0644      0.0343     -0.0216      0.0119
         3         0.1282     -1.8683     -0.8937     -0.1345      0.6038      2.7853
         4        -0.3568      1.4173      1.6307     -0.0628      0.2785      0.0513
 <0|del|b> * <b|rxdel|0> + <0|del|b> * <b|delr+rdel|0>
 Rotatory Strengths (R) in cgs (10**-40 erg-esu-cm/Gauss)
       state          XX          YY          ZZ    R(velocity)    E-M Angle
         1        92.3590    -78.3774    -20.5033     -2.1739       90.05
         2         0.2915     -2.1129     -0.7219     -0.8478      103.93
         3        20.3686     72.0112    -45.4515     15.6428       88.42
         4        11.6298    -45.4456     35.5176      0.5673       89.71
 1/2[<0|r|b>*<b|rxdel|0> + (<0|rxdel|b>*<b|r|0>)*]
 Rotatory Strengths (R) in cgs (10**-40 erg-esu-cm/Gauss)
       state          XX          YY          ZZ     R(length)
         1      -340.9838   -865.1636   1241.5208     11.7911
         2        -2.7774      1.0402     -0.9677     -0.9016
         3       -87.4878   -437.2105    563.4323     12.9113
         4        72.1127     87.9241   -183.1798     -7.7143
  1/2[<0|del|b>*<b|r|0> + (<0|r|b>*<b|del|0>)*] (Au)
       state          X           Y           Z        Dip. S.   Osc.(frdel)
         1        -0.0024     -0.1243     -0.8941      1.0208      0.6805
         2        -0.0002      0.0000      0.0000      0.0002      0.0001
         3        -0.0019     -0.0420     -0.2694      0.3133      0.2089
         4        -0.0096     -0.0282     -0.0223      0.0601      0.0401

 Excitation energies and oscillator strengths:
 
 Excited state symmetry could not be determined.
 Excited State   1:      Singlet-?Sym    3.9418 eV  314.54 nm  f=0.6895  <S**2>=0.000
      59 -> 60         0.68034
 This state for optimization and/or second-order correction.
 Total Energy, E(TD-HF/TD-KS) =  -746.524778387    
 Copying the excited state density for this state as the 1-particle RhoCI density.
 
 Excited state symmetry could not be determined.
 Excited State   2:      Singlet-?Sym    4.2691 eV  290.42 nm  f=0.0001  <S**2>=0.000
      56 -> 60         0.68444
 
 Excited state symmetry could not be determined.
 Excited State   3:      Singlet-?Sym    4.5739 eV  271.07 nm  f=0.2142  <S**2>=0.000
      57 -> 73        -0.11344
      58 -> 60         0.66173
      59 -> 66         0.15653
 
 Excited state symmetry could not be determined.
 Excited State   4:      Singlet-?Sym    5.0039 eV  247.77 nm  f=0.0435  <S**2>=0.000
      55 -> 60         0.11034
      57 -> 60         0.58280
      58 -> 60        -0.10167
      58 -> 66         0.15465
      59 -> 66         0.23139
      59 -> 73         0.10665
 SavETr:  write IOETrn=   770 NScale= 10 NData=  16 NLR=1 NState=    4 LETran=      82.
 Leave Link  914 at Fri Nov  3 01:47:59 2017, MaxMem=  3758096384 cpu:      9165.1
 (Enter /share/apps/gaussian/g09_D01/g09/l601.exe)
 Copying SCF densities to generalized density rwf, IOpCl= 0 IROHF=0.

 **********************************************************************

            Population analysis using the SCF density.

 **********************************************************************

 Alpha  occ. eigenvalues --  -19.28255 -19.23277 -19.21862 -14.49721 -10.37150
 Alpha  occ. eigenvalues --  -10.35528 -10.35287 -10.34966 -10.34590 -10.34329
 Alpha  occ. eigenvalues --  -10.33883 -10.29701 -10.28365 -10.27621 -10.27582
 Alpha  occ. eigenvalues --  -10.27419  -1.17121  -1.13850  -1.09887  -1.09301
 Alpha  occ. eigenvalues --   -0.94898  -0.89540  -0.86266  -0.85553  -0.83875
 Alpha  occ. eigenvalues --   -0.81513  -0.79171  -0.71786  -0.69967  -0.68590
 Alpha  occ. eigenvalues --   -0.65198  -0.62977  -0.61772  -0.59515  -0.58986
 Alpha  occ. eigenvalues --   -0.58298  -0.56749  -0.55860  -0.54145  -0.52768
 Alpha  occ. eigenvalues --   -0.52175  -0.51805  -0.51519  -0.50322  -0.49959
 Alpha  occ. eigenvalues --   -0.49510  -0.48656  -0.46566  -0.46295  -0.46246
 Alpha  occ. eigenvalues --   -0.43936  -0.42696  -0.41715  -0.41414  -0.38677
 Alpha  occ. eigenvalues --   -0.33303  -0.31170  -0.30150  -0.27657
 Alpha virt. eigenvalues --    0.00304   0.02549   0.04189   0.04722   0.05448
 Alpha virt. eigenvalues --    0.05808   0.06314   0.06515   0.07261   0.07707
 Alpha virt. eigenvalues --    0.07899   0.08239   0.08386   0.08866   0.09676
 Alpha virt. eigenvalues --    0.10030   0.10741   0.11671   0.12199   0.12652
 Alpha virt. eigenvalues --    0.13047   0.13552   0.14119   0.14424   0.14694
 Alpha virt. eigenvalues --    0.14835   0.15140   0.15645   0.16165   0.16546
 Alpha virt. eigenvalues --    0.17024   0.17416   0.17480   0.17670   0.18063
 Alpha virt. eigenvalues --    0.18521   0.18868   0.18927   0.19449   0.19948
 Alpha virt. eigenvalues --    0.20083   0.20378   0.20884   0.21451   0.21669
 Alpha virt. eigenvalues --    0.21976   0.22645   0.22938   0.23042   0.23735
 Alpha virt. eigenvalues --    0.23880   0.23995   0.24535   0.25179   0.25299
 Alpha virt. eigenvalues --    0.25552   0.25649   0.26649   0.27104   0.27724
 Alpha virt. eigenvalues --    0.27912   0.28258   0.28840   0.28979   0.29417
 Alpha virt. eigenvalues --    0.29766   0.29957   0.30660   0.31224   0.32034
 Alpha virt. eigenvalues --    0.33010   0.33260   0.33549   0.33665   0.34250
 Alpha virt. eigenvalues --    0.34812   0.35314   0.36269   0.36306   0.36495
 Alpha virt. eigenvalues --    0.37258   0.37862   0.38408   0.38590   0.38975
 Alpha virt. eigenvalues --    0.39289   0.39907   0.40355   0.40640   0.41321
 Alpha virt. eigenvalues --    0.41936   0.42735   0.43030   0.43417   0.44044
 Alpha virt. eigenvalues --    0.44492   0.44805   0.45653   0.46132   0.46640
 Alpha virt. eigenvalues --    0.47817   0.49359   0.50108   0.50708   0.51192
 Alpha virt. eigenvalues --    0.51842   0.52256   0.52889   0.54003   0.55036
 Alpha virt. eigenvalues --    0.55573   0.56872   0.58175   0.58767   0.60869
 Alpha virt. eigenvalues --    0.62605   0.63008   0.63960   0.64450   0.64980
 Alpha virt. eigenvalues --    0.65938   0.67157   0.67279   0.68116   0.68268
 Alpha virt. eigenvalues --    0.69040   0.69293   0.70031   0.70771   0.71459
 Alpha virt. eigenvalues --    0.71566   0.72018   0.72541   0.73229   0.73550
 Alpha virt. eigenvalues --    0.73804   0.75158   0.76503   0.76763   0.77281
 Alpha virt. eigenvalues --    0.77920   0.78385   0.79281   0.80886   0.81171
 Alpha virt. eigenvalues --    0.81512   0.82917   0.84313   0.85335   0.86623
 Alpha virt. eigenvalues --    0.87312   0.88002   0.88929   0.91255   0.92248
 Alpha virt. eigenvalues --    0.93664   0.95704   0.96681   0.96952   0.98601
 Alpha virt. eigenvalues --    0.98734   0.99607   1.02174   1.03137   1.04515
 Alpha virt. eigenvalues --    1.05045   1.05241   1.05814   1.06539   1.08297
 Alpha virt. eigenvalues --    1.09588   1.10371   1.10692   1.11440   1.12060
 Alpha virt. eigenvalues --    1.13095   1.14002   1.14430   1.15356   1.16798
 Alpha virt. eigenvalues --    1.16893   1.18183   1.19685   1.20603   1.22086
 Alpha virt. eigenvalues --    1.23616   1.24141   1.28037   1.30047   1.31127
 Alpha virt. eigenvalues --    1.34578   1.34771   1.36450   1.37474   1.38443
 Alpha virt. eigenvalues --    1.39230   1.39737   1.40812   1.43152   1.43927
 Alpha virt. eigenvalues --    1.47973   1.49665   1.50169   1.51395   1.51906
 Alpha virt. eigenvalues --    1.54460   1.54917   1.56890   1.57351   1.58616
 Alpha virt. eigenvalues --    1.60817   1.61196   1.62185   1.62773   1.63382
 Alpha virt. eigenvalues --    1.64727   1.64792   1.65125   1.66012   1.66830
 Alpha virt. eigenvalues --    1.68991   1.69901   1.70063   1.72513   1.72658
 Alpha virt. eigenvalues --    1.74627   1.76809   1.77355   1.77873   1.78544
 Alpha virt. eigenvalues --    1.79877   1.80684   1.81388   1.82229   1.82525
 Alpha virt. eigenvalues --    1.83048   1.84633   1.86686   1.87134   1.89100
 Alpha virt. eigenvalues --    1.91112   1.93006   1.94029   1.96323   1.97635
 Alpha virt. eigenvalues --    1.98770   1.99401   2.01323   2.02401   2.03826
 Alpha virt. eigenvalues --    2.05382   2.06329   2.07001   2.08014   2.08609
 Alpha virt. eigenvalues --    2.09120   2.09352   2.12216   2.14540   2.16357
 Alpha virt. eigenvalues --    2.17336   2.19104   2.19808   2.20768   2.21908
 Alpha virt. eigenvalues --    2.22719   2.23532   2.24233   2.27009   2.29584
 Alpha virt. eigenvalues --    2.30921   2.32184   2.37243   2.40109   2.41613
 Alpha virt. eigenvalues --    2.43845   2.46565   2.46774   2.49693   2.50151
 Alpha virt. eigenvalues --    2.52367   2.54350   2.54721   2.55882   2.57338
 Alpha virt. eigenvalues --    2.58084   2.59652   2.61190   2.61753   2.62883
 Alpha virt. eigenvalues --    2.63880   2.65882   2.67037   2.69733   2.70991
 Alpha virt. eigenvalues --    2.71246   2.74442   2.75938   2.76449   2.77489
 Alpha virt. eigenvalues --    2.80350   2.81639   2.82080   2.84087   2.84813
 Alpha virt. eigenvalues --    2.85438   2.86538   2.90135   2.90529   2.91555
 Alpha virt. eigenvalues --    2.93631   2.94649   2.95834   2.97491   2.97852
 Alpha virt. eigenvalues --    2.98868   2.99636   3.01630   3.04825   3.07727
 Alpha virt. eigenvalues --    3.12613   3.13557   3.14605   3.15665   3.18640
 Alpha virt. eigenvalues --    3.19382   3.22572   3.22697   3.23843   3.26877
 Alpha virt. eigenvalues --    3.29849   3.31716   3.31831   3.32883   3.35482
 Alpha virt. eigenvalues --    3.38230   3.40761   3.45476   3.50706   3.53731
 Alpha virt. eigenvalues --    3.55886   3.58602   3.62657   3.66599   3.67468
 Alpha virt. eigenvalues --    3.70876   3.73360   3.76666   3.78228   3.78872
 Alpha virt. eigenvalues --    3.81663   3.83680   3.85832   3.89550   3.91852
 Alpha virt. eigenvalues --    3.92999   3.93951   4.03362   4.08802   4.12836
 Alpha virt. eigenvalues --    4.17842   4.19541   4.26945   4.31572   4.35251
 Alpha virt. eigenvalues --    4.41759   4.67336   4.94572   4.96246   5.14542
 Alpha virt. eigenvalues --    5.16350   5.17502   5.19859   5.38150   5.50677
 Alpha virt. eigenvalues --    5.67244   5.83727   5.90450   5.98678  23.74256
 Alpha virt. eigenvalues --   23.93163  24.02537  24.03788  24.04356  24.04886
 Alpha virt. eigenvalues --   24.06567  24.07517  24.13908  24.23337  24.25228
 Alpha virt. eigenvalues --   24.30850  35.70241  50.10376  50.14949  50.19180
          Condensed to atoms (all electrons):
               1          2          3          4          5          6
     1  O    8.174897   0.353547   0.204614   0.281741  -0.641971  -0.034281
     2  C    0.353547  12.057124   0.208068  -1.069127   0.627330  -0.049463
     3  C    0.204614   0.208068   5.251798  -0.393405   0.151533   0.411455
     4  C    0.281741  -1.069127  -0.393405  12.303805  -3.422498   0.042783
     5  C   -0.641971   0.627330   0.151533  -3.422498  11.146403  -0.027211
     6  H   -0.034281  -0.049463   0.411455   0.042783  -0.027211   0.557680
     7  H   -0.065991   0.051142   0.386145  -0.028518   0.024055  -0.020337
     8  H   -0.029749   0.000065   0.403879   0.000957  -0.017791  -0.060513
     9  C    0.041660  -1.263251  -0.151799   2.422924   0.100336   0.010723
    10  H   -0.015897  -0.225526  -0.018772   0.693980  -0.045843  -0.006839
    11  C   -0.138063  -0.404536  -0.002046  -0.020394   1.602630  -0.004369
    12  H   -0.029548  -0.126405   0.006357  -0.164870   0.575544  -0.001770
    13  C    0.011327  -2.434445  -0.078553  -4.043375  -1.838143   0.004433
    14  O   -0.000302   0.001204   0.005162  -0.324325   0.009325  -0.000005
    15  H    0.003340   0.068252  -0.004074   0.168314  -0.206051   0.000519
    16  C    0.013171  -0.100097   0.016856  -0.308865  -0.855517   0.001919
    17  H   -0.000353  -0.000121   0.000163   0.030924   0.023477  -0.000047
    18  O   -0.000094  -0.009840   0.000238   0.040687  -0.002152  -0.000050
    19  C    0.000996  -0.404549  -0.002602   0.000079  -0.316332  -0.000136
    20  C    0.000872  -0.280137   0.000055  -0.084599  -0.083489  -0.000159
    21  H   -0.000707  -0.013938   0.000617  -0.023465  -0.016964  -0.000131
    22  N    0.000001  -0.001087  -0.000003  -0.000508  -0.000622   0.000000
    23  H    0.000022  -0.002303  -0.000051  -0.008003   0.002959   0.000009
    24  C    0.000002  -0.002835  -0.000017   0.006856  -0.000274   0.000001
    25  C    0.000001  -0.000571   0.000002   0.000564  -0.000769  -0.000001
    26  H    0.000003  -0.000262  -0.000006  -0.000914   0.001781   0.000001
    27  H    0.000000  -0.000240  -0.000001   0.000418  -0.000658   0.000000
    28  H    0.000003   0.000155   0.000001  -0.000859   0.000577   0.000001
    29  H    0.000000   0.000017   0.000000  -0.000013   0.000048   0.000000
    30  H    0.000000   0.000044   0.000001   0.000349  -0.000453   0.000000
    31  H    0.000000   0.000014   0.000000  -0.000007   0.000086   0.000000
               7          8          9         10         11         12
     1  O   -0.065991  -0.029749   0.041660  -0.015897  -0.138063  -0.029548
     2  C    0.051142   0.000065  -1.263251  -0.225526  -0.404536  -0.126405
     3  C    0.386145   0.403879  -0.151799  -0.018772  -0.002046   0.006357
     4  C   -0.028518   0.000957   2.422924   0.693980  -0.020394  -0.164870
     5  C    0.024055  -0.017791   0.100336  -0.045843   1.602630   0.575544
     6  H   -0.020337  -0.060513   0.010723  -0.006839  -0.004369  -0.001770
     7  H    0.459213  -0.020132  -0.015997  -0.001876   0.005189   0.001266
     8  H   -0.020132   0.582195  -0.009805  -0.009271  -0.005934  -0.000259
     9  C   -0.015997  -0.009805  21.026437   0.135050  -4.556277   0.044205
    10  H   -0.001876  -0.009271   0.135050   0.512727   0.012621  -0.002029
    11  C    0.005189  -0.005934  -4.556277   0.012621  14.308340  -0.064951
    12  H    0.001266  -0.000259   0.044205  -0.002029  -0.064951   0.497704
    13  C    0.004771  -0.001912   3.491330  -0.136614  -7.945199   0.125363
    14  O    0.000329   0.000378   0.232280  -0.030334  -0.055826   0.000674
    15  H   -0.000395   0.000071  -0.021765   0.004655   0.697830  -0.044742
    16  C    0.002429   0.004328  -6.862711  -0.063472   3.758622  -0.056492
    17  H    0.000052   0.000003   0.000604   0.001634   0.062761   0.000646
    18  O    0.000021  -0.000050  -0.267680  -0.000235  -0.194773   0.000660
    19  C    0.000898   0.000890  -6.677723  -0.030056   2.632110  -0.025699
    20  C    0.000084   0.000125  -1.801264  -0.004620  -2.126057   0.012034
    21  H    0.000073  -0.000033   0.007443  -0.001417  -0.049509   0.009936
    22  N    0.000000   0.000000   0.003085  -0.000035  -0.020030   0.000339
    23  H   -0.000002   0.000011  -0.080349  -0.000290   0.057063  -0.000385
    24  C    0.000001   0.000003  -0.053826  -0.000022   0.056321  -0.001129
    25  C    0.000000   0.000000   0.001814   0.000029  -0.021451   0.000130
    26  H   -0.000001   0.000002  -0.002811  -0.000010  -0.006654   0.000058
    27  H    0.000000   0.000000  -0.000328   0.000002  -0.003011  -0.000052
    28  H    0.000000   0.000000  -0.001968  -0.000010  -0.002818   0.000043
    29  H    0.000000   0.000000  -0.000213   0.000000   0.000912   0.000001
    30  H    0.000000   0.000000   0.005525   0.000001  -0.005371   0.000013
    31  H    0.000000   0.000000  -0.000394   0.000000   0.000951   0.000000
              13         14         15         16         17         18
     1  O    0.011327  -0.000302   0.003340   0.013171  -0.000353  -0.000094
     2  C   -2.434445   0.001204   0.068252  -0.100097  -0.000121  -0.009840
     3  C   -0.078553   0.005162  -0.004074   0.016856   0.000163   0.000238
     4  C   -4.043375  -0.324325   0.168314  -0.308865   0.030924   0.040687
     5  C   -1.838143   0.009325  -0.206051  -0.855517   0.023477  -0.002152
     6  H    0.004433  -0.000005   0.000519   0.001919  -0.000047  -0.000050
     7  H    0.004771   0.000329  -0.000395   0.002429   0.000052   0.000021
     8  H   -0.001912   0.000378   0.000071   0.004328   0.000003  -0.000050
     9  C    3.491330   0.232280  -0.021765  -6.862711   0.000604  -0.267680
    10  H   -0.136614  -0.030334   0.004655  -0.063472   0.001634  -0.000235
    11  C   -7.945199  -0.055826   0.697830   3.758622   0.062761  -0.194773
    12  H    0.125363   0.000674  -0.044742  -0.056492   0.000646   0.000660
    13  C   27.057768   0.085909  -0.394959  -0.199720  -0.119056  -0.032539
    14  O    0.085909   8.179141  -0.004573  -0.033402   0.215012   0.022396
    15  H   -0.394959  -0.004573   0.642532   0.161808   0.001911  -0.000610
    16  C   -0.199720  -0.033402   0.161808  15.295706   0.030325   0.693266
    17  H   -0.119056   0.215012   0.001911   0.030325   0.263521   0.085912
    18  O   -0.032539   0.022396  -0.000610   0.693266   0.085912   8.195011
    19  C   -8.499916   0.021291   0.089864   1.318035   0.001544  -0.394464
    20  C   -1.188431   0.049977  -0.192059  -5.511309  -0.032263   0.255740
    21  H   -0.099216   0.001718  -0.049201  -0.115315  -0.000785  -0.011991
    22  N   -0.005120  -0.000113  -0.008204  -0.053114  -0.000099   0.003614
    23  H   -0.113054   0.000370   0.003101   0.091438   0.000489   0.005010
    24  C   -0.342696   0.000008   0.008914  -0.335663  -0.001104  -0.001876
    25  C    0.034099   0.000402  -0.003004  -0.111756  -0.000204   0.001857
    26  H   -0.007213  -0.000001  -0.002714  -0.041617  -0.000042   0.000618
    27  H   -0.009643  -0.000002   0.000203  -0.024042  -0.000116   0.000076
    28  H    0.006025   0.000049  -0.002217   0.017681   0.000018   0.000294
    29  H   -0.000349   0.000001  -0.000048   0.000655   0.000041  -0.000012
    30  H    0.014342  -0.000056   0.000206   0.023792   0.000196   0.000966
    31  H   -0.000869   0.000005  -0.000023   0.003618   0.000015  -0.000051
              19         20         21         22         23         24
     1  O    0.000996   0.000872  -0.000707   0.000001   0.000022   0.000002
     2  C   -0.404549  -0.280137  -0.013938  -0.001087  -0.002303  -0.002835
     3  C   -0.002602   0.000055   0.000617  -0.000003  -0.000051  -0.000017
     4  C    0.000079  -0.084599  -0.023465  -0.000508  -0.008003   0.006856
     5  C   -0.316332  -0.083489  -0.016964  -0.000622   0.002959  -0.000274
     6  H   -0.000136  -0.000159  -0.000131   0.000000   0.000009   0.000001
     7  H    0.000898   0.000084   0.000073   0.000000  -0.000002   0.000001
     8  H    0.000890   0.000125  -0.000033   0.000000   0.000011   0.000003
     9  C   -6.677723  -1.801264   0.007443   0.003085  -0.080349  -0.053826
    10  H   -0.030056  -0.004620  -0.001417  -0.000035  -0.000290  -0.000022
    11  C    2.632110  -2.126057  -0.049509  -0.020030   0.057063   0.056321
    12  H   -0.025699   0.012034   0.009936   0.000339  -0.000385  -0.001129
    13  C   -8.499916  -1.188431  -0.099216  -0.005120  -0.113054  -0.342696
    14  O    0.021291   0.049977   0.001718  -0.000113   0.000370   0.000008
    15  H    0.089864  -0.192059  -0.049201  -0.008204   0.003101   0.008914
    16  C    1.318035  -5.511309  -0.115315  -0.053114   0.091438  -0.335663
    17  H    0.001544  -0.032263  -0.000785  -0.000099   0.000489  -0.001104
    18  O   -0.394464   0.255740  -0.011991   0.003614   0.005010  -0.001876
    19  C   18.465686  -0.214472   0.507215  -0.359314   0.185489   0.387706
    20  C   -0.214472  15.658781   0.064079   0.359757   0.263754   0.058881
    21  H    0.507215   0.064079   0.706900  -0.030402   0.000516   0.017287
    22  N   -0.359314   0.359757  -0.030402   6.857319  -0.066104   0.234793
    23  H    0.185489   0.263754   0.000516  -0.066104   0.462720   0.010493
    24  C    0.387706   0.058881   0.017287   0.234793   0.010493   5.269405
    25  C   -0.146943  -0.025780  -0.008293   0.282182  -0.042567  -0.072055
    26  H   -0.075481   0.100365   0.000464  -0.044033   0.001926   0.419840
    27  H    0.047103   0.004736   0.003108  -0.048369  -0.000491   0.387723
    28  H   -0.016532  -0.008198  -0.005312  -0.043976  -0.001375   0.410658
    29  H    0.021586  -0.028201   0.001143  -0.048757   0.001736  -0.003838
    30  H    0.014424   0.019932  -0.002953  -0.089420  -0.010443  -0.004567
    31  H    0.029004  -0.042012   0.000478  -0.048193   0.003221   0.005789
              25         26         27         28         29         30
     1  O    0.000001   0.000003   0.000000   0.000003   0.000000   0.000000
     2  C   -0.000571  -0.000262  -0.000240   0.000155   0.000017   0.000044
     3  C    0.000002  -0.000006  -0.000001   0.000001   0.000000   0.000001
     4  C    0.000564  -0.000914   0.000418  -0.000859  -0.000013   0.000349
     5  C   -0.000769   0.001781  -0.000658   0.000577   0.000048  -0.000453
     6  H   -0.000001   0.000001   0.000000   0.000001   0.000000   0.000000
     7  H    0.000000  -0.000001   0.000000   0.000000   0.000000   0.000000
     8  H    0.000000   0.000002   0.000000   0.000000   0.000000   0.000000
     9  C    0.001814  -0.002811  -0.000328  -0.001968  -0.000213   0.005525
    10  H    0.000029  -0.000010   0.000002  -0.000010   0.000000   0.000001
    11  C   -0.021451  -0.006654  -0.003011  -0.002818   0.000912  -0.005371
    12  H    0.000130   0.000058  -0.000052   0.000043   0.000001   0.000013
    13  C    0.034099  -0.007213  -0.009643   0.006025  -0.000349   0.014342
    14  O    0.000402  -0.000001  -0.000002   0.000049   0.000001  -0.000056
    15  H   -0.003004  -0.002714   0.000203  -0.002217  -0.000048   0.000206
    16  C   -0.111756  -0.041617  -0.024042   0.017681   0.000655   0.023792
    17  H   -0.000204  -0.000042  -0.000116   0.000018   0.000041   0.000196
    18  O    0.001857   0.000618   0.000076   0.000294  -0.000012   0.000966
    19  C   -0.146943  -0.075481   0.047103  -0.016532   0.021586   0.014424
    20  C   -0.025780   0.100365   0.004736  -0.008198  -0.028201   0.019932
    21  H   -0.008293   0.000464   0.003108  -0.005312   0.001143  -0.002953
    22  N    0.282182  -0.044033  -0.048369  -0.043976  -0.048757  -0.089420
    23  H   -0.042567   0.001926  -0.000491  -0.001375   0.001736  -0.010443
    24  C   -0.072055   0.419840   0.387723   0.410658  -0.003838  -0.004567
    25  C    5.194844   0.006175   0.006425  -0.001876   0.404696   0.405527
    26  H    0.006175   0.533755  -0.020245  -0.049345  -0.001538  -0.001875
    27  H    0.006425  -0.020245   0.481418  -0.019305  -0.006379   0.002840
    28  H   -0.001876  -0.049345  -0.019305   0.519658   0.002748  -0.001222
    29  H    0.404696  -0.001538  -0.006379   0.002748   0.557778  -0.020602
    30  H    0.405527  -0.001875   0.002840  -0.001222  -0.020602   0.525578
    31  H    0.401203   0.002316  -0.005148  -0.000827  -0.064679  -0.029670
              31
     1  O    0.000000
     2  C    0.000014
     3  C    0.000000
     4  C   -0.000007
     5  C    0.000086
     6  H    0.000000
     7  H    0.000000
     8  H    0.000000
     9  C   -0.000394
    10  H    0.000000
    11  C    0.000951
    12  H    0.000000
    13  C   -0.000869
    14  O    0.000005
    15  H   -0.000023
    16  C    0.003618
    17  H    0.000015
    18  O   -0.000051
    19  C    0.029004
    20  C   -0.042012
    21  H    0.000478
    22  N   -0.048193
    23  H    0.003221
    24  C    0.005789
    25  C    0.401203
    26  H    0.002316
    27  H   -0.005148
    28  H   -0.000827
    29  H   -0.064679
    30  H   -0.029670
    31  H    0.557413
 Mulliken charges:
               1
     1  O   -0.129242
     2  C   -0.978232
     3  C   -0.395615
     4  C   -0.100636
     5  C   -0.789346
     6  H    0.175788
     7  H    0.217581
     8  H    0.162541
     9  C    0.244743
    10  H    0.232467
    11  C   -1.568082
    12  H    0.243361
    13  C    2.655650
    14  O   -0.376692
    15  H    0.083119
    16  C   -0.760559
    17  H    0.434942
    18  O   -0.389950
    19  C   -0.559701
    20  C    0.773878
    21  H    0.108656
    22  N    0.126411
    23  H    0.235091
    24  C   -0.454780
    25  C   -0.304678
    26  H    0.187457
    27  H    0.203979
    28  H    0.197928
    29  H    0.183265
    30  H    0.152896
    31  H    0.187759
 Sum of Mulliken charges =   0.00000
 Mulliken charges with hydrogens summed into heavy atoms:
               1
     1  O   -0.129242
     2  C   -0.978232
     3  C    0.160294
     4  C    0.131831
     5  C   -0.545985
     9  C    0.244743
    11  C   -1.484963
    13  C    2.655650
    14  O    0.058250
    16  C   -0.760559
    18  O   -0.389950
    19  C   -0.451044
    20  C    1.008968
    22  N    0.126411
    24  C    0.134585
    25  C    0.219241
 Electronic spatial extent (au):  <R**2>=          18821.7531
 Charge=              0.0000 electrons
 Dipole moment (field-independent basis, Debye):
    X=              1.6613    Y=             -4.7362    Z=              4.0934  Tot=              6.4767
 Quadrupole moment (field-independent basis, Debye-Ang):
   XX=           -106.5861   YY=            -45.5588   ZZ=            -61.6492
   XY=              1.2916   XZ=             -6.2177   YZ=            -35.8897
 Traceless Quadrupole moment (field-independent basis, Debye-Ang):
   XX=            -35.3214   YY=             25.7059   ZZ=              9.6155
   XY=              1.2916   XZ=             -6.2177   YZ=            -35.8897
 Octapole moment (field-independent basis, Debye-Ang**2):
  XXX=            633.4201  YYY=           1029.7540  ZZZ=            235.1570  XYY=            151.8066
  XXY=            520.2925  XXZ=             99.0273  XZZ=            118.6733  YZZ=            338.2259
  YYZ=            359.8245  XYZ=             57.5284
 Hexadecapole moment (field-independent basis, Debye-Ang**3):
 XXXX=          -2831.6403 YYYY=         -12645.3993 ZZZZ=          -5281.0141 XXXY=          -3008.5343
 XXXZ=           -537.0988 YYYX=          -2406.0812 YYYZ=          -2555.8601 ZZZX=           -395.5572
 ZZZY=           -971.0333 XXYY=          -3252.4343 XXZZ=          -1393.1035 YYZZ=          -3009.1466
 XXYZ=           -302.2746 YYXZ=           -632.9462 ZZXY=           -618.1740
 N-N= 1.044642131563D+03 E-N=-3.831911550648D+03  KE= 7.433277256171D+02
 Leave Link  601 at Fri Nov  3 01:47:59 2017, MaxMem=  3758096384 cpu:         0.7
 (Enter /share/apps/gaussian/g09_D01/g09/l9999.exe)
 1\1\GINC-SM2\SP\RwB97XD TD-FC\6-311++G(d,p)\C12H15N1O3\BTX008\03-Nov-2
 017\0\\#p wb97xd 6-311++G** td=(nstates=4) nosymm\\Title\\0,1\O,0,-1.5
 57825,-4.987505,-5.46728\C,0,-1.789017,-4.873739,-4.129922\C,0,-1.9173
 54,-3.882159,-6.303943\C,0,-2.3335,-3.738275,-3.534507\C,0,-1.431455,-
 5.990118,-3.346646\H,0,-1.291808,-3.004361,-6.0722\H,0,-1.733457,-4.21
 4872,-7.330329\H,0,-2.980192,-3.618875,-6.188697\C,0,-2.510896,-3.7031
 6,-2.14282\H,0,-2.639191,-2.867075,-4.109278\C,0,-1.620885,-5.942866,-
 1.979349\H,0,-0.975526,-6.854205,-3.82904\C,0,-2.153915,-4.813624,-1.3
 22557\O,0,-3.023326,-2.5863,-1.596078\H,0,-1.325865,-6.811846,-1.39448
 8\C,0,-2.362741,-4.724851,0.133911\H,0,-3.063137,-2.831579,-0.563227\O
 ,0,-2.878075,-3.634334,0.608434\C,0,-1.988498,-5.790831,0.997676\C,0,-
 2.142455,-5.677126,2.365206\H,0,-1.573676,-6.701681,0.579279\N,0,-1.84
 7028,-6.613319,3.263371\H,0,-2.537275,-4.745723,2.77201\C,0,-1.343083,
 -7.913966,2.848301\C,0,-2.001124,-6.383386,4.691547\H,0,-2.033679,-8.3
 61604,2.118342\H,0,-1.282484,-8.567549,3.725501\H,0,-0.345575,-7.81137
 6,2.392174\H,0,-2.689612,-7.128126,5.113404\H,0,-2.383039,-5.372072,4.
 860978\H,0,-1.024798,-6.477759,5.19176\\Version=ES64L-G09RevD.01\HF=-7
 46.6696364\RMSD=4.224e-09\PG=C01 [X(C12H15N1O3)]\\@


 LET US PLACE AT THE END OF EVERY CHAPTER.....THE
 TWO LETTERS USED BY THE ROMAN JUDGES WHEN THEY DID
 NOT UNDERSTAND A PLEADING.
 N. L. -NON LIQUET- IT IS NOT CLEAR.
                                              -- VOLTAIRE
 Job cpu time:       0 days  3 hours 34 minutes 11.1 seconds.
 File lengths (MBytes):  RWF=    314 Int=      0 D2E=      0 Chk=     36 Scr=      1
 Normal termination of Gaussian 09 at Fri Nov  3 01:48:00 2017.
