
     Program PWSCF v.6.1 (svn rev. 13369) starts on 18Oct2017 at 14:39:49 

     This program is part of the open-source Quantum ESPRESSO suite
     for quantum simulation of materials; please cite
         "P. Giannozzi et al., J. Phys.:Condens. Matter 21 395502 (2009);
          URL http://www.quantum-espresso.org", 
     in publications or presentations arising from this work. More details at
     http://www.quantum-espresso.org/quote

     Parallel version (MPI), running on     1 processors
     Waiting for input...
     Reading input from standard input

     Current dimensions of program PWSCF are:
     Max number of different atomic species (ntypx) = 10
     Max number of k-points (npk) =  40000
     Max angular momentum in pseudopotentials (lmaxx) =  3
     Message from routine iosys:
     london is obsolete, use "vdw_corr='grimme-d2'" instead

     IMPORTANT: XC functional enforced from input :
     Exchange-correlation      = PBE ( 1  4  3  4 0 0)
     Any further DFT definition will be discarded
     Please, verify this is what you really want

               file C.pbe-rrkjus.UPF: wavefunction(s)  2S 2P renormalized
               file H.pbe-rrkjus.UPF: wavefunction(s)  1S renormalized
               file O.pbe-rrkjus.UPF: wavefunction(s)  2S renormalized
               file N.pbe-rrkjus.UPF: wavefunction(s)  2S renormalized

     -------------------------------------
     Parameters for Dispersion Correction:
     -------------------------------------
       atom      VdW radius       C_6     

        C          2.744         60.710
        H          1.892          4.857
        O          2.536         24.284
        N          2.640         42.670

     Subspace diagonalization in iterative solution of the eigenvalue problem:
     a serial algorithm will be used

 
     G-vector sticks info
     --------------------
     sticks:   dense  smooth     PW     G-vecs:    dense   smooth      PW
     Sum        3019    3019    825               169855   169855   24389
 


     bravais-lattice index     =            0
     lattice parameter (alat)  =      14.0342  a.u.
     unit-cell volume          =    7653.1420 (a.u.)^3
     number of atoms/cell      =          124
     number of atomic types    =            4
     number of electrons       =       344.00
     number of Kohn-Sham states=          172
     kinetic-energy cutoff     =      30.0000  Ry
     charge density cutoff     =     120.0000  Ry
     convergence threshold     =      1.0E-07
     mixing beta               =       0.7000
     number of iterations used =            8  plain     mixing
     Exchange-correlation      = PBE ( 1  4  3  4 0 0)
     nstep                     =           50


     celldm(1)=  14.034240  celldm(2)=   0.000000  celldm(3)=   0.000000
     celldm(4)=   0.000000  celldm(5)=   0.000000  celldm(6)=   0.000000

     crystal axes: (cart. coord. in units of alat)
               a(1) = (   1.000000   0.000000   0.000000 )  
               a(2) = (   0.000000   1.600867   0.000000 )  
               a(3) = (  -0.373929   0.000000   1.729489 )  

     reciprocal axes: (cart. coord. in units 2 pi/alat)
               b(1) = (  1.000000  0.000000  0.216208 )  
               b(2) = (  0.000000  0.624661  0.000000 )  
               b(3) = (  0.000000  0.000000  0.578206 )  


     PseudoPot. # 1 for C  read from file:
     /data/home/btx156/espresso/pseudo/C.pbe-rrkjus.UPF
     MD5 check sum: 00fb224312de0c5b6853bd333518df6f
     Pseudo is Ultrasoft, Zval =  4.0
     Generated by new atomic code, or converted to UPF format
     Using radial grid of  627 points,  4 beta functions with: 
                l(1) =   0
                l(2) =   0
                l(3) =   1
                l(4) =   1
     Q(r) pseudized with 0 coefficients 


     PseudoPot. # 2 for H  read from file:
     /data/home/btx156/espresso/pseudo/H.pbe-rrkjus.UPF
     MD5 check sum: 7cc9d459525c9a0585f487a71c3c9563
     Pseudo is Ultrasoft, Zval =  1.0
     Generated by new atomic code, or converted to UPF format
     Using radial grid of 1061 points,  2 beta functions with: 
                l(1) =   0
                l(2) =   0
     Q(r) pseudized with 0 coefficients 


     PseudoPot. # 3 for O  read from file:
     /data/home/btx156/espresso/pseudo/O.pbe-rrkjus.UPF
     MD5 check sum: 390ba29e75625707450f3bd3f0eb6be9
     Pseudo is Ultrasoft, Zval =  6.0
     Generated by new atomic code, or converted to UPF format
     Using radial grid of 1269 points,  4 beta functions with: 
                l(1) =   0
                l(2) =   0
                l(3) =   1
                l(4) =   1
     Q(r) pseudized with 0 coefficients 


     PseudoPot. # 4 for N  read from file:
     /data/home/btx156/espresso/pseudo/N.pbe-rrkjus.UPF
     MD5 check sum: 0c3fbe5807a93f9ba59d5a7019aa238b
     Pseudo is Ultrasoft, Zval =  5.0
     Generated by new atomic code, or converted to UPF format
     Using radial grid of 1257 points,  4 beta functions with: 
                l(1) =   0
                l(2) =   0
                l(3) =   1
                l(4) =   1
     Q(r) pseudized with 0 coefficients 


     atomic species   valence    mass     pseudopotential
        C              4.00    12.00000     C ( 1.00)
        H              1.00     1.00790     H ( 1.00)
        O              6.00    15.99940     O ( 1.00)
        N              5.00    14.00670     N ( 1.00)

      4 Sym. Ops., with inversion, found ( 2 have fractional translation)



   Cartesian axes

     site n.     atom                  positions (alat units)
         1           O   tau(   1) = (   0.1032729   1.4720067   0.1285692  )
         2           C   tau(   2) = (   0.0230087   1.4485935   0.6866609  )
         3           O   tau(   3) = (  -0.0940585   1.1486817   0.6498309  )
         4           C   tau(   4) = (  -0.0051101   1.4366401   0.8827769  )
         5           C   tau(   5) = (   0.0721427   1.4566880   0.3086460  )
         6           C   tau(   6) = (  -0.0011726   1.3037965   0.3888193  )
         7           C   tau(   7) = (  -0.0250591   1.2990683   0.5762114  )
         8           O   tau(   8) = (  -0.0745004   1.2898007   0.9466707  )
         9           N   tau(   9) = (   0.0643311   0.0900572   1.3041609  )
        10           C   tau(  10) = (   0.0245516   1.5648650   1.1832220  )
        11           C   tau(  11) = (   0.0947817  -0.0002200   0.5982230  )
        12           C   tau(  12) = (   0.0452821   1.5801754   0.9990839  )
        13           C   tau(  13) = (   0.1202887   0.0061425   0.4141137  )
        14           C   tau(  14) = (   0.1321879   0.2651908   1.2482712  )
        15           C   tau(  15) = (   0.0435820   0.0590965   1.4964663  )
        16           C   tau(  16) = (   0.0548619   1.3231707   0.0159116  )
        17           H   tau(  17) = (   0.1390925   1.2049741   0.0471161  )
        18           H   tau(  18) = (  -0.2943050   1.3679708   1.6071962  )
        19           H   tau(  19) = (   0.9117496   1.2877192   0.0314297  )
        20           H   tau(  20) = (  -0.0423342   1.1864885   0.3114257  )
        21           H   tau(  21) = (  -0.0286114   1.4394504   1.2379985  )
        22           H   tau(  22) = (   0.1011383   0.1019553   0.9427448  )
        23           H   tau(  23) = (   0.1816801   0.1224928   0.3491587  )
        24           H   tau(  24) = (   0.1345066   0.1167892   0.6769753  )
        25           H   tau(  25) = (  -0.0491237   0.1593766   1.5532698  )
        26           H   tau(  26) = (   0.0391984   0.3254658   1.1499815  )
        27           H   tau(  27) = (   0.1403476   0.3531964   1.3663872  )
        28           H   tau(  28) = (  -0.0078433   1.5237891   1.5192804  )
        29           H   tau(  29) = (   0.2665035   0.2513770   1.1868531  )
        30           H   tau(  30) = (   0.1750454   0.0718039   1.5638205  )
        31           H   tau(  31) = (  -0.0994191   1.1817088   0.7889054  )
        32           O   tau(  32) = (   0.2097627   0.6715731   0.7361764  )
        33           O   tau(  33) = (   0.5227983   0.1288605   1.6009207  )
        34           O   tau(  34) = (   0.4163084   0.9292941   0.9933135  )
        35           C   tau(  35) = (   0.2900268   0.6481599   0.1780848  )
        36           C   tau(  36) = (   0.6030624   0.1522737   1.0428291  )
        37           C   tau(  37) = (   0.3360443   0.9527073   1.5514052  )
        38           O   tau(  38) = (   0.4070941   0.3482481   0.2149134  )
        39           O   tau(  39) = (   0.7201296   0.4521854   1.0796577  )
        40           O   tau(  40) = (   0.2189771   1.2526190   1.5145752  )
        41           C   tau(  41) = (  -0.0557832   0.6362065   1.7114573  )
        42           C   tau(  42) = (   0.6311813   0.1642271   0.8467130  )
        43           C   tau(  43) = (   0.6818543   0.9646607   0.0180313  )
        44           C   tau(  44) = (   0.2408929   0.6562545   0.5560983  )
        45           C   tau(  45) = (   0.5539285   0.1441791   1.4208426  )
        46           C   tau(  46) = (   0.3851783   0.9446127   1.1733903  )
        47           C   tau(  47) = (   0.3142082   0.5033629   0.4759250  )
        48           C   tau(  48) = (   0.6272438   0.2970707   1.3406693  )
        49           C   tau(  49) = (   0.3118630   1.0975043   1.2535636  )
        50           C   tau(  50) = (   0.3380947   0.4986347   0.2885329  )
        51           C   tau(  51) = (   0.6511303   0.3017989   1.1532772  )
        52           C   tau(  52) = (   0.2879765   1.1022325   1.4409557  )
        53           O   tau(  53) = (   0.0136072   0.4893671   1.6475622  )
        54           O   tau(  54) = (   0.7005716   0.3110665   0.7828179  )
        55           O   tau(  55) = (   0.6124640   1.1115001   0.0819264  )
        56           N   tau(  56) = (  -0.1252244   0.8904908   1.2900720  )
        57           N   tau(  57) = (   0.5617400   1.5108099   0.4253277  )
        58           N   tau(  58) = (   0.7512956   0.7103763   0.4394166  )
        59           C   tau(  59) = (  -0.0854448   0.7644314   1.4110109  )
        60           C   tau(  60) = (   0.6015196   0.0360021   0.5462666  )
        61           C   tau(  61) = (   0.7115160   0.8364357   0.3184777  )
        62           C   tau(  62) = (   0.2182538   0.8002136   0.2665213  )
        63           C   tau(  63) = (   0.5312894   1.6010872   1.1312656  )
        64           C   tau(  64) = (   0.4078173   0.8006536   1.4629673  )
        65           C   tau(  65) = (  -0.1061753   0.7797419   1.5951504  )
        66           C   tau(  66) = (   0.5807891   0.0206917   0.7304061  )
        67           C   tau(  67) = (   0.7322465   0.8211253   0.1343382  )
        68           C   tau(  68) = (   0.1927469   0.8065761   0.4506306  )
        69           C   tau(  69) = (   0.5057824   1.5947246   1.3153749  )
        70           C   tau(  70) = (   0.4333243   0.7942910   1.2788593  )
        71           C   tau(  71) = (  -0.1930812   1.0656244   1.3459617  )
        72           C   tau(  72) = (   0.4938832   1.3356763   0.4812174  )
        73           C   tau(  73) = (   0.8191524   0.5352427   0.3835269  )
        74           C   tau(  74) = (  -0.1044753   0.8595301   1.0977666  )
        75           C   tau(  75) = (   0.5824892   1.5417706   0.2330223  )
        76           C   tau(  76) = (   0.7305464   0.7413371   0.6317220  )
        77           C   tau(  77) = (   0.2581737   0.5227371   0.8488327  )
        78           C   tau(  78) = (   0.5712093   0.2776965   1.7135784  )
        79           C   tau(  79) = (   0.3678975   1.0781301   0.8806559  )
        80           H   tau(  80) = (   0.1739431   0.4045405   0.8176295  )
        81           H   tau(  81) = (   0.4869787   0.3958930   1.6823738  )
        82           H   tau(  82) = (   0.4521280   1.1963266   0.9118604  )
        83           H   tau(  83) = (   0.2334117   0.5675372   0.9870367  )
        84           H   tau(  84) = (   0.9203761   0.2328964   0.1222924  )
        85           H   tau(  85) = (   0.3926594   1.0333300   0.7424519  )
        86           H   tau(  86) = (   0.4012860   0.4872856   0.8333160  )
        87           H   tau(  87) = (  -0.2856785   0.3131480   1.6980603  )
        88           H   tau(  88) = (   0.2247852   1.1135816   0.8961740  )
        89           H   tau(  89) = (   0.3553698   0.3860549   0.5533186  )
        90           H   tau(  90) = (   0.6684053   0.4143786   1.4180629  )
        91           H   tau(  91) = (   0.2707014   1.2148122   1.1761700  )
        92           H   tau(  92) = (  -0.0322819   0.6390169   1.3562344  )
        93           H   tau(  93) = (   0.6546825   0.1614167   0.4914901  )
        94           H   tau(  94) = (   0.6583531   0.9618503   0.3732542  )
        95           H   tau(  95) = (  -0.1620316   0.9023889   1.6514894  )
        96           H   tau(  96) = (   0.5249328   1.4989119   0.7867451  )
        97           H   tau(  97) = (   0.7881027   0.6984783   0.0780005  )
        98           H   tau(  98) = (   0.1313554   0.9229264   0.5155856  )
        99           H   tau(  99) = (   0.4443910   1.4783743   1.3803299  )
       100           H   tau( 100) = (   0.4947157   0.6779407   1.2139043  )
       101           H   tau( 101) = (   0.1785289   0.9172227   0.1877690  )
       102           H   tau( 102) = (   0.4915659   1.4840780   1.0525133  )
       103           H   tau( 103) = (   0.4475422   0.6836444   1.5417196  )
       104           H   tau( 104) = (  -0.0117695   0.9598102   1.0409644  )
       105           H   tau( 105) = (   0.6751949   1.4414905   0.1762201  )
       106           H   tau( 106) = (   0.6378407   0.6410569   0.6885255  )
       107           H   tau( 107) = (  -0.1000917   1.1258994   1.4442514  )
       108           H   tau( 108) = (   0.5868727   1.2754013   0.5795071  )
       109           H   tau( 109) = (   0.7261629   0.4749678   0.2852372  )
       110           H   tau( 110) = (  -0.2012396   1.1536300   1.2278471  )
       111           H   tau( 111) = (   0.4857248   1.2476707   0.3631028  )
       112           H   tau( 112) = (   0.8273121   0.4472372   0.5016429  )
       113           H   tau( 113) = (  -0.0530499   0.7233555   1.0749525  )
       114           H   tau( 114) = (   0.6339145   0.0770781   0.2102082  )
       115           H   tau( 115) = (   0.6791211   0.8775116   0.6545361  )
       116           H   tau( 116) = (   0.6726032   1.0518106   1.4073798  )
       117           H   tau( 117) = (   0.3595677   1.3494901   0.5426355  )
       118           H   tau( 118) = (  -0.0465321   0.5490566   0.3221088  )
       119           H   tau( 119) = (  -0.2359387   0.8722375   1.0304137  )
       120           H   tau( 120) = (   0.4510258   1.5290633   0.1656694  )
       121           H   tau( 121) = (   0.8620098   0.7286297   0.6990762  )
       122           H   tau( 122) = (   0.4124547   0.3812752   0.0758389  )
       123           H   tau( 123) = (   0.7254902   0.4191583   0.9405832  )
       124           H   tau( 124) = (   0.2136165   1.2195919   1.6536497  )

     number of k points=    63
                       cart. coord. in units 2pi/alat
        k(    1) = (   0.0000000   0.0000000   0.0000000), wk =   0.0100000
        k(    2) = (   0.0000000   0.0000000   0.1156411), wk =   0.0200000
        k(    3) = (   0.0000000   0.0000000   0.2312822), wk =   0.0200000
        k(    4) = (   0.0000000   0.1249323   0.0000000), wk =   0.0200000
        k(    5) = (   0.0000000   0.1249323   0.1156411), wk =   0.0400000
        k(    6) = (   0.0000000   0.1249323   0.2312822), wk =   0.0400000
        k(    7) = (   0.0000000   0.2498646   0.0000000), wk =   0.0200000
        k(    8) = (   0.0000000   0.2498646   0.1156411), wk =   0.0400000
        k(    9) = (   0.0000000   0.2498646   0.2312822), wk =   0.0400000
        k(   10) = (   0.1250000   0.0000000   0.0270259), wk =   0.0200000
        k(   11) = (   0.1250000   0.0000000   0.1426671), wk =   0.0200000
        k(   12) = (   0.1250000   0.0000000   0.2583082), wk =   0.0200000
        k(   13) = (   0.1250000   0.0000000  -0.2042563), wk =   0.0200000
        k(   14) = (   0.1250000   0.0000000  -0.0886152), wk =   0.0200000
        k(   15) = (   0.1250000   0.1249323   0.0270259), wk =   0.0400000
        k(   16) = (   0.1250000   0.1249323   0.1426671), wk =   0.0400000
        k(   17) = (   0.1250000   0.1249323   0.2583082), wk =   0.0400000
        k(   18) = (   0.1250000   0.1249323  -0.2042563), wk =   0.0400000
        k(   19) = (   0.1250000   0.1249323  -0.0886152), wk =   0.0400000
        k(   20) = (   0.1250000   0.2498646   0.0270259), wk =   0.0400000
        k(   21) = (   0.1250000   0.2498646   0.1426671), wk =   0.0400000
        k(   22) = (   0.1250000   0.2498646   0.2583082), wk =   0.0400000
        k(   23) = (   0.1250000   0.2498646  -0.2042563), wk =   0.0400000
        k(   24) = (   0.1250000   0.2498646  -0.0886152), wk =   0.0400000
        k(   25) = (   0.2500000   0.0000000   0.0540519), wk =   0.0200000
        k(   26) = (   0.2500000   0.0000000   0.1696930), wk =   0.0200000
        k(   27) = (   0.2500000   0.0000000   0.2853341), wk =   0.0200000
        k(   28) = (   0.2500000   0.0000000  -0.1772303), wk =   0.0200000
        k(   29) = (   0.2500000   0.0000000  -0.0615892), wk =   0.0200000
        k(   30) = (   0.2500000   0.1249323   0.0540519), wk =   0.0400000
        k(   31) = (   0.2500000   0.1249323   0.1696930), wk =   0.0400000
        k(   32) = (   0.2500000   0.1249323   0.2853341), wk =   0.0400000
        k(   33) = (   0.2500000   0.1249323  -0.1772303), wk =   0.0400000
        k(   34) = (   0.2500000   0.1249323  -0.0615892), wk =   0.0400000
        k(   35) = (   0.2500000   0.2498646   0.0540519), wk =   0.0400000
        k(   36) = (   0.2500000   0.2498646   0.1696930), wk =   0.0400000
        k(   37) = (   0.2500000   0.2498646   0.2853341), wk =   0.0400000
        k(   38) = (   0.2500000   0.2498646  -0.1772303), wk =   0.0400000
        k(   39) = (   0.2500000   0.2498646  -0.0615892), wk =   0.0400000
        k(   40) = (   0.3750000   0.0000000   0.0810778), wk =   0.0200000
        k(   41) = (   0.3750000   0.0000000   0.1967189), wk =   0.0200000
        k(   42) = (   0.3750000   0.0000000   0.3123601), wk =   0.0200000
        k(   43) = (   0.3750000   0.0000000  -0.1502044), wk =   0.0200000
        k(   44) = (   0.3750000   0.0000000  -0.0345633), wk =   0.0200000
        k(   45) = (   0.3750000   0.1249323   0.0810778), wk =   0.0400000
        k(   46) = (   0.3750000   0.1249323   0.1967189), wk =   0.0400000
        k(   47) = (   0.3750000   0.1249323   0.3123601), wk =   0.0400000
        k(   48) = (   0.3750000   0.1249323  -0.1502044), wk =   0.0400000
        k(   49) = (   0.3750000   0.1249323  -0.0345633), wk =   0.0400000
        k(   50) = (   0.3750000   0.2498646   0.0810778), wk =   0.0400000
        k(   51) = (   0.3750000   0.2498646   0.1967189), wk =   0.0400000
        k(   52) = (   0.3750000   0.2498646   0.3123601), wk =   0.0400000
        k(   53) = (   0.3750000   0.2498646  -0.1502044), wk =   0.0400000
        k(   54) = (   0.3750000   0.2498646  -0.0345633), wk =   0.0400000
        k(   55) = (  -0.5000000   0.0000000  -0.1081038), wk =   0.0100000
        k(   56) = (  -0.5000000   0.0000000   0.0075373), wk =   0.0200000
        k(   57) = (  -0.5000000   0.0000000   0.1231784), wk =   0.0200000
        k(   58) = (  -0.5000000   0.1249323  -0.1081038), wk =   0.0200000
        k(   59) = (  -0.5000000   0.1249323   0.0075373), wk =   0.0400000
        k(   60) = (  -0.5000000   0.1249323   0.1231784), wk =   0.0400000
        k(   61) = (  -0.5000000   0.2498646  -0.1081038), wk =   0.0200000
        k(   62) = (  -0.5000000   0.2498646   0.0075373), wk =   0.0400000
        k(   63) = (  -0.5000000   0.2498646   0.1231784), wk =   0.0400000

     Dense  grid:   169855 G-vectors     FFT dimensions: (  50,  80,  90)

     Estimated max dynamical RAM per process >    4334.28MB

     Initial potential from superposition of free atoms

     starting charge  338.22517, renormalised to  344.00000
     Starting wfc are  316 randomized atomic wfcs

     total cpu time spent up to now is     1292.7 secs

     Self-consistent Calculation

     iteration #  1     ecut=    30.00 Ry     beta=0.70
     Davidson diagonalization with overlap
     ethr =  1.00E-02,  avg # of iterations =  2.0

     total cpu time spent up to now is     4058.7 secs

     total energy              =   -1073.67843333 Ry
     Harris-Foulkes estimate   =   -1088.65197045 Ry
     estimated scf accuracy    <      22.77862654 Ry

     iteration #  2     ecut=    30.00 Ry     beta=0.70
     Davidson diagonalization with overlap
     ethr =  6.62E-03,  avg # of iterations =  4.0

     total cpu time spent up to now is     7122.2 secs

     total energy              =   -1075.97438698 Ry
     Harris-Foulkes estimate   =   -1083.60683561 Ry
     estimated scf accuracy    <      13.85625072 Ry

     iteration #  3     ecut=    30.00 Ry     beta=0.70
     Davidson diagonalization with overlap
     ethr =  4.03E-03,  avg # of iterations =  4.0

     total cpu time spent up to now is    10075.5 secs

     total energy              =   -1079.10263671 Ry
     Harris-Foulkes estimate   =   -1080.80254788 Ry
     estimated scf accuracy    <       3.50920463 Ry

     iteration #  4     ecut=    30.00 Ry     beta=0.70
     Davidson diagonalization with overlap
     ethr =  1.02E-03,  avg # of iterations =  4.0

     total cpu time spent up to now is    12675.3 secs

     total energy              =   -1079.83309683 Ry
     Harris-Foulkes estimate   =   -1080.23604686 Ry
     estimated scf accuracy    <       0.94609685 Ry

     iteration #  5     ecut=    30.00 Ry     beta=0.70
     Davidson diagonalization with overlap
     ethr =  2.75E-04,  avg # of iterations =  4.0

     total cpu time spent up to now is    15156.2 secs

     total energy              =   -1080.00954314 Ry
     Harris-Foulkes estimate   =   -1080.03567612 Ry
     estimated scf accuracy    <       0.05304933 Ry

     iteration #  6     ecut=    30.00 Ry     beta=0.70
     Davidson diagonalization with overlap
     ethr =  1.54E-05,  avg # of iterations =  4.0

     total cpu time spent up to now is    18009.6 secs

     total energy              =   -1080.02351637 Ry
     Harris-Foulkes estimate   =   -1080.02573990 Ry
     estimated scf accuracy    <       0.00500814 Ry

     iteration #  7     ecut=    30.00 Ry     beta=0.70
     Davidson diagonalization with overlap
     ethr =  1.46E-06,  avg # of iterations =  4.0

     total cpu time spent up to now is    20743.8 secs

     total energy              =   -1080.02457285 Ry
     Harris-Foulkes estimate   =   -1080.02514811 Ry
     estimated scf accuracy    <       0.00123933 Ry

     iteration #  8     ecut=    30.00 Ry     beta=0.70
     Davidson diagonalization with overlap
     ethr =  3.60E-07,  avg # of iterations =  4.0

     total cpu time spent up to now is    23394.1 secs

     total energy              =   -1080.02486580 Ry
     Harris-Foulkes estimate   =   -1080.02494381 Ry
     estimated scf accuracy    <       0.00018017 Ry

     iteration #  9     ecut=    30.00 Ry     beta=0.70
     Davidson diagonalization with overlap
     ethr =  5.24E-08,  avg # of iterations =  4.0

     total cpu time spent up to now is    26110.5 secs

     total energy              =   -1080.02490411 Ry
     Harris-Foulkes estimate   =   -1080.02491826 Ry
     estimated scf accuracy    <       0.00003091 Ry

     iteration # 10     ecut=    30.00 Ry     beta=0.70
     Davidson diagonalization with overlap
     ethr =  8.99E-09,  avg # of iterations =  4.0

     total cpu time spent up to now is    29345.0 secs

     total energy              =   -1080.02491054 Ry
     Harris-Foulkes estimate   =   -1080.02491206 Ry
     estimated scf accuracy    <       0.00000334 Ry

     iteration # 11     ecut=    30.00 Ry     beta=0.70
     Davidson diagonalization with overlap
     ethr =  9.72E-10,  avg # of iterations =  3.0

     total cpu time spent up to now is    32690.2 secs

     total energy              =   -1080.02491141 Ry
     Harris-Foulkes estimate   =   -1080.02491159 Ry
     estimated scf accuracy    <       0.00000051 Ry

     iteration # 12     ecut=    30.00 Ry     beta=0.70
     Davidson diagonalization with overlap
     ethr =  1.48E-10,  avg # of iterations =  3.0

     total cpu time spent up to now is    36047.9 secs

     End of self-consistent calculation

          k = 0.0000 0.0000 0.0000 ( 21265 PWs)   bands (ev):

   -20.7019 -20.7010 -20.6584 -20.6581 -20.0532 -20.0518 -20.0498 -20.0490
   -18.8374 -18.8352 -18.8348 -18.8284 -18.0371 -18.0368 -18.0361 -18.0326
   -14.9400 -14.9357 -14.9353 -14.9311 -13.2504 -13.2299 -13.1630 -13.1363
   -12.6946 -12.6803 -12.6064 -12.6003 -12.2449 -12.2238 -12.1956 -12.1757
   -11.8673 -11.8487 -11.8289 -11.8067 -11.3993 -11.3721 -11.3514 -11.3447
   -10.7887 -10.7427 -10.7081 -10.6890  -9.1202  -9.1029  -9.0905  -9.0700
    -8.7844  -8.7502  -8.7345  -8.7251  -8.3786  -8.3329  -8.2115  -8.1709
    -7.3825  -7.3724  -7.2427  -7.2222  -6.9789  -6.9279  -6.9184  -6.8690
    -6.7391  -6.6927  -6.6800  -6.6196  -6.2094  -6.1745  -6.1731  -6.1631
    -5.8279  -5.8108  -5.8088  -5.7968  -5.7881  -5.7001  -5.6388  -5.6292
    -5.5003  -5.4643  -5.4222  -5.3534  -5.1881  -5.1859  -5.0777  -5.0656
    -4.9231  -4.8942  -4.8857  -4.8583  -4.6846  -4.6244  -4.5730  -4.5213
    -4.3525  -4.2517  -4.2446  -4.1761  -4.1601  -4.1148  -4.1115  -4.0259
    -3.9644  -3.9466  -3.9057  -3.8288  -3.6971  -3.6544  -3.5920  -3.5917
    -3.5512  -3.5400  -3.5041  -3.4545  -3.4489  -3.4323  -3.3930  -3.3394
    -3.2051  -3.1718  -3.1318  -3.1190  -3.0742  -3.0190  -3.0132  -3.0040
    -2.9615  -2.9185  -2.8913  -2.8194  -2.7730  -2.7579  -2.7215  -2.6827
    -2.5106  -2.4589  -2.4343  -2.4293  -2.0256  -2.0235  -2.0089  -1.9910
    -1.8665  -1.8376  -1.7905  -1.7056  -1.6514  -1.5774  -1.4745  -1.4358
    -1.2170  -1.1895  -1.0905  -1.0140   0.2275   0.2721   0.2897   0.3001
     0.3214   0.3307   0.3549   0.3883   0.5574   0.6438   0.6928   0.8291
     1.1528   1.1727   1.3413   1.4026

          k = 0.0000 0.0000 0.1156 ( 21213 PWs)   bands (ev):

   -20.7018 -20.7011 -20.6583 -20.6581 -20.0530 -20.0519 -20.0498 -20.0491
   -18.8373 -18.8355 -18.8341 -18.8289 -18.0370 -18.0364 -18.0361 -18.0330
   -14.9399 -14.9370 -14.9339 -14.9311 -13.2499 -13.2328 -13.1626 -13.1405
   -12.6889 -12.6798 -12.6054 -12.5974 -12.2427 -12.2255 -12.1928 -12.1768
   -11.8657 -11.8506 -11.8234 -11.8087 -11.4021 -11.3819 -11.3524 -11.3510
   -10.7721 -10.7577 -10.6965 -10.6926  -9.1283  -9.1057  -9.0783  -9.0696
    -8.7715  -8.7547  -8.7370  -8.7172  -8.3647  -8.3345  -8.2169  -8.1934
    -7.3799  -7.3601  -7.2690  -7.2409  -6.9637  -6.9296  -6.9192  -6.8762
    -6.7129  -6.7075  -6.6903  -6.5957  -6.2047  -6.1746  -6.1579  -6.1439
    -5.8769  -5.8603  -5.7932  -5.7683  -5.7620  -5.7072  -5.6514  -5.6346
    -5.4765  -5.4329  -5.4312  -5.3703  -5.1807  -5.1772  -5.0901  -5.0742
    -4.9527  -4.9143  -4.8745  -4.8453  -4.6762  -4.6320  -4.5599  -4.5286
    -4.3275  -4.2433  -4.2309  -4.1808  -4.1794  -4.1317  -4.1191  -4.0375
    -3.9547  -3.9122  -3.8885  -3.8430  -3.6801  -3.6668  -3.6234  -3.5749
    -3.5551  -3.5303  -3.5074  -3.4839  -3.4588  -3.4052  -3.3824  -3.3680
    -3.1913  -3.1903  -3.1415  -3.1246  -3.0723  -3.0297  -3.0254  -2.9922
    -2.9314  -2.9067  -2.8859  -2.8117  -2.7610  -2.7549  -2.7342  -2.6844
    -2.5147  -2.4629  -2.4480  -2.4158  -2.0284  -2.0222  -2.0116  -1.9961
    -1.8712  -1.8436  -1.7798  -1.7188  -1.6340  -1.5827  -1.4697  -1.4407
    -1.2014  -1.1706  -1.0996  -1.0288   0.2356   0.2796   0.2908   0.3049
     0.3190   0.3252   0.3524   0.3715   0.5735   0.6406   0.7003   0.8059
     1.1487   1.1662   1.3582   1.4049

          k = 0.0000 0.0000 0.2313 ( 21255 PWs)   bands (ev):

   -20.7016 -20.7013 -20.6583 -20.6582 -20.0526 -20.0522 -20.0496 -20.0494
   -18.8368 -18.8361 -18.8324 -18.8304 -18.0368 -18.0364 -18.0353 -18.0340
   -14.9392 -14.9382 -14.9325 -14.9315 -13.2468 -13.2399 -13.1591 -13.1503
   -12.6793 -12.6775 -12.6020 -12.5968 -12.2369 -12.2303 -12.1864 -12.1804
   -11.8612 -11.8550 -11.8157 -11.8118 -11.3975 -11.3906 -11.3668 -11.3645
   -10.7621 -10.7542 -10.6999 -10.6870  -9.1314  -9.1203  -9.0645  -9.0631
    -8.7579  -8.7567  -8.7290  -8.7129  -8.3397  -8.3346  -8.2315  -8.2306
    -7.3634  -7.3289  -7.3211  -7.2839  -6.9384  -6.9257  -6.9181  -6.8968
    -6.7185  -6.7059  -6.6480  -6.6010  -6.1880  -6.1729  -6.1251  -6.1174
    -5.9275  -5.9168  -5.7664  -5.7587  -5.7465  -5.7211  -5.6545  -5.6407
    -5.4452  -5.4204  -5.4173  -5.3997  -5.1664  -5.1619  -5.1062  -5.0961
    -4.9686  -4.9502  -4.8670  -4.8557  -4.6485  -4.6326  -4.5460  -4.5394
    -4.2765  -4.2334  -4.2231  -4.2012  -4.1898  -4.1661  -4.1038  -4.0633
    -3.9416  -3.9123  -3.8464  -3.8347  -3.6729  -3.6658  -3.6516  -3.6394
    -3.5192  -3.5192  -3.4878  -3.4638  -3.4626  -3.4505  -3.3978  -3.3543
    -3.2092  -3.2070  -3.1630  -3.1218  -3.0939  -3.0616  -2.9783  -2.9747
    -2.9012  -2.9006  -2.8585  -2.8094  -2.7629  -2.7552  -2.7265  -2.6967
    -2.5121  -2.4935  -2.4301  -2.4174  -2.0293  -2.0212  -2.0169  -2.0070
    -1.8708  -1.8583  -1.7595  -1.7391  -1.6101  -1.5941  -1.4602  -1.4505
    -1.1647  -1.1260  -1.1235  -1.0696   0.2586   0.2844   0.2976   0.3091
     0.3150   0.3187   0.3429   0.3440   0.6056   0.6306   0.7200   0.7583
     1.1457   1.1533   1.3877   1.4040

          k = 0.0000 0.1249 0.0000 ( 21219 PWs)   bands (ev):

   -20.7018 -20.7011 -20.6583 -20.6581 -20.0531 -20.0520 -20.0497 -20.0491
   -18.8374 -18.8363 -18.8333 -18.8287 -18.0372 -18.0369 -18.0355 -18.0328
   -14.9396 -14.9361 -14.9349 -14.9315 -13.2485 -13.2319 -13.1605 -13.1389
   -12.6932 -12.6816 -12.6056 -12.6007 -12.2410 -12.2190 -12.2011 -12.1801
   -11.8632 -11.8450 -11.8320 -11.8112 -11.3946 -11.3694 -11.3555 -11.3474
   -10.7841 -10.7468 -10.7066 -10.6912  -9.1172  -9.1013  -9.0934  -9.0745
    -8.7827  -8.7587  -8.7262  -8.7224  -8.3634  -8.3175  -8.2285  -8.1862
    -7.3705  -7.3588  -7.2574  -7.2380  -6.9715  -6.9213  -6.9204  -6.8730
    -6.7344  -6.6995  -6.6751  -6.6293  -6.2096  -6.1837  -6.1713  -6.1590
    -5.8239  -5.8222  -5.8130  -5.7916  -5.7687  -5.7035  -5.6531  -5.6432
    -5.4894  -5.4619  -5.4099  -5.3533  -5.1896  -5.1862  -5.0751  -5.0683
    -4.9216  -4.8974  -4.8840  -4.8591  -4.6713  -4.6151  -4.5776  -4.5345
    -4.3288  -4.2468  -4.2395  -4.1772  -4.1724  -4.1301  -4.1056  -4.0228
    -3.9666  -3.9258  -3.9237  -3.8373  -3.6867  -3.6462  -3.6136  -3.5820
    -3.5537  -3.5400  -3.5010  -3.4691  -3.4412  -3.4231  -3.3848  -3.3507
    -3.2195  -3.1737  -3.1526  -3.0993  -3.0671  -3.0417  -2.9931  -2.9917
    -2.9526  -2.9444  -2.8921  -2.8279  -2.7713  -2.7561  -2.7233  -2.6908
    -2.4979  -2.4570  -2.4274  -2.4262  -2.0242  -2.0233  -2.0114  -1.9926
    -1.8527  -1.8250  -1.7956  -1.7102  -1.6547  -1.5958  -1.4695  -1.4402
    -1.2158  -1.1922  -1.0825  -1.0208   0.2310   0.2707   0.2910   0.3013
     0.3276   0.3320   0.3478   0.3846   0.5657   0.6355   0.7085   0.8181
     1.1531   1.1695   1.3486   1.3980

          k = 0.0000 0.1249 0.1156 ( 21244 PWs)   bands (ev):

   -20.7017 -20.7012 -20.6583 -20.6582 -20.0529 -20.0520 -20.0497 -20.0492
   -18.8372 -18.8361 -18.8331 -18.8292 -18.0371 -18.0365 -18.0357 -18.0332
   -14.9395 -14.9370 -14.9339 -14.9315 -13.2483 -13.2344 -13.1607 -13.1427
   -12.6877 -12.6803 -12.6048 -12.5983 -12.2388 -12.2211 -12.1980 -12.1813
   -11.8620 -11.8481 -11.8257 -11.8126 -11.3977 -11.3787 -11.3575 -11.3527
   -10.7682 -10.7565 -10.6990 -10.6958  -9.1237  -9.1022  -9.0830  -9.0733
    -8.7718  -8.7610  -8.7300  -8.7172  -8.3512  -8.3208  -8.2319  -8.2060
    -7.3686  -7.3488  -7.2779  -7.2517  -6.9611  -6.9276  -6.9226  -6.8824
    -6.7161  -6.7041  -6.6845  -6.6049  -6.2021  -6.1737  -6.1611  -6.1442
    -5.8702  -5.8542  -5.8019  -5.7783  -5.7623  -5.7091  -5.6623  -5.6446
    -5.4623  -5.4259  -5.4196  -5.3671  -5.1845  -5.1779  -5.0865  -5.0752
    -4.9462  -4.9129  -4.8833  -4.8542  -4.6607  -4.6216  -4.5641  -4.5373
    -4.3104  -4.2441  -4.2317  -4.1880  -4.1796  -4.1315  -4.1159  -4.0414
    -3.9446  -3.9198  -3.8884  -3.8442  -3.6828  -3.6558  -3.6151  -3.5813
    -3.5684  -3.5199  -3.5099  -3.4853  -3.4631  -3.4099  -3.3803  -3.3702
    -3.2046  -3.1711  -3.1658  -3.1078  -3.0709  -3.0461  -3.0134  -2.9848
    -2.9449  -2.9217  -2.8775  -2.8173  -2.7619  -2.7608  -2.7278  -2.6900
    -2.5046  -2.4635  -2.4384  -2.4138  -2.0267  -2.0208  -2.0134  -1.9974
    -1.8565  -1.8308  -1.7836  -1.7222  -1.6421  -1.6006  -1.4653  -1.4436
    -1.2002  -1.1748  -1.0917  -1.0350   0.2387   0.2757   0.2943   0.3048
     0.3218   0.3282   0.3470   0.3701   0.5791   0.6340   0.7127   0.7978
     1.1495   1.1640   1.3630   1.4009

          k = 0.0000 0.1249 0.2313 ( 21254 PWs)   bands (ev):

   -20.7016 -20.7013 -20.6583 -20.6582 -20.0526 -20.0522 -20.0497 -20.0494
   -18.8368 -18.8362 -18.8321 -18.8306 -18.0367 -18.0362 -18.0355 -18.0342
   -14.9390 -14.9382 -14.9326 -14.9318 -13.2459 -13.2403 -13.1586 -13.1515
   -12.6783 -12.6767 -12.6023 -12.5980 -12.2330 -12.2263 -12.1911 -12.1849
   -11.8585 -11.8530 -11.8179 -11.8146 -11.3947 -11.3874 -11.3698 -11.3662
   -10.7571 -10.7487 -10.7054 -10.6929  -9.1246  -9.1138  -9.0703  -9.0667
    -8.7620  -8.7593  -8.7262  -8.7141  -8.3295  -8.3240  -8.2423  -8.2385
    -7.3556  -7.3240  -7.3188  -7.2848  -6.9420  -6.9306  -6.9250  -6.9066
    -6.7119  -6.6931  -6.6546  -6.6096  -6.1802  -6.1647  -6.1303  -6.1212
    -5.9202  -5.9096  -5.7887  -5.7880  -5.7433  -5.7208  -5.6603  -5.6454
    -5.4280  -5.4112  -5.4009  -5.3912  -5.1726  -5.1656  -5.1006  -5.0922
    -4.9628  -4.9465  -4.8811  -4.8696  -4.6348  -4.6208  -4.5494  -4.5425
    -4.2710  -4.2359  -4.2326  -4.2172  -4.1743  -4.1546  -4.1079  -4.0696
    -3.9284  -3.8998  -3.8458  -3.8370  -3.6773  -3.6638  -3.6448  -3.6379
    -3.5334  -3.5102  -3.4994  -3.4791  -3.4536  -3.4425  -3.4045  -3.3684
    -3.2045  -3.1947  -3.1560  -3.1219  -3.0949  -3.0702  -2.9747  -2.9706
    -2.9330  -2.9155  -2.8490  -2.8143  -2.7653  -2.7461  -2.7257  -2.6995
    -2.5067  -2.4910  -2.4253  -2.4151  -2.0288  -2.0223  -2.0128  -2.0049
    -1.8554  -1.8437  -1.7627  -1.7422  -1.6240  -1.6109  -1.4572  -1.4500
    -1.1636  -1.1379  -1.1113  -1.0735   0.2608   0.2838   0.2945   0.3057
     0.3158   0.3265   0.3409   0.3457   0.6065   0.6271   0.7261   0.7568
     1.1464   1.1528   1.3886   1.4020

          k = 0.0000 0.2499 0.0000 ( 21241 PWs)   bands (ev):

   -20.7016 -20.7013 -20.6583 -20.6582 -20.0527 -20.0523 -20.0495 -20.0493
   -18.8374 -18.8371 -18.8315 -18.8298 -18.0373 -18.0371 -18.0346 -18.0336
   -14.9385 -14.9372 -14.9339 -14.9326 -13.2434 -13.2371 -13.1539 -13.1457
   -12.6897 -12.6853 -12.6038 -12.6019 -12.2300 -12.2147 -12.2068 -12.1919
   -11.8527 -11.8406 -11.8351 -11.8223 -11.3823 -11.3672 -11.3625 -11.3542
   -10.7723 -10.7579 -10.7024 -10.6965  -9.1096  -9.1006  -9.0955  -9.0851
    -8.7778  -8.7696  -8.7182  -8.7178  -8.3231  -8.2771  -8.2717  -8.2268
    -7.3376  -7.3233  -7.2943  -7.2776  -6.9530  -6.9329  -6.9026  -6.8847
    -6.7235  -6.7112  -6.6659  -6.6497  -6.2072  -6.1982  -6.1645  -6.1592
    -5.8274  -5.8229  -5.8098  -5.7985  -5.7272  -5.7044  -5.6806  -5.6768
    -5.4694  -5.4593  -5.3847  -5.3622  -5.1915  -5.1897  -5.0700  -5.0697
    -4.9172  -4.9079  -4.8762  -4.8651  -4.6323  -4.5952  -4.5937  -4.5671
    -4.2752  -4.2514  -4.2256  -4.1895  -4.1794  -4.1690  -4.0742  -4.0361
    -3.9642  -3.9524  -3.8886  -3.8611  -3.6730  -3.6494  -3.6120  -3.5734
    -3.5586  -3.5438  -3.5013  -3.4921  -3.4161  -3.4008  -3.3831  -3.3795
    -3.2292  -3.2153  -3.1316  -3.1067  -3.0373  -3.0325  -2.9982  -2.9933
    -2.9774  -2.9600  -2.8674  -2.8421  -2.7677  -2.7595  -2.7236  -2.7091
    -2.4734  -2.4585  -2.4199  -2.4186  -2.0259  -2.0241  -2.0086  -1.9991
    -1.8268  -1.8079  -1.7847  -1.7356  -1.6535  -1.6320  -1.4600  -1.4500
    -1.2102  -1.2004  -1.0627  -1.0392   0.2412   0.2567   0.3060   0.3098
     0.3192   0.3293   0.3525   0.3722   0.5872   0.6138   0.7462   0.7877
     1.1559   1.1623   1.3659   1.3847

          k = 0.0000 0.2499 0.1156 ( 21240 PWs)   bands (ev):

   -20.7016 -20.7013 -20.6583 -20.6582 -20.0526 -20.0523 -20.0496 -20.0494
   -18.8371 -18.8368 -18.8316 -18.8302 -18.0370 -18.0368 -18.0348 -18.0339
   -14.9385 -14.9375 -14.9334 -14.9324 -13.2439 -13.2386 -13.1554 -13.1485
   -12.6849 -12.6821 -12.6031 -12.6005 -12.2279 -12.2151 -12.2052 -12.1929
   -11.8529 -11.8454 -11.8285 -11.8217 -11.3862 -11.3743 -11.3656 -11.3591
   -10.7598 -10.7553 -10.7031 -10.7019  -9.1113  -9.0957  -9.0932  -9.0823
    -8.7713  -8.7680  -8.7218  -8.7180  -8.3160  -8.2870  -8.2675  -8.2399
    -7.3391  -7.3195  -7.3030  -7.2812  -6.9506  -6.9345  -6.9171  -6.8987
    -6.7165  -6.7103  -6.6592  -6.6289  -6.1942  -6.1826  -6.1559  -6.1482
    -5.8488  -5.8391  -5.8205  -5.8132  -5.7466  -5.7211  -5.6734  -5.6626
    -5.4353  -5.4205  -5.3934  -5.3716  -5.1878  -5.1835  -5.0788  -5.0755
    -4.9283  -4.9112  -4.8962  -4.8776  -4.6206  -4.5961  -4.5809  -4.5650
    -4.2754  -4.2522  -4.2269  -4.1954  -4.1745  -4.1575  -4.0892  -4.0619
    -3.9322  -3.9235  -3.8782  -3.8587  -3.6719  -3.6519  -3.6060  -3.5904
    -3.5649  -3.5417  -3.4968  -3.4933  -3.4511  -3.4273  -3.3782  -3.3745
    -3.2114  -3.1990  -3.1404  -3.1057  -3.0679  -3.0478  -3.0029  -2.9781
    -2.9726  -2.9528  -2.8512  -2.8281  -2.7659  -2.7595  -2.7220  -2.7068
    -2.4839  -2.4686  -2.4219  -2.4130  -2.0250  -2.0225  -2.0103  -2.0027
    -1.8246  -1.8032  -1.7836  -1.7415  -1.6531  -1.6360  -1.4570  -1.4498
    -1.1947  -1.1845  -1.0731  -1.0517   0.2480   0.2624   0.3053   0.3082
     0.3199   0.3298   0.3479   0.3624   0.5951   0.6163   0.7426   0.7749
     1.1527   1.1584   1.3754   1.3900

          k = 0.0000 0.2499 0.2313 ( 21226 PWs)   bands (ev):

   -20.7015 -20.7014 -20.6583 -20.6582 -20.0524 -20.0523 -20.0496 -20.0495
   -18.8366 -18.8365 -18.8316 -18.8310 -18.0363 -18.0359 -18.0355 -18.0348
   -14.9385 -14.9381 -14.9327 -14.9323 -13.2438 -13.2417 -13.1570 -13.1542
   -12.6762 -12.6755 -12.6023 -12.6006 -12.2229 -12.2178 -12.2007 -12.1959
   -11.8525 -11.8500 -11.8218 -11.8202 -11.3872 -11.3806 -11.3768 -11.3714
   -10.7444 -10.7375 -10.7161 -10.7076  -9.1081  -9.0998  -9.0835  -9.0780
    -8.7663  -8.7648  -8.7216  -8.7173  -8.3047  -8.2992  -8.2659  -8.2608
    -7.3383  -7.3251  -7.3053  -7.2912  -6.9450  -6.9387  -6.9346  -6.9255
    -6.6946  -6.6752  -6.6613  -6.6325  -6.1624  -6.1485  -6.1425  -6.1313
    -5.8971  -5.8884  -5.8383  -5.8323  -5.7370  -5.7262  -5.6653  -5.6573
    -5.4024  -5.3963  -5.3786  -5.3752  -5.1800  -5.1759  -5.0901  -5.0869
    -4.9433  -4.9324  -4.9115  -4.9014  -4.6011  -4.5926  -4.5650  -4.5612
    -4.2655  -4.2560  -4.2279  -4.2180  -4.1585  -4.1337  -4.1225  -4.0940
    -3.8927  -3.8719  -3.8529  -3.8500  -3.6701  -3.6616  -3.6393  -3.6375
    -3.5402  -3.5291  -3.4960  -3.4907  -3.4506  -3.4455  -3.4064  -3.3942
    -3.1900  -3.1773  -3.1491  -3.1233  -3.0962  -3.0806  -2.9742  -2.9670
    -2.9620  -2.9466  -2.8368  -2.8237  -2.7534  -2.7422  -2.7253  -2.7127
    -2.4960  -2.4897  -2.4164  -2.4125  -2.0268  -2.0246  -2.0074  -2.0047
    -1.8160  -1.8044  -1.7742  -1.7567  -1.6504  -1.6441  -1.4519  -1.4496
    -1.1590  -1.1498  -1.0975  -1.0839   0.2675   0.2773   0.2944   0.2985
     0.3248   0.3304   0.3413   0.3452   0.6108   0.6189   0.7391   0.7507
     1.1486   1.1512   1.3918   1.3971

          k = 0.1250 0.0000 0.0270 ( 21252 PWs)   bands (ev):

   -20.7019 -20.7010 -20.6584 -20.6581 -20.0531 -20.0518 -20.0498 -20.0490
   -18.8373 -18.8353 -18.8346 -18.8286 -18.0370 -18.0366 -18.0361 -18.0327
   -14.9402 -14.9361 -14.9356 -14.9316 -13.2473 -13.2266 -13.1662 -13.1397
   -12.6916 -12.6780 -12.6088 -12.6034 -12.2443 -12.2252 -12.1940 -12.1760
   -11.8668 -11.8497 -11.8281 -11.8077 -11.3981 -11.3730 -11.3507 -11.3444
   -10.7862 -10.7408 -10.7117 -10.6911  -9.1202  -9.1044  -9.0893  -9.0701
    -8.7822  -8.7497  -8.7351  -8.7272  -8.3769  -8.3347  -8.2105  -8.1730
    -7.3831  -7.3734  -7.2422  -7.2229  -6.9770  -6.9300  -6.9165  -6.8712
    -6.7381  -6.6896  -6.6826  -6.6228  -6.2084  -6.1767  -6.1726  -6.1632
    -5.8341  -5.8090  -5.7932  -5.7873  -5.7691  -5.6771  -5.6226  -5.6081
    -5.5033  -5.4669  -5.4236  -5.3546  -5.1972  -5.1831  -5.0822  -5.0793
    -4.9223  -4.8944  -4.8927  -4.8567  -4.6826  -4.6270  -4.5710  -4.5247
    -4.3462  -4.2605  -4.2541  -4.1862  -4.1589  -4.1099  -4.0990  -4.0260
    -3.9621  -3.9481  -3.9035  -3.8330  -3.6992  -3.6692  -3.6291  -3.5779
    -3.5494  -3.5291  -3.5222  -3.4799  -3.4500  -3.4196  -3.3883  -3.3531
    -3.2130  -3.1713  -3.1403  -3.1174  -3.0788  -3.0223  -3.0088  -3.0083
    -2.9491  -2.9174  -2.8984  -2.8286  -2.7618  -2.7590  -2.7313  -2.6867
    -2.5105  -2.4515  -2.4377  -2.4242  -2.0283  -2.0272  -2.0062  -1.9905
    -1.8632  -1.8387  -1.7760  -1.7114  -1.6339  -1.5896  -1.4621  -1.4428
    -1.2179  -1.1837  -1.0965  -1.0278   0.2369   0.2743   0.2903   0.2990
     0.3242   0.3368   0.3557   0.3858   0.5631   0.6501   0.6888   0.8228
     1.1536   1.1709   1.3326   1.3880

          k = 0.1250 0.0000 0.1427 ( 21229 PWs)   bands (ev):

   -20.7017 -20.7012 -20.6583 -20.6581 -20.0528 -20.0521 -20.0497 -20.0493
   -18.8370 -18.8358 -18.8331 -18.8298 -18.0369 -18.0362 -18.0358 -18.0335
   -14.9404 -14.9368 -14.9344 -14.9317 -13.2461 -13.2296 -13.1656 -13.1451
   -12.6835 -12.6793 -12.6076 -12.6011 -12.2405 -12.2288 -12.1902 -12.1779
   -11.8642 -11.8536 -11.8190 -11.8125 -11.3973 -11.3859 -11.3534 -11.3486
   -10.7659 -10.7541 -10.7010 -10.7003  -9.1301  -9.1036  -9.0764  -9.0722
    -8.7627  -8.7546  -8.7418  -8.7215  -8.3570  -8.3415  -8.2096  -8.2019
    -7.3826  -7.3592  -7.2696  -7.2401  -6.9590  -6.9343  -6.9151  -6.8810
    -6.7154  -6.7005  -6.6913  -6.6032  -6.2026  -6.1790  -6.1561  -6.1438
    -5.8879  -5.8507  -5.7644  -5.7512  -5.7429  -5.6927  -5.6397  -5.6253
    -5.4855  -5.4394  -5.4245  -5.3775  -5.1898  -5.1621  -5.0947  -5.0895
    -4.9509  -4.9159  -4.8644  -4.8598  -4.6706  -4.6402  -4.5493  -4.5416
    -4.3091  -4.2623  -4.2377  -4.1882  -4.1820  -4.1191  -4.1168  -4.0391
    -3.9504  -3.9156  -3.8855  -3.8491  -3.6825  -3.6667  -3.6411  -3.5905
    -3.5817  -3.5392  -3.4851  -3.4839  -3.4646  -3.4114  -3.3919  -3.3600
    -3.2079  -3.1937  -3.1440  -3.1217  -3.0848  -3.0173  -3.0123  -3.0108
    -2.9183  -2.9090  -2.8765  -2.8092  -2.7752  -2.7550  -2.7409  -2.6909
    -2.5085  -2.4678  -2.4354  -2.4264  -2.0289  -2.0259  -2.0120  -1.9950
    -1.8653  -1.8465  -1.7522  -1.7374  -1.6140  -1.5993  -1.4590  -1.4459
    -1.1854  -1.1561  -1.1134  -1.0566   0.2504   0.2843   0.2962   0.3030
     0.3237   0.3250   0.3557   0.3574   0.5829   0.6497   0.6958   0.7938
     1.1435   1.1671   1.3546   1.3893

          k = 0.1250 0.0000 0.2583 ( 21201 PWs)   bands (ev):

   -20.7015 -20.7014 -20.6583 -20.6582 -20.0525 -20.0523 -20.0496 -20.0494
   -18.8366 -18.8363 -18.8316 -18.8312 -18.0366 -18.0365 -18.0348 -18.0345
   -14.9400 -14.9379 -14.9330 -14.9321 -13.2427 -13.2377 -13.1608 -13.1550
   -12.6773 -12.6736 -12.6032 -12.6018 -12.2339 -12.2336 -12.1840 -12.1819
   -11.8584 -11.8577 -11.8167 -11.8114 -11.3968 -11.3906 -11.3689 -11.3620
   -10.7598 -10.7551 -10.6982 -10.6912  -9.1311  -9.1211  -9.0687  -9.0588
    -8.7590  -8.7564  -8.7235  -8.7170  -8.3423  -8.3320  -8.2394  -8.2244
    -7.3647  -7.3354  -7.3144  -7.2849  -6.9363  -6.9268  -6.9148  -6.9011
    -6.7182  -6.7086  -6.6311  -6.6174  -6.1822  -6.1781  -6.1213  -6.1202
    -5.9357  -5.9068  -5.7639  -5.7601  -5.7059  -5.7011  -5.6410  -5.6191
    -5.4567  -5.4225  -5.4110  -5.3998  -5.1796  -5.1573  -5.1186  -5.0986
    -4.9624  -4.9582  -4.8752  -4.8507  -4.6436  -4.6399  -4.5508  -4.5362
    -4.2634  -4.2561  -4.2281  -4.2093  -4.1830  -4.1540  -4.0980  -4.0689
    -3.9371  -3.9183  -3.8412  -3.8349  -3.6828  -3.6752  -3.6499  -3.6447
    -3.5657  -3.5061  -3.4857  -3.4748  -3.4699  -3.4523  -3.3882  -3.3670
    -3.2252  -3.1988  -3.1552  -3.1315  -3.0902  -3.0509  -2.9912  -2.9689
    -2.9263  -2.8778  -2.8448  -2.8364  -2.7797  -2.7493  -2.7093  -2.7063
    -2.5061  -2.4995  -2.4266  -2.4120  -2.0265  -2.0252  -2.0188  -2.0056
    -1.8621  -1.8619  -1.7590  -1.7276  -1.6074  -1.5942  -1.4731  -1.4350
    -1.1489  -1.1470  -1.1040  -1.1002   0.2679   0.2876   0.3042   0.3058
     0.3138   0.3237   0.3346   0.3522   0.6114   0.6367   0.7178   0.7491
     1.1402   1.1579   1.3826   1.3860

          k = 0.1250 0.0000-0.2043 ( 21226 PWs)   bands (ev):

   -20.7017 -20.7012 -20.6583 -20.6582 -20.0529 -20.0519 -20.0498 -20.0492
   -18.8371 -18.8356 -18.8335 -18.8294 -18.0368 -18.0363 -18.0359 -18.0333
   -14.9391 -14.9388 -14.9331 -14.9320 -13.2451 -13.2364 -13.1628 -13.1514
   -12.6797 -12.6729 -12.6060 -12.5977 -12.2396 -12.2271 -12.1878 -12.1788
   -11.8627 -11.8516 -11.8211 -11.8082 -11.4037 -11.3848 -11.3673 -11.3644
   -10.7688 -10.7505 -10.7062 -10.6767  -9.1310  -9.1205  -9.0705  -9.0581
    -8.7608  -8.7591  -8.7291  -8.7072  -8.3480  -8.3279  -8.2403  -8.2233
    -7.3618  -7.3331  -7.3190  -7.2854  -6.9397  -6.9257  -6.9193  -6.8941
    -6.7185  -6.7045  -6.6608  -6.5872  -6.1908  -6.1671  -6.1297  -6.1167
    -5.9190  -5.9130  -5.7824  -5.7715  -5.7341  -5.6833  -5.6378  -5.5939
    -5.4312  -5.4309  -5.4195  -5.3897  -5.1845  -5.1780  -5.1213  -5.0903
    -4.9751  -4.9488  -4.8858  -4.8377  -4.6536  -4.6281  -4.5561  -4.5293
    -4.2987  -4.2429  -4.2127  -4.1869  -4.1837  -4.1754  -4.1067  -4.0535
    -3.9429  -3.9091  -3.8510  -3.8334  -3.6803  -3.6760  -3.6531  -3.6264
    -3.5395  -3.5151  -3.5091  -3.4780  -3.4777  -3.4599  -3.3969  -3.3503
    -3.2250  -3.1914  -3.1613  -3.1310  -3.0680  -3.0625  -2.9868  -2.9559
    -2.9390  -2.9115  -2.8750  -2.8262  -2.7605  -2.7357  -2.7239  -2.6906
    -2.5232  -2.4803  -2.4341  -2.3969  -2.0335  -2.0186  -2.0147  -2.0083
    -1.8723  -1.8517  -1.7748  -1.7089  -1.6176  -1.5836  -1.4798  -1.4306
    -1.1929  -1.1456  -1.1155  -1.0533   0.2535   0.2806   0.2949   0.3135
     0.3173   0.3265   0.3426   0.3622   0.6052   0.6312   0.7165   0.7608
     1.1499   1.1541   1.3679   1.3942

          k = 0.1250 0.0000-0.0886 ( 21188 PWs)   bands (ev):

   -20.7018 -20.7010 -20.6583 -20.6581 -20.0532 -20.0517 -20.0499 -20.0490
   -18.8373 -18.8352 -18.8347 -18.8284 -18.0370 -18.0367 -18.0361 -18.0326
   -14.9396 -14.9377 -14.9343 -14.9317 -13.2477 -13.2297 -13.1657 -13.1425
   -12.6883 -12.6755 -12.6083 -12.6001 -12.2438 -12.2241 -12.1930 -12.1762
   -11.8659 -11.8478 -11.8281 -11.8065 -11.4049 -11.3790 -11.3557 -11.3483
   -10.7758 -10.7605 -10.6945 -10.6873  -9.1254  -9.1102  -9.0837  -9.0634
    -8.7772  -8.7565  -8.7324  -8.7138  -8.3709  -8.3303  -8.2238  -8.1879
    -7.3777  -7.3643  -7.2665  -7.2440  -6.9658  -6.9274  -6.9199  -6.8750
    -6.7226  -6.7008  -6.6857  -6.5962  -6.2034  -6.1716  -6.1586  -6.1458
    -5.8680  -5.8656  -5.7828  -5.7825  -5.7572  -5.6723  -5.6315  -5.5981
    -5.4736  -5.4463  -5.4197  -5.3605  -5.1957  -5.1929  -5.0980  -5.0790
    -4.9522  -4.9220  -4.8864  -4.8316  -4.6799  -4.6293  -4.5686  -4.5193
    -4.3370  -4.2558  -4.2359  -4.1930  -4.1568  -4.1222  -4.1192  -4.0343
    -3.9533  -3.9117  -3.8884  -3.8414  -3.6900  -3.6868  -3.6276  -3.5785
    -3.5346  -3.5253  -3.5218  -3.5007  -3.4813  -3.4197  -3.3813  -3.3723
    -3.1949  -3.1675  -3.1488  -3.1376  -3.0613  -3.0364  -3.0241  -2.9874
    -2.9501  -2.9151  -2.8935  -2.8316  -2.7612  -2.7351  -2.7313  -2.6852
    -2.5194  -2.4578  -2.4463  -2.3988  -2.0316  -2.0236  -2.0085  -1.9964
    -1.8680  -1.8416  -1.7837  -1.6994  -1.6331  -1.5825  -1.4760  -1.4323
    -1.2221  -1.1784  -1.0977  -1.0252   0.2355   0.2791   0.2855   0.3064
     0.3210   0.3361   0.3514   0.3850   0.5726   0.6420   0.6976   0.8076
     1.1565   1.1636   1.3415   1.3915

          k = 0.1250 0.1249 0.0270 ( 21236 PWs)   bands (ev):

   -20.7018 -20.7011 -20.6583 -20.6581 -20.0530 -20.0520 -20.0497 -20.0491
   -18.8373 -18.8362 -18.8332 -18.8289 -18.0371 -18.0367 -18.0356 -18.0330
   -14.9398 -14.9363 -14.9354 -14.9320 -13.2453 -13.2286 -13.1637 -13.1423
   -12.6903 -12.6794 -12.6080 -12.6037 -12.2405 -12.2208 -12.1991 -12.1804
   -11.8627 -11.8461 -11.8311 -11.8121 -11.3935 -11.3704 -11.3546 -11.3471
   -10.7817 -10.7448 -10.7101 -10.6934  -9.1175  -9.1035  -9.0914  -9.0743
    -8.7806  -8.7578  -8.7276  -8.7243  -8.3617  -8.3194  -8.2274  -8.1883
    -7.3711  -7.3600  -7.2569  -7.2387  -6.9697  -6.9228  -6.9190  -6.8749
    -6.7341  -6.6985  -6.6760  -6.6317  -6.2085  -6.1828  -6.1734  -6.1599
    -5.8345  -5.8132  -5.7953  -5.7862  -5.7495  -5.6821  -5.6367  -5.6230
    -5.4920  -5.4645  -5.4113  -5.3539  -5.1967  -5.1855  -5.0826  -5.0795
    -4.9201  -4.8985  -4.8883  -4.8585  -4.6696  -4.6178  -4.5760  -4.5370
    -4.3238  -4.2593  -4.2426  -4.1841  -4.1720  -4.1288  -4.0936  -4.0224
    -3.9676  -3.9257  -3.9242  -3.8424  -3.6933  -3.6512  -3.6217  -3.5956
    -3.5506  -3.5374  -3.5208  -3.4926  -3.4441  -3.4092  -3.3804  -3.3621
    -3.2250  -3.1772  -3.1511  -3.1051  -3.0722  -3.0321  -3.0183  -2.9772
    -2.9488  -2.9362  -2.8999  -2.8338  -2.7639  -2.7555  -2.7315  -2.6926
    -2.4999  -2.4533  -2.4316  -2.4199  -2.0273  -2.0255  -2.0084  -1.9925
    -1.8506  -1.8260  -1.7842  -1.7133  -1.6416  -1.5987  -1.4604  -1.4453
    -1.2167  -1.1876  -1.0897  -1.0342   0.2400   0.2745   0.2921   0.2999
     0.3324   0.3338   0.3485   0.3825   0.5715   0.6417   0.7038   0.8118
     1.1540   1.1682   1.3392   1.3838

          k = 0.1250 0.1249 0.1427 ( 21234 PWs)   bands (ev):

   -20.7016 -20.7012 -20.6583 -20.6582 -20.0527 -20.0522 -20.0497 -20.0493
   -18.8370 -18.8361 -18.8326 -18.8300 -18.0368 -18.0360 -18.0358 -18.0337
   -14.9400 -14.9370 -14.9343 -14.9320 -13.2444 -13.2311 -13.1639 -13.1472
   -12.6828 -12.6793 -12.6073 -12.6019 -12.2368 -12.2248 -12.1948 -12.1823
   -11.8607 -11.8509 -11.8218 -11.8160 -11.3936 -11.3819 -11.3575 -11.3512
   -10.7618 -10.7520 -10.7044 -10.7036  -9.1257  -9.0998  -9.0833  -9.0734
    -8.7637  -8.7600  -8.7350  -8.7217  -8.3435  -8.3278  -8.2247  -8.2140
    -7.3711  -7.3485  -7.2784  -7.2508  -6.9561  -6.9325  -6.9183  -6.8869
    -6.7172  -6.6984  -6.6864  -6.6119  -6.1995  -6.1751  -6.1608  -6.1466
    -5.8808  -5.8444  -5.7804  -5.7671  -5.7305  -5.6960  -5.6488  -5.6380
    -5.4671  -5.4273  -5.4197  -5.3734  -5.1907  -5.1679  -5.0932  -5.0867
    -4.9434  -4.9142  -4.8750  -4.8668  -4.6555  -4.6292  -4.5555  -4.5468
    -4.2975  -4.2581  -4.2332  -4.2030  -4.1757  -4.1273  -4.1112  -4.0425
    -3.9435  -3.9236  -3.8871  -3.8506  -3.6804  -3.6592  -3.6303  -3.5940
    -3.5857  -3.5306  -3.5073  -3.4884  -3.4618  -3.4152  -3.3887  -3.3620
    -3.2176  -3.1753  -3.1605  -3.1061  -3.0916  -3.0332  -3.0086  -2.9910
    -2.9467  -2.9067  -2.8750  -2.8122  -2.7757  -2.7468  -2.7432  -2.6979
    -2.4993  -2.4668  -2.4318  -2.4243  -2.0288  -2.0237  -2.0111  -1.9965
    -1.8556  -1.8299  -1.7655  -1.7309  -1.6343  -1.6014  -1.4574  -1.4463
    -1.1850  -1.1604  -1.1074  -1.0621   0.2530   0.2825   0.3006   0.3056
     0.3225   0.3264   0.3488   0.3585   0.5883   0.6431   0.7071   0.7862
     1.1450   1.1643   1.3583   1.3865

          k = 0.1250 0.1249 0.2583 ( 21230 PWs)   bands (ev):

   -20.7015 -20.7014 -20.6583 -20.6582 -20.0524 -20.0523 -20.0496 -20.0495
   -18.8366 -18.8363 -18.8316 -18.8312 -18.0364 -18.0363 -18.0349 -18.0347
   -14.9397 -14.9379 -14.9331 -14.9323 -13.2420 -13.2379 -13.1607 -13.1560
   -12.6760 -12.6729 -12.6040 -12.6027 -12.2302 -12.2296 -12.1885 -12.1865
   -11.8571 -11.8544 -11.8191 -11.8140 -11.3938 -11.3876 -11.3713 -11.3644
   -10.7542 -10.7495 -10.7040 -10.6975  -9.1248  -9.1142  -9.0737  -9.0633
    -8.7626  -8.7588  -8.7226  -8.7173  -8.3319  -8.3217  -8.2479  -8.2344
    -7.3570  -7.3307  -7.3123  -7.2855  -6.9398  -6.9319  -6.9220  -6.9104
    -6.7100  -6.6972  -6.6393  -6.6244  -6.1763  -6.1679  -6.1264  -6.1243
    -5.9285  -5.9011  -5.7918  -5.7770  -5.7080  -5.7028  -5.6437  -5.6262
    -5.4363  -5.4119  -5.4010  -5.3876  -5.1844  -5.1638  -5.1134  -5.0951
    -4.9577  -4.9528  -4.8868  -4.8665  -4.6317  -4.6258  -4.5536  -4.5395
    -4.2625  -4.2513  -4.2322  -4.2230  -4.1740  -4.1474  -4.1025  -4.0747
    -3.9310  -3.8991  -3.8463  -3.8344  -3.6893  -3.6646  -3.6505  -3.6424
    -3.5646  -3.5139  -3.5024  -3.4851  -3.4531  -3.4475  -3.4007  -3.3787
    -3.2177  -3.1843  -3.1519  -3.1229  -3.1044  -3.0567  -2.9912  -2.9614
    -2.9476  -2.8918  -2.8500  -2.8362  -2.7697  -2.7430  -2.7222  -2.7010
    -2.5041  -2.4954  -2.4231  -2.4106  -2.0287  -2.0244  -2.0135  -2.0036
    -1.8551  -1.8405  -1.7614  -1.7321  -1.6289  -1.5997  -1.4673  -1.4368
    -1.1508  -1.1464  -1.1055  -1.1014   0.2703   0.2877   0.2978   0.3064
     0.3160   0.3285   0.3352   0.3508   0.6126   0.6331   0.7230   0.7482
     1.1419   1.1563   1.3822   1.3852

          k = 0.1250 0.1249-0.2043 ( 21245 PWs)   bands (ev):

   -20.7016 -20.7012 -20.6583 -20.6582 -20.0528 -20.0520 -20.0498 -20.0493
   -18.8371 -18.8360 -18.8329 -18.8297 -18.0369 -18.0361 -18.0359 -18.0336
   -14.9389 -14.9386 -14.9332 -14.9323 -13.2441 -13.2370 -13.1621 -13.1528
   -12.6783 -12.6726 -12.6060 -12.5991 -12.2355 -12.2230 -12.1929 -12.1833
   -11.8600 -11.8499 -11.8228 -11.8113 -11.4004 -11.3826 -11.3706 -11.3654
   -10.7641 -10.7457 -10.7105 -10.6828  -9.1242  -9.1141  -9.0748  -9.0634
    -8.7640  -8.7632  -8.7251  -8.7089  -8.3379  -8.3172  -8.2504  -8.2320
    -7.3541  -7.3265  -7.3180  -7.2867  -6.9434  -6.9309  -6.9259  -6.9041
    -6.7161  -6.6870  -6.6676  -6.5955  -6.1841  -6.1592  -6.1361  -6.1179
    -5.9120  -5.9060  -5.8019  -5.7934  -5.7353  -5.6907  -5.6376  -5.6004
    -5.4181  -5.4153  -5.4087  -5.3800  -5.1928  -5.1761  -5.1183  -5.0904
    -4.9691  -4.9441  -4.8971  -4.8539  -4.6395  -4.6162  -4.5594  -4.5332
    -4.2867  -4.2454  -4.2338  -4.1930  -4.1701  -4.1599  -4.1142  -4.0620
    -3.9246  -3.9020  -3.8531  -3.8319  -3.6921  -3.6678  -3.6439  -3.6278
    -3.5447  -3.5301  -3.5012  -3.4890  -3.4773  -3.4633  -3.3959  -3.3612
    -3.2170  -3.1844  -3.1531  -3.1235  -3.0855  -3.0621  -2.9847  -2.9690
    -2.9570  -2.8969  -2.8798  -2.8334  -2.7650  -2.7406  -2.7151  -2.6890
    -2.5186  -2.4821  -2.4256  -2.3964  -2.0305  -2.0206  -2.0138  -2.0055
    -1.8525  -1.8428  -1.7747  -1.7172  -1.6294  -1.5971  -1.4727  -1.4340
    -1.1913  -1.1556  -1.1059  -1.0581   0.2556   0.2791   0.2947   0.3081
     0.3214   0.3297   0.3436   0.3614   0.6065   0.6281   0.7230   0.7586
     1.1501   1.1540   1.3697   1.3911

          k = 0.1250 0.1249-0.0886 ( 21242 PWs)   bands (ev):

   -20.7018 -20.7011 -20.6583 -20.6582 -20.0530 -20.0519 -20.0498 -20.0491
   -18.8374 -18.8363 -18.8333 -18.8288 -18.0371 -18.0368 -18.0356 -18.0329
   -14.9393 -14.9376 -14.9344 -14.9321 -13.2460 -13.2314 -13.1636 -13.1448
   -12.6868 -12.6765 -12.6077 -12.6009 -12.2397 -12.2194 -12.1986 -12.1806
   -11.8624 -11.8452 -11.8304 -11.8106 -11.4001 -11.3762 -11.3596 -11.3513
   -10.7719 -10.7593 -10.6966 -10.6907  -9.1208  -9.1065  -9.0872  -9.0686
    -8.7771  -8.7625  -8.7259  -8.7135  -8.3574  -8.3164  -8.2386  -8.2010
    -7.3667  -7.3524  -7.2756  -7.2548  -6.9636  -6.9260  -6.9232  -6.8811
    -6.7205  -6.7020  -6.6803  -6.6049  -6.2017  -6.1740  -6.1597  -6.1438
    -5.8662  -5.8594  -5.8034  -5.7745  -5.7543  -5.6797  -5.6388  -5.6089
    -5.4638  -5.4375  -5.4081  -5.3570  -5.2012  -5.1898  -5.0969  -5.0815
    -4.9469  -4.9191  -4.8922  -4.8425  -4.6641  -4.6188  -4.5721  -4.5300
    -4.3156  -4.2553  -4.2359  -4.1921  -4.1655  -4.1359  -4.1041  -4.0397
    -3.9438  -3.9175  -3.8887  -3.8450  -3.6999  -3.6636  -3.6184  -3.5867
    -3.5516  -3.5410  -3.5186  -3.4939  -3.4765  -3.4203  -3.3832  -3.3717
    -3.2002  -3.1772  -3.1539  -3.1169  -3.0591  -3.0529  -3.0222  -2.9808
    -2.9533  -2.9200  -2.8957  -2.8360  -2.7651  -2.7499  -2.7179  -2.6850
    -2.5122  -2.4641  -2.4318  -2.3976  -2.0286  -2.0219  -2.0119  -1.9978
    -1.8507  -1.8323  -1.7867  -1.7075  -1.6382  -1.5957  -1.4710  -1.4366
    -1.2201  -1.1846  -1.0897  -1.0317   0.2385   0.2753   0.2895   0.3049
     0.3273   0.3353   0.3479   0.3821   0.5790   0.6357   0.7100   0.7989
     1.1560   1.1627   1.3466   1.3871

          k = 0.1250 0.2499 0.0270 ( 21243 PWs)   bands (ev):

   -20.7016 -20.7013 -20.6583 -20.6582 -20.0527 -20.0523 -20.0496 -20.0493
   -18.8373 -18.8370 -18.8315 -18.8300 -18.0371 -18.0369 -18.0346 -18.0337
   -14.9387 -14.9374 -14.9344 -14.9331 -13.2402 -13.2338 -13.1572 -13.1491
   -12.6869 -12.6828 -12.6064 -12.6048 -12.2296 -12.2163 -12.2049 -12.1920
   -11.8524 -11.8414 -11.8346 -11.8230 -11.3816 -11.3680 -11.3613 -11.3540
   -10.7700 -10.7558 -10.7055 -10.6991  -9.1106  -9.1039  -9.0924  -9.0842
    -8.7759  -8.7682  -8.7204  -8.7194  -8.3216  -8.2796  -8.2697  -8.2288
    -7.3384  -7.3256  -7.2930  -7.2780  -6.9512  -6.9311  -6.9043  -6.8864
    -6.7242  -6.7116  -6.6661  -6.6505  -6.2060  -6.1969  -6.1666  -6.1608
    -5.8320  -5.8235  -5.7907  -5.7864  -5.7117  -5.6878  -5.6620  -5.6554
    -5.4722  -5.4625  -5.3855  -5.3624  -5.1958  -5.1911  -5.0814  -5.0785
    -4.9154  -4.9072  -4.8785  -4.8660  -4.6312  -4.5973  -4.5930  -4.5683
    -4.2756  -4.2559  -4.2293  -4.1905  -4.1781  -4.1696  -4.0698  -4.0351
    -3.9659  -3.9527  -3.8936  -3.8674  -3.6765  -3.6473  -3.6101  -3.5826
    -3.5684  -3.5537  -3.5215  -3.5130  -3.4236  -3.3933  -3.3864  -3.3715
    -3.2317  -3.2159  -3.1333  -3.1110  -3.0393  -3.0310  -3.0148  -2.9887
    -2.9702  -2.9553  -2.8718  -2.8448  -2.7643  -2.7602  -2.7244  -2.7079
    -2.4783  -2.4611  -2.4202  -2.4150  -2.0272  -2.0244  -2.0073  -1.9989
    -1.8256  -1.8039  -1.7843  -1.7369  -1.6428  -1.6228  -1.4560  -1.4508
    -1.2102  -1.1983  -1.0724  -1.0512   0.2490   0.2628   0.3063   0.3099
     0.3231   0.3303   0.3524   0.3710   0.5932   0.6200   0.7405   0.7814
     1.1564   1.1619   1.3550   1.3719

          k = 0.1250 0.2499 0.1427 ( 21213 PWs)   bands (ev):

   -20.7015 -20.7013 -20.6583 -20.6582 -20.0525 -20.0523 -20.0496 -20.0494
   -18.8368 -18.8366 -18.8316 -18.8307 -18.0366 -18.0363 -18.0351 -18.0343
   -14.9390 -14.9377 -14.9338 -14.9329 -13.2402 -13.2350 -13.1591 -13.1527
   -12.6811 -12.6797 -12.6060 -12.6039 -12.2269 -12.2185 -12.2020 -12.1934
   -11.8521 -11.8468 -11.8269 -11.8236 -11.3837 -11.3749 -11.3656 -11.3588
   -10.7527 -10.7487 -10.7108 -10.7103  -9.1139  -9.0981  -9.0903  -9.0803
    -8.7653  -8.7644  -8.7272  -8.7231  -8.3085  -8.2935  -8.2609  -8.2471
    -7.3419  -7.3228  -7.3006  -7.2796  -6.9454  -6.9297  -6.9219  -6.9033
    -6.7155  -6.7072  -6.6623  -6.6343  -6.1901  -6.1775  -6.1617  -6.1535
    -5.8601  -5.8360  -5.8057  -5.7902  -5.7158  -5.7024  -5.6631  -5.6578
    -5.4351  -5.4181  -5.3993  -5.3767  -5.1896  -5.1807  -5.0876  -5.0836
    -4.9228  -4.9069  -4.8972  -4.8862  -4.6164  -4.6020  -4.5740  -4.5714
    -4.2765  -4.2547  -4.2293  -4.2040  -4.1712  -4.1568  -4.0855  -4.0586
    -3.9386  -3.9300  -3.8806  -3.8658  -3.6663  -3.6537  -3.6187  -3.6015
    -3.5749  -3.5384  -3.5165  -3.5046  -3.4499  -3.4309  -3.3818  -3.3712
    -3.2170  -3.1991  -3.1380  -3.1086  -3.0742  -3.0457  -3.0051  -2.9876
    -2.9670  -2.9394  -2.8491  -2.8237  -2.7636  -2.7507  -2.7355  -2.7166
    -2.4812  -2.4689  -2.4253  -2.4221  -2.0270  -2.0250  -2.0065  -2.0010
    -1.8245  -1.8021  -1.7776  -1.7459  -1.6467  -1.6242  -1.4531  -1.4483
    -1.1804  -1.1703  -1.0932  -1.0761   0.2611   0.2732   0.3092   0.3139
     0.3183   0.3320   0.3409   0.3531   0.6041   0.6253   0.7348   0.7647
     1.1499   1.1573   1.3678   1.3787

          k = 0.1250 0.2499 0.2583 ( 21235 PWs)   bands (ev):

   -20.7015 -20.7014 -20.6583 -20.6582 -20.0524 -20.0523 -20.0497 -20.0496
   -18.8366 -18.8364 -18.8315 -18.8313 -18.0360 -18.0359 -18.0354 -18.0352
   -14.9389 -14.9382 -14.9331 -14.9328 -13.2402 -13.2387 -13.1599 -13.1581
   -12.6733 -12.6721 -12.6051 -12.6045 -12.2210 -12.2203 -12.1984 -12.1971
   -11.8524 -11.8502 -11.8226 -11.8199 -11.3863 -11.3800 -11.3777 -11.3711
   -10.7397 -10.7352 -10.7184 -10.7132  -9.1092  -9.0999  -9.0849  -9.0758
    -8.7663  -8.7643  -8.7207  -8.7186  -8.3063  -8.2980  -8.2686  -8.2594
    -7.3399  -7.3279  -7.3035  -7.2911  -6.9426  -6.9375  -6.9353  -6.9287
    -6.6888  -6.6751  -6.6575  -6.6433  -6.1589  -6.1500  -6.1398  -6.1349
    -5.9063  -5.8881  -5.8339  -5.8182  -5.7072  -5.7046  -5.6477  -5.6407
    -5.4075  -5.3980  -5.3799  -5.3693  -5.1890  -5.1791  -5.1014  -5.0933
    -4.9421  -4.9346  -4.9126  -4.9003  -4.6016  -4.5934  -4.5685  -4.5574
    -4.2655  -4.2552  -4.2309  -4.2208  -4.1645  -4.1376  -4.1145  -4.0899
    -3.9037  -3.8716  -3.8599  -3.8411  -3.6818  -3.6635  -3.6480  -3.6403
    -3.5588  -3.5426  -3.4983  -3.4910  -3.4516  -3.4482  -3.4114  -3.4028
    -3.1982  -3.1724  -3.1430  -3.1285  -3.0939  -3.0747  -2.9970  -2.9778
    -2.9453  -2.9268  -2.8448  -2.8366  -2.7528  -2.7369  -2.7293  -2.7105
    -2.4971  -2.4926  -2.4155  -2.4104  -2.0284  -2.0270  -2.0054  -2.0029
    -1.8184  -1.8045  -1.7692  -1.7557  -1.6478  -1.6276  -1.4545  -1.4430
    -1.1508  -1.1480  -1.1069  -1.1047   0.2770   0.2849   0.2951   0.2985
     0.3254   0.3312   0.3390   0.3462   0.6171   0.6250   0.7341   0.7437
     1.1465   1.1520   1.3823   1.3836

          k = 0.1250 0.2499-0.2043 ( 21244 PWs)   bands (ev):

   -20.7015 -20.7013 -20.6583 -20.6582 -20.0525 -20.0522 -20.0497 -20.0494
   -18.8370 -18.8366 -18.8316 -18.8305 -18.0367 -18.0364 -18.0351 -18.0342
   -14.9385 -14.9384 -14.9332 -14.9329 -13.2416 -13.2388 -13.1598 -13.1562
   -12.6751 -12.6728 -12.6051 -12.6024 -12.2242 -12.2146 -12.2032 -12.1947
   -11.8535 -11.8486 -11.8240 -11.8186 -11.3916 -11.3817 -11.3743 -11.3691
   -10.7522 -10.7411 -10.7130 -10.6984  -9.1076  -9.0996  -9.0858  -9.0774
    -8.7691  -8.7684  -8.7186  -8.7132  -8.3124  -8.2943  -8.2724  -8.2551
    -7.3368  -7.3233  -7.3084  -7.2937  -6.9470  -6.9412  -6.9329  -6.9233
    -6.7034  -6.6849  -6.6525  -6.6191  -6.1688  -6.1532  -6.1386  -6.1249
    -5.8903  -5.8817  -5.8475  -5.8361  -5.7286  -5.7101  -5.6308  -5.6158
    -5.3986  -5.3951  -5.3835  -5.3698  -5.1968  -5.1858  -5.1064  -5.0946
    -4.9501  -4.9265  -4.9226  -4.8913  -4.6053  -4.5877  -4.5729  -4.5544
    -4.2674  -4.2573  -4.2319  -4.2068  -4.1567  -4.1382  -4.1274  -4.0903
    -3.8835  -3.8790  -3.8601  -3.8437  -3.6864  -3.6715  -3.6320  -3.6291
    -3.5535  -3.5489  -3.5014  -3.4939  -3.4841  -3.4714  -3.3917  -3.3809
    -3.1948  -3.1783  -3.1430  -3.1212  -3.0949  -3.0688  -3.0012  -2.9816
    -2.9521  -2.9311  -2.8548  -2.8414  -2.7630  -2.7491  -2.7056  -2.6946
    -2.5051  -2.4904  -2.4093  -2.3986  -2.0273  -2.0241  -2.0093  -2.0053
    -1.8155  -1.8068  -1.7773  -1.7458  -1.6442  -1.6288  -1.4571  -1.4430
    -1.1849  -1.1720  -1.0886  -1.0711   0.2621   0.2718   0.2973   0.3022
     0.3267   0.3304   0.3499   0.3575   0.6117   0.6202   0.7375   0.7509
     1.1512   1.1530   1.3753   1.3836

          k = 0.1250 0.2499-0.0886 ( 21250 PWs)   bands (ev):

   -20.7016 -20.7013 -20.6583 -20.6582 -20.0527 -20.0523 -20.0496 -20.0493
   -18.8373 -18.8370 -18.8315 -18.8299 -18.0372 -18.0370 -18.0346 -18.0336
   -14.9385 -14.9378 -14.9340 -14.9330 -13.2415 -13.2359 -13.1580 -13.1508
   -12.6833 -12.6793 -12.6057 -12.6031 -12.2282 -12.2125 -12.2073 -12.1925
   -11.8533 -11.8442 -11.8305 -11.8205 -11.3877 -11.3738 -11.3660 -11.3583
   -10.7635 -10.7586 -10.6998 -10.6975  -9.1094  -9.0974  -9.0953  -9.0815
    -8.7756  -8.7707  -8.7175  -8.7139  -8.3219  -8.2834  -8.2732  -8.2358
    -7.3376  -7.3219  -7.3018  -7.2842  -6.9535  -6.9370  -6.9147  -6.8970
    -6.7171  -6.7097  -6.6572  -6.6279  -6.1959  -6.1854  -6.1521  -6.1451
    -5.8592  -5.8508  -5.8148  -5.7949  -5.7327  -5.7022  -5.6423  -5.6289
    -5.4424  -5.4303  -5.3823  -5.3612  -5.2021  -5.1943  -5.0912  -5.0855
    -4.9328  -4.9189  -4.8945  -4.8701  -4.6240  -4.5931  -4.5869  -4.5600
    -4.2723  -4.2562  -4.2293  -4.1956  -4.1721  -4.1639  -4.0834  -4.0616
    -3.9268  -3.9205  -3.8797  -3.8606  -3.6845  -3.6555  -3.6116  -3.6000
    -3.5599  -3.5530  -3.5224  -3.5118  -3.4491  -3.4303  -3.3813  -3.3751
    -3.2072  -3.1989  -3.1394  -3.1127  -3.0603  -3.0379  -3.0234  -2.9888
    -2.9618  -2.9542  -2.8647  -2.8448  -2.7699  -2.7603  -2.7070  -2.6937
    -2.4937  -2.4754  -2.4108  -2.3989  -2.0257  -2.0213  -2.0119  -2.0034
    -1.8228  -1.8029  -1.7849  -1.7362  -1.6418  -1.6254  -1.4591  -1.4467
    -1.2123  -1.1986  -1.0706  -1.0487   0.2475   0.2616   0.3014   0.3086
     0.3245   0.3308   0.3560   0.3721   0.5963   0.6181   0.7407   0.7745
     1.1567   1.1598   1.3597   1.3752

          k = 0.2500 0.0000 0.0541 ( 21270 PWs)   bands (ev):

   -20.7017 -20.7011 -20.6583 -20.6581 -20.0530 -20.0520 -20.0498 -20.0492
   -18.8371 -18.8356 -18.8338 -18.8292 -18.0368 -18.0361 -18.0360 -18.0331
   -14.9406 -14.9374 -14.9361 -14.9330 -13.2383 -13.2173 -13.1751 -13.1496
   -12.6832 -12.6720 -12.6153 -12.6121 -12.2426 -12.2286 -12.1901 -12.1769
   -11.8652 -11.8523 -11.8260 -11.8105 -11.3947 -11.3756 -11.3489 -11.3439
   -10.7788 -10.7352 -10.7218 -10.6972  -9.1200  -9.1082  -9.0861  -9.0709
    -8.7759  -8.7488  -8.7366  -8.7330  -8.3721  -8.3398  -8.2075  -8.1788
    -7.3841  -7.3760  -7.2406  -7.2251  -6.9717  -6.9360  -6.9112  -6.8772
    -6.7340  -6.6902  -6.6815  -6.6314  -6.2052  -6.1817  -6.1712  -6.1640
    -5.8292  -5.8073  -5.7868  -5.7854  -5.6880  -5.6123  -5.5739  -5.5490
    -5.5105  -5.4712  -5.4243  -5.3559  -5.2321  -5.1844  -5.1209  -5.1030
    -4.9190  -4.9043  -4.8955  -4.8588  -4.6765  -4.6343  -4.5660  -4.5334
    -4.3291  -4.2869  -4.2583  -4.2049  -4.1594  -4.1003  -4.0727  -4.0297
    -3.9575  -3.9522  -3.8965  -3.8439  -3.7158  -3.7079  -3.6590  -3.5790
    -3.5671  -3.5444  -3.5286  -3.5277  -3.4597  -3.3977  -3.3880  -3.3751
    -3.2168  -3.1672  -3.1551  -3.1143  -3.0852  -3.0550  -2.9966  -2.9886
    -2.9334  -2.9150  -2.9106  -2.8454  -2.7661  -2.7556  -2.7419  -2.6959
    -2.5067  -2.4452  -2.4357  -2.4173  -2.0327  -2.0320  -2.0039  -1.9921
    -1.8556  -1.8408  -1.7428  -1.7163  -1.6078  -1.6026  -1.4540  -1.4418
    -1.2150  -1.1740  -1.1135  -1.0659   0.2605   0.2793   0.2899   0.3001
     0.3317   0.3480   0.3577   0.3796   0.5786   0.6670   0.6757   0.8023
     1.1608   1.1717   1.3086   1.3487

          k = 0.2500 0.0000 0.1697 ( 21252 PWs)   bands (ev):

   -20.7015 -20.7013 -20.6583 -20.6581 -20.0525 -20.0524 -20.0495 -20.0495
   -18.8366 -18.8362 -18.8320 -18.8309 -18.0366 -18.0363 -18.0350 -18.0342
   -14.9412 -14.9370 -14.9357 -14.9331 -13.2365 -13.2214 -13.1733 -13.1557
   -12.6747 -12.6727 -12.6148 -12.6101 -12.2376 -12.2329 -12.1863 -12.1794
   -11.8614 -11.8565 -11.8177 -11.8153 -11.3915 -11.3905 -11.3553 -11.3452
   -10.7595 -10.7530 -10.7080 -10.7036  -9.1304  -9.1041  -9.0827  -9.0662
    -8.7579  -8.7541  -8.7439  -8.7242  -8.3502  -8.3489  -8.2119  -8.2028
    -7.3847  -7.3619  -7.2678  -7.2422  -6.9523  -6.9408  -6.9083  -6.8882
    -6.7234  -6.6935  -6.6816  -6.6164  -6.1970  -6.1835  -6.1543  -6.1454
    -5.8900  -5.8451  -5.7647  -5.7453  -5.6573  -5.6257  -5.6039  -5.5643
    -5.4943  -5.4415  -5.4160  -5.3784  -5.2227  -5.1700  -5.1341  -5.1095
    -4.9475  -4.9236  -4.8746  -4.8564  -4.6632  -4.6516  -4.5558  -4.5376
    -4.2884  -4.2877  -4.2533  -4.2008  -4.1719  -4.1072  -4.0996  -4.0459
    -3.9415  -3.9225  -3.8796  -3.8559  -3.7012  -3.6920  -3.6811  -3.6107
    -3.6036  -3.5503  -3.4978  -3.4868  -3.4812  -3.4391  -3.3907  -3.3587
    -3.2129  -3.1864  -3.1432  -3.1336  -3.0778  -3.0378  -3.0028  -2.9967
    -2.9243  -2.9028  -2.8844  -2.8278  -2.7895  -2.7695  -2.7191  -2.7015
    -2.4987  -2.4803  -2.4261  -2.4140  -2.0310  -2.0295  -2.0123  -1.9963
    -1.8560  -1.8472  -1.7432  -1.7166  -1.6084  -1.5947  -1.4709  -1.4258
    -1.1705  -1.1446  -1.1406  -1.1005   0.2698   0.2916   0.2948   0.3070
     0.3328   0.3366   0.3460   0.3626   0.5974   0.6684   0.6819   0.7720
     1.1454   1.1718   1.3314   1.3500

          k = 0.2500 0.0000 0.2853 ( 21215 PWs)   bands (ev):

   -20.7015 -20.7012 -20.6583 -20.6582 -20.0528 -20.0520 -20.0498 -20.0493
   -18.8369 -18.8359 -18.8329 -18.8301 -18.0365 -18.0364 -18.0355 -18.0337
   -14.9410 -14.9378 -14.9343 -14.9335 -13.2332 -13.2311 -13.1668 -13.1652
   -12.6726 -12.6634 -12.6115 -12.6097 -12.2374 -12.2303 -12.1831 -12.1812
   -11.8598 -11.8543 -11.8227 -11.8084 -11.4026 -11.3842 -11.3707 -11.3602
   -10.7662 -10.7495 -10.7074 -10.6817  -9.1302  -9.1227  -9.0742  -9.0542
    -8.7625  -8.7588  -8.7190  -8.7148  -8.3503  -8.3258  -8.2483  -8.2194
    -7.3647  -7.3434  -7.3077  -7.2888  -6.9335  -6.9295  -6.9096  -6.9062
    -6.7175  -6.7119  -6.6339  -6.6128  -6.1816  -6.1747  -6.1247  -6.1196
    -5.9332  -5.8998  -5.7681  -5.7677  -5.6478  -5.6207  -5.5819  -5.5483
    -5.4648  -5.4247  -5.4063  -5.3927  -5.2159  -5.1838  -5.1481  -5.1187
    -4.9676  -4.9611  -4.8962  -4.8359  -4.6480  -4.6392  -4.5621  -4.5273
    -4.2915  -4.2589  -4.2285  -4.2065  -4.1811  -4.1428  -4.0785  -4.0701
    -3.9315  -3.9252  -3.8367  -3.8366  -3.7043  -3.6979  -3.6597  -3.6408
    -3.6314  -3.5203  -3.5124  -3.5083  -3.4727  -3.4580  -3.3817  -3.3746
    -3.2437  -3.1898  -3.1426  -3.1307  -3.0738  -3.0384  -3.0099  -2.9806
    -2.9278  -2.9041  -2.8598  -2.8569  -2.7871  -2.7324  -2.7172  -2.6925
    -2.5182  -2.4834  -2.4256  -2.3883  -2.0295  -2.0253  -2.0191  -2.0070
    -1.8585  -1.8530  -1.7626  -1.6974  -1.6034  -1.5896  -1.4803  -1.4196
    -1.1879  -1.1366  -1.1324  -1.0940   0.2745   0.2885   0.3030   0.3122
     0.3153   0.3357   0.3376   0.3707   0.6206   0.6491   0.7068   0.7338
     1.1429   1.1691   1.3455   1.3533

          k = 0.2500 0.0000-0.1772 ( 21227 PWs)   bands (ev):

   -20.7017 -20.7011 -20.6583 -20.6582 -20.0531 -20.0517 -20.0500 -20.0491
   -18.8372 -18.8353 -18.8344 -18.8287 -18.0368 -18.0364 -18.0361 -18.0328
   -14.9402 -14.9387 -14.9343 -14.9335 -13.2385 -13.2274 -13.1720 -13.1577
   -12.6750 -12.6640 -12.6143 -12.6044 -12.2415 -12.2251 -12.1879 -12.1774
   -11.8633 -11.8474 -11.8275 -11.8060 -11.4082 -11.3804 -11.3698 -11.3621
   -10.7738 -10.7489 -10.7100 -10.6693  -9.1300  -9.1218  -9.0759  -9.0540
    -8.7657  -8.7612  -8.7266  -8.7020  -8.3553  -8.3229  -8.2491  -8.2183
    -7.3605  -7.3419  -7.3134  -7.2886  -6.9398  -6.9250  -6.9203  -6.8935
    -6.7186  -6.7050  -6.6676  -6.5786  -6.1904  -6.1625  -6.1338  -6.1179
    -5.9141  -5.9058  -5.7849  -5.7805  -5.6834  -5.6038  -5.5717  -5.5215
    -5.4460  -5.4213  -5.4160  -5.3767  -5.2209  -5.2165  -5.1425  -5.1192
    -4.9795  -4.9554  -4.9048  -4.8222  -4.6577  -4.6270  -4.5654  -4.5212
    -4.3122  -4.2742  -4.2091  -4.2016  -4.1689  -4.1458  -4.1161  -4.0295
    -3.9407  -3.9098  -3.8559  -3.8321  -3.7011  -3.7004  -3.6606  -3.6312
    -3.5804  -3.5371  -3.5297  -3.5031  -3.4966  -3.4795  -3.3794  -3.3557
    -3.2444  -3.1798  -3.1420  -3.1408  -3.0589  -3.0394  -2.9986  -2.9778
    -2.9739  -2.9341  -2.8621  -2.8527  -2.7620  -2.7382  -2.7040  -2.6902
    -2.5284  -2.4648  -2.4296  -2.3761  -2.0366  -2.0208  -2.0126  -2.0097
    -1.8633  -1.8467  -1.7707  -1.6894  -1.5998  -1.5932  -1.4769  -1.4235
    -1.2297  -1.1615  -1.1148  -1.0546   0.2585   0.2786   0.2958   0.3149
     0.3227   0.3378   0.3457   0.3855   0.6124   0.6367   0.7071   0.7517
     1.1536   1.1704   1.3284   1.3581

          k = 0.2500 0.0000-0.0616 ( 21239 PWs)   bands (ev):

   -20.7018 -20.7010 -20.6583 -20.6581 -20.0532 -20.0517 -20.0500 -20.0490
   -18.8373 -18.8352 -18.8348 -18.8284 -18.0369 -18.0366 -18.0360 -18.0326
   -14.9396 -14.9389 -14.9352 -14.9332 -13.2399 -13.2207 -13.1745 -13.1508
   -12.6822 -12.6669 -12.6153 -12.6091 -12.2438 -12.2251 -12.1908 -12.1761
   -11.8653 -11.8460 -11.8321 -11.8061 -11.4053 -11.3777 -11.3579 -11.3457
   -10.7761 -10.7610 -10.6954 -10.6871  -9.1214  -9.1159  -9.0880  -9.0589
    -8.7789  -8.7580  -8.7287  -8.7135  -8.3738  -8.3291  -8.2289  -8.1861
    -7.3762  -7.3705  -7.2628  -7.2483  -6.9649  -6.9283  -6.9174  -6.8778
    -6.7297  -6.6960  -6.6770  -6.6050  -6.1997  -6.1716  -6.1579  -6.1487
    -5.8690  -5.8667  -5.7847  -5.7563  -5.7074  -5.5989  -5.5661  -5.5390
    -5.4773  -5.4624  -5.4102  -5.3506  -5.2389  -5.2075  -5.1168  -5.1166
    -4.9504  -4.9345  -4.8966  -4.8231  -4.6804  -4.6318  -4.5747  -4.5148
    -4.3351  -4.2872  -4.2331  -4.2127  -4.1480  -4.1181  -4.0978  -4.0208
    -3.9474  -3.9141  -3.8872  -3.8466  -3.7238  -3.7075  -3.6464  -3.5885
    -3.5602  -3.5489  -3.5389  -3.5299  -3.4747  -3.4291  -3.3934  -3.3639
    -3.2067  -3.1749  -3.1479  -3.1259  -3.0800  -3.0501  -3.0010  -3.0001
    -2.9398  -2.9381  -2.8864  -2.8587  -2.7503  -2.7422  -2.7274  -2.6926
    -2.5191  -2.4521  -2.4369  -2.3854  -2.0355  -2.0287  -2.0049  -1.9979
    -1.8583  -1.8415  -1.7645  -1.6951  -1.6028  -1.6013  -1.4618  -1.4362
    -1.2409  -1.1786  -1.1066  -1.0452   0.2513   0.2821   0.2826   0.3088
     0.3261   0.3484   0.3519   0.3949   0.5826   0.6509   0.6884   0.7945
     1.1650   1.1712   1.3088   1.3520

          k = 0.2500 0.1249 0.0541 ( 21236 PWs)   bands (ev):

   -20.7016 -20.7011 -20.6583 -20.6581 -20.0528 -20.0520 -20.0497 -20.0492
   -18.8371 -18.8361 -18.8330 -18.8295 -18.0369 -18.0362 -18.0357 -18.0333
   -14.9402 -14.9372 -14.9363 -14.9334 -13.2364 -13.2193 -13.1727 -13.1522
   -12.6821 -12.6731 -12.6148 -12.6122 -12.2388 -12.2247 -12.1947 -12.1814
   -11.8613 -11.8489 -11.8288 -11.8146 -11.3905 -11.3731 -11.3524 -11.3467
   -10.7746 -10.7391 -10.7198 -10.6998  -9.1179  -9.1079  -9.0875  -9.0745
    -8.7747  -8.7555  -8.7316  -8.7290  -8.3570  -8.3246  -8.2239  -8.1941
    -7.3721  -7.3631  -7.2552  -7.2409  -6.9645  -6.9285  -6.9137  -6.8803
    -6.7319  -6.6993  -6.6752  -6.6382  -6.2052  -6.1805  -6.1784  -6.1623
    -5.8313  -5.8127  -5.7811  -5.7787  -5.6785  -5.6203  -5.5860  -5.5669
    -5.4964  -5.4693  -5.4116  -5.3545  -5.2289  -5.1893  -5.1216  -5.1044
    -4.9156  -4.9025  -4.8932  -4.8610  -4.6642  -4.6252  -4.5718  -4.5434
    -4.3095  -4.2799  -4.2470  -4.1976  -4.1735  -4.1232  -4.0706  -4.0249
    -3.9690  -3.9313  -3.9186  -3.8563  -3.7149  -3.6743  -3.6486  -3.6012
    -3.5678  -3.5557  -3.5380  -3.5336  -3.4546  -3.3931  -3.3852  -3.3699
    -3.2267  -3.1835  -3.1451  -3.1114  -3.0797  -3.0518  -3.0133  -2.9635
    -2.9424  -2.9226  -2.9144  -2.8465  -2.7636  -2.7526  -2.7406  -2.6993
    -2.5017  -2.4567  -2.4271  -2.4129  -2.0315  -2.0293  -2.0050  -1.9935
    -1.8451  -1.8278  -1.7606  -1.7141  -1.6251  -1.5893  -1.4530  -1.4436
    -1.2142  -1.1796  -1.1097  -1.0710   0.2626   0.2831   0.2952   0.2988
     0.3367   0.3434   0.3507   0.3772   0.5873   0.6589   0.6891   0.7914
     1.1611   1.1701   1.3135   1.3460

          k = 0.2500 0.1249 0.1697 ( 21216 PWs)   bands (ev):

   -20.7015 -20.7013 -20.6583 -20.6581 -20.0524 -20.0523 -20.0496 -20.0495
   -18.8366 -18.8363 -18.8318 -18.8310 -18.0365 -18.0360 -18.0351 -18.0344
   -14.9407 -14.9372 -14.9356 -14.9334 -13.2349 -13.2225 -13.1720 -13.1576
   -12.6742 -12.6724 -12.6147 -12.6108 -12.2340 -12.2289 -12.1906 -12.1838
   -11.8586 -11.8531 -11.8211 -11.8180 -11.3898 -11.3844 -11.3590 -11.3485
   -10.7549 -10.7492 -10.7122 -10.7082  -9.1265  -9.0999  -9.0879  -9.0692
    -8.7618  -8.7560  -8.7382  -8.7243  -8.3369  -8.3351  -8.2245  -8.2170
    -7.3732  -7.3516  -7.2767  -7.2525  -6.9495  -6.9395  -6.9114  -6.8937
    -6.7220  -6.6900  -6.6823  -6.6235  -6.1947  -6.1783  -6.1579  -6.1504
    -5.8833  -5.8420  -5.7774  -5.7522  -5.6550  -5.6332  -5.6100  -5.5765
    -5.4716  -5.4296  -5.4125  -5.3738  -5.2232  -5.1774  -5.1316  -5.1102
    -4.9394  -4.9202  -4.8804  -4.8659  -4.6492  -4.6390  -4.5604  -4.5435
    -4.2843  -4.2754  -4.2429  -4.2089  -4.1702  -4.1179  -4.1019  -4.0471
    -3.9398  -3.9297  -3.8827  -3.8621  -3.6933  -3.6853  -3.6605  -3.6187
    -3.6120  -3.5499  -3.5169  -3.4961  -3.4731  -3.4367  -3.3918  -3.3604
    -3.2205  -3.1685  -3.1577  -3.1097  -3.0950  -3.0402  -3.0125  -2.9768
    -2.9458  -2.9007  -2.8869  -2.8314  -2.7801  -2.7609  -2.7251  -2.7038
    -2.4991  -2.4802  -2.4227  -2.4132  -2.0321  -2.0264  -2.0100  -1.9968
    -1.8507  -1.8288  -1.7528  -1.7194  -1.6271  -1.5855  -1.4654  -1.4292
    -1.1714  -1.1518  -1.1346  -1.1050   0.2724   0.2909   0.3026   0.3107
     0.3298   0.3325   0.3457   0.3588   0.6035   0.6617   0.6918   0.7648
     1.1476   1.1690   1.3335   1.3488

          k = 0.2500 0.1249 0.2853 ( 21205 PWs)   bands (ev):

   -20.7015 -20.7013 -20.6583 -20.6582 -20.0527 -20.0520 -20.0498 -20.0493
   -18.8369 -18.8360 -18.8325 -18.8303 -18.0365 -18.0360 -18.0356 -18.0340
   -14.9407 -14.9379 -14.9344 -14.9336 -13.2326 -13.2309 -13.1672 -13.1658
   -12.6707 -12.6630 -12.6125 -12.6105 -12.2331 -12.2265 -12.1881 -12.1856
   -11.8583 -11.8514 -11.8244 -11.8113 -11.3990 -11.3820 -11.3730 -11.3625
   -10.7608 -10.7432 -10.7133 -10.6883  -9.1246  -9.1150  -9.0786  -9.0594
    -8.7656  -8.7618  -8.7181  -8.7152  -8.3400  -8.3153  -8.2568  -8.2294
    -7.3571  -7.3375  -7.3071  -7.2890  -6.9377  -6.9345  -6.9177  -6.9147
    -6.7134  -6.6956  -6.6438  -6.6176  -6.1781  -6.1631  -6.1324  -6.1202
    -5.9265  -5.8962  -5.7934  -5.7815  -5.6521  -5.6267  -5.5829  -5.5533
    -5.4411  -5.4147  -5.3986  -5.3791  -5.2220  -5.1879  -5.1467  -5.1194
    -4.9642  -4.9518  -4.9049  -4.8525  -4.6362  -4.6237  -4.5641  -4.5308
    -4.2809  -4.2594  -4.2287  -4.2140  -4.1752  -4.1413  -4.0931  -4.0716
    -3.9317  -3.9007  -3.8544  -3.8265  -3.7138  -3.6808  -3.6658  -3.6353
    -3.6310  -3.5456  -3.5103  -3.5055  -3.4669  -3.4656  -3.3960  -3.3780
    -3.2310  -3.1758  -3.1446  -3.1117  -3.0998  -3.0402  -3.0260  -2.9591
    -2.9446  -2.8889  -2.8757  -2.8675  -2.7801  -2.7338  -2.7186  -2.6872
    -2.5181  -2.4849  -2.4198  -2.3901  -2.0303  -2.0254  -2.0154  -2.0034
    -1.8517  -1.8345  -1.7622  -1.7103  -1.6195  -1.5851  -1.4727  -1.4238
    -1.1872  -1.1505  -1.1234  -1.0968   0.2765   0.2882   0.3014   0.3105
     0.3195   0.3358   0.3398   0.3677   0.6225   0.6455   0.7113   0.7333
     1.1453   1.1666   1.3458   1.3521

          k = 0.2500 0.1249-0.1772 ( 21236 PWs)   bands (ev):

   -20.7016 -20.7011 -20.6583 -20.6582 -20.0529 -20.0518 -20.0499 -20.0492
   -18.8373 -18.8361 -18.8332 -18.8291 -18.0369 -18.0365 -18.0356 -18.0331
   -14.9399 -14.9386 -14.9344 -14.9337 -13.2373 -13.2282 -13.1710 -13.1594
   -12.6732 -12.6640 -12.6142 -12.6059 -12.2370 -12.2206 -12.1935 -12.1819
   -11.8608 -11.8460 -11.8286 -11.8093 -11.4045 -11.3792 -11.3719 -11.3635
   -10.7693 -10.7450 -10.7129 -10.6757  -9.1234  -9.1150  -9.0799  -9.0598
    -8.7684  -8.7660  -8.7220  -8.7040  -8.3453  -8.3120  -8.2590  -8.2274
    -7.3528  -7.3347  -7.3126  -7.2902  -6.9440  -6.9308  -6.9267  -6.9033
    -6.7197  -6.6831  -6.6748  -6.5863  -6.1855  -6.1552  -6.1401  -6.1168
    -5.9086  -5.8987  -5.8108  -5.7949  -5.6786  -5.6171  -5.5686  -5.5285
    -5.4312  -5.4106  -5.4048  -5.3654  -5.2325  -5.2103  -5.1447  -5.1209
    -4.9735  -4.9484  -4.9129  -4.8404  -4.6431  -4.6144  -4.5685  -4.5258
    -4.2964  -4.2694  -4.2290  -4.1967  -4.1587  -4.1435  -4.1259  -4.0413
    -3.9201  -3.9056  -3.8609  -3.8282  -3.7169  -3.6860  -3.6559  -3.6335
    -3.5823  -3.5537  -3.5259  -3.5186  -3.4937  -3.4809  -3.3806  -3.3623
    -3.2339  -3.1743  -3.1409  -3.1206  -3.0847  -3.0427  -3.0206  -2.9765
    -2.9534  -2.9223  -2.8806  -2.8582  -2.7699  -2.7445  -2.6947  -2.6828
    -2.5251  -2.4722  -2.4192  -2.3782  -2.0326  -2.0220  -2.0140  -2.0062
    -1.8447  -1.8394  -1.7717  -1.7027  -1.6124  -1.5887  -1.4716  -1.4280
[...]
    -7.3361  -7.3311  -7.3054  -7.3026  -6.9478  -6.9409  -6.9341  -6.9246
    -6.7096  -6.6913  -6.6439  -6.6103  -6.1732  -6.1591  -6.1322  -6.1197
    -5.9005  -5.8869  -5.8410  -5.8182  -5.4929  -5.4721  -5.4644  -5.4469
    -5.4045  -5.3969  -5.3624  -5.3536  -5.3075  -5.2964  -5.2502  -5.2384
    -4.9603  -4.9431  -4.9217  -4.8763  -4.6105  -4.5873  -4.5803  -4.5446
    -4.2603  -4.2537  -4.2192  -4.2120  -4.1950  -4.1671  -4.0785  -4.0385
    -3.9157  -3.8976  -3.8648  -3.8304  -3.7419  -3.7313  -3.7072  -3.6948
    -3.6283  -3.6136  -3.5455  -3.5438  -3.4933  -3.4878  -3.3815  -3.3752
    -3.2103  -3.1684  -3.1278  -3.1170  -3.0937  -3.0370  -3.0128  -3.0052
    -2.9513  -2.9315  -2.8991  -2.8821  -2.7812  -2.7666  -2.6715  -2.6671
    -2.5127  -2.4886  -2.3981  -2.3817  -2.0337  -2.0287  -2.0066  -2.0019
    -1.8201  -1.7901  -1.7780  -1.7375  -1.5742  -1.5552  -1.4508  -1.4416
    -1.2464  -1.2191  -1.1076  -1.0973   0.2780   0.2807   0.3052   0.3098
     0.3357   0.3425   0.3692   0.3874   0.6490   0.6553   0.6946   0.7005
     1.1981   1.2143   1.2624   1.2626

     highest occupied level (ev):     1.4049

!    total energy              =   -1080.02491151 Ry
     Harris-Foulkes estimate   =   -1080.02491153 Ry
     estimated scf accuracy    <       0.00000003 Ry

     The total energy is the sum of the following terms:

     one-electron contribution =    -866.06504717 Ry
     hartree contribution      =     552.38216111 Ry
     xc contribution           =    -315.22945440 Ry
     ewald contribution        =    -450.56508108 Ry
     Dispersion Correction     =      -0.54748997 Ry

     convergence has been achieved in  12 iterations

     Forces acting on atoms (cartesian axes, Ry/au):

     atom    1 type  3   force =    -0.00008891   -0.00008209   -0.00001874
     atom    2 type  1   force =    -0.00033217    0.00013277   -0.00041836
     atom    3 type  3   force =    -0.00029333    0.00018947    0.00023926
     atom    4 type  1   force =    -0.00019355    0.00037660    0.00051300
     atom    5 type  1   force =    -0.00065955   -0.00045907    0.00000703
     atom    6 type  1   force =    -0.00002966    0.00042897    0.00014813
     atom    7 type  1   force =     0.00022813    0.00023783   -0.00018957
     atom    8 type  3   force =     0.00003522    0.00002409   -0.00010887
     atom    9 type  4   force =     0.00095304    0.00013700    0.00027275
     atom   10 type  1   force =    -0.00007238   -0.00011272   -0.00005489
     atom   11 type  1   force =     0.00053578   -0.00006023   -0.00020229
     atom   12 type  1   force =    -0.00006072   -0.00055100   -0.00020537
     atom   13 type  1   force =    -0.00000099    0.00001545   -0.00000400
     atom   14 type  1   force =    -0.00040793    0.00000746    0.00007501
     atom   15 type  1   force =    -0.00019516   -0.00013807    0.00023194
     atom   16 type  1   force =     0.00011508   -0.00015068    0.00012209
     atom   17 type  2   force =     0.00023685   -0.00014954    0.00021513
     atom   18 type  2   force =     0.00012360    0.00024022   -0.00003728
     atom   19 type  2   force =     0.00025401    0.00042941    0.00048603
     atom   20 type  2   force =     0.00019218   -0.00045342   -0.00055052
     atom   21 type  2   force =     0.00066691   -0.00028527    0.00027046
     atom   22 type  2   force =     0.00019694    0.00000209   -0.00075849
     atom   23 type  2   force =    -0.00024745    0.00038063   -0.00001554
     atom   24 type  2   force =    -0.00036215    0.00030696   -0.00003483
     atom   25 type  2   force =    -0.00025073    0.00020564    0.00045399
     atom   26 type  2   force =    -0.00042094    0.00066822   -0.00024088
     atom   27 type  2   force =    -0.00018496    0.00018925    0.00050398
     atom   28 type  2   force =    -0.00008500   -0.00018475   -0.00017075
     atom   29 type  2   force =    -0.00083352   -0.00006257    0.00040002
     atom   30 type  2   force =    -0.00043554    0.00019436   -0.00027171
     atom   31 type  2   force =     0.00041851    0.00014151    0.00035734
     atom   32 type  3   force =     0.00008891   -0.00008209    0.00001874
     atom   33 type  3   force =     0.00008891    0.00008209    0.00001874
     atom   34 type  3   force =    -0.00008891    0.00008209   -0.00001874
     atom   35 type  1   force =     0.00033217    0.00013277    0.00041836
     atom   36 type  1   force =     0.00033217   -0.00013277    0.00041836
     atom   37 type  1   force =    -0.00033217   -0.00013277   -0.00041836
     atom   38 type  3   force =     0.00029333    0.00018947   -0.00023926
     atom   39 type  3   force =     0.00029333   -0.00018947   -0.00023926
     atom   40 type  3   force =    -0.00029333   -0.00018947    0.00023926
     atom   41 type  1   force =     0.00019355    0.00037660   -0.00051300
     atom   42 type  1   force =     0.00019355   -0.00037660   -0.00051300
     atom   43 type  1   force =    -0.00019355   -0.00037660    0.00051300
     atom   44 type  1   force =     0.00065955   -0.00045907   -0.00000703
     atom   45 type  1   force =     0.00065955    0.00045907   -0.00000703
     atom   46 type  1   force =    -0.00065955    0.00045907    0.00000703
     atom   47 type  1   force =     0.00002966    0.00042897   -0.00014813
     atom   48 type  1   force =     0.00002966   -0.00042897   -0.00014813
     atom   49 type  1   force =    -0.00002966   -0.00042897    0.00014813
     atom   50 type  1   force =    -0.00022813    0.00023783    0.00018957
     atom   51 type  1   force =    -0.00022813   -0.00023783    0.00018957
     atom   52 type  1   force =     0.00022813   -0.00023783   -0.00018957
     atom   53 type  3   force =    -0.00003522    0.00002409    0.00010887
     atom   54 type  3   force =    -0.00003522   -0.00002409    0.00010887
     atom   55 type  3   force =     0.00003522   -0.00002409   -0.00010887
     atom   56 type  4   force =    -0.00095304    0.00013700   -0.00027275
     atom   57 type  4   force =    -0.00095304   -0.00013700   -0.00027275
     atom   58 type  4   force =     0.00095304   -0.00013700    0.00027275
     atom   59 type  1   force =     0.00007238   -0.00011272    0.00005489
     atom   60 type  1   force =     0.00007238    0.00011272    0.00005489
     atom   61 type  1   force =    -0.00007238    0.00011272   -0.00005489
     atom   62 type  1   force =    -0.00053578   -0.00006023    0.00020229
     atom   63 type  1   force =    -0.00053578    0.00006023    0.00020229
     atom   64 type  1   force =     0.00053578    0.00006023   -0.00020229
     atom   65 type  1   force =     0.00006072   -0.00055100    0.00020537
     atom   66 type  1   force =     0.00006072    0.00055100    0.00020537
     atom   67 type  1   force =    -0.00006072    0.00055100   -0.00020537
     atom   68 type  1   force =     0.00000099    0.00001545    0.00000400
     atom   69 type  1   force =     0.00000099   -0.00001545    0.00000400
     atom   70 type  1   force =    -0.00000099   -0.00001545   -0.00000400
     atom   71 type  1   force =     0.00040793    0.00000746   -0.00007501
     atom   72 type  1   force =     0.00040793   -0.00000746   -0.00007501
     atom   73 type  1   force =    -0.00040793   -0.00000746    0.00007501
     atom   74 type  1   force =     0.00019516   -0.00013807   -0.00023194
     atom   75 type  1   force =     0.00019516    0.00013807   -0.00023194
     atom   76 type  1   force =    -0.00019516    0.00013807    0.00023194
     atom   77 type  1   force =    -0.00011508   -0.00015068   -0.00012209
     atom   78 type  1   force =    -0.00011508    0.00015068   -0.00012209
     atom   79 type  1   force =     0.00011508    0.00015068    0.00012209
     atom   80 type  2   force =    -0.00023685   -0.00014954   -0.00021513
     atom   81 type  2   force =    -0.00023685    0.00014954   -0.00021513
     atom   82 type  2   force =     0.00023685    0.00014954    0.00021513
     atom   83 type  2   force =    -0.00012360    0.00024022    0.00003728
     atom   84 type  2   force =    -0.00012360   -0.00024022    0.00003728
     atom   85 type  2   force =     0.00012360   -0.00024022   -0.00003728
     atom   86 type  2   force =    -0.00025401    0.00042941   -0.00048603
     atom   87 type  2   force =    -0.00025401   -0.00042941   -0.00048603
     atom   88 type  2   force =     0.00025401   -0.00042941    0.00048603
     atom   89 type  2   force =    -0.00019218   -0.00045342    0.00055052
     atom   90 type  2   force =    -0.00019218    0.00045342    0.00055052
     atom   91 type  2   force =     0.00019218    0.00045342   -0.00055052
     atom   92 type  2   force =    -0.00066691   -0.00028527   -0.00027046
     atom   93 type  2   force =    -0.00066691    0.00028527   -0.00027046
     atom   94 type  2   force =     0.00066691    0.00028527    0.00027046
     atom   95 type  2   force =    -0.00019694    0.00000209    0.00075849
     atom   96 type  2   force =    -0.00019694   -0.00000209    0.00075849
     atom   97 type  2   force =     0.00019694   -0.00000209   -0.00075849
     atom   98 type  2   force =     0.00024745    0.00038063    0.00001554
     atom   99 type  2   force =     0.00024745   -0.00038063    0.00001554
     atom  100 type  2   force =    -0.00024745   -0.00038063   -0.00001554
     atom  101 type  2   force =     0.00036215    0.00030696    0.00003483
     atom  102 type  2   force =     0.00036215   -0.00030696    0.00003483
     atom  103 type  2   force =    -0.00036215   -0.00030696   -0.00003483
     atom  104 type  2   force =     0.00025073    0.00020564   -0.00045399
     atom  105 type  2   force =     0.00025073   -0.00020564   -0.00045399
     atom  106 type  2   force =    -0.00025073   -0.00020564    0.00045399
     atom  107 type  2   force =     0.00042094    0.00066822    0.00024088
     atom  108 type  2   force =     0.00042094   -0.00066822    0.00024088
     atom  109 type  2   force =    -0.00042094   -0.00066822   -0.00024088
     atom  110 type  2   force =     0.00018496    0.00018925   -0.00050398
     atom  111 type  2   force =     0.00018496   -0.00018925   -0.00050398
     atom  112 type  2   force =    -0.00018496   -0.00018925    0.00050398
     atom  113 type  2   force =     0.00008500   -0.00018475    0.00017075
     atom  114 type  2   force =     0.00008500    0.00018475    0.00017075
     atom  115 type  2   force =    -0.00008500    0.00018475   -0.00017075
     atom  116 type  2   force =     0.00083352   -0.00006257   -0.00040002
     atom  117 type  2   force =     0.00083352    0.00006257   -0.00040002
     atom  118 type  2   force =    -0.00083352    0.00006257    0.00040002
     atom  119 type  2   force =     0.00043554    0.00019436    0.00027171
     atom  120 type  2   force =     0.00043554   -0.00019436    0.00027171
     atom  121 type  2   force =    -0.00043554   -0.00019436   -0.00027171
     atom  122 type  2   force =    -0.00041851    0.00014151   -0.00035734
     atom  123 type  2   force =    -0.00041851   -0.00014151   -0.00035734
     atom  124 type  2   force =     0.00041851   -0.00014151    0.00035734

     Total force =     0.006240     Total SCF correction =     0.000316

     BFGS Geometry Optimization

     bfgs converged in   1 scf cycles and   0 bfgs steps
     (criteria: energy <  1.0E-04 Ry, force <  1.0E-03 Ry/Bohr)

     End of BFGS Geometry Optimization

     Final energy   =   -1080.0249115110 Ry
Begin final coordinates

ATOMIC_POSITIONS (angstrom)
O        0.766966230  10.932004596   0.954832159
C        0.170876763  10.758124139   5.099555524
O       -0.698534821   8.530799677   4.826034016
C       -0.037950739  10.669350995   6.556030974
C        0.535774800  10.818239320   2.292190508
C       -0.008708515   9.682774894   2.887605337
C       -0.186103962   9.647660403   4.279291865
O       -0.553284967   9.578833704   7.030544483
N        0.477761551   0.668819130   9.685480975
C        0.182334712  11.621626535   8.787316214
C        0.703906093  -0.001633948   4.442763192
C        0.336291712  11.735330861   7.419796284
C        0.893336209   0.045618196   3.075456638
C        0.981706862   1.969466289   9.270410838
C        0.323665945   0.438886161  11.113656586
C        0.407437217   9.826659300   0.118168919
H        1.032984046   8.948860785   0.349912461
H       -2.185685408  10.159371807  11.936003587
H        6.771199759   9.563375197   0.233415523
H       -0.314399040   8.811575536   2.312834005
H       -0.212485156  10.690222617   9.194119640
H        0.751113790   0.757181117   7.001388790
H        1.349265780   0.909705331   2.593061864
H        0.998926911   0.867346329   5.027624664
H       -0.364822339   1.183626474  11.535513652
H        0.291111168   2.417104497   8.540452245
H        1.042305841   2.623048569  10.147611021
H       -0.058249422  11.316572079  11.283087991
H        1.979214720   1.866876503   8.814283532
H        1.299992008   0.533258893  11.613869545
H       -0.738345742   8.776078733   5.858884745
O        1.557823770   4.987504596   5.467287841
O        3.882613770   0.956995404  11.889397841
O        3.091756230   6.901495404   7.376942159
C        2.153913237   4.813624139   1.322564476
C        4.478703237   1.130875861   7.744674476
C        2.495666763   7.075375861  11.521665524
O        3.023324821   2.586299677   1.596075984
O        5.348114821   3.358200323   8.018185984
O        1.626255179   9.302700323  11.248144016
C       -0.414279261   4.724850995  12.710309026
C        4.687530739   1.219649005   6.288199026
C        5.063859261   7.164149005   0.133910974
C        1.789015200   4.873739320   4.129919492
C        4.113805200   1.070760680  10.552029492
C        2.860564800   7.015260680   8.714300508
C        2.333498515   3.738274894   3.534504663
C        4.658288515   2.206225106   9.956614663
C        2.316081485   8.150725106   9.309715337
C        2.510893962   3.703160403   2.142818135
C        4.835683962   2.241339597   8.564928135
C        2.138686038   8.185839597  10.701401865
O        0.101054967   3.634333704  12.235785517
O        5.202864967   2.310166296   5.813675517
O        4.548525033   8.254666296   0.608434483
N       -0.929991551   6.613319130   9.580849025
N        4.171818449  11.220180870   3.158739025
N        5.579571551   5.275680870   3.263370975
C       -0.634564712   5.677126535  10.479013786
C        4.467245288   0.267373465   4.056903786
C        5.284144712   6.211873465   2.365206214
C        1.620883907   5.942866052   1.979346808
C        3.945673907  11.890633948   8.401456808
C        3.028696093   5.946133948  10.864873192
C       -0.788521712   5.790830861  11.846543716
C        4.313288288   0.153669139   5.424433716
C        5.438101712   6.098169139   0.997676284
C        1.431453791   5.990118196   3.346653362
C        3.756243791  11.843381804   9.768763362
C        3.218126209   5.898881804   9.497576638
C       -1.433936862   7.913966289   9.995919162
C        3.667873138   9.919533711   3.573809162
C        6.083516862   3.975033711   2.848300838
C       -0.775895945   6.383386161   8.152673414
C        4.325914055  11.450113839   1.730563414
C        5.425475945   5.505613839   4.691546586
C        1.917352783   3.882159300   6.303941081
C        4.242142783   2.062340700  12.726061081
C        2.732227217   8.006840700   6.540278919
H        1.291805954   3.004360785   6.072207539
H        3.616595954   2.940139215  12.494317539
H        3.357774046   8.884639215   6.772022461
H        1.733455408   4.214871807   7.330326413
H        6.835265408   1.729628193   0.908216413
H        2.916124592   7.674128193   5.513893587
H        2.980190241   3.618875197   6.188704477
H       -2.121619759   2.325624803  12.610814477
H        1.669389759   8.270124803   6.655525523
H        2.639189040   2.867075536   4.109275995
H        4.963979040   3.077424464  10.531385995
H        2.010390960   9.021924464   8.734944005
H       -0.239744844   4.745722617  10.072210360
H        4.862065156   1.198777383   3.650100360
H        4.889324844   7.143277383   2.772009640
H       -1.203343790   6.701681117  12.264951210
H        3.898466210  11.131818883   5.842841210
H        5.852923790   5.187318883   0.579278790
H        0.975524220   6.854205331   3.829048136
H        3.300314220  10.979294669  10.251158136
H        3.674055780   5.034794669   9.015181864
H        1.325863089   6.811846329   1.394485336
H        3.650663089  11.021653671   7.816595336
H        3.323716911   5.077153671  11.449734664
H       -0.087407661   7.128126474   7.730826348
H        5.014402339  10.705373526   1.308716348
H        4.736987661   4.760873526   5.113403652
H       -0.743341168   8.361604497  10.725877755
H        4.358468832   9.471895503   4.303767755
H        5.392921168   3.527395503   2.118342245
H       -1.494525841   8.567548569   9.118728979
H        3.607284159   9.265951431   2.696618979
H        6.144115841   3.321451431   3.725501021
H       -0.393980578   5.372072079   7.983242009
H        4.707829422   0.572427921   1.561132009
H        5.043560578   6.516927921   4.860977991
H        4.995155280   7.811376503  10.452046468
H        2.670365280  10.022123497   4.029936468
H       -0.345575280   4.077623497   2.392173532
H       -1.752222008   6.477758893   7.652470455
H        3.349587992  11.355741107   1.230360455
H        6.401802008   5.411241107   5.191759545
H        3.063135742   2.831578733   0.563225255
H        5.387925742   3.112921267   6.985335255
H        1.586444258   9.057421267  12.280994745
End final coordinates



     Writing output data file 2hp_3_855.save
 
     init_run     :   1283.08s CPU   1292.03s WALL (       1 calls)
     electrons    :  34528.48s CPU  34755.33s WALL (       1 calls)
     forces       :    628.60s CPU    630.58s WALL (       1 calls)

     Called by init_run:
     wfcinit      :   1274.84s CPU   1283.21s WALL (       1 calls)
     potinit      :      3.33s CPU      3.36s WALL (       1 calls)

     Called by electrons:
     c_bands      :  31257.87s CPU  31471.07s WALL (      12 calls)
     sum_band     :   3238.91s CPU   3250.66s WALL (      12 calls)
     v_of_rho     :      4.82s CPU      4.86s WALL (      13 calls)
     newd         :     11.66s CPU     13.57s WALL (      13 calls)
     mix_rho      :      1.03s CPU      1.11s WALL (      12 calls)

     Called by c_bands:
     init_us_2    :    165.22s CPU    166.09s WALL (    1638 calls)
     cegterg      :  30626.23s CPU  30834.45s WALL (     756 calls)

     Called by sum_band:
     sum_band:bec :      1.02s CPU      1.04s WALL (     756 calls)
     addusdens    :     12.28s CPU     14.19s WALL (      12 calls)

     Called by *egterg:
     h_psi        :  17772.02s CPU  17824.59s WALL (    3592 calls)
     s_psi        :   4606.97s CPU   4617.00s WALL (    3592 calls)
     g_psi        :     46.16s CPU     46.33s WALL (    2773 calls)
     cdiaghg      :    976.05s CPU    978.33s WALL (    3529 calls)

     Called by h_psi:
     h_psi:pot    :  17690.46s CPU  17740.81s WALL (    3592 calls)
     h_psi:calbec :   4300.71s CPU   4310.45s WALL (    3592 calls)
     vloc_psi     :   8779.18s CPU   8809.81s WALL (    3592 calls)
     add_vuspsi   :   4610.49s CPU   4620.49s WALL (    3592 calls)

     General routines
     calbec       :   6287.92s CPU   6302.27s WALL (    4600 calls)
     fft          :      2.53s CPU      2.83s WALL (     170 calls)
     fftw         :   9029.99s CPU   9059.69s WALL (  920424 calls)
     davcio       :      0.05s CPU      2.90s WALL (      63 calls)
 
     Parallel routines
     fft_scatter  :   1222.23s CPU   1227.32s WALL (  920594 calls)
 
     PWSCF        :    10h 7m CPU       10h11m WALL

 
   This run was terminated on:   0:51:13  19Oct2017            

=------------------------------------------------------------------------------=
   JOB DONE.
=------------------------------------------------------------------------------=
