
     Program PWSCF v.6.1 (svn rev. 13369) starts on  6Oct2017 at 13:58:44 

     This program is part of the open-source Quantum ESPRESSO suite
     for quantum simulation of materials; please cite
         "P. Giannozzi et al., J. Phys.:Condens. Matter 21 395502 (2009);
          URL http://www.quantum-espresso.org", 
     in publications or presentations arising from this work. More details at
     http://www.quantum-espresso.org/quote

     Parallel version (MPI), running on     1 processors
     Waiting for input...
     Reading input from standard input

     Current dimensions of program PWSCF are:
     Max number of different atomic species (ntypx) = 10
     Max number of k-points (npk) =  40000
     Max angular momentum in pseudopotentials (lmaxx) =  3
     Message from routine iosys:
     london is obsolete, use "vdw_corr='grimme-d2'" instead

     IMPORTANT: XC functional enforced from input :
     Exchange-correlation      = PBE ( 1  4  3  4 0 0)
     Any further DFT definition will be discarded
     Please, verify this is what you really want

               file C.pbe-rrkjus.UPF: wavefunction(s)  2S 2P renormalized
               file H.pbe-rrkjus.UPF: wavefunction(s)  1S renormalized
               file O.pbe-rrkjus.UPF: wavefunction(s)  2S renormalized
               file N.pbe-rrkjus.UPF: wavefunction(s)  2S renormalized

     -------------------------------------
     Parameters for Dispersion Correction:
     -------------------------------------
       atom      VdW radius       C_6     

        C          2.744         60.710
        H          1.892          4.857
        O          2.536         24.284
        N          2.640         42.670

     Subspace diagonalization in iterative solution of the eigenvalue problem:
     a serial algorithm will be used

 
     G-vector sticks info
     --------------------
     sticks:   dense  smooth     PW     G-vecs:    dense   smooth      PW
     Sum        3019    3019    817               169855   169855   24041
 


     bravais-lattice index     =            0
     lattice parameter (alat)  =      14.0342  a.u.
     unit-cell volume          =    7653.1420 (a.u.)^3
     number of atoms/cell      =          124
     number of atomic types    =            4
     number of electrons       =       344.00
     number of Kohn-Sham states=          172
     kinetic-energy cutoff     =      30.0000  Ry
     charge density cutoff     =     120.0000  Ry
     convergence threshold     =      1.0E-07
     mixing beta               =       0.7000
     number of iterations used =            8  plain     mixing
     Exchange-correlation      = PBE ( 1  4  3  4 0 0)
     nstep                     =           50


     celldm(1)=  14.034240  celldm(2)=   0.000000  celldm(3)=   0.000000
     celldm(4)=   0.000000  celldm(5)=   0.000000  celldm(6)=   0.000000

     crystal axes: (cart. coord. in units of alat)
               a(1) = (   1.000000   0.000000   0.000000 )  
               a(2) = (   0.000000   1.600867   0.000000 )  
               a(3) = (  -0.373929   0.000000   1.729489 )  

     reciprocal axes: (cart. coord. in units 2 pi/alat)
               b(1) = (  1.000000  0.000000  0.216208 )  
               b(2) = (  0.000000  0.624661  0.000000 )  
               b(3) = (  0.000000  0.000000  0.578206 )  


     PseudoPot. # 1 for C  read from file:
     /data/home/btx156/espresso/pseudo/C.pbe-rrkjus.UPF
     MD5 check sum: 00fb224312de0c5b6853bd333518df6f
     Pseudo is Ultrasoft, Zval =  4.0
     Generated by new atomic code, or converted to UPF format
     Using radial grid of  627 points,  4 beta functions with: 
                l(1) =   0
                l(2) =   0
                l(3) =   1
                l(4) =   1
     Q(r) pseudized with 0 coefficients 


     PseudoPot. # 2 for H  read from file:
     /data/home/btx156/espresso/pseudo/H.pbe-rrkjus.UPF
     MD5 check sum: 7cc9d459525c9a0585f487a71c3c9563
     Pseudo is Ultrasoft, Zval =  1.0
     Generated by new atomic code, or converted to UPF format
     Using radial grid of 1061 points,  2 beta functions with: 
                l(1) =   0
                l(2) =   0
     Q(r) pseudized with 0 coefficients 


     PseudoPot. # 3 for O  read from file:
     /data/home/btx156/espresso/pseudo/O.pbe-rrkjus.UPF
     MD5 check sum: 390ba29e75625707450f3bd3f0eb6be9
     Pseudo is Ultrasoft, Zval =  6.0
     Generated by new atomic code, or converted to UPF format
     Using radial grid of 1269 points,  4 beta functions with: 
                l(1) =   0
                l(2) =   0
                l(3) =   1
                l(4) =   1
     Q(r) pseudized with 0 coefficients 


     PseudoPot. # 4 for N  read from file:
     /data/home/btx156/espresso/pseudo/N.pbe-rrkjus.UPF
     MD5 check sum: 0c3fbe5807a93f9ba59d5a7019aa238b
     Pseudo is Ultrasoft, Zval =  5.0
     Generated by new atomic code, or converted to UPF format
     Using radial grid of 1257 points,  4 beta functions with: 
                l(1) =   0
                l(2) =   0
                l(3) =   1
                l(4) =   1
     Q(r) pseudized with 0 coefficients 


     atomic species   valence    mass     pseudopotential
        C              4.00    12.00000     C ( 1.00)
        H              1.00     1.00790     H ( 1.00)
        O              6.00    15.99940     O ( 1.00)
        N              5.00    14.00670     N ( 1.00)

      4 Sym. Ops., with inversion, found ( 2 have fractional translation)



   Cartesian axes

     site n.     atom                  positions (alat units)
         1           O   tau(   1) = (   0.1038006   1.4717340   0.1286529  )
         2           C   tau(   2) = (   0.0227598   1.4478082   0.6863767  )
         3           O   tau(   3) = (  -0.0955649   1.1487167   0.6497563  )
         4           C   tau(   4) = (  -0.0054110   1.4358561   0.8825657  )
         5           C   tau(   5) = (   0.0720950   1.4560350   0.3086149  )
         6           C   tau(   6) = (  -0.0021258   1.3034969   0.3883308  )
         7           C   tau(   7) = (  -0.0262733   1.2987022   0.5758994  )
         8           O   tau(   8) = (  -0.0754365   1.2891461   0.9461183  )
         9           N   tau(   9) = (   0.0617203   0.0906593   1.3035215  )
        10           C   tau(  10) = (   0.0235051   1.5646010   1.1829076  )
        11           C   tau(  11) = (   0.0951973  -0.0012885   0.5981789  )
        12           C   tau(  12) = (   0.0450743   1.5789878   0.9987304  )
        13           C   tau(  13) = (   0.1209403   0.0050756   0.4142320  )
        14           C   tau(  14) = (   0.1327565   0.2643047   1.2477820  )
        15           C   tau(  15) = (   0.0435813   0.0596846   1.4962736  )
        16           C   tau(  16) = (   0.0549320   1.3232172   0.0159509  )
        17           H   tau(  17) = (   0.1389568   1.2047862   0.0469485  )
        18           H   tau(  18) = (  -0.2943328   1.3681274   1.6072463  )
        19           H   tau(  19) = (   0.9117829   1.2882881   0.0318863  )
        20           H   tau(  20) = (  -0.0426144   1.1860180   0.3106627  )
        21           H   tau(  21) = (  -0.0286968   1.4390013   1.2383151  )
        22           H   tau(  22) = (   0.1019824   0.0999819   0.9416597  )
        23           H   tau(  23) = (   0.1825303   0.1213075   0.3490941  )
        24           H   tau(  24) = (   0.1353464   0.1158038   0.6767224  )
        25           H   tau(  25) = (  -0.0482973   0.1599210   1.5546357  )
        26           H   tau(  26) = (   0.0417193   0.3265567   1.1488884  )
        27           H   tau(  27) = (   0.1416533   0.3520372   1.3661074  )
        28           H   tau(  28) = (  -0.0070849   1.5242889   1.5199146  )
        29           H   tau(  29) = (   0.2671600   0.2471933   1.1876324  )
        30           H   tau(  30) = (   0.1760312   0.0725939   1.5613564  )
        31           H   tau(  31) = (  -0.1000110   1.1822607   0.7894086  )
        32           O   tau(  32) = (   0.2092349   0.6713004   0.7360927  )
        33           O   tau(  33) = (   0.5222705   0.1291332   1.6008370  )
        34           O   tau(  34) = (   0.4168362   0.9295668   0.9933972  )
        35           C   tau(  35) = (   0.2902758   0.6473746   0.1783690  )
        36           C   tau(  36) = (   0.6033114   0.1530590   1.0431133  )
        37           C   tau(  37) = (   0.3357954   0.9534926   1.5511210  )
        38           O   tau(  38) = (   0.4086005   0.3482831   0.2149880  )
        39           O   tau(  39) = (   0.7216361   0.4521504   1.0797323  )
        40           O   tau(  40) = (   0.2174706   1.2525840   1.5145006  )
        41           C   tau(  41) = (  -0.0554823   0.6354225   1.7116686  )
        42           C   tau(  42) = (   0.6314821   0.1650111   0.8469243  )
        43           C   tau(  43) = (   0.6815535   0.9654447   0.0178200  )
        44           C   tau(  44) = (   0.2409406   0.6556014   0.5561294  )
        45           C   tau(  45) = (   0.5539762   0.1448322   1.4208737  )
        46           C   tau(  46) = (   0.3851305   0.9452658   1.1733592  )
        47           C   tau(  47) = (   0.3151614   0.5030633   0.4764135  )
        48           C   tau(  48) = (   0.6281970   0.2973702   1.3411578  )
        49           C   tau(  49) = (   0.3109098   1.0978038   1.2530751  )
        50           C   tau(  50) = (   0.3393089   0.4982686   0.2888449  )
        51           C   tau(  51) = (   0.6523445   0.3021649   1.1535892  )
        52           C   tau(  52) = (   0.2867622   1.1025985   1.4406437  )
        53           O   tau(  53) = (   0.0145432   0.4887125   1.6481146  )
        54           O   tau(  54) = (   0.7015076   0.3117211   0.7833703  )
        55           O   tau(  55) = (   0.6115280   1.1121547   0.0813740  )
        56           N   tau(  56) = (  -0.1226136   0.8910929   1.2907114  )
        57           N   tau(  57) = (   0.5643509   1.5102079   0.4259671  )
        58           N   tau(  58) = (   0.7486847   0.7097743   0.4387772  )
        59           C   tau(  59) = (  -0.0843984   0.7641674   1.4113253  )
        60           C   tau(  60) = (   0.6025660   0.0362661   0.5465810  )
        61           C   tau(  61) = (   0.7104696   0.8366997   0.3181633  )
        62           C   tau(  62) = (   0.2178383   0.7991451   0.2665654  )
        63           C   tau(  63) = (   0.5308738   1.6021556   1.1313097  )
        64           C   tau(  64) = (   0.4082329   0.8017220   1.4629232  )
        65           C   tau(  65) = (  -0.1059676   0.7785542   1.5955039  )
        66           C   tau(  66) = (   0.5809969   0.0218793   0.7307596  )
        67           C   tau(  67) = (   0.7320387   0.8223129   0.1339847  )
        68           C   tau(  68) = (   0.1920953   0.8055092   0.4505123  )
        69           C   tau(  69) = (   0.5051309   1.5957916   1.3152566  )
        70           C   tau(  70) = (   0.4339759   0.7953580   1.2789777  )
        71           C   tau(  71) = (  -0.1936498   1.0647382   1.3464509  )
        72           C   tau(  72) = (   0.4933146   1.3365625   0.4817066  )
        73           C   tau(  73) = (   0.8197210   0.5361289   0.3830377  )
        74           C   tau(  74) = (  -0.1044746   0.8601182   1.0979593  )
        75           C   tau(  75) = (   0.5824899   1.5411826   0.2332150  )
        76           C   tau(  76) = (   0.7305457   0.7407490   0.6315293  )
        77           C   tau(  77) = (   0.2581035   0.5227836   0.8487934  )
        78           C   tau(  78) = (   0.5711391   0.2776499   1.7135390  )
        79           C   tau(  79) = (   0.3679676   1.0780835   0.8806952  )
        80           H   tau(  80) = (   0.1740787   0.4043526   0.8177971  )
        81           H   tau(  81) = (   0.4871143   0.3960809   1.6825414  )
        82           H   tau(  82) = (   0.4519924   1.1965145   0.9116928  )
        83           H   tau(  83) = (   0.2334395   0.5676938   0.9869866  )
        84           H   tau(  84) = (   0.9204040   0.2327397   0.1222423  )
        85           H   tau(  85) = (   0.3926316   1.0331733   0.7425020  )
        86           H   tau(  86) = (   0.4012527   0.4878545   0.8328593  )
        87           H   tau(  87) = (  -0.2857118   0.3125791   1.6976036  )
        88           H   tau(  88) = (   0.2248185   1.1130126   0.8966306  )
        89           H   tau(  89) = (   0.3556499   0.3855844   0.5540816  )
        90           H   tau(  90) = (   0.6686855   0.4148492   1.4188259  )
        91           H   tau(  91) = (   0.2704212   1.2152828   1.1754070  )
        92           H   tau(  92) = (  -0.0321965   0.6385677   1.3559178  )
        93           H   tau(  93) = (   0.6547679   0.1618659   0.4911735  )
        94           H   tau(  94) = (   0.6582677   0.9622995   0.3735708  )
        95           H   tau(  95) = (  -0.1628756   0.9004155   1.6525746  )
        96           H   tau(  96) = (   0.5240888   1.5008852   0.7878303  )
        97           H   tau(  97) = (   0.7889468   0.7004517   0.0769154  )
        98           H   tau(  98) = (   0.1305053   0.9217411   0.5156502  )
        99           H   tau(  99) = (   0.4435409   1.4795596   1.3803945  )
       100           H   tau( 100) = (   0.4955659   0.6791260   1.2138397  )
       101           H   tau( 101) = (   0.1776892   0.9162374   0.1880219  )
       102           H   tau( 102) = (   0.4907261   1.4850633   1.0527662  )
       103           H   tau( 103) = (   0.4483819   0.6846298   1.5414667  )
       104           H   tau( 104) = (  -0.0125960   0.9603546   1.0395985  )
       105           H   tau( 105) = (   0.6743685   1.4409462   0.1748542  )
       106           H   tau( 106) = (   0.6386671   0.6405126   0.6898914  )
       107           H   tau( 107) = (  -0.1026125   1.1269903   1.4453445  )
       108           H   tau( 108) = (   0.5843519   1.2743104   0.5806002  )
       109           H   tau( 109) = (   0.7286837   0.4738769   0.2841441  )
       110           H   tau( 110) = (  -0.2025452   1.1524708   1.2281269  )
       111           H   tau( 111) = (   0.4844192   1.2488299   0.3633826  )
       112           H   tau( 112) = (   0.8286177   0.4483964   0.5013631  )
       113           H   tau( 113) = (  -0.0538084   0.7238553   1.0743183  )
       114           H   tau( 114) = (   0.6331560   0.0765783   0.2095740  )
       115           H   tau( 115) = (   0.6798795   0.8770119   0.6551703  )
       116           H   tau( 116) = (   0.6719467   1.0476269   1.4066005  )
       117           H   tau( 117) = (   0.3589111   1.3536738   0.5418562  )
       118           H   tau( 118) = (  -0.0458755   0.5532402   0.3228881  )
       119           H   tau( 119) = (  -0.2369245   0.8730275   1.0328778  )
       120           H   tau( 120) = (   0.4500399   1.5282733   0.1681335  )
       121           H   tau( 121) = (   0.8629956   0.7278397   0.6966121  )
       122           H   tau( 122) = (   0.4130466   0.3818271   0.0753357  )
       123           H   tau( 123) = (   0.7260822   0.4186065   0.9400800  )
       124           H   tau( 124) = (   0.2130245   1.2190400   1.6541529  )

     number of k points=     2
                       cart. coord. in units 2pi/alat
        k(    1) = (   0.0000000   0.0000000   0.0000000), wk =   1.0000000
        k(    2) = (  -0.5000000   0.0000000  -0.1081038), wk =   1.0000000

     Dense  grid:   169855 G-vectors     FFT dimensions: (  50,  80,  90)

     Estimated max dynamical RAM per process >     934.50MB

     Initial potential from superposition of free atoms

     starting charge  338.22517, renormalised to  344.00000
     Starting wfc are  316 randomized atomic wfcs

     total cpu time spent up to now is       16.9 secs

     per-process dynamical memory:   511.6 Mb

     Self-consistent Calculation

     iteration #  1     ecut=    30.00 Ry     beta=0.70
     Davidson diagonalization with overlap
     ethr =  1.00E-02,  avg # of iterations =  2.0

     total cpu time spent up to now is       51.1 secs

     total energy              =   -1073.66895232 Ry
     Harris-Foulkes estimate   =   -1088.65089781 Ry
     estimated scf accuracy    <      22.78819254 Ry

     iteration #  2     ecut=    30.00 Ry     beta=0.70
     Davidson diagonalization with overlap
     ethr =  6.62E-03,  avg # of iterations =  4.0

     total cpu time spent up to now is       79.3 secs

     total energy              =   -1075.97252713 Ry
     Harris-Foulkes estimate   =   -1083.61232333 Ry
     estimated scf accuracy    <      13.87314553 Ry

     iteration #  3     ecut=    30.00 Ry     beta=0.70
     Davidson diagonalization with overlap
     ethr =  4.03E-03,  avg # of iterations =  4.0

     total cpu time spent up to now is      106.9 secs

     total energy              =   -1079.10518519 Ry
     Harris-Foulkes estimate   =   -1080.80005742 Ry
     estimated scf accuracy    <       3.49600026 Ry

     iteration #  4     ecut=    30.00 Ry     beta=0.70
     Davidson diagonalization with overlap
     ethr =  1.02E-03,  avg # of iterations =  4.0

     total cpu time spent up to now is      133.6 secs

     total energy              =   -1079.83287015 Ry
     Harris-Foulkes estimate   =   -1080.23509843 Ry
     estimated scf accuracy    <       0.94402650 Ry

     iteration #  5     ecut=    30.00 Ry     beta=0.70
     Davidson diagonalization with overlap
     ethr =  2.74E-04,  avg # of iterations =  4.0

     total cpu time spent up to now is      158.7 secs

     total energy              =   -1080.00902551 Ry
     Harris-Foulkes estimate   =   -1080.03490479 Ry
     estimated scf accuracy    <       0.05250192 Ry

     iteration #  6     ecut=    30.00 Ry     beta=0.70
     Davidson diagonalization with overlap
     ethr =  1.53E-05,  avg # of iterations =  4.0

     total cpu time spent up to now is      186.4 secs

     total energy              =   -1080.02278395 Ry
     Harris-Foulkes estimate   =   -1080.02497606 Ry
     estimated scf accuracy    <       0.00496313 Ry

     iteration #  7     ecut=    30.00 Ry     beta=0.70
     Davidson diagonalization with overlap
     ethr =  1.44E-06,  avg # of iterations =  4.0

     total cpu time spent up to now is      213.1 secs

     total energy              =   -1080.02382854 Ry
     Harris-Foulkes estimate   =   -1080.02437653 Ry
     estimated scf accuracy    <       0.00117540 Ry

     iteration #  8     ecut=    30.00 Ry     beta=0.70
     Davidson diagonalization with overlap
     ethr =  3.42E-07,  avg # of iterations =  4.0

     total cpu time spent up to now is      239.3 secs

     total energy              =   -1080.02410889 Ry
     Harris-Foulkes estimate   =   -1080.02418655 Ry
     estimated scf accuracy    <       0.00017924 Ry

     iteration #  9     ecut=    30.00 Ry     beta=0.70
     Davidson diagonalization with overlap
     ethr =  5.21E-08,  avg # of iterations =  4.0

     total cpu time spent up to now is      266.0 secs

     total energy              =   -1080.02414689 Ry
     Harris-Foulkes estimate   =   -1080.02416027 Ry
     estimated scf accuracy    <       0.00002905 Ry

     iteration # 10     ecut=    30.00 Ry     beta=0.70
     Davidson diagonalization with overlap
     ethr =  8.44E-09,  avg # of iterations =  4.0

     total cpu time spent up to now is      291.2 secs

     total energy              =   -1080.02415302 Ry
     Harris-Foulkes estimate   =   -1080.02415441 Ry
     estimated scf accuracy    <       0.00000306 Ry

     iteration # 11     ecut=    30.00 Ry     beta=0.70
     Davidson diagonalization with overlap
     ethr =  8.90E-10,  avg # of iterations =  3.0

     total cpu time spent up to now is      317.5 secs

     total energy              =   -1080.02415383 Ry
     Harris-Foulkes estimate   =   -1080.02415402 Ry
     estimated scf accuracy    <       0.00000053 Ry

     iteration # 12     ecut=    30.00 Ry     beta=0.70
     Davidson diagonalization with overlap
     ethr =  1.54E-10,  avg # of iterations =  3.5

     total cpu time spent up to now is      343.0 secs

     End of self-consistent calculation

          k = 0.0000 0.0000 0.0000 ( 21265 PWs)   bands (ev):

   -20.7077 -20.7068 -20.6647 -20.6645 -20.0471 -20.0456 -20.0436 -20.0427
   -18.8434 -18.8412 -18.8411 -18.8346 -18.0427 -18.0424 -18.0416 -18.0381
   -14.9431 -14.9387 -14.9383 -14.9341 -13.2628 -13.2423 -13.1755 -13.1489
   -12.6969 -12.6824 -12.6087 -12.6022 -12.2389 -12.2189 -12.1904 -12.1707
   -11.8625 -11.8455 -11.8247 -11.8029 -11.4039 -11.3770 -11.3554 -11.3477
   -10.8001 -10.7527 -10.7191 -10.6990  -9.1137  -9.0963  -9.0839  -9.0639
    -8.7834  -8.7490  -8.7339  -8.7230  -8.3773  -8.3327  -8.2102  -8.1726
    -7.3775  -7.3669  -7.2404  -7.2184  -6.9745  -6.9233  -6.9146  -6.8634
    -6.7417  -6.6947  -6.6814  -6.6220  -6.2152  -6.1793  -6.1761  -6.1668
    -5.8383  -5.8179  -5.8133  -5.8069  -5.7980  -5.7041  -5.6459  -5.6363
    -5.5001  -5.4649  -5.4244  -5.3524  -5.1954  -5.1916  -5.0810  -5.0709
    -4.9195  -4.8969  -4.8841  -4.8529  -4.6800  -4.6185  -4.5757  -4.5214
    -4.3558  -4.2495  -4.2402  -4.1804  -4.1619  -4.1189  -4.1135  -4.0246
    -3.9627  -3.9453  -3.9085  -3.8296  -3.6987  -3.6621  -3.5938  -3.5928
    -3.5653  -3.5485  -3.5055  -3.4551  -3.4484  -3.4395  -3.3973  -3.3497
    -3.1997  -3.1633  -3.1278  -3.1130  -3.0732  -3.0108  -3.0016  -3.0007
    -2.9616  -2.9098  -2.8916  -2.8264  -2.7741  -2.7597  -2.7230  -2.6854
    -2.5029  -2.4576  -2.4323  -2.4263  -2.0255  -2.0213  -2.0096  -1.9912
    -1.8688  -1.8387  -1.7866  -1.7079  -1.6500  -1.5768  -1.4801  -1.4346
    -1.2234  -1.1961  -1.0948  -1.0237   0.2234   0.2685   0.2833   0.2982
     0.3190   0.3233   0.3478   0.3879   0.5625   0.6529   0.6826   0.8229
     1.1564   1.1733   1.3305   1.3917

          k =-0.5000 0.0000-0.1081 ( 21228 PWs)   bands (ev):

   -20.7071 -20.7070 -20.6646 -20.6645 -20.0463 -20.0462 -20.0432 -20.0432
   -18.8424 -18.8423 -18.8378 -18.8377 -18.0419 -18.0418 -18.0401 -18.0401
   -14.9434 -14.9433 -14.9391 -14.9390 -13.2227 -13.2226 -13.1929 -13.1928
   -12.6646 -12.6646 -12.6316 -12.6316 -12.2310 -12.2310 -12.1767 -12.1766
   -11.8550 -11.8550 -11.8150 -11.8150 -11.3892 -11.3892 -11.3482 -11.3482
   -10.7635 -10.7635 -10.7263 -10.7263  -9.1102  -9.1101  -9.0707  -9.0706
    -8.7542  -8.7542  -8.7405  -8.7404  -8.3552  -8.3552  -8.1954  -8.1954
    -7.3772  -7.3772  -7.2304  -7.2304  -6.9498  -6.9498  -6.8896  -6.8896
    -6.7170  -6.7170  -6.6586  -6.6586  -6.1998  -6.1997  -6.1707  -6.1707
    -5.8198  -5.8197  -5.7923  -5.7923  -5.5426  -5.5425  -5.4847  -5.4846
    -5.4333  -5.4332  -5.3988  -5.3988  -5.2712  -5.2711  -5.2141  -5.2140
    -4.9136  -4.9136  -4.8788  -4.8788  -4.6506  -4.6506  -4.5531  -4.5531
    -4.2888  -4.2888  -4.2557  -4.2556  -4.1223  -4.1223  -4.0445  -4.0445
    -3.9621  -3.9621  -3.8742  -3.8742  -3.7562  -3.7562  -3.6742  -3.6741
    -3.5992  -3.5991  -3.5360  -3.5359  -3.4593  -3.4593  -3.3707  -3.3706
    -3.1667  -3.1667  -3.1379  -3.1379  -3.0913  -3.0913  -2.9614  -2.9614
    -2.9162  -2.9162  -2.8962  -2.8961  -2.7867  -2.7867  -2.7133  -2.7132
    -2.4800  -2.4800  -2.4082  -2.4082  -2.0345  -2.0345  -2.0019  -2.0019
    -1.8455  -1.8454  -1.7136  -1.7136  -1.5967  -1.5966  -1.4421  -1.4420
    -1.1666  -1.1666  -1.1444  -1.1443   0.2812   0.2813   0.3011   0.3011
     0.3490   0.3490   0.3627   0.3627   0.6228   0.6228   0.7285   0.7286
     1.1955   1.1955   1.2576   1.2577

     highest occupied level (ev):     1.3917

!    total energy              =   -1080.02415393 Ry
     Harris-Foulkes estimate   =   -1080.02415395 Ry
     estimated scf accuracy    <       0.00000003 Ry

     The total energy is the sum of the following terms:

     one-electron contribution =    -867.52062661 Ry
     hartree contribution      =     553.10440854 Ry
     xc contribution           =    -315.24797970 Ry
     ewald contribution        =    -449.81231926 Ry
     Dispersion Correction     =      -0.54763691 Ry

     convergence has been achieved in  12 iterations

     Forces acting on atoms (cartesian axes, Ry/au):

     atom    1 type  3   force =    -0.00103195    0.00016475    0.00004685
     atom    2 type  1   force =    -0.00074715    0.00095602    0.00129162
     atom    3 type  3   force =     0.00060616    0.00029837    0.00057678
     atom    4 type  1   force =    -0.00045082   -0.00125045   -0.00196990
     atom    5 type  1   force =    -0.00015452    0.00056573   -0.00067632
     atom    6 type  1   force =     0.00023740   -0.00154372    0.00148718
     atom    7 type  1   force =     0.00185851   -0.00033262   -0.00163651
     atom    8 type  3   force =     0.00065385   -0.00004203    0.00090961
     atom    9 type  4   force =     0.00199281   -0.00286400    0.00097376
     atom   10 type  1   force =    -0.00024526   -0.00021154    0.00166433
     atom   11 type  1   force =     0.00100523    0.00216411    0.00054305
     atom   12 type  1   force =     0.00104442    0.00273056    0.00113904
     atom   13 type  1   force =    -0.00025737    0.00128716   -0.00117443
     atom   14 type  1   force =    -0.00146496    0.00207387    0.00071572
     atom   15 type  1   force =    -0.00125506   -0.00047950   -0.00111852
     atom   16 type  1   force =     0.00028971   -0.00032338   -0.00056905
     atom   17 type  2   force =     0.00001772   -0.00005883    0.00001058
     atom   18 type  2   force =    -0.00000215    0.00003191   -0.00010052
     atom   19 type  2   force =    -0.00007299   -0.00001084    0.00005865
     atom   20 type  2   force =    -0.00020206    0.00040926    0.00027586
     atom   21 type  2   force =    -0.00020050    0.00035944   -0.00028330
     atom   22 type  2   force =    -0.00046164    0.00057133    0.00045317
     atom   23 type  2   force =    -0.00026018   -0.00002612    0.00057980
     atom   24 type  2   force =    -0.00053880   -0.00047964    0.00012141
     atom   25 type  2   force =     0.00012086   -0.00018843   -0.00040856
     atom   26 type  2   force =    -0.00039948   -0.00002512   -0.00033384
     atom   27 type  2   force =     0.00010594    0.00045925   -0.00033598
     atom   28 type  2   force =    -0.00053494   -0.00058337   -0.00023216
     atom   29 type  2   force =    -0.00016518    0.00145650   -0.00033125
     atom   30 type  2   force =     0.00036546    0.00013444    0.00050003
     atom   31 type  2   force =    -0.00032898   -0.00044555   -0.00066443
     atom   32 type  3   force =     0.00103195    0.00016475   -0.00004685
     atom   33 type  3   force =     0.00103195   -0.00016475   -0.00004685
     atom   34 type  3   force =    -0.00103195   -0.00016475    0.00004685
     atom   35 type  1   force =     0.00074715    0.00095602   -0.00129162
     atom   36 type  1   force =     0.00074715   -0.00095602   -0.00129162
     atom   37 type  1   force =    -0.00074715   -0.00095602    0.00129162
     atom   38 type  3   force =    -0.00060616    0.00029837   -0.00057678
     atom   39 type  3   force =    -0.00060616   -0.00029837   -0.00057678
     atom   40 type  3   force =     0.00060616   -0.00029837    0.00057678
     atom   41 type  1   force =     0.00045082   -0.00125045    0.00196990
     atom   42 type  1   force =     0.00045082    0.00125045    0.00196990
     atom   43 type  1   force =    -0.00045082    0.00125045   -0.00196990
     atom   44 type  1   force =     0.00015452    0.00056573    0.00067632
     atom   45 type  1   force =     0.00015452   -0.00056573    0.00067632
     atom   46 type  1   force =    -0.00015452   -0.00056573   -0.00067632
     atom   47 type  1   force =    -0.00023740   -0.00154372   -0.00148718
     atom   48 type  1   force =    -0.00023740    0.00154372   -0.00148718
     atom   49 type  1   force =     0.00023740    0.00154372    0.00148718
     atom   50 type  1   force =    -0.00185851   -0.00033262    0.00163651
     atom   51 type  1   force =    -0.00185851    0.00033262    0.00163651
     atom   52 type  1   force =     0.00185851    0.00033262   -0.00163651
     atom   53 type  3   force =    -0.00065385   -0.00004203   -0.00090961
     atom   54 type  3   force =    -0.00065385    0.00004203   -0.00090961
     atom   55 type  3   force =     0.00065385    0.00004203    0.00090961
     atom   56 type  4   force =    -0.00199281   -0.00286400   -0.00097376
     atom   57 type  4   force =    -0.00199281    0.00286400   -0.00097376
     atom   58 type  4   force =     0.00199281    0.00286400    0.00097376
     atom   59 type  1   force =     0.00024526   -0.00021154   -0.00166433
     atom   60 type  1   force =     0.00024526    0.00021154   -0.00166433
     atom   61 type  1   force =    -0.00024526    0.00021154    0.00166433
     atom   62 type  1   force =    -0.00100523    0.00216411   -0.00054305
     atom   63 type  1   force =    -0.00100523   -0.00216411   -0.00054305
     atom   64 type  1   force =     0.00100523   -0.00216411    0.00054305
     atom   65 type  1   force =    -0.00104442    0.00273056   -0.00113904
     atom   66 type  1   force =    -0.00104442   -0.00273056   -0.00113904
     atom   67 type  1   force =     0.00104442   -0.00273056    0.00113904
     atom   68 type  1   force =     0.00025737    0.00128716    0.00117443
     atom   69 type  1   force =     0.00025737   -0.00128716    0.00117443
     atom   70 type  1   force =    -0.00025737   -0.00128716   -0.00117443
     atom   71 type  1   force =     0.00146496    0.00207387   -0.00071572
     atom   72 type  1   force =     0.00146496   -0.00207387   -0.00071572
     atom   73 type  1   force =    -0.00146496   -0.00207387    0.00071572
     atom   74 type  1   force =     0.00125506   -0.00047950    0.00111852
     atom   75 type  1   force =     0.00125506    0.00047950    0.00111852
     atom   76 type  1   force =    -0.00125506    0.00047950   -0.00111852
     atom   77 type  1   force =    -0.00028971   -0.00032338    0.00056905
     atom   78 type  1   force =    -0.00028971    0.00032338    0.00056905
     atom   79 type  1   force =     0.00028971    0.00032338   -0.00056905
     atom   80 type  2   force =    -0.00001772   -0.00005883   -0.00001058
     atom   81 type  2   force =    -0.00001772    0.00005883   -0.00001058
     atom   82 type  2   force =     0.00001772    0.00005883    0.00001058
     atom   83 type  2   force =     0.00000215    0.00003191    0.00010052
     atom   84 type  2   force =     0.00000215   -0.00003191    0.00010052
     atom   85 type  2   force =    -0.00000215   -0.00003191   -0.00010052
     atom   86 type  2   force =     0.00007299   -0.00001084   -0.00005865
     atom   87 type  2   force =     0.00007299    0.00001084   -0.00005865
     atom   88 type  2   force =    -0.00007299    0.00001084    0.00005865
     atom   89 type  2   force =     0.00020206    0.00040926   -0.00027586
     atom   90 type  2   force =     0.00020206   -0.00040926   -0.00027586
     atom   91 type  2   force =    -0.00020206   -0.00040926    0.00027586
     atom   92 type  2   force =     0.00020050    0.00035944    0.00028330
     atom   93 type  2   force =     0.00020050   -0.00035944    0.00028330
     atom   94 type  2   force =    -0.00020050   -0.00035944   -0.00028330
     atom   95 type  2   force =     0.00046164    0.00057133   -0.00045317
     atom   96 type  2   force =     0.00046164   -0.00057133   -0.00045317
     atom   97 type  2   force =    -0.00046164   -0.00057133    0.00045317
     atom   98 type  2   force =     0.00026018   -0.00002612   -0.00057980
     atom   99 type  2   force =     0.00026018    0.00002612   -0.00057980
     atom  100 type  2   force =    -0.00026018    0.00002612    0.00057980
     atom  101 type  2   force =     0.00053880   -0.00047964   -0.00012141
     atom  102 type  2   force =     0.00053880    0.00047964   -0.00012141
     atom  103 type  2   force =    -0.00053880    0.00047964    0.00012141
     atom  104 type  2   force =    -0.00012086   -0.00018843    0.00040856
     atom  105 type  2   force =    -0.00012086    0.00018843    0.00040856
     atom  106 type  2   force =     0.00012086    0.00018843   -0.00040856
     atom  107 type  2   force =     0.00039948   -0.00002512    0.00033384
     atom  108 type  2   force =     0.00039948    0.00002512    0.00033384
     atom  109 type  2   force =    -0.00039948    0.00002512   -0.00033384
     atom  110 type  2   force =    -0.00010594    0.00045925    0.00033598
     atom  111 type  2   force =    -0.00010594   -0.00045925    0.00033598
     atom  112 type  2   force =     0.00010594   -0.00045925   -0.00033598
     atom  113 type  2   force =     0.00053494   -0.00058337    0.00023216
     atom  114 type  2   force =     0.00053494    0.00058337    0.00023216
     atom  115 type  2   force =    -0.00053494    0.00058337   -0.00023216
     atom  116 type  2   force =     0.00016518    0.00145650    0.00033125
     atom  117 type  2   force =     0.00016518   -0.00145650    0.00033125
     atom  118 type  2   force =    -0.00016518   -0.00145650   -0.00033125
     atom  119 type  2   force =    -0.00036546    0.00013444   -0.00050003
     atom  120 type  2   force =    -0.00036546   -0.00013444   -0.00050003
     atom  121 type  2   force =     0.00036546   -0.00013444    0.00050003
     atom  122 type  2   force =     0.00032898   -0.00044555    0.00066443
     atom  123 type  2   force =     0.00032898    0.00044555    0.00066443
     atom  124 type  2   force =    -0.00032898    0.00044555   -0.00066443

     Total force =     0.017463     Total SCF correction =     0.000306

     BFGS Geometry Optimization

     number of scf cycles    =   1
     number of bfgs steps    =   0

     energy   new            =   -1080.0241539326 Ry

     new trust radius        =       0.0036224320 bohr
     new conv_thr            =       0.0000001000 Ry


ATOMIC_POSITIONS (angstrom)
O        0.770339755  10.930066732   0.955478575
C        0.168632501  10.752797914   5.098128344
O       -0.709401826   8.531217488   4.825785143
C       -0.040423704  10.662866911   6.553419738
C        0.535338603  10.813688591   2.291601754
C       -0.015661842   9.679733318   2.884764369
C       -0.194138124   9.644765886   4.276108127
O       -0.559890506   9.573950011   7.026923251
N        0.459426530   0.671774681   9.681248378
C        0.174433433  11.619553897   8.785861962
C        0.707524245  -0.008423747   4.442722465
C        0.335301423  11.727955867   7.417773683
C        0.898038995   0.038375381   3.075714147
C        0.985154399   1.963982354   9.267156485
C        0.322996628   0.442999866  11.111633674
C        0.408111635   9.826833825   0.118159800
H        1.031986174   8.947434185   0.348673589
H       -2.185893187  10.160551994  11.936322170
H        6.771408343   9.567594544   0.236837987
H       -0.316586735   8.808297664   2.307313567
H       -0.213225463  10.687077099   9.196321223
H        0.757137947   0.742828067   6.993569495
H        1.355441688   0.900888678   2.592888843
H        1.004878170   0.859774838   5.025810963
H       -0.358620890   1.187569422  11.545441626
H        0.309620830   2.425192830   8.532157932
H        1.052058170   2.614682628  10.145355045
H       -0.052899753  11.319974953  11.287674622
H        1.984003366   1.836576761   8.819895556
H        1.307506763   0.539196821  11.595834289
H       -0.742916141   8.779941464   5.862270568
O        1.554450245   4.985566732   5.466641425
O        3.879240245   0.958933268  11.888751425
O        3.095129755   6.903433268   7.377588575
C        2.156157499   4.808297914   1.323991656
C        4.480947499   1.136202086   7.746101656
C        2.493422501   7.080702086  11.520238344
O        3.034191826   2.586717488   1.596324857
O        5.358981826   3.357782512   8.018434857
O        1.615388174   9.302282512  11.247895143
C       -0.411806296   4.718366911  12.712920262
C        4.690003704   1.226133089   6.290810262
C        5.061386296   7.170633089   0.131299738
C        1.789451397   4.869188591   4.130508246
C        4.114241397   1.075311409  10.552618246
C        2.860128603   7.019811409   8.713711754
C        2.340451842   3.735233318   3.537345631
C        4.665241842   2.209266682   9.959455631
C        2.309128158   8.153766682   9.306874369
C        2.518928124   3.700265886   2.146001873
C        4.843718124   2.244234114   8.568111873
C        2.130651876   8.188734114  10.698218127
O        0.107660506   3.629450011  12.239406749
O        5.209470506   2.315049989   5.817296749
O        4.541919494   8.259549989   0.604813251
N       -0.911656530   6.616274681   9.585081622
N        4.190153470  11.217225319   3.162971622
N        5.561236530   5.272725319   3.259138378
C       -0.626663433   5.675053897  10.480468038
C        4.475146567   0.269446103   4.058358038
C        5.276243433   6.213946103   2.363751962
C        1.617265755   5.936076253   1.979387535
C        3.942055755  11.897423747   8.401497535
C        3.032314245   5.952923747  10.864832465
C       -0.787531423   5.783455867  11.848566317
C        4.314278577   0.161044133   5.426456317
C        5.437111423   6.105544133   0.995653683
C        1.426751005   5.982875381   3.346395853
C        3.751541005  11.850624619   9.768505853
C        3.222828995   5.906124619   9.497834147
C       -1.437384399   7.908482354   9.999173515
C        3.664425601   9.925017646   3.577063515
C        6.086964399   3.980517646   2.845046485
C       -0.775226628   6.387499866   8.154696326
C        4.326583372  11.446000134   1.732586326
C        5.424806628   5.501500134   4.689523674
C        1.916678365   3.882333825   6.303950200
C        4.241468365   2.062166175  12.726070200
C        2.732901635   8.006666175   6.540269800
H        1.292803826   3.002934185   6.073446411
H        3.617593826   2.941565815  12.495556411
H        3.356776174   8.886065815   6.770783589
H        1.733663187   4.216051994   7.330007830
H        6.835473187   1.728448006   0.907897830
H        2.915916813   7.672948006   5.514212170
H        2.979981657   3.623094544   6.185282013
H       -2.121828343   2.321405456  12.607392013
H        1.669598343   8.265905456   6.658947987
H        2.641376735   2.863797664   4.114796433
H        4.966166735   3.080702336  10.536906433
H        2.008203265   9.025202336   8.729423567
H       -0.239004537   4.742577099  10.070008777
H        4.862805463   1.201922901   3.647898777
H        4.888584537   7.146422901   2.774211223
H       -1.209367947   6.687328067  12.272770505
H        3.892442053  11.146171933   5.850660505
H        5.858947947   5.201671933   0.571459495
H        0.969348312   6.845388678   3.829221157
H        3.294138312  10.988111322  10.251331157
H        3.680231688   5.043611322   9.015008843
H        1.319911830   6.804274838   1.396299037
H        3.644711830  11.029225162   7.818409037
H        3.329668170   5.084725162  11.447920963
H       -0.093609110   7.132069422   7.720898374
H        5.008200890  10.701430578   1.298788374
H        4.743189110   4.756930578   5.123331626
H       -0.761850830   8.369692830  10.734172068
H        4.339959170   9.463807170   4.312062068
H        5.411430830   3.519307170   2.110047932
H       -1.504278170   8.559182628   9.120984955
H        3.597531830   9.274317372   2.698874955
H        6.153868170   3.329817372   3.723245045
H       -0.399330247   5.375474953   7.978655378
H        4.702479753   0.569025047   1.556545378
H        5.048910247   6.513525047   4.865564622
H        4.990366634   7.781076761  10.446434444
H        2.665576634  10.052423239   4.024324444
H       -0.340786634   4.107923239   2.397785556
H       -1.759736763   6.483696821   7.670505711
H        3.342073237  11.349803179   1.248395711
H        6.409316763   5.405303179   5.173724289
H        3.067706141   2.835441464   0.559839432
H        5.392496141   3.109058536   6.981949432
H        1.581873859   9.053558536  12.284380568



     Writing output data file 2hp_3_211.save
     charge density from previous step

     total cpu time spent up to now is      360.8 secs

     per-process dynamical memory:   549.8 Mb

     Self-consistent Calculation

     iteration #  1     ecut=    30.00 Ry     beta=0.70
     Davidson diagonalization with overlap
     ethr =  1.00E-06,  avg # of iterations =  3.5

     total cpu time spent up to now is      398.8 secs

     total energy              =   -1080.02329868 Ry
     Harris-Foulkes estimate   =   -1080.02544076 Ry
     estimated scf accuracy    <       0.00294432 Ry

     iteration #  2     ecut=    30.00 Ry     beta=0.70
     Davidson diagonalization with overlap
     ethr =  8.56E-07,  avg # of iterations =  4.0

     total cpu time spent up to now is      427.4 secs

     total energy              =   -1080.02360888 Ry
     Harris-Foulkes estimate   =   -1080.02480049 Ry
     estimated scf accuracy    <       0.00215392 Ry

     iteration #  3     ecut=    30.00 Ry     beta=0.70
     Davidson diagonalization with overlap
     ethr =  6.26E-07,  avg # of iterations =  4.0

     total cpu time spent up to now is      454.3 secs

     total energy              =   -1080.02412867 Ry
     Harris-Foulkes estimate   =   -1080.02442861 Ry
     estimated scf accuracy    <       0.00073222 Ry

     iteration #  4     ecut=    30.00 Ry     beta=0.70
     Davidson diagonalization with overlap
     ethr =  2.13E-07,  avg # of iterations =  4.0

     total cpu time spent up to now is      478.7 secs

     total energy              =   -1080.02426795 Ry
     Harris-Foulkes estimate   =   -1080.02428832 Ry
     estimated scf accuracy    <       0.00004430 Ry

     iteration #  5     ecut=    30.00 Ry     beta=0.70
     Davidson diagonalization with overlap
     ethr =  1.29E-08,  avg # of iterations =  4.0

     total cpu time spent up to now is      505.0 secs

     total energy              =   -1080.02427828 Ry
     Harris-Foulkes estimate   =   -1080.02428000 Ry
     estimated scf accuracy    <       0.00000372 Ry

     iteration #  6     ecut=    30.00 Ry     beta=0.70
     Davidson diagonalization with overlap
     ethr =  1.08E-09,  avg # of iterations =  4.0

     total cpu time spent up to now is      530.5 secs

     total energy              =   -1080.02427920 Ry
     Harris-Foulkes estimate   =   -1080.02427938 Ry
     estimated scf accuracy    <       0.00000046 Ry

     iteration #  7     ecut=    30.00 Ry     beta=0.70
     Davidson diagonalization with overlap
     ethr =  1.35E-10,  avg # of iterations =  4.0

     total cpu time spent up to now is      557.2 secs

     End of self-consistent calculation

          k = 0.0000 0.0000 0.0000 ( 21265 PWs)   bands (ev):

   -20.7141 -20.7132 -20.6711 -20.6709 -20.0452 -20.0437 -20.0417 -20.0408
   -18.8424 -18.8402 -18.8401 -18.8336 -18.0439 -18.0436 -18.0428 -18.0393
   -14.9396 -14.9352 -14.9348 -14.9306 -13.2553 -13.2347 -13.1675 -13.1407
   -12.6963 -12.6818 -12.6076 -12.6014 -12.2453 -12.2250 -12.1967 -12.1769
   -11.8600 -11.8433 -11.8219 -11.8003 -11.4048 -11.3779 -11.3574 -11.3496
   -10.7944 -10.7476 -10.7130 -10.6938  -9.1183  -9.1003  -9.0881  -9.0676
    -8.7847  -8.7501  -8.7356  -8.7241  -8.3741  -8.3303  -8.2072  -8.1687
    -7.3801  -7.3700  -7.2432  -7.2210  -6.9756  -6.9244  -6.9164  -6.8665
    -6.7406  -6.6952  -6.6818  -6.6199  -6.2154  -6.1789  -6.1756  -6.1662
    -5.8374  -5.8183  -5.8124  -5.8076  -5.7996  -5.7039  -5.6451  -5.6358
    -5.5000  -5.4669  -5.4256  -5.3536  -5.1958  -5.1922  -5.0823  -5.0717
    -4.9165  -4.8947  -4.8823  -4.8502  -4.6847  -4.6211  -4.5799  -4.5263
    -4.3513  -4.2481  -4.2400  -4.1797  -4.1589  -4.1161  -4.1115  -4.0247
    -3.9675  -3.9498  -3.9050  -3.8294  -3.7013  -3.6623  -3.5933  -3.5915
    -3.5621  -3.5454  -3.5010  -3.4518  -3.4509  -3.4401  -3.4012  -3.3487
    -3.2023  -3.1675  -3.1326  -3.1158  -3.0736  -3.0171  -3.0045  -3.0038
    -2.9626  -2.9137  -2.8904  -2.8273  -2.7764  -2.7610  -2.7238  -2.6871
    -2.5023  -2.4571  -2.4329  -2.4274  -2.0286  -2.0230  -2.0124  -1.9931
    -1.8693  -1.8383  -1.7864  -1.7081  -1.6496  -1.5767  -1.4808  -1.4351
    -1.2227  -1.1954  -1.0935  -1.0226   0.2234   0.2688   0.2834   0.2982
     0.3179   0.3240   0.3490   0.3869   0.5625   0.6512   0.6834   0.8228
     1.1625   1.1801   1.3374   1.3990

          k =-0.5000 0.0000-0.1081 ( 21228 PWs)   bands (ev):

   -20.7135 -20.7134 -20.6710 -20.6709 -20.0444 -20.0443 -20.0413 -20.0413
   -18.8414 -18.8413 -18.8368 -18.8367 -18.0430 -18.0430 -18.0413 -18.0412
   -14.9399 -14.9398 -14.9355 -14.9355 -13.2150 -13.2149 -13.1850 -13.1850
   -12.6639 -12.6639 -12.6307 -12.6307 -12.2374 -12.2373 -12.1828 -12.1828
   -11.8526 -11.8526 -11.8124 -11.8124 -11.3900 -11.3900 -11.3502 -11.3502
   -10.7576 -10.7576 -10.7211 -10.7211  -9.1142  -9.1142  -9.0748  -9.0748
    -8.7554  -8.7553  -8.7419  -8.7419  -8.3525  -8.3525  -8.1920  -8.1920
    -7.3801  -7.3800  -7.2331  -7.2331  -6.9508  -6.9508  -6.8922  -6.8921
    -6.7163  -6.7163  -6.6582  -6.6582  -6.1994  -6.1994  -6.1703  -6.1702
    -5.8202  -5.8202  -5.7934  -5.7934  -5.5425  -5.5425  -5.4873  -5.4873
    -5.4314  -5.4314  -5.3969  -5.3969  -5.2713  -5.2713  -5.2166  -5.2166
    -4.9116  -4.9116  -4.8761  -4.8761  -4.6541  -4.6541  -4.5578  -4.5578
    -4.2867  -4.2867  -4.2526  -4.2526  -4.1203  -4.1203  -4.0447  -4.0446
    -3.9662  -3.9662  -3.8721  -3.8721  -3.7549  -3.7549  -3.6702  -3.6702
    -3.5984  -3.5983  -3.5366  -3.5366  -3.4596  -3.4596  -3.3737  -3.3737
    -3.1698  -3.1697  -3.1396  -3.1396  -3.0932  -3.0932  -2.9636  -2.9636
    -2.9185  -2.9185  -2.8979  -2.8979  -2.7890  -2.7890  -2.7154  -2.7153
    -2.4805  -2.4805  -2.4084  -2.4084  -2.0367  -2.0367  -2.0046  -2.0045
    -1.8456  -1.8455  -1.7136  -1.7136  -1.5963  -1.5963  -1.4425  -1.4424
    -1.1658  -1.1657  -1.1439  -1.1439   0.2826   0.2826   0.3000   0.3000
     0.3494   0.3495   0.3620   0.3621   0.6235   0.6235   0.7283   0.7283
     1.2018   1.2018   1.2630   1.2630

     highest occupied level (ev):     1.3990

!    total energy              =   -1080.02427927 Ry
     Harris-Foulkes estimate   =   -1080.02427933 Ry
     estimated scf accuracy    <       0.00000007 Ry

     The total energy is the sum of the following terms:

     one-electron contribution =    -867.25382445 Ry
     hartree contribution      =     552.97114854 Ry
     xc contribution           =    -315.24595743 Ry
     ewald contribution        =    -449.94795573 Ry
     Dispersion Correction     =      -0.54769020 Ry

     convergence has been achieved in   7 iterations

     Forces acting on atoms (cartesian axes, Ry/au):

     atom    1 type  3   force =    -0.00082390    0.00003514   -0.00034171
     atom    2 type  1   force =     0.00010398    0.00101638   -0.00183789
     atom    3 type  3   force =     0.00078301    0.00022305   -0.00013570
     atom    4 type  1   force =     0.00045499    0.00185795    0.00187498
     atom    5 type  1   force =    -0.00061302   -0.00027946    0.00065321
     atom    6 type  1   force =     0.00142678    0.00060408   -0.00122018
     atom    7 type  1   force =     0.00100299    0.00001816    0.00183701
     atom    8 type  3   force =     0.00056238   -0.00012465    0.00061232
     atom    9 type  4   force =     0.00229491    0.00076105    0.00115152
     atom   10 type  1   force =     0.00026739   -0.00024052   -0.00116232
     atom   11 type  1   force =    -0.00033880   -0.00078099   -0.00072787
     atom   12 type  1   force =    -0.00079114   -0.00168112    0.00020625
     atom   13 type  1   force =    -0.00087600    0.00003825    0.00062780
     atom   14 type  1   force =    -0.00010398   -0.00077679   -0.00012185
     atom   15 type  1   force =     0.00045403   -0.00070218    0.00048311
     atom   16 type  1   force =    -0.00024743   -0.00021394   -0.00008282
     atom   17 type  2   force =     0.00012613   -0.00010160    0.00001888
     atom   18 type  2   force =     0.00006214    0.00008130   -0.00029307
     atom   19 type  2   force =     0.00015311   -0.00004112   -0.00006147
     atom   20 type  2   force =    -0.00034071   -0.00011783    0.00011876
     atom   21 type  2   force =    -0.00048782   -0.00036236   -0.00005230
     atom   22 type  2   force =     0.00011413    0.00179660    0.00015208
     atom   23 type  2   force =     0.00022156    0.00090227   -0.00010820
     atom   24 type  2   force =     0.00005171    0.00105339    0.00092535
     atom   25 type  2   force =    -0.00017254   -0.00002106   -0.00048272
     atom   26 type  2   force =    -0.00090887    0.00005519   -0.00041575
     atom   27 type  2   force =    -0.00006831    0.00099394    0.00054341
     atom   28 type  2   force =    -0.00057369   -0.00058598   -0.00016377
     atom   29 type  2   force =    -0.00108502    0.00165212    0.00007215
     atom   30 type  2   force =    -0.00085439   -0.00007107    0.00009069
     atom   31 type  2   force =    -0.00024986   -0.00036202   -0.00052259
     atom   32 type  3   force =     0.00082390    0.00003514    0.00034171
     atom   33 type  3   force =     0.00082390   -0.00003514    0.00034171
     atom   34 type  3   force =    -0.00082390   -0.00003514   -0.00034171
     atom   35 type  1   force =    -0.00010398    0.00101638    0.00183789
     atom   36 type  1   force =    -0.00010398   -0.00101638    0.00183789
     atom   37 type  1   force =     0.00010398   -0.00101638   -0.00183789
     atom   38 type  3   force =    -0.00078301    0.00022305    0.00013570
     atom   39 type  3   force =    -0.00078301   -0.00022305    0.00013570
     atom   40 type  3   force =     0.00078301   -0.00022305   -0.00013570
     atom   41 type  1   force =    -0.00045499    0.00185795   -0.00187498
     atom   42 type  1   force =    -0.00045499   -0.00185795   -0.00187498
     atom   43 type  1   force =     0.00045499   -0.00185795    0.00187498
     atom   44 type  1   force =     0.00061302   -0.00027946   -0.00065321
     atom   45 type  1   force =     0.00061302    0.00027946   -0.00065321
     atom   46 type  1   force =    -0.00061302    0.00027946    0.00065321
     atom   47 type  1   force =    -0.00142678    0.00060408    0.00122018
     atom   48 type  1   force =    -0.00142678   -0.00060408    0.00122018
     atom   49 type  1   force =     0.00142678   -0.00060408   -0.00122018
     atom   50 type  1   force =    -0.00100299    0.00001816   -0.00183701
     atom   51 type  1   force =    -0.00100299   -0.00001816   -0.00183701
     atom   52 type  1   force =     0.00100299   -0.00001816    0.00183701
     atom   53 type  3   force =    -0.00056238   -0.00012465   -0.00061232
     atom   54 type  3   force =    -0.00056238    0.00012465   -0.00061232
     atom   55 type  3   force =     0.00056238    0.00012465    0.00061232
     atom   56 type  4   force =    -0.00229491    0.00076105   -0.00115152
     atom   57 type  4   force =    -0.00229491   -0.00076105   -0.00115152
     atom   58 type  4   force =     0.00229491   -0.00076105    0.00115152
     atom   59 type  1   force =    -0.00026739   -0.00024052    0.00116232
     atom   60 type  1   force =    -0.00026739    0.00024052    0.00116232
     atom   61 type  1   force =     0.00026739    0.00024052   -0.00116232
     atom   62 type  1   force =     0.00033880   -0.00078099    0.00072787
     atom   63 type  1   force =     0.00033880    0.00078099    0.00072787
     atom   64 type  1   force =    -0.00033880    0.00078099   -0.00072787
     atom   65 type  1   force =     0.00079114   -0.00168112   -0.00020625
     atom   66 type  1   force =     0.00079114    0.00168112   -0.00020625
     atom   67 type  1   force =    -0.00079114    0.00168112    0.00020625
     atom   68 type  1   force =     0.00087600    0.00003825   -0.00062780
     atom   69 type  1   force =     0.00087600   -0.00003825   -0.00062780
     atom   70 type  1   force =    -0.00087600   -0.00003825    0.00062780
     atom   71 type  1   force =     0.00010398   -0.00077679    0.00012185
     atom   72 type  1   force =     0.00010398    0.00077679    0.00012185
     atom   73 type  1   force =    -0.00010398    0.00077679   -0.00012185
     atom   74 type  1   force =    -0.00045403   -0.00070218   -0.00048311
     atom   75 type  1   force =    -0.00045403    0.00070218   -0.00048311
     atom   76 type  1   force =     0.00045403    0.00070218    0.00048311
     atom   77 type  1   force =     0.00024743   -0.00021394    0.00008282
     atom   78 type  1   force =     0.00024743    0.00021394    0.00008282
     atom   79 type  1   force =    -0.00024743    0.00021394   -0.00008282
     atom   80 type  2   force =    -0.00012613   -0.00010160   -0.00001888
     atom   81 type  2   force =    -0.00012613    0.00010160   -0.00001888
     atom   82 type  2   force =     0.00012613    0.00010160    0.00001888
     atom   83 type  2   force =    -0.00006214    0.00008130    0.00029307
     atom   84 type  2   force =    -0.00006214   -0.00008130    0.00029307
     atom   85 type  2   force =     0.00006214   -0.00008130   -0.00029307
     atom   86 type  2   force =    -0.00015311   -0.00004112    0.00006147
     atom   87 type  2   force =    -0.00015311    0.00004112    0.00006147
     atom   88 type  2   force =     0.00015311    0.00004112   -0.00006147
     atom   89 type  2   force =     0.00034071   -0.00011783   -0.00011876
     atom   90 type  2   force =     0.00034071    0.00011783   -0.00011876
     atom   91 type  2   force =    -0.00034071    0.00011783    0.00011876
     atom   92 type  2   force =     0.00048782   -0.00036236    0.00005230
     atom   93 type  2   force =     0.00048782    0.00036236    0.00005230
     atom   94 type  2   force =    -0.00048782    0.00036236   -0.00005230
     atom   95 type  2   force =    -0.00011413    0.00179660   -0.00015208
     atom   96 type  2   force =    -0.00011413   -0.00179660   -0.00015208
     atom   97 type  2   force =     0.00011413   -0.00179660    0.00015208
     atom   98 type  2   force =    -0.00022156    0.00090227    0.00010820
     atom   99 type  2   force =    -0.00022156   -0.00090227    0.00010820
     atom  100 type  2   force =     0.00022156   -0.00090227   -0.00010820
     atom  101 type  2   force =    -0.00005171    0.00105339   -0.00092535
     atom  102 type  2   force =    -0.00005171   -0.00105339   -0.00092535
     atom  103 type  2   force =     0.00005171   -0.00105339    0.00092535
     atom  104 type  2   force =     0.00017254   -0.00002106    0.00048272
     atom  105 type  2   force =     0.00017254    0.00002106    0.00048272
     atom  106 type  2   force =    -0.00017254    0.00002106   -0.00048272
     atom  107 type  2   force =     0.00090887    0.00005519    0.00041575
     atom  108 type  2   force =     0.00090887   -0.00005519    0.00041575
     atom  109 type  2   force =    -0.00090887   -0.00005519   -0.00041575
     atom  110 type  2   force =     0.00006831    0.00099394   -0.00054341
     atom  111 type  2   force =     0.00006831   -0.00099394   -0.00054341
     atom  112 type  2   force =    -0.00006831   -0.00099394    0.00054341
     atom  113 type  2   force =     0.00057369   -0.00058598    0.00016377
     atom  114 type  2   force =     0.00057369    0.00058598    0.00016377
     atom  115 type  2   force =    -0.00057369    0.00058598   -0.00016377
     atom  116 type  2   force =     0.00108502    0.00165212   -0.00007215
     atom  117 type  2   force =     0.00108502   -0.00165212   -0.00007215
     atom  118 type  2   force =    -0.00108502   -0.00165212    0.00007215
     atom  119 type  2   force =     0.00085439   -0.00007107   -0.00009069
     atom  120 type  2   force =     0.00085439    0.00007107   -0.00009069
     atom  121 type  2   force =    -0.00085439    0.00007107    0.00009069
     atom  122 type  2   force =     0.00024986   -0.00036202    0.00052259
     atom  123 type  2   force =     0.00024986    0.00036202    0.00052259
     atom  124 type  2   force =    -0.00024986    0.00036202   -0.00052259

     Total force =     0.014741     Total SCF correction =     0.000552

     number of scf cycles    =   2
     number of bfgs steps    =   1

     energy   old            =   -1080.0241539326 Ry
     energy   new            =   -1080.0242792746 Ry

     CASE: energy  _new < energy  _old

     new trust radius        =       0.0033741581 bohr
     new conv_thr            =       0.0000000013 Ry


ATOMIC_POSITIONS (angstrom)
O        0.769698010  10.930125732   0.955336815
C        0.168483635  10.753506530   5.097638254
O       -0.708890062   8.531396201   4.825875078
C       -0.040336715  10.663376832   6.553748851
C        0.535021790  10.813710827   2.291719019
C       -0.014956492   9.679601192   2.884603959
C       -0.193199104   9.644686930   4.276507466
O       -0.559465706   9.573882810   7.027437571
N        0.460983095   0.671367425   9.682022559
C        0.174489713  11.619390057   8.785774044
C        0.707634875  -0.008208840   4.442536628
C        0.335218416  11.727913421   7.418165061
C        0.897576690   0.038729834   3.075689464
C        0.984723735   1.964175515   9.267289065
C        0.322872492   0.442557723  11.111558416
C        0.408075998   9.826652668   0.117973384
H        1.032047672   8.947372973   0.348684870
H       -2.185865739  10.160597002  11.936163730
H        6.771458240   9.567573170   0.236825643
H       -0.316793253   8.808351768   2.307439370
H       -0.213497889  10.687007922   9.196223430
H        0.757068455   0.743787606   6.993756771
H        1.355473398   0.901288552   2.592991965
H        1.004760325   0.860124019   5.026259895
H       -0.358667001   1.187510564  11.545116991
H        0.309106478   2.425211129   8.531883060
H        1.052055133   2.615250984  10.145511979
H       -0.053298504  11.319557976  11.287539979
H        1.983470994   1.837703067   8.819841296
H        1.307217371   0.539200006  11.596006170
H       -0.743114961   8.779661547   5.861860932
O        1.555091990   4.985625732   5.466783185
O        3.879881990   0.958874268  11.888893185
O        3.094488010   6.903374268   7.377446815
C        2.156306365   4.809006530   1.324481746
C        4.481096365   1.135493470   7.746591746
C        2.493273635   7.079993470  11.519748254
O        3.033680062   2.586896201   1.596234922
O        5.358470062   3.357603799   8.018344922
O        1.615899938   9.302103799  11.247985078
C       -0.411893285   4.718876832  12.712591149
C        4.689916715   1.225623168   6.290481149
C        5.061473285   7.170123168   0.131628851
C        1.789768210   4.869210827   4.130390981
C        4.114558210   1.075289173  10.552500981
C        2.859811790   7.019789173   8.713829019
C        2.339746492   3.735101192   3.537506041
C        4.664536492   2.209398808   9.959616041
C        2.309833508   8.153898808   9.306713959
C        2.517989104   3.700186930   2.145602534
C        4.842779104   2.244313070   8.567712534
C        2.131590896   8.188813070  10.698617466
O        0.107235706   3.629382810  12.238892429
O        5.209045706   2.315117190   5.816782429
O        4.542344294   8.259617190   0.605327571
N       -0.913213095   6.615867425   9.584307441
N        4.188596905  11.217632575   3.162197441
N        5.562793095   5.273132575   3.259912559
C       -0.626719713   5.674890057  10.480555956
C        4.475090287   0.269609943   4.058445956
C        5.276299713   6.214109943   2.363664044
C        1.617155125   5.936291160   1.979573372
C        3.941945125  11.897208840   8.401683372
C        3.032424875   5.952708840  10.864646628
C       -0.787448416   5.783413421  11.848174939
C        4.314361584   0.161086579   5.426064939
C        5.437028416   6.105586579   0.996045061
C        1.427213310   5.983229834   3.346420536
C        3.752003310  11.850270166   9.768530536
C        3.222366690   5.905770166   9.497809464
C       -1.436953735   7.908675515   9.999040935
C        3.664856265   9.924824485   3.576930935
C        6.086533735   3.980324485   2.845179065
C       -0.775102492   6.387057723   8.154771584
C        4.326707508  11.446442277   1.732661584
C        5.424682492   5.501942277   4.689448416
C        1.916714002   3.882152668   6.304136616
C        4.241504002   2.062347332  12.726256616
C        2.732865998   8.006847332   6.540083384
H        1.292742328   3.002872973   6.073435130
H        3.617532328   2.941627027  12.495545130
H        3.356837672   8.886127027   6.770794870
H        1.733635739   4.216097002   7.330166270
H        6.835445739   1.728402998   0.908056270
H        2.915944261   7.672902998   5.514053730
H        2.979931760   3.623073170   6.185294357
H       -2.121878240   2.321426830  12.607404357
H        1.669648240   8.265926830   6.658935643
H        2.641583253   2.863851768   4.114670630
H        4.966373253   3.080648232  10.536780630
H        2.007996747   9.025148232   8.729549370
H       -0.238732111   4.742507922  10.070106570
H        4.863077889   1.201992078   3.647996570
H        4.888312111   7.146492078   2.774113430
H       -1.209298455   6.688287606  12.272583229
H        3.892511545  11.145212394   5.850473229
H        5.858878455   5.200712394   0.571646771
H        0.969316602   6.845788552   3.829118035
H        3.294106602  10.987711448  10.251228035
H        3.680263398   5.043211448   9.015111965
H        1.320029675   6.804624019   1.395850105
H        3.644829675  11.028875981   7.817960105
H        3.329550325   5.084375981  11.448369895
H       -0.093562999   7.132010564   7.721223009
H        5.008247001  10.701489436   1.299113009
H        4.743142999   4.756989436   5.123006991
H       -0.761336478   8.369711129  10.734446940
H        4.340473522   9.463788871   4.312336940
H        5.410916478   3.519288871   2.109773060
H       -1.504275133   8.559750984   9.120828021
H        3.597534867   9.273749016   2.698718021
H        6.153865133   3.329249016   3.723401979
H       -0.398931496   5.375057976   7.978790021
H        4.702878504   0.569442024   1.556680021
H        5.048511496   6.513942024   4.865429979
H        4.990899006   7.782203067  10.446488704
H        2.666109006  10.051296933   4.024378704
H       -0.341319006   4.106796933   2.397731296
H       -1.759447371   6.483700006   7.670333830
H        3.342362629  11.349799994   1.248223830
H        6.409027371   5.405299994   5.173896170
H        3.067904961   2.835161547   0.560249068
H        5.392694961   3.109338453   6.982359068
H        1.581675039   9.053838453  12.283970932



     Writing output data file 2hp_3_211.save
     charge density from previous step

     total cpu time spent up to now is      575.2 secs

     per-process dynamical memory:   549.8 Mb

     Self-consistent Calculation

     iteration #  1     ecut=    30.00 Ry     beta=0.70
     Davidson diagonalization with overlap
     ethr =  1.00E-06,  avg # of iterations =  3.0

     total cpu time spent up to now is      610.1 secs

     total energy              =   -1080.02400623 Ry
     Harris-Foulkes estimate   =   -1080.02502164 Ry
     estimated scf accuracy    <       0.00144102 Ry

     iteration #  2     ecut=    30.00 Ry     beta=0.70
     Davidson diagonalization with overlap
     ethr =  4.19E-07,  avg # of iterations =  3.0

     total cpu time spent up to now is      636.9 secs

     total energy              =   -1080.02426700 Ry
     Harris-Foulkes estimate   =   -1080.02450473 Ry
     estimated scf accuracy    <       0.00036514 Ry

     iteration #  3     ecut=    30.00 Ry     beta=0.70
     Davidson diagonalization with overlap
     ethr =  1.06E-07,  avg # of iterations =  4.0

     total cpu time spent up to now is      664.1 secs

     total energy              =   -1080.02435423 Ry
     Harris-Foulkes estimate   =   -1080.02445318 Ry
     estimated scf accuracy    <       0.00022813 Ry

     iteration #  4     ecut=    30.00 Ry     beta=0.70
     Davidson diagonalization with overlap
     ethr =  6.63E-08,  avg # of iterations =  4.0

     total cpu time spent up to now is      688.1 secs

     total energy              =   -1080.02439942 Ry
     Harris-Foulkes estimate   =   -1080.02440673 Ry
     estimated scf accuracy    <       0.00001667 Ry

     iteration #  5     ecut=    30.00 Ry     beta=0.70
     Davidson diagonalization with overlap
     ethr =  4.85E-09,  avg # of iterations =  4.0

     total cpu time spent up to now is      714.9 secs

     total energy              =   -1080.02440311 Ry
     Harris-Foulkes estimate   =   -1080.02440377 Ry
     estimated scf accuracy    <       0.00000151 Ry

     iteration #  6     ecut=    30.00 Ry     beta=0.70
     Davidson diagonalization with overlap
     ethr =  4.40E-10,  avg # of iterations =  4.0

     total cpu time spent up to now is      741.8 secs

     total energy              =   -1080.02440346 Ry
     Harris-Foulkes estimate   =   -1080.02440354 Ry
     estimated scf accuracy    <       0.00000020 Ry

     iteration #  7     ecut=    30.00 Ry     beta=0.70
     Davidson diagonalization with overlap
     ethr =  5.75E-11,  avg # of iterations =  3.0

     total cpu time spent up to now is      767.7 secs

     total energy              =   -1080.02440351 Ry
     Harris-Foulkes estimate   =   -1080.02440352 Ry
     estimated scf accuracy    <       0.00000003 Ry

     iteration #  8     ecut=    30.00 Ry     beta=0.70
     Davidson diagonalization with overlap
     ethr =  7.57E-12,  avg # of iterations =  4.0

     total cpu time spent up to now is      794.6 secs

     total energy              =   -1080.02440351 Ry
     Harris-Foulkes estimate   =   -1080.02440351 Ry
     estimated scf accuracy    <          2.5E-09 Ry

     iteration #  9     ecut=    30.00 Ry     beta=0.70
     Davidson diagonalization with overlap
     ethr =  7.17E-13,  avg # of iterations =  3.0

     total cpu time spent up to now is      821.1 secs

     End of self-consistent calculation

          k = 0.0000 0.0000 0.0000 ( 21265 PWs)   bands (ev):

   -20.7102 -20.7093 -20.6672 -20.6669 -20.0475 -20.0460 -20.0440 -20.0431
   -18.8391 -18.8368 -18.8368 -18.8303 -18.0414 -18.0410 -18.0403 -18.0367
   -14.9407 -14.9363 -14.9359 -14.9317 -13.2568 -13.2362 -13.1692 -13.1424
   -12.6965 -12.6819 -12.6079 -12.6016 -12.2447 -12.2245 -12.1961 -12.1762
   -11.8601 -11.8433 -11.8222 -11.8005 -11.4034 -11.3766 -11.3558 -11.3480
   -10.7931 -10.7464 -10.7120 -10.6927  -9.1170  -9.0992  -9.0870  -9.0668
    -8.7852  -8.7507  -8.7357  -8.7249  -8.3758  -8.3318  -8.2086  -8.1700
    -7.3799  -7.3694  -7.2424  -7.2205  -6.9746  -6.9231  -6.9150  -6.8654
    -6.7395  -6.6942  -6.6807  -6.6188  -6.2157  -6.1795  -6.1764  -6.1668
    -5.8359  -5.8167  -5.8113  -5.8060  -5.7978  -5.7030  -5.6438  -5.6344
    -5.5000  -5.4671  -5.4259  -5.3538  -5.1944  -5.1912  -5.0813  -5.0707
    -4.9183  -4.8957  -4.8835  -4.8519  -4.6846  -4.6217  -4.5791  -4.5252
    -4.3505  -4.2482  -4.2406  -4.1804  -4.1585  -4.1162  -4.1115  -4.0245
    -3.9675  -3.9492  -3.9055  -3.8296  -3.6997  -3.6606  -3.5928  -3.5895
    -3.5610  -3.5429  -3.4990  -3.4502  -3.4486  -3.4375  -3.3990  -3.3461
    -3.2024  -3.1685  -3.1331  -3.1155  -3.0740  -3.0164  -3.0059  -3.0038
    -2.9627  -2.9144  -2.8895  -2.8269  -2.7762  -2.7602  -2.7231  -2.6872
    -2.5031  -2.4578  -2.4331  -2.4279  -2.0280  -2.0232  -2.0114  -1.9925
    -1.8694  -1.8383  -1.7868  -1.7082  -1.6478  -1.5758  -1.4773  -1.4331
    -1.2223  -1.1945  -1.0937  -1.0213   0.2237   0.2688   0.2843   0.2980
     0.3185   0.3253   0.3498   0.3863   0.5620   0.6508   0.6843   0.8238
     1.1607   1.1784   1.3365   1.3982

          k =-0.5000 0.0000-0.1081 ( 21228 PWs)   bands (ev):

   -20.7096 -20.7095 -20.6671 -20.6670 -20.0467 -20.0466 -20.0437 -20.0436
   -18.8381 -18.8380 -18.8335 -18.8333 -18.0405 -18.0405 -18.0387 -18.0387
   -14.9410 -14.9409 -14.9366 -14.9366 -13.2165 -13.2165 -13.1866 -13.1865
   -12.6641 -12.6641 -12.6310 -12.6310 -12.2368 -12.2367 -12.1822 -12.1822
   -11.8527 -11.8527 -11.8126 -11.8126 -11.3887 -11.3887 -11.3486 -11.3485
   -10.7564 -10.7564 -10.7200 -10.7200  -9.1131  -9.1131  -9.0737  -9.0737
    -8.7561  -8.7561  -8.7422  -8.7421  -8.3540  -8.3540  -8.1933  -8.1933
    -7.3797  -7.3797  -7.2324  -7.2324  -6.9497  -6.9496  -6.8910  -6.8909
    -6.7151  -6.7150  -6.6572  -6.6572  -6.1998  -6.1998  -6.1709  -6.1709
    -5.8188  -5.8188  -5.7917  -5.7917  -5.5418  -5.5418  -5.4876  -5.4875
    -5.4300  -5.4300  -5.3960  -5.3960  -5.2705  -5.2705  -5.2157  -5.2156
    -4.9130  -4.9129  -4.8777  -4.8777  -4.6544  -4.6544  -4.5568  -4.5568
    -4.2864  -4.2863  -4.2532  -4.2532  -4.1197  -4.1197  -4.0451  -4.0450
    -3.9658  -3.9658  -3.8726  -3.8725  -3.7531  -3.7531  -3.6681  -3.6681
    -3.5975  -3.5975  -3.5353  -3.5353  -3.4572  -3.4572  -3.3713  -3.3713
    -3.1702  -3.1702  -3.1382  -3.1382  -3.0937  -3.0936  -2.9640  -2.9640
    -2.9185  -2.9185  -2.8977  -2.8976  -2.7890  -2.7890  -2.7153  -2.7153
    -2.4808  -2.4808  -2.4089  -2.4089  -2.0366  -2.0365  -2.0037  -2.0036
    -1.8456  -1.8455  -1.7139  -1.7139  -1.5942  -1.5941  -1.4392  -1.4391
    -1.1664  -1.1664  -1.1444  -1.1444   0.2834   0.2834   0.2996   0.2996
     0.3494   0.3494   0.3628   0.3628   0.6236   0.6236   0.7287   0.7287
     1.2003   1.2003   1.2623   1.2623

     highest occupied level (ev):     1.3982

!    total energy              =   -1080.02440351 Ry
     Harris-Foulkes estimate   =   -1080.02440351 Ry
     estimated scf accuracy    <          1.7E-10 Ry

     The total energy is the sum of the following terms:

     one-electron contribution =    -867.10688320 Ry
     hartree contribution      =     552.89929919 Ry
     xc contribution           =    -315.24073664 Ry
     ewald contribution        =    -450.02839507 Ry
     Dispersion Correction     =      -0.54768780 Ry

     convergence has been achieved in   9 iterations

     Forces acting on atoms (cartesian axes, Ry/au):

     atom    1 type  3   force =    -0.00057957    0.00010666   -0.00014504
     atom    2 type  1   force =     0.00000651    0.00020010   -0.00038833
     atom    3 type  3   force =     0.00074178   -0.00005377   -0.00023607
     atom    4 type  1   force =     0.00004704    0.00075931    0.00121949
     atom    5 type  1   force =    -0.00025521    0.00011024    0.00009502
     atom    6 type  1   force =     0.00104125    0.00031287   -0.00013820
     atom    7 type  1   force =     0.00072491    0.00036839    0.00072295
     atom    8 type  3   force =     0.00076547    0.00060070    0.00019110
     atom    9 type  4   force =     0.00146762    0.00013078   -0.00077009
     atom   10 type  1   force =     0.00061466    0.00042593    0.00046934
     atom   11 type  1   force =    -0.00032170    0.00002759   -0.00036293
     atom   12 type  1   force =    -0.00015971   -0.00012980   -0.00075169
     atom   13 type  1   force =    -0.00057038    0.00013481    0.00015912
     atom   14 type  1   force =     0.00014443   -0.00052404    0.00014381
     atom   15 type  1   force =     0.00063713   -0.00045996    0.00109223
     atom   16 type  1   force =    -0.00023270    0.00000231    0.00004296
     atom   17 type  2   force =     0.00013660   -0.00009405    0.00001741
     atom   18 type  2   force =     0.00003779    0.00002578   -0.00024137
     atom   19 type  2   force =     0.00003916   -0.00016644   -0.00013977
     atom   20 type  2   force =    -0.00025814   -0.00016351    0.00004633
     atom   21 type  2   force =    -0.00045452   -0.00034023   -0.00004431
     atom   22 type  2   force =    -0.00031371    0.00079762    0.00060296
     atom   23 type  2   force =     0.00006155    0.00067678   -0.00008867
     atom   24 type  2   force =    -0.00003045    0.00070859    0.00057464
     atom   25 type  2   force =    -0.00017916   -0.00013831   -0.00052269
     atom   26 type  2   force =    -0.00090623   -0.00019357   -0.00008895
     atom   27 type  2   force =    -0.00020258    0.00080519    0.00030471
     atom   28 type  2   force =    -0.00049693   -0.00048778   -0.00017738
     atom   29 type  2   force =    -0.00089997    0.00161741   -0.00000974
     atom   30 type  2   force =    -0.00089077   -0.00020226    0.00031674
     atom   31 type  2   force =    -0.00014825   -0.00027799   -0.00022749
     atom   32 type  3   force =     0.00057957    0.00010666    0.00014504
     atom   33 type  3   force =     0.00057957   -0.00010666    0.00014504
     atom   34 type  3   force =    -0.00057957   -0.00010666   -0.00014504
     atom   35 type  1   force =    -0.00000651    0.00020010    0.00038833
     atom   36 type  1   force =    -0.00000651   -0.00020010    0.00038833
     atom   37 type  1   force =     0.00000651   -0.00020010   -0.00038833
     atom   38 type  3   force =    -0.00074178   -0.00005377    0.00023607
     atom   39 type  3   force =    -0.00074178    0.00005377    0.00023607
     atom   40 type  3   force =     0.00074178    0.00005377   -0.00023607
     atom   41 type  1   force =    -0.00004704    0.00075931   -0.00121949
     atom   42 type  1   force =    -0.00004704   -0.00075931   -0.00121949
     atom   43 type  1   force =     0.00004704   -0.00075931    0.00121949
     atom   44 type  1   force =     0.00025521    0.00011024   -0.00009502
     atom   45 type  1   force =     0.00025521   -0.00011024   -0.00009502
     atom   46 type  1   force =    -0.00025521   -0.00011024    0.00009502
     atom   47 type  1   force =    -0.00104125    0.00031287    0.00013820
     atom   48 type  1   force =    -0.00104125   -0.00031287    0.00013820
     atom   49 type  1   force =     0.00104125   -0.00031287   -0.00013820
     atom   50 type  1   force =    -0.00072491    0.00036839   -0.00072295
     atom   51 type  1   force =    -0.00072491   -0.00036839   -0.00072295
     atom   52 type  1   force =     0.00072491   -0.00036839    0.00072295
     atom   53 type  3   force =    -0.00076547    0.00060070   -0.00019110
     atom   54 type  3   force =    -0.00076547   -0.00060070   -0.00019110
     atom   55 type  3   force =     0.00076547   -0.00060070    0.00019110
     atom   56 type  4   force =    -0.00146762    0.00013078    0.00077009
     atom   57 type  4   force =    -0.00146762   -0.00013078    0.00077009
     atom   58 type  4   force =     0.00146762   -0.00013078   -0.00077009
     atom   59 type  1   force =    -0.00061466    0.00042593   -0.00046934
     atom   60 type  1   force =    -0.00061466   -0.00042593   -0.00046934
     atom   61 type  1   force =     0.00061466   -0.00042593    0.00046934
     atom   62 type  1   force =     0.00032170    0.00002759    0.00036293
     atom   63 type  1   force =     0.00032170   -0.00002759    0.00036293
     atom   64 type  1   force =    -0.00032170   -0.00002759   -0.00036293
     atom   65 type  1   force =     0.00015971   -0.00012980    0.00075169
     atom   66 type  1   force =     0.00015971    0.00012980    0.00075169
     atom   67 type  1   force =    -0.00015971    0.00012980   -0.00075169
     atom   68 type  1   force =     0.00057038    0.00013481   -0.00015912
     atom   69 type  1   force =     0.00057038   -0.00013481   -0.00015912
     atom   70 type  1   force =    -0.00057038   -0.00013481    0.00015912
     atom   71 type  1   force =    -0.00014443   -0.00052404   -0.00014381
     atom   72 type  1   force =    -0.00014443    0.00052404   -0.00014381
     atom   73 type  1   force =     0.00014443    0.00052404    0.00014381
     atom   74 type  1   force =    -0.00063713   -0.00045996   -0.00109223
     atom   75 type  1   force =    -0.00063713    0.00045996   -0.00109223
     atom   76 type  1   force =     0.00063713    0.00045996    0.00109223
     atom   77 type  1   force =     0.00023270    0.00000231   -0.00004296
     atom   78 type  1   force =     0.00023270   -0.00000231   -0.00004296
     atom   79 type  1   force =    -0.00023270   -0.00000231    0.00004296
     atom   80 type  2   force =    -0.00013660   -0.00009405   -0.00001741
     atom   81 type  2   force =    -0.00013660    0.00009405   -0.00001741
     atom   82 type  2   force =     0.00013660    0.00009405    0.00001741
     atom   83 type  2   force =    -0.00003779    0.00002578    0.00024137
     atom   84 type  2   force =    -0.00003779   -0.00002578    0.00024137
     atom   85 type  2   force =     0.00003779   -0.00002578   -0.00024137
     atom   86 type  2   force =    -0.00003916   -0.00016644    0.00013977
     atom   87 type  2   force =    -0.00003916    0.00016644    0.00013977
     atom   88 type  2   force =     0.00003916    0.00016644   -0.00013977
     atom   89 type  2   force =     0.00025814   -0.00016351   -0.00004633
     atom   90 type  2   force =     0.00025814    0.00016351   -0.00004633
     atom   91 type  2   force =    -0.00025814    0.00016351    0.00004633
     atom   92 type  2   force =     0.00045452   -0.00034023    0.00004431
     atom   93 type  2   force =     0.00045452    0.00034023    0.00004431
     atom   94 type  2   force =    -0.00045452    0.00034023   -0.00004431
     atom   95 type  2   force =     0.00031371    0.00079762   -0.00060296
     atom   96 type  2   force =     0.00031371   -0.00079762   -0.00060296
     atom   97 type  2   force =    -0.00031371   -0.00079762    0.00060296
     atom   98 type  2   force =    -0.00006155    0.00067678    0.00008867
     atom   99 type  2   force =    -0.00006155   -0.00067678    0.00008867
     atom  100 type  2   force =     0.00006155   -0.00067678   -0.00008867
     atom  101 type  2   force =     0.00003045    0.00070859   -0.00057464
     atom  102 type  2   force =     0.00003045   -0.00070859   -0.00057464
     atom  103 type  2   force =    -0.00003045   -0.00070859    0.00057464
     atom  104 type  2   force =     0.00017916   -0.00013831    0.00052269
     atom  105 type  2   force =     0.00017916    0.00013831    0.00052269
     atom  106 type  2   force =    -0.00017916    0.00013831   -0.00052269
     atom  107 type  2   force =     0.00090623   -0.00019357    0.00008895
     atom  108 type  2   force =     0.00090623    0.00019357    0.00008895
     atom  109 type  2   force =    -0.00090623    0.00019357   -0.00008895
     atom  110 type  2   force =     0.00020258    0.00080519   -0.00030471
     atom  111 type  2   force =     0.00020258   -0.00080519   -0.00030471
     atom  112 type  2   force =    -0.00020258   -0.00080519    0.00030471
     atom  113 type  2   force =     0.00049693   -0.00048778    0.00017738
     atom  114 type  2   force =     0.00049693    0.00048778    0.00017738
     atom  115 type  2   force =    -0.00049693    0.00048778   -0.00017738
     atom  116 type  2   force =     0.00089997    0.00161741    0.00000974
     atom  117 type  2   force =     0.00089997   -0.00161741    0.00000974
     atom  118 type  2   force =    -0.00089997   -0.00161741   -0.00000974
     atom  119 type  2   force =     0.00089077   -0.00020226   -0.00031674
     atom  120 type  2   force =     0.00089077    0.00020226   -0.00031674
     atom  121 type  2   force =    -0.00089077    0.00020226    0.00031674
     atom  122 type  2   force =     0.00014825   -0.00027799    0.00022749
     atom  123 type  2   force =     0.00014825    0.00027799    0.00022749
     atom  124 type  2   force =    -0.00014825    0.00027799   -0.00022749

     Total force =     0.009713     Total SCF correction =     0.000026

     number of scf cycles    =   3
     number of bfgs steps    =   2

     energy   old            =   -1080.0242792746 Ry
     energy   new            =   -1080.0244035126 Ry

     CASE: energy  _new < energy  _old

     new trust radius        =       0.0037115739 bohr
     new conv_thr            =       0.0000000012 Ry


ATOMIC_POSITIONS (angstrom)
O        0.768910464  10.930233879   0.955193897
[...]
    -6.7142  -6.7142  -6.6568  -6.6568  -6.1937  -6.1937  -6.1671  -6.1671
    -5.8129  -5.8129  -5.7822  -5.7822  -5.5388  -5.5388  -5.4858  -5.4857
    -5.4255  -5.4255  -5.3947  -5.3946  -5.2653  -5.2653  -5.2112  -5.2111
    -4.9135  -4.9135  -4.8828  -4.8828  -4.6558  -4.6558  -4.5523  -4.5523
    -4.2871  -4.2871  -4.2553  -4.2553  -4.1149  -4.1149  -4.0445  -4.0445
    -3.9621  -3.9620  -3.8721  -3.8720  -3.7538  -3.7538  -3.6697  -3.6697
    -3.5991  -3.5991  -3.5292  -3.5291  -3.4531  -3.4531  -3.3670  -3.3670
    -3.1699  -3.1699  -3.1366  -3.1366  -3.0960  -3.0960  -2.9685  -2.9684
    -2.9216  -2.9216  -2.8926  -2.8926  -2.7880  -2.7879  -2.7130  -2.7130
    -2.4797  -2.4797  -2.4136  -2.4136  -2.0363  -2.0363  -2.0014  -2.0013
    -1.8438  -1.8438  -1.7119  -1.7119  -1.5933  -1.5933  -1.4377  -1.4376
    -1.1704  -1.1703  -1.1506  -1.1506   0.2875   0.2875   0.3005   0.3005
     0.3520   0.3520   0.3658   0.3658   0.6258   0.6259   0.7300   0.7300
     1.1965   1.1966   1.2624   1.2625

     highest occupied level (ev):     1.4024

!    total energy              =   -1080.02521229 Ry
     Harris-Foulkes estimate   =   -1080.02521229 Ry
     estimated scf accuracy    <          3.3E-10 Ry

     The total energy is the sum of the following terms:

     one-electron contribution =    -866.07787745 Ry
     hartree contribution      =     552.38969504 Ry
     xc contribution           =    -315.22948042 Ry
     ewald contribution        =    -450.56006411 Ry
     Dispersion Correction     =      -0.54748536 Ry

     convergence has been achieved in   9 iterations

     Forces acting on atoms (cartesian axes, Ry/au):

     atom    1 type  3   force =    -0.00013043   -0.00005449   -0.00003509
     atom    2 type  1   force =    -0.00033293    0.00009333   -0.00039250
     atom    3 type  3   force =    -0.00030841    0.00018354    0.00022877
     atom    4 type  1   force =    -0.00009992    0.00037474    0.00052259
     atom    5 type  1   force =    -0.00058977   -0.00042728   -0.00000906
     atom    6 type  1   force =     0.00001402    0.00038456    0.00014713
     atom    7 type  1   force =     0.00014292    0.00028052   -0.00020301
     atom    8 type  3   force =     0.00004864    0.00000766   -0.00010046
     atom    9 type  4   force =     0.00096953    0.00011124    0.00028971
     atom   10 type  1   force =    -0.00007044   -0.00011130   -0.00004869
     atom   11 type  1   force =     0.00054764   -0.00001820   -0.00016127
     atom   12 type  1   force =    -0.00009381   -0.00053901   -0.00025734
     atom   13 type  1   force =     0.00000207   -0.00001543   -0.00002427
     atom   14 type  1   force =    -0.00039908   -0.00000059    0.00005240
     atom   15 type  1   force =    -0.00018962   -0.00016071    0.00021520
     atom   16 type  1   force =     0.00014584   -0.00015156    0.00010281
     atom   17 type  2   force =     0.00024696   -0.00021031    0.00015573
     atom   18 type  2   force =     0.00009713    0.00025767   -0.00002379
     atom   19 type  2   force =     0.00027444    0.00044748    0.00051940
     atom   20 type  2   force =     0.00018481   -0.00043088   -0.00055167
     atom   21 type  2   force =     0.00066484   -0.00027334    0.00025416
     atom   22 type  2   force =     0.00017035   -0.00001814   -0.00073499
     atom   23 type  2   force =    -0.00024411    0.00040319   -0.00001478
     atom   24 type  2   force =    -0.00037375    0.00029156   -0.00003445
     atom   25 type  2   force =    -0.00020284    0.00020334    0.00046537
     atom   26 type  2   force =    -0.00042225    0.00064126   -0.00023961
     atom   27 type  2   force =    -0.00019222    0.00017976    0.00049806
     atom   28 type  2   force =    -0.00009066   -0.00020984   -0.00018476
     atom   29 type  2   force =    -0.00085890   -0.00003050    0.00042796
     atom   30 type  2   force =    -0.00036882    0.00017433   -0.00029941
     atom   31 type  2   force =     0.00040785    0.00014330    0.00035959
     atom   32 type  3   force =     0.00013043   -0.00005449    0.00003509
     atom   33 type  3   force =     0.00013043    0.00005449    0.00003509
     atom   34 type  3   force =    -0.00013043    0.00005449   -0.00003509
     atom   35 type  1   force =     0.00033293    0.00009333    0.00039250
     atom   36 type  1   force =     0.00033293   -0.00009333    0.00039250
     atom   37 type  1   force =    -0.00033293   -0.00009333   -0.00039250
     atom   38 type  3   force =     0.00030841    0.00018354   -0.00022877
     atom   39 type  3   force =     0.00030841   -0.00018354   -0.00022877
     atom   40 type  3   force =    -0.00030841   -0.00018354    0.00022877
     atom   41 type  1   force =     0.00009992    0.00037474   -0.00052259
     atom   42 type  1   force =     0.00009992   -0.00037474   -0.00052259
     atom   43 type  1   force =    -0.00009992   -0.00037474    0.00052259
     atom   44 type  1   force =     0.00058977   -0.00042728    0.00000906
     atom   45 type  1   force =     0.00058977    0.00042728    0.00000906
     atom   46 type  1   force =    -0.00058977    0.00042728   -0.00000906
     atom   47 type  1   force =    -0.00001402    0.00038456   -0.00014713
     atom   48 type  1   force =    -0.00001402   -0.00038456   -0.00014713
     atom   49 type  1   force =     0.00001402   -0.00038456    0.00014713
     atom   50 type  1   force =    -0.00014292    0.00028052    0.00020301
     atom   51 type  1   force =    -0.00014292   -0.00028052    0.00020301
     atom   52 type  1   force =     0.00014292   -0.00028052   -0.00020301
     atom   53 type  3   force =    -0.00004864    0.00000766    0.00010046
     atom   54 type  3   force =    -0.00004864   -0.00000766    0.00010046
     atom   55 type  3   force =     0.00004864   -0.00000766   -0.00010046
     atom   56 type  4   force =    -0.00096953    0.00011124   -0.00028971
     atom   57 type  4   force =    -0.00096953   -0.00011124   -0.00028971
     atom   58 type  4   force =     0.00096953   -0.00011124    0.00028971
     atom   59 type  1   force =     0.00007044   -0.00011130    0.00004869
     atom   60 type  1   force =     0.00007044    0.00011130    0.00004869
     atom   61 type  1   force =    -0.00007044    0.00011130   -0.00004869
     atom   62 type  1   force =    -0.00054764   -0.00001820    0.00016127
     atom   63 type  1   force =    -0.00054764    0.00001820    0.00016127
     atom   64 type  1   force =     0.00054764    0.00001820   -0.00016127
     atom   65 type  1   force =     0.00009381   -0.00053901    0.00025734
     atom   66 type  1   force =     0.00009381    0.00053901    0.00025734
     atom   67 type  1   force =    -0.00009381    0.00053901   -0.00025734
     atom   68 type  1   force =    -0.00000207   -0.00001543    0.00002427
     atom   69 type  1   force =    -0.00000207    0.00001543    0.00002427
     atom   70 type  1   force =     0.00000207    0.00001543   -0.00002427
     atom   71 type  1   force =     0.00039908   -0.00000059   -0.00005240
     atom   72 type  1   force =     0.00039908    0.00000059   -0.00005240
     atom   73 type  1   force =    -0.00039908    0.00000059    0.00005240
     atom   74 type  1   force =     0.00018962   -0.00016071   -0.00021520
     atom   75 type  1   force =     0.00018962    0.00016071   -0.00021520
     atom   76 type  1   force =    -0.00018962    0.00016071    0.00021520
     atom   77 type  1   force =    -0.00014584   -0.00015156   -0.00010281
     atom   78 type  1   force =    -0.00014584    0.00015156   -0.00010281
     atom   79 type  1   force =     0.00014584    0.00015156    0.00010281
     atom   80 type  2   force =    -0.00024696   -0.00021031   -0.00015573
     atom   81 type  2   force =    -0.00024696    0.00021031   -0.00015573
     atom   82 type  2   force =     0.00024696    0.00021031    0.00015573
     atom   83 type  2   force =    -0.00009713    0.00025767    0.00002379
     atom   84 type  2   force =    -0.00009713   -0.00025767    0.00002379
     atom   85 type  2   force =     0.00009713   -0.00025767   -0.00002379
     atom   86 type  2   force =    -0.00027444    0.00044748   -0.00051940
     atom   87 type  2   force =    -0.00027444   -0.00044748   -0.00051940
     atom   88 type  2   force =     0.00027444   -0.00044748    0.00051940
     atom   89 type  2   force =    -0.00018481   -0.00043088    0.00055167
     atom   90 type  2   force =    -0.00018481    0.00043088    0.00055167
     atom   91 type  2   force =     0.00018481    0.00043088   -0.00055167
     atom   92 type  2   force =    -0.00066484   -0.00027334   -0.00025416
     atom   93 type  2   force =    -0.00066484    0.00027334   -0.00025416
     atom   94 type  2   force =     0.00066484    0.00027334    0.00025416
     atom   95 type  2   force =    -0.00017035   -0.00001814    0.00073499
     atom   96 type  2   force =    -0.00017035    0.00001814    0.00073499
     atom   97 type  2   force =     0.00017035    0.00001814   -0.00073499
     atom   98 type  2   force =     0.00024411    0.00040319    0.00001478
     atom   99 type  2   force =     0.00024411   -0.00040319    0.00001478
     atom  100 type  2   force =    -0.00024411   -0.00040319   -0.00001478
     atom  101 type  2   force =     0.00037375    0.00029156    0.00003445
     atom  102 type  2   force =     0.00037375   -0.00029156    0.00003445
     atom  103 type  2   force =    -0.00037375   -0.00029156   -0.00003445
     atom  104 type  2   force =     0.00020284    0.00020334   -0.00046537
     atom  105 type  2   force =     0.00020284   -0.00020334   -0.00046537
     atom  106 type  2   force =    -0.00020284   -0.00020334    0.00046537
     atom  107 type  2   force =     0.00042225    0.00064126    0.00023961
     atom  108 type  2   force =     0.00042225   -0.00064126    0.00023961
     atom  109 type  2   force =    -0.00042225   -0.00064126   -0.00023961
     atom  110 type  2   force =     0.00019222    0.00017976   -0.00049806
     atom  111 type  2   force =     0.00019222   -0.00017976   -0.00049806
     atom  112 type  2   force =    -0.00019222   -0.00017976    0.00049806
     atom  113 type  2   force =     0.00009066   -0.00020984    0.00018476
     atom  114 type  2   force =     0.00009066    0.00020984    0.00018476
     atom  115 type  2   force =    -0.00009066    0.00020984   -0.00018476
     atom  116 type  2   force =     0.00085890   -0.00003050   -0.00042796
     atom  117 type  2   force =     0.00085890    0.00003050   -0.00042796
     atom  118 type  2   force =    -0.00085890    0.00003050    0.00042796
     atom  119 type  2   force =     0.00036882    0.00017433    0.00029941
     atom  120 type  2   force =     0.00036882   -0.00017433    0.00029941
     atom  121 type  2   force =    -0.00036882   -0.00017433   -0.00029941
     atom  122 type  2   force =    -0.00040785    0.00014330   -0.00035959
     atom  123 type  2   force =    -0.00040785   -0.00014330   -0.00035959
     atom  124 type  2   force =     0.00040785   -0.00014330    0.00035959

     Total force =     0.006179     Total SCF correction =     0.000039

     bfgs converged in  11 scf cycles and  10 bfgs steps
     (criteria: energy <  1.0E-04 Ry, force <  1.0E-03 Ry/Bohr)

     End of BFGS Geometry Optimization

     Final energy   =   -1080.0252122866 Ry
Begin final coordinates

ATOMIC_POSITIONS (angstrom)
O        0.766288149  10.932588412   0.954670247
C        0.170411348  10.758413523   5.099336751
O       -0.697971637   8.530598398   4.825763151
C       -0.038370151  10.669519903   6.555846269
C        0.535325137  10.818436458   2.292024862
C       -0.008744856   9.682856738   2.887425964
C       -0.186082010   9.647785082   4.279108983
O       -0.554044537   9.579146675   7.030284640
N        0.477550116   0.668853428   9.685403323
C        0.182290513  11.621658553   8.787213903
C        0.703839643  -0.001515053   4.442552213
C        0.336194409  11.735382046   7.419661506
C        0.893124307   0.045738392   3.075276200
C        0.981211961   1.969619516   9.270406067
C        0.324210020   0.438456452  11.113727548
C        0.407056571   9.827072523   0.118036605
H        1.033368046   8.949865893   0.349711455
H       -2.186544845  10.159895805  11.935793563
H        6.771033103   9.563066314   0.233716713
H       -0.313937085   8.811406024   2.312788536
H       -0.212253353  10.690153394   9.193994274
H        0.751105670   0.757208780   7.001168027
H        1.349735274   0.909384426   2.592759790
H        0.999576898   0.867268085   5.027414017
H       -0.363767930   1.183336655  11.536216150
H        0.290838409   2.417276632   8.540248633
H        1.041660361   2.623169389  10.147586745
H       -0.058025553  11.316234263  11.283000178
H        1.978855041   1.866946632   8.814487251
H        1.300741156   0.532064196  11.613481280
H       -0.738279192   8.775923184   5.858519262
O        1.558501851   4.988088412   5.467449753
O        3.883291851   0.956411588  11.889559753
O        3.091078149   6.900911588   7.376780247
C        2.154378652   4.813913523   1.322783249
C        4.479168652   1.130586477   7.744893249
C        2.495201348   7.075086477  11.521446751
O        3.022761637   2.586098398   1.596346849
O        5.347551637   3.358401602   8.018456849
O        1.626818363   9.302901602  11.247873151
C       -0.413859849   4.725019903  12.710493731
C        4.687950151   1.219480097   6.288383731
C        5.063439849   7.163980097   0.133726269
C        1.789464863   4.873936458   4.130085138
C        4.114254863   1.070563542  10.552195138
C        2.860115137   7.015063542   8.714134862
C        2.333534856   3.738356738   3.534684036
C        4.658324856   2.206143262   9.956794036
C        2.316045144   8.150643262   9.309535964
C        2.510872010   3.703285082   2.143001017
C        4.835662010   2.241214918   8.565111017
C        2.138707990   8.185714918  10.701218983
O        0.101814537   3.634646675  12.236045360
O        5.203624537   2.309853325   5.813935360
O        4.547765463   8.254353325   0.608174640
N       -0.929780116   6.613353428   9.580926677
N        4.172029884  11.220146572   3.158816677
N        5.579360116   5.275646572   3.263293323
C       -0.634520513   5.677158553  10.479116097
C        4.467289487   0.267341447   4.057006097
C        5.284100513   6.211841447   2.365103903
C        1.620950357   5.942984947   1.979557787
C        3.945740357  11.890515053   8.401667787
C        3.028629643   5.946015053  10.864662213
C       -0.788424409   5.790882046  11.846678494
C        4.313385591   0.153617954   5.424568494
C        5.438004409   6.098117954   0.997541506
C        1.431665693   5.990238392   3.346833800
C        3.756455693  11.843261608   9.768943800
C        3.217914307   5.898761608   9.497396200
C       -1.433441961   7.914119516   9.995923933
C        3.668368039   9.919380484   3.573813933
C        6.083021961   3.974880484   2.848296067
C       -0.776440020   6.382956452   8.152602452
C        4.325369980  11.450543548   1.730492452
C        5.426020020   5.506043548   4.691617548
C        1.917733429   3.882572523   6.304073395
C        4.242523429   2.061927477  12.726193395
C        2.731846571   8.006427477   6.540146605
H        1.291421954   3.005365893   6.072408545
H        3.616211954   2.939134107  12.494518545
H        3.358158046   8.883634107   6.771821455
H        1.734314845   4.215395805   7.330536437
H        6.836124845   1.729104195   0.908426437
H        2.915265155   7.673604195   5.513683563
H        2.980356897   3.618566314   6.188403287
H       -2.121453103   2.325933686  12.610513287
H        1.669223103   8.270433686   6.655826713
H        2.638727085   2.866906024   4.109321464
H        4.963517085   3.077593976  10.531431464
H        2.010852915   9.022093976   8.734898536
H       -0.239976647   4.745653394  10.072335726
H        4.861833353   1.198846606   3.650225726
H        4.889556647   7.143346606   2.771884274
H       -1.203335670   6.701708780  12.265171973
H        3.898474330  11.131791220   5.843061973
H        5.852915670   5.187291220   0.579058027
H        0.975054726   6.853884426   3.829350210
H        3.299844726  10.979615574  10.251460210
H        3.674525274   5.035115574   9.014879790
H        1.325213102   6.811768085   1.394695983
H        3.650013102  11.021731915   7.816805983
H        3.324366898   5.077231915  11.449524017
H       -0.088462070   7.127836655   7.730123850
H        5.013347930  10.705663345   1.308013850
H        4.738042070   4.761163345   5.114106150
H       -0.743068409   8.361776632  10.726081367
H        4.358741591   9.471723368   4.303971367
H        5.392648409   3.527223368   2.118138633
H       -1.493880361   8.567669389   9.118753255
H        3.607929639   9.265830611   2.696643255
H        6.143470361   3.321330611   3.725476745
H       -0.394204447   5.371734263   7.983329822
H        4.707605553   0.572765737   1.561219822
H        5.043784447   6.517265737   4.860890178
H        4.995514959   7.811446632  10.451842749
H        2.670724959  10.022053368   4.029732749
H       -0.345934959   4.077553368   2.392377251
H       -1.752971156   6.476564196   7.652858720
H        3.348838844  11.356935804   1.230748720
H        6.402551156   5.412435804   5.191371280
H        3.063069192   2.831423184   0.563590738
H        5.387859192   3.113076816   6.985700738
H        1.586510808   9.057576816  12.280629262
End final coordinates



     Writing output data file 2hp_3_211.save
 
     init_run     :     16.41s CPU     16.76s WALL (       1 calls)
     electrons    :   2850.73s CPU   2906.50s WALL (      11 calls)
     update_pot   :      4.83s CPU      4.83s WALL (      10 calls)
     forces       :    178.23s CPU    181.62s WALL (      11 calls)

     Called by init_run:
     wfcinit      :     12.43s CPU     12.61s WALL (       1 calls)
     potinit      :      1.60s CPU      1.62s WALL (       1 calls)

     Called by electrons:
     c_bands      :   2418.09s CPU   2448.22s WALL (     105 calls)
     sum_band     :    290.01s CPU    302.91s WALL (     105 calls)
     v_of_rho     :     19.13s CPU     19.15s WALL (     116 calls)
     newd         :     39.53s CPU     53.31s WALL (     116 calls)
     mix_rho      :      3.48s CPU      3.52s WALL (     105 calls)

     Called by c_bands:
     init_us_2    :     24.63s CPU     24.68s WALL (     444 calls)
     cegterg      :   2329.79s CPU   2359.88s WALL (     210 calls)

     Called by sum_band:
     sum_band:bec :      0.15s CPU      0.15s WALL (     210 calls)
     addusdens    :     41.28s CPU     54.07s WALL (     105 calls)

     Called by *egterg:
     h_psi        :   1324.43s CPU   1325.07s WALL (     990 calls)
     s_psi        :    317.88s CPU    317.87s WALL (     990 calls)
     g_psi        :     11.06s CPU     11.06s WALL (     778 calls)
     cdiaghg      :     80.12s CPU     80.13s WALL (     968 calls)

     Called by h_psi:
     h_psi:pot    :   1312.00s CPU   1312.59s WALL (     990 calls)
     h_psi:calbec :    290.61s CPU    290.61s WALL (     990 calls)
     vloc_psi     :    703.73s CPU    704.32s WALL (     990 calls)
     add_vuspsi   :    317.66s CPU    317.65s WALL (     990 calls)

     General routines
     calbec       :    427.83s CPU    427.82s WALL (    1288 calls)
     fft          :      6.78s CPU      6.80s WALL (    1509 calls)
     fftw         :    707.34s CPU    707.89s WALL (  247538 calls)
     davcio       :      0.00s CPU      0.11s WALL (       2 calls)
 
     Parallel routines
     fft_scatter  :     84.58s CPU     84.70s WALL (  249047 calls)
 
     PWSCF        : 50m55.21s CPU    51m57.78s WALL

 
   This run was terminated on:  14:50:42   6Oct2017            

=------------------------------------------------------------------------------=
   JOB DONE.
=------------------------------------------------------------------------------=
