 Entering Gaussian System, Link 0=g09
 Input=2hp_3_866-mega_dimer_0_mon-1.com
 Output=2hp_3_866-mega_dimer_0_mon-1.out
 Initial command:
 /share/apps/gaussian/g09_D01/g09/l1.exe "/tmp/161002.1.all.q/Gau-1915.inp" -scrdir="/tmp/161002.1.all.q/"
 Entering Link 1 = /share/apps/gaussian/g09_D01/g09/l1.exe PID=      1916.
  
 Copyright (c) 1988,1990,1992,1993,1995,1998,2003,2009,2013,
            Gaussian, Inc.  All Rights Reserved.
  
 This is part of the Gaussian(R) 09 program.  It is based on
 the Gaussian(R) 03 system (copyright 2003, Gaussian, Inc.),
 the Gaussian(R) 98 system (copyright 1998, Gaussian, Inc.),
 the Gaussian(R) 94 system (copyright 1995, Gaussian, Inc.),
 the Gaussian 92(TM) system (copyright 1992, Gaussian, Inc.),
 the Gaussian 90(TM) system (copyright 1990, Gaussian, Inc.),
 the Gaussian 88(TM) system (copyright 1988, Gaussian, Inc.),
 the Gaussian 86(TM) system (copyright 1986, Carnegie Mellon
 University), and the Gaussian 82(TM) system (copyright 1983,
 Carnegie Mellon University). Gaussian is a federally registered
 trademark of Gaussian, Inc.
  
 This software contains proprietary and confidential information,
 including trade secrets, belonging to Gaussian, Inc.
  
 This software is provided under written license and may be
 used, copied, transmitted, or stored only in accord with that
 written license.
  
 The following legend is applicable only to US Government
 contracts under FAR:
  
                    RESTRICTED RIGHTS LEGEND
  
 Use, reproduction and disclosure by the US Government is
 subject to restrictions as set forth in subparagraphs (a)
 and (c) of the Commercial Computer Software - Restricted
 Rights clause in FAR 52.227-19.
  
 Gaussian, Inc.
 340 Quinnipiac St., Bldg. 40, Wallingford CT 06492
  
  
 ---------------------------------------------------------------
 Warning -- This program may not be used in any manner that
 competes with the business of Gaussian, Inc. or will provide
 assistance to any competitor of Gaussian, Inc.  The licensee
 of this program is prohibited from giving any competitor of
 Gaussian, Inc. access to this program.  By using this program,
 the user acknowledges that Gaussian, Inc. is engaged in the
 business of creating and licensing software in the field of
 computational chemistry and represents and warrants to the
 licensee that it is not a competitor of Gaussian, Inc. and that
 it will not use this program in any manner prohibited above.
 ---------------------------------------------------------------
  

 Cite this work as:
 Gaussian 09, Revision D.01,
 M. J. Frisch, G. W. Trucks, H. B. Schlegel, G. E. Scuseria, 
 M. A. Robb, J. R. Cheeseman, G. Scalmani, V. Barone, B. Mennucci, 
 G. A. Petersson, H. Nakatsuji, M. Caricato, X. Li, H. P. Hratchian, 
 A. F. Izmaylov, J. Bloino, G. Zheng, J. L. Sonnenberg, M. Hada, 
 M. Ehara, K. Toyota, R. Fukuda, J. Hasegawa, M. Ishida, T. Nakajima, 
 Y. Honda, O. Kitao, H. Nakai, T. Vreven, J. A. Montgomery, Jr., 
 J. E. Peralta, F. Ogliaro, M. Bearpark, J. J. Heyd, E. Brothers, 
 K. N. Kudin, V. N. Staroverov, T. Keith, R. Kobayashi, J. Normand, 
 K. Raghavachari, A. Rendell, J. C. Burant, S. S. Iyengar, J. Tomasi, 
 M. Cossi, N. Rega, J. M. Millam, M. Klene, J. E. Knox, J. B. Cross, 
 V. Bakken, C. Adamo, J. Jaramillo, R. Gomperts, R. E. Stratmann, 
 O. Yazyev, A. J. Austin, R. Cammi, C. Pomelli, J. W. Ochterski, 
 R. L. Martin, K. Morokuma, V. G. Zakrzewski, G. A. Voth, 
 P. Salvador, J. J. Dannenberg, S. Dapprich, A. D. Daniels, 
 O. Farkas, J. B. Foresman, J. V. Ortiz, J. Cioslowski, 
 and D. J. Fox, Gaussian, Inc., Wallingford CT, 2013.
 
 ******************************************
 Gaussian 09:  ES64L-G09RevD.01 24-Apr-2013
                 3-Nov-2017 
 ******************************************
 %chk=2hp_3_866-mega_dimer_0_mon-1.chk
 %nproc=4
 Will use up to    4 processors via shared memory.
 %mem=28GB
 ------------------------------------------
 #p wb97xd 6-311++G** td=(nstates=4) nosymm
 ------------------------------------------
 1/38=1/1;
 2/12=2,15=1,17=6,18=5,40=1/2;
 3/5=4,6=6,7=1111,11=9,16=1,25=1,30=1,74=-58/1,2,8,3;
 4//1;
 5/5=2,38=5/2;
 8/6=1,10=2,108=4/1;
 9/41=4,42=1,70=2/14;
 6/7=2,8=2,9=2,10=2/1;
 99/5=1,9=1/99;
 Leave Link    1 at Fri Nov  3 00:43:13 2017, MaxMem=  3758096384 cpu:         0.2
 (Enter /share/apps/gaussian/g09_D01/g09/l101.exe)
 -----
 Title
 -----
 Symbolic Z-matrix:
 Charge =  0 Multiplicity = 1
 H                     0.34557  -4.07762  -2.39218 
 C                     1.34308  -3.97503  -2.8483 
 N                     1.84703  -5.27568  -3.26337 
 H                     2.03368  -3.5274   -2.11834 
 H                     1.28249  -3.32145  -3.72549 
 C                     2.14245  -6.21187  -2.36521 
 C                     2.00112  -5.50561  -4.69155 
 C                     1.9885   -6.09817  -0.99768 
 H                     2.53727  -7.14328  -2.77201 
 H                     2.68961  -4.76087  -5.1134 
 H                     2.38304  -6.51693  -4.86098 
 H                     1.0248   -5.41124  -5.19175 
 C                     2.36274  -7.16415  -0.13391 
 H                     1.57368  -5.18732  -0.57927 
 O                     2.87807  -8.25467  -0.60844 
 C                     2.15391  -7.07538   1.32256 
 H                     3.06314  -9.05742   0.56323 
 C                     2.51089  -8.18584   2.14282 
 C                     1.62088  -5.94613   1.97935 
 O                     3.02332  -9.3027    1.59608 
 C                     2.3335   -8.15072   3.53451 
 C                     1.43145  -5.89888   3.34665 
 H                     1.32586  -5.07715   1.39449 
 C                     1.78902  -7.01526   4.12992 
 H                     2.63919  -9.02192   4.10928 
 H                     0.97552  -5.03479   3.82905 
 O                     1.55782  -6.9015    5.46729 
 C                     1.91735  -8.00684   6.30394 
 H                     1.29181  -8.88464   6.07221 
 H                     1.73346  -7.67413   7.33033 
 H                     2.98019  -8.27013   6.1887 
 
 NAtoms=     31 NQM=       31 NQMF=       0 NMMI=      0 NMMIF=      0
                NMic=       0 NMicF=      0.
                    Isotopes and Nuclear Properties:
 (Nuclear quadrupole moments (NQMom) in fm**2, nuclear magnetic moments (NMagM)
  in nuclear magnetons)

  Atom         1           2           3           4           5           6           7           8           9          10
 IAtWgt=           1          12          14           1           1          12          12          12           1           1
 AtmWgt=   1.0078250  12.0000000  14.0030740   1.0078250   1.0078250  12.0000000  12.0000000  12.0000000   1.0078250   1.0078250
 NucSpn=           1           0           2           1           1           0           0           0           1           1
 AtZEff=   0.0000000   0.0000000   0.0000000   0.0000000   0.0000000   0.0000000   0.0000000   0.0000000   0.0000000   0.0000000
 NQMom=    0.0000000   0.0000000   2.0440000   0.0000000   0.0000000   0.0000000   0.0000000   0.0000000   0.0000000   0.0000000
 NMagM=    2.7928460   0.0000000   0.4037610   2.7928460   2.7928460   0.0000000   0.0000000   0.0000000   2.7928460   2.7928460
 AtZNuc=   1.0000000   6.0000000   7.0000000   1.0000000   1.0000000   6.0000000   6.0000000   6.0000000   1.0000000   1.0000000

  Atom        11          12          13          14          15          16          17          18          19          20
 IAtWgt=           1           1          12           1          16          12           1          12          12          16
 AtmWgt=   1.0078250   1.0078250  12.0000000   1.0078250  15.9949146  12.0000000   1.0078250  12.0000000  12.0000000  15.9949146
 NucSpn=           1           1           0           1           0           0           1           0           0           0
 AtZEff=   0.0000000   0.0000000   0.0000000   0.0000000   0.0000000   0.0000000   0.0000000   0.0000000   0.0000000   0.0000000
 NQMom=    0.0000000   0.0000000   0.0000000   0.0000000   0.0000000   0.0000000   0.0000000   0.0000000   0.0000000   0.0000000
 NMagM=    2.7928460   2.7928460   0.0000000   2.7928460   0.0000000   0.0000000   2.7928460   0.0000000   0.0000000   0.0000000
 AtZNuc=   1.0000000   1.0000000   6.0000000   1.0000000   8.0000000   6.0000000   1.0000000   6.0000000   6.0000000   8.0000000

  Atom        21          22          23          24          25          26          27          28          29          30
 IAtWgt=          12          12           1          12           1           1          16          12           1           1
 AtmWgt=  12.0000000  12.0000000   1.0078250  12.0000000   1.0078250   1.0078250  15.9949146  12.0000000   1.0078250   1.0078250
 NucSpn=           0           0           1           0           1           1           0           0           1           1
 AtZEff=   0.0000000   0.0000000   0.0000000   0.0000000   0.0000000   0.0000000   0.0000000   0.0000000   0.0000000   0.0000000
 NQMom=    0.0000000   0.0000000   0.0000000   0.0000000   0.0000000   0.0000000   0.0000000   0.0000000   0.0000000   0.0000000
 NMagM=    0.0000000   0.0000000   2.7928460   0.0000000   2.7928460   2.7928460   0.0000000   0.0000000   2.7928460   2.7928460
 AtZNuc=   6.0000000   6.0000000   1.0000000   6.0000000   1.0000000   1.0000000   8.0000000   6.0000000   1.0000000   1.0000000

  Atom        31
 IAtWgt=           1
 AtmWgt=   1.0078250
 NucSpn=           1
 AtZEff=   0.0000000
 NQMom=    0.0000000
 NMagM=    2.7928460
 AtZNuc=   1.0000000
 Leave Link  101 at Fri Nov  3 00:43:13 2017, MaxMem=  3758096384 cpu:         0.3
 (Enter /share/apps/gaussian/g09_D01/g09/l202.exe)
                          Input orientation:                          
 ---------------------------------------------------------------------
 Center     Atomic      Atomic             Coordinates (Angstroms)
 Number     Number       Type             X           Y           Z
 ---------------------------------------------------------------------
      1          1           0        0.345574   -4.077623   -2.392176
      2          6           0        1.343082   -3.975034   -2.848303
      3          7           0        1.847027   -5.275681   -3.263373
      4          1           0        2.033677   -3.527395   -2.118344
      5          1           0        1.282493   -3.321451   -3.725493
      6          6           0        2.142454   -6.211873   -2.365208
      7          6           0        2.001122   -5.505614   -4.691549
      8          6           0        1.988497   -6.098169   -0.997678
      9          1           0        2.537274   -7.143277   -2.772012
     10          1           0        2.689611   -4.760873   -5.113396
     11          1           0        2.383038   -6.516928   -4.860980
     12          1           0        1.024796   -5.411241   -5.191752
     13          6           0        2.362739   -7.164149   -0.133913
     14          1           0        1.573675   -5.187319   -0.579271
     15          8           0        2.878073   -8.254666   -0.608437
     16          6           0        2.153913   -7.075376    1.322564
     17          1           0        3.063136   -9.057421    0.563225
     18          6           0        2.510894   -8.185840    2.142818
     19          6           0        1.620884   -5.946134    1.979347
     20          8           0        3.023325   -9.302700    1.596076
     21          6           0        2.333499   -8.150725    3.534505
     22          6           0        1.431454   -5.898882    3.346653
     23          1           0        1.325863   -5.077154    1.394485
     24          6           0        1.789015   -7.015261    4.129919
     25          1           0        2.639189   -9.021924    4.109276
     26          1           0        0.975524   -5.034795    3.829048
     27          8           0        1.557824   -6.901495    5.467288
     28          6           0        1.917353   -8.006841    6.303941
     29          1           0        1.291806   -8.884639    6.072208
     30          1           0        1.733455   -7.674128    7.330326
     31          1           0        2.980190   -8.270125    6.188704
 ---------------------------------------------------------------------
                    Distance matrix (angstroms):
                    1          2          3          4          5
     1  H    0.000000
     2  C    1.101634   0.000000
     3  N    2.109191   1.455310   0.000000
     4  H    1.796504   1.100065   2.098198   0.000000
     5  H    1.796482   1.095584   2.085969   1.785950   0.000000
     6  C    2.790077   2.424010   1.330576   2.697999   3.308239
     7  C    3.172872   2.484602   1.454751   3.245889   2.494045
     8  C    2.954053   2.889477   2.414513   2.804784   3.955955
     9  H    3.787619   3.386691   2.050803   3.708840   4.134000
    10  H    3.656006   2.749787   2.097036   3.304853   2.445034
    11  H    4.024483   3.404938   2.092929   4.072028   3.565334
    12  H    3.174509   2.766903   2.100735   3.743335   2.565842
    13  C    4.323812   4.310228   3.691313   4.155987   5.369610
    14  H    2.454849   2.582889   2.699432   2.309912   3.669464
    15  O    5.200285   5.068377   4.121419   5.033877   6.049671
    16  C    5.104499   5.259819   4.935980   4.943933   6.350922
    17  H    6.396712   6.358283   5.515735   6.231516   7.380050
    18  C    6.490934   6.633699   6.175488   6.331378   7.720643
    19  C    4.922191   5.221936   5.290251   4.776167   6.288773
    20  O    7.097741   7.138610   6.419876   6.937612   8.192981
    21  C    7.461069   7.691395   7.396869   7.308883   8.782601
    22  C    6.118029   6.487409   6.652332   5.987722   7.528651
    23  H    4.037181   4.383630   4.691126   3.904193   5.412813
    24  C    7.297326   7.624790   7.595411   7.160018   8.695303
    25  H    8.483847   8.692462   8.307696   8.327049   9.783641
    26  H    6.325871   6.770909   7.149824   6.226027   7.752475
    27  O    8.438897   8.818126   8.885457   8.315816   9.869131
    28  C    9.671179  10.017426   9.949758   9.540118  11.088078
    29  H    9.780008  10.182454  10.024267   9.815069  11.266947
    30  H   10.458877  10.836982  10.862408  10.322930  11.890345
    31  H    9.907057  10.138808   9.979605   9.612306  11.209944
                    6          7          8          9         10
     6  C    0.000000
     7  C    2.435290   0.000000
     8  C    1.380858   3.741118   0.000000
     9  H    1.090360   2.579539   2.131119   0.000000
    10  H    3.155522   1.098459   4.383954   3.343820   0.000000
    11  H    2.525830   1.094222   3.905909   2.186296   1.800397
    12  H    3.143171   1.101055   4.357849   3.338065   1.789058
    13  C    2.435987   4.863492   1.422132   2.643949   5.538757
    14  H    2.136069   4.146668   1.084799   3.092314   4.688865
    15  O    2.792917   4.999813   2.365023   2.456092   5.704101
    16  C    3.787536   6.217480   2.523057   4.113044   6.860428
    17  H    4.185752   6.430852   3.514035   3.881273   7.129086
    18  C    4.935037   7.358808   3.807097   5.024260   8.025894
    19  C    4.383812   6.696230   3.003487   4.984810   7.270077
    20  O    5.101070   7.415995   4.250582   4.896891   8.109043
    21  C    6.213072   8.647257   4.987253   6.389729   9.295381
    22  C    5.764446   8.067953   4.384430   6.341090   8.628468
    23  H    4.011197   6.138352   2.684027   4.805838   6.656753
    24  C    6.554161   8.952224   5.212783   6.943553   9.556789
    25  H    7.075456   9.498741   5.920534   7.133851  10.159566
    26  H    6.412179   8.595004   5.045212   7.103432   9.109360
    27  O    7.884502  10.263867   6.528905   8.300834  10.854219
    28  C    8.855886  11.276700   7.547300   9.137996  11.894884
    29  H    8.891415  11.303955   7.631060   9.099657  12.003210
    30  H    9.813707  12.218821   8.479643  10.148160  12.815908
    31  H    8.837851  11.268585   7.572644   9.042145  11.837937
                   11         12         13         14         15
    11  H    0.000000
    12  H    1.782351   0.000000
    13  C    4.771213   5.517655   0.000000
    14  H    4.555871   4.650418   2.174586   0.000000
    15  O    4.620489   5.703199   1.296136   3.333305   0.000000
    16  C    6.212936   6.817666   1.474047   2.741972   2.375689
    17  H    6.028154   7.111204   2.135658   4.301335   1.432290
    18  C    7.201028   7.981404   2.499861   4.156835   2.776502
    19  C    6.906284   7.215684   2.549466   2.669186   3.688695
    20  O    7.061449   8.075406   2.828893   4.875447   2.445271
    21  C    8.553123   9.239320   3.798878   5.126623   4.179872
    22  C    8.285694   8.561981   3.818708   3.992421   4.825470
    23  H    6.505491   6.601574   2.786873   1.992300   4.064189
    24  C    9.024271   9.489492   4.304833   5.056107   5.017389
    25  H    9.316980  10.107048   4.640302   6.149958   4.785663
    26  H    8.927172   9.028786   4.707820   4.451328   5.803321
    27  O   10.368317  10.775904   5.664833   6.284865   6.363062
    28  C   11.273516  11.818831   6.508031   7.446236   6.983221
    29  H   11.239726  11.790360   6.528623   7.615235   6.895225
    30  H   12.263320  12.744618   7.508058   8.292857   8.041836
    31  H   11.203830  11.895863   6.448249   7.568848   6.797926
                   16         17         18         19         20
    16  C    0.000000
    17  H    2.309066   0.000000
    18  C    1.425967   1.886727   0.000000
    19  C    1.410912   3.710202   2.415600   0.000000
    20  O    2.406586   1.062322   1.344949   3.657906   0.000000
    21  C    2.466031   3.191077   1.403387   2.790440   2.358053
    22  C    2.450106   4.515111   2.800819   1.381174   4.145425
    23  H    2.164193   4.421723   3.410019   1.088222   4.558207
    24  C    2.831608   4.302919   2.416596   2.407542   3.629912
    25  H    3.433701   3.571480   2.140667   3.877374   2.557845
    26  H    3.440208   5.586165   3.889707   2.160653   5.233991
    27  O    4.190978   5.564514   3.689171   3.616963   4.785369
    28  C    5.073234   5.947466   4.207051   4.799638   5.006637
    29  H    5.155170   5.789331   4.173081   5.049219   4.817540
    30  H    6.052148   7.033861   5.270342   5.624199   6.098986
    31  H    5.078334   5.680909   4.073885   4.996732   4.707473
                   21         22         23         24         25
    21  C    0.000000
    22  C    2.433058   0.000000
    23  H    3.878383   2.120695   0.000000
    24  C    1.392932   1.409843   3.384282   0.000000
    25  H    1.087564   3.434182   4.965494   2.179431   0.000000
    26  H    3.411726   1.089598   2.460006   2.162068   4.329377
    27  O    2.428559   2.349105   4.468753   1.361965   2.740395
    28  C    2.804221   3.664033   5.747668   2.392921   2.523489
    29  H    2.839664   4.045108   6.031517   2.741218   2.384825
    30  H    3.872396   4.371768   6.491888   3.267996   3.607225
    31  H    2.734454   4.012310   5.993029   2.689271   2.237298
                   26         27         28         29         30
    26  H    0.000000
    27  O    2.550975   0.000000
    28  C    3.980602   1.432145   0.000000
    29  H    4.466889   2.090348   1.102515   0.000000
    30  H    4.449661   2.024529   1.094524   1.800903   0.000000
    31  H    4.478172   2.101598   1.101009   1.800511   1.792446
                   31
    31  H    0.000000
 Symmetry turned off by external request.
 Stoichiometry    C12H15NO3
 Framework group  C1[X(C12H15NO3)]
 Deg. of freedom    87
 Full point group                 C1      NOp   1
 Rotational constants (GHZ):      1.4203410      0.2068585      0.1812478
 Leave Link  202 at Fri Nov  3 00:43:13 2017, MaxMem=  3758096384 cpu:         0.0
 (Enter /share/apps/gaussian/g09_D01/g09/l301.exe)
 Standard basis: 6-311++G(d,p) (5D, 7F)
 Ernie: Thresh=  0.10000D-02 Tol=  0.10000D-05 Strict=F.
   457 basis functions,   711 primitive gaussians,   473 cartesian basis functions
    59 alpha electrons       59 beta electrons
       nuclear repulsion energy      1044.6596830109 Hartrees.
 IExCor= 4639 DFT=T Ex+Corr=wB97XD ExCW=0 ScaHFX=  1.000000
 ScaDFX=  1.000000  1.000000  1.000000  1.000000 ScalE2=  1.000000  1.000000
 IRadAn=      0 IRanWt=     -1 IRanGd=            0 ICorTp=0 IEmpDi=121
  HFx wShort=  0.000000 wLong=  0.200000 cFull=  0.222036 cShort=  0.000000 cLong=  0.777964
  DFx wShort=  0.000000 wLong=  0.200000 cFull=  0.000000 cShort=  0.000000 cLong=  1.000000
 NAtoms=   31 NActive=   31 NUniq=   31 SFac= 1.00D+00 NAtFMM=   60 NAOKFM=F Big=F
 Integral buffers will be    131072 words long.
 Raffenetti 1 integral format.
 Two-electron integral symmetry is turned off.
 R6Disp:  Grimme-D2 Dispersion energy=       -0.0177918907 Hartrees.
 Nuclear repulsion after empirical dispersion term =     1044.6418911202 Hartrees.
 Leave Link  301 at Fri Nov  3 00:43:13 2017, MaxMem=  3758096384 cpu:         0.1
 (Enter /share/apps/gaussian/g09_D01/g09/l302.exe)
 NPDir=0 NMtPBC=     1 NCelOv=     1 NCel=       1 NClECP=     1 NCelD=      1
         NCelK=      1 NCelE2=     1 NClLst=     1 CellRange=     0.0.
 One-electron integrals computed using PRISM.
 NBasis=   457 RedAO= T EigKep=  1.04D-06  NBF=   457
 NBsUse=   454 1.00D-06 EigRej=  4.31D-07 NBFU=   454
 Precomputing XC quadrature grid using
 IXCGrd= 4 IRadAn=           0 IRanWt=          -1 IRanGd=           0 AccXCQ= 0.00D+00.
 Generated NRdTot=       0 NPtTot=           0 NUsed=           0 NTot=          32
 NSgBfM=   469   469   469   469   469 MxSgAt=    31 MxSgA2=    31.
 Leave Link  302 at Fri Nov  3 00:43:13 2017, MaxMem=  3758096384 cpu:         2.0
 (Enter /share/apps/gaussian/g09_D01/g09/l308.exe)
 Leave Link  308 at Fri Nov  3 00:43:13 2017, MaxMem=  3758096384 cpu:         0.3
 (Enter /share/apps/gaussian/g09_D01/g09/l303.exe)
 DipDrv:  MaxL=1.
 Leave Link  303 at Fri Nov  3 00:43:13 2017, MaxMem=  3758096384 cpu:         0.2
 (Enter /share/apps/gaussian/g09_D01/g09/l401.exe)
 ExpMin= 3.60D-02 ExpMax= 8.59D+03 ExpMxC= 1.30D+03 IAcc=3 IRadAn=         5 AccDes= 0.00D+00
 Harris functional with IExCor= 4639 and IRadAn=       5 diagonalized for initial guess.
 HarFok:  IExCor= 4639 AccDes= 0.00D+00 IRadAn=         5 IDoV= 1 UseB2=F ITyADJ=14
 ICtDFT=  3500011 ScaDFX=  1.000000  1.000000  1.000000  1.000000
 FoFCou: FMM=F IPFlag=           0 FMFlag=      100000 FMFlg1=           0
         NFxFlg=           0 DoJE=T BraDBF=F KetDBF=T FulRan=T
         wScrn=  0.000000 ICntrl=     500 IOpCl=  0 I1Cent=   200000004 NGrid=           0
         NMat0=    1 NMatS0=      1 NMatT0=    0 NMatD0=    1 NMtDS0=    0 NMtDT0=    0
 Symmetry not used in FoFCou.
 Harris En= -715.030926557412    
 JPrj=0 DoOrth=F DoCkMO=F.
 Leave Link  401 at Fri Nov  3 00:43:21 2017, MaxMem=  3758096384 cpu:        29.7
 (Enter /share/apps/gaussian/g09_D01/g09/l502.exe)
 Closed shell SCF:
 Using DIIS extrapolation, IDIIS=  1040.
 Two-electron integral symmetry not used.
 IVT=      695475 IEndB=      695475 NGot=  3758096384 MDV=  3757641752
 LenX=  3757641752 LenY=  3757417550
 Requested convergence on RMS density matrix=1.00D-08 within 128 cycles.
 Requested convergence on MAX density matrix=1.00D-06.
 Requested convergence on             energy=1.00D-06.
 No special actions if energy rises.
 Fock matrices will be formed incrementally for  20 cycles.

 Cycle   1  Pass 1  IDiag  1:
 FoFJK:  IHMeth= 1 ICntrl=       0 DoSepK=T KAlg= 0 I1Cent=   0 FoldK=F
 IRaf=         1 NMat=   1 IRICut=       1 DoRegI=T DoRafI=F ISym2E= 0.
 FoFCou: FMM=F IPFlag=           0 FMFlag=      100000 FMFlg1=           0
         NFxFlg=           0 DoJE=T BraDBF=F KetDBF=F FulRan=T
         wScrn=  0.000000 ICntrl=     500 IOpCl=  0 I1Cent=           0 NGrid=           0
         NMat0=    1 NMatS0=      1 NMatT0=    0 NMatD0=    1 NMtDS0=    0 NMtDT0=    0
 Symmetry not used in FoFCou.
 E= -746.376418886802    
 DIIS: error= 9.46D-02 at cycle   1 NSaved=   1.
 NSaved= 1 IEnMin= 1 EnMin= -746.376418886802     IErMin= 1 ErrMin= 9.46D-02
 ErrMax= 9.46D-02  0.00D+00 EMaxC= 1.00D-01 BMatC= 1.68D+00 BMatP= 1.68D+00
 IDIUse=3 WtCom= 5.36D-02 WtEn= 9.46D-01
 Coeff-Com:  0.100D+01
 Coeff-En:   0.100D+01
 Coeff:      0.100D+01
 Gap=     0.305 Goal=   None    Shift=    0.000
 GapD=    0.305 DampG=1.000 DampE=0.500 DampFc=0.5000 IDamp=-1.
 Damping current iteration by 5.00D-01
 RMSDP=4.05D-02 MaxDP=5.30D+00              OVMax= 1.59D-01

 Cycle   2  Pass 1  IDiag  1:
 RMSU=  7.02D-03    CP:  8.08D-01
 E= -746.506371006515     Delta-E=       -0.129952119712 Rises=F Damp=T
 DIIS: error= 4.24D-02 at cycle   2 NSaved=   2.
 NSaved= 2 IEnMin= 2 EnMin= -746.506371006515     IErMin= 2 ErrMin= 4.24D-02
 ErrMax= 4.24D-02  0.00D+00 EMaxC= 1.00D-01 BMatC= 3.34D-01 BMatP= 1.68D+00
 IDIUse=3 WtCom= 5.76D-01 WtEn= 4.24D-01
 Coeff-Com: -0.460D+00 0.146D+01
 Coeff-En:   0.000D+00 0.100D+01
 Coeff:     -0.265D+00 0.127D+01
 Gap=     0.301 Goal=   None    Shift=    0.000
 RMSDP=1.82D-02 MaxDP=2.47D+00 DE=-1.30D-01 OVMax= 1.68D-01

 Cycle   3  Pass 1  IDiag  1:
 RMSU=  4.36D-03    CP:  6.32D-01  1.36D+00
 E= -746.600779381724     Delta-E=       -0.094408375209 Rises=F Damp=F
 DIIS: error= 1.44D-02 at cycle   3 NSaved=   3.
 NSaved= 3 IEnMin= 3 EnMin= -746.600779381724     IErMin= 3 ErrMin= 1.44D-02
 ErrMax= 1.44D-02  0.00D+00 EMaxC= 1.00D-01 BMatC= 8.87D-02 BMatP= 3.34D-01
 IDIUse=3 WtCom= 8.56D-01 WtEn= 1.44D-01
 Coeff-Com: -0.298D+00 0.654D+00 0.644D+00
 Coeff-En:   0.000D+00 0.000D+00 0.100D+01
 Coeff:     -0.255D+00 0.560D+00 0.696D+00
 Gap=     0.289 Goal=   None    Shift=    0.000
 RMSDP=5.36D-03 MaxDP=5.24D-01 DE=-9.44D-02 OVMax= 6.53D-02

 Cycle   4  Pass 1  IDiag  1:
 RMSU=  2.19D-03    CP:  5.88D-01  1.50D+00  5.10D-01
 E= -746.663218203403     Delta-E=       -0.062438821680 Rises=F Damp=F
 DIIS: error= 3.85D-03 at cycle   4 NSaved=   4.
 NSaved= 4 IEnMin= 4 EnMin= -746.663218203403     IErMin= 4 ErrMin= 3.85D-03
 ErrMax= 3.85D-03  0.00D+00 EMaxC= 1.00D-01 BMatC= 8.10D-03 BMatP= 8.87D-02
 IDIUse=3 WtCom= 9.61D-01 WtEn= 3.85D-02
 Coeff-Com: -0.115D+00 0.250D+00 0.373D+00 0.492D+00
 Coeff-En:   0.000D+00 0.000D+00 0.183D-01 0.982D+00
 Coeff:     -0.110D+00 0.240D+00 0.359D+00 0.511D+00
 Gap=     0.278 Goal=   None    Shift=    0.000
 RMSDP=1.25D-03 MaxDP=1.13D-01 DE=-6.24D-02 OVMax= 1.67D-02

 Cycle   5  Pass 1  IDiag  1:
 RMSU=  5.34D-04    CP:  5.96D-01  1.50D+00  6.17D-01  6.84D-01
 E= -746.669452290745     Delta-E=       -0.006234087342 Rises=F Damp=F
 DIIS: error= 5.24D-04 at cycle   5 NSaved=   5.
 NSaved= 5 IEnMin= 5 EnMin= -746.669452290745     IErMin= 5 ErrMin= 5.24D-04
 ErrMax= 5.24D-04  0.00D+00 EMaxC= 1.00D-01 BMatC= 1.35D-04 BMatP= 8.10D-03
 IDIUse=3 WtCom= 9.95D-01 WtEn= 5.24D-03
 Coeff-Com:  0.419D-02-0.970D-02 0.379D-01 0.164D+00 0.803D+00
 Coeff-En:   0.000D+00 0.000D+00 0.000D+00 0.000D+00 0.100D+01
 Coeff:      0.417D-02-0.965D-02 0.377D-01 0.163D+00 0.804D+00
 Gap=     0.278 Goal=   None    Shift=    0.000
 RMSDP=4.02D-04 MaxDP=3.75D-02 DE=-6.23D-03 OVMax= 3.50D-03

 Cycle   6  Pass 1  IDiag  1:
 RMSU=  1.97D-04    CP:  5.93D-01  1.48D+00  6.28D-01  7.76D-01  9.27D-01
 E= -746.669589813956     Delta-E=       -0.000137523211 Rises=F Damp=F
 DIIS: error= 3.45D-04 at cycle   6 NSaved=   6.
 NSaved= 6 IEnMin= 6 EnMin= -746.669589813956     IErMin= 6 ErrMin= 3.45D-04
 ErrMax= 3.45D-04  0.00D+00 EMaxC= 1.00D-01 BMatC= 3.74D-05 BMatP= 1.35D-04
 IDIUse=3 WtCom= 9.97D-01 WtEn= 3.45D-03
 Coeff-Com:  0.207D-01-0.451D-01-0.395D-01-0.236D-02 0.402D+00 0.665D+00
 Coeff-En:   0.000D+00 0.000D+00 0.000D+00 0.000D+00 0.000D+00 0.100D+01
 Coeff:      0.207D-01-0.450D-01-0.393D-01-0.235D-02 0.400D+00 0.666D+00
 Gap=     0.280 Goal=   None    Shift=    0.000
 RMSDP=1.10D-04 MaxDP=7.01D-03 DE=-1.38D-04 OVMax= 2.81D-03

 Cycle   7  Pass 1  IDiag  1:
 RMSU=  5.35D-05    CP:  5.93D-01  1.48D+00  6.26D-01  7.97D-01  1.06D+00
                    CP:  9.97D-01
 E= -746.669630375154     Delta-E=       -0.000040561197 Rises=F Damp=F
 DIIS: error= 1.13D-04 at cycle   7 NSaved=   7.
 NSaved= 7 IEnMin= 7 EnMin= -746.669630375154     IErMin= 7 ErrMin= 1.13D-04
 ErrMax= 1.13D-04  0.00D+00 EMaxC= 1.00D-01 BMatC= 3.17D-06 BMatP= 3.74D-05
 IDIUse=3 WtCom= 9.99D-01 WtEn= 1.13D-03
 Coeff-Com:  0.540D-02-0.116D-01-0.146D-01-0.188D-01 0.201D-01 0.225D+00
 Coeff-Com:  0.795D+00
 Coeff-En:   0.000D+00 0.000D+00 0.000D+00 0.000D+00 0.000D+00 0.000D+00
 Coeff-En:   0.100D+01
 Coeff:      0.539D-02-0.116D-01-0.146D-01-0.188D-01 0.200D-01 0.225D+00
 Coeff:      0.795D+00
 Gap=     0.280 Goal=   None    Shift=    0.000
 RMSDP=4.30D-05 MaxDP=2.88D-03 DE=-4.06D-05 OVMax= 7.86D-04

 Cycle   8  Pass 1  IDiag  1:
 RMSU=  2.20D-05    CP:  5.93D-01  1.48D+00  6.26D-01  8.05D-01  1.09D+00
                    CP:  1.12D+00  9.58D-01
 E= -746.669635044350     Delta-E=       -0.000004669196 Rises=F Damp=F
 DIIS: error= 5.32D-05 at cycle   8 NSaved=   8.
 NSaved= 8 IEnMin= 8 EnMin= -746.669635044350     IErMin= 8 ErrMin= 5.32D-05
 ErrMax= 5.32D-05  0.00D+00 EMaxC= 1.00D-01 BMatC= 6.44D-07 BMatP= 3.17D-06
 IDIUse=1 WtCom= 1.00D+00 WtEn= 0.00D+00
 Coeff-Com: -0.870D-03 0.197D-02-0.689D-04-0.853D-02-0.613D-01-0.365D-02
 Coeff-Com:  0.352D+00 0.721D+00
 Coeff:     -0.870D-03 0.197D-02-0.689D-04-0.853D-02-0.613D-01-0.365D-02
 Coeff:      0.352D+00 0.721D+00
 Gap=     0.280 Goal=   None    Shift=    0.000
 RMSDP=1.83D-05 MaxDP=2.07D-03 DE=-4.67D-06 OVMax= 6.17D-04

 Cycle   9  Pass 1  IDiag  1:
 RMSU=  1.03D-05    CP:  5.93D-01  1.48D+00  6.27D-01  8.06D-01  1.10D+00
                    CP:  1.16D+00  1.04D+00  1.14D+00
 E= -746.669636153302     Delta-E=       -0.000001108952 Rises=F Damp=F
 DIIS: error= 1.43D-05 at cycle   9 NSaved=   9.
 NSaved= 9 IEnMin= 9 EnMin= -746.669636153302     IErMin= 9 ErrMin= 1.43D-05
 ErrMax= 1.43D-05  0.00D+00 EMaxC= 1.00D-01 BMatC= 8.28D-08 BMatP= 6.44D-07
 IDIUse=1 WtCom= 1.00D+00 WtEn= 0.00D+00
 Coeff-Com: -0.113D-02 0.246D-02 0.269D-02 0.906D-03-0.234D-01-0.353D-01
 Coeff-Com: -0.348D-01 0.222D+00 0.866D+00
 Coeff:     -0.113D-02 0.246D-02 0.269D-02 0.906D-03-0.234D-01-0.353D-01
 Coeff:     -0.348D-01 0.222D+00 0.866D+00
 Gap=     0.280 Goal=   None    Shift=    0.000
 RMSDP=1.12D-05 MaxDP=7.70D-04 DE=-1.11D-06 OVMax= 1.97D-04

 Cycle  10  Pass 1  IDiag  1:
 RMSU=  5.23D-06    CP:  5.93D-01  1.48D+00  6.27D-01  8.06D-01  1.11D+00
                    CP:  1.18D+00  1.08D+00  1.34D+00  1.18D+00
 E= -746.669636318052     Delta-E=       -0.000000164750 Rises=F Damp=F
 DIIS: error= 6.72D-06 at cycle  10 NSaved=  10.
 NSaved=10 IEnMin=10 EnMin= -746.669636318052     IErMin=10 ErrMin= 6.72D-06
 ErrMax= 6.72D-06  0.00D+00 EMaxC= 1.00D-01 BMatC= 9.75D-09 BMatP= 8.28D-08
 IDIUse=1 WtCom= 1.00D+00 WtEn= 0.00D+00
 Coeff-Com: -0.146D-03 0.311D-03 0.718D-03 0.144D-02 0.539D-03-0.835D-02
 Coeff-Com: -0.622D-01-0.114D-01 0.277D+00 0.802D+00
 Coeff:     -0.146D-03 0.311D-03 0.718D-03 0.144D-02 0.539D-03-0.835D-02
 Coeff:     -0.622D-01-0.114D-01 0.277D+00 0.802D+00
 Gap=     0.280 Goal=   None    Shift=    0.000
 RMSDP=3.46D-06 MaxDP=2.58D-04 DE=-1.65D-07 OVMax= 7.47D-05

 Cycle  11  Pass 1  IDiag  1:
 RMSU=  1.18D-06    CP:  5.93D-01  1.48D+00  6.28D-01  8.06D-01  1.11D+00
                    CP:  1.19D+00  1.09D+00  1.40D+00  1.27D+00  1.24D+00
 E= -746.669636337867     Delta-E=       -0.000000019815 Rises=F Damp=F
 DIIS: error= 2.16D-06 at cycle  11 NSaved=  11.
 NSaved=11 IEnMin=11 EnMin= -746.669636337867     IErMin=11 ErrMin= 2.16D-06
 ErrMax= 2.16D-06  0.00D+00 EMaxC= 1.00D-01 BMatC= 1.63D-09 BMatP= 9.75D-09
 IDIUse=1 WtCom= 1.00D+00 WtEn= 0.00D+00
 Coeff-Com:  0.105D-03-0.228D-03-0.953D-04 0.513D-03 0.346D-02 0.195D-02
 Coeff-Com: -0.197D-01-0.321D-01-0.361D-01 0.288D+00 0.794D+00
 Coeff:      0.105D-03-0.228D-03-0.953D-04 0.513D-03 0.346D-02 0.195D-02
 Coeff:     -0.197D-01-0.321D-01-0.361D-01 0.288D+00 0.794D+00
 Gap=     0.280 Goal=   None    Shift=    0.000
 RMSDP=1.45D-06 MaxDP=1.07D-04 DE=-1.98D-08 OVMax= 3.10D-05

 Cycle  12  Pass 1  IDiag  1:
 RMSU=  5.65D-07    CP:  5.93D-01  1.48D+00  6.28D-01  8.06D-01  1.11D+00
                    CP:  1.19D+00  1.09D+00  1.44D+00  1.32D+00  1.35D+00
                    CP:  1.10D+00
 E= -746.669636340964     Delta-E=       -0.000000003097 Rises=F Damp=F
 DIIS: error= 9.22D-07 at cycle  12 NSaved=  12.
 NSaved=12 IEnMin=12 EnMin= -746.669636340964     IErMin=12 ErrMin= 9.22D-07
 ErrMax= 9.22D-07  0.00D+00 EMaxC= 1.00D-01 BMatC= 2.06D-10 BMatP= 1.63D-09
 IDIUse=1 WtCom= 1.00D+00 WtEn= 0.00D+00
 Coeff-Com:  0.438D-04-0.949D-04-0.928D-04 0.591D-04 0.109D-02 0.148D-02
 Coeff-Com:  0.104D-02-0.744D-02-0.479D-01-0.839D-02 0.253D+00 0.807D+00
 Coeff:      0.438D-04-0.949D-04-0.928D-04 0.591D-04 0.109D-02 0.148D-02
 Coeff:      0.104D-02-0.744D-02-0.479D-01-0.839D-02 0.253D+00 0.807D+00
 Gap=     0.280 Goal=   None    Shift=    0.000
 RMSDP=5.89D-07 MaxDP=5.10D-05 DE=-3.10D-09 OVMax= 1.45D-05

 Cycle  13  Pass 1  IDiag  1:
 RMSU=  1.79D-07    CP:  5.93D-01  1.48D+00  6.28D-01  8.06D-01  1.11D+00
                    CP:  1.19D+00  1.09D+00  1.45D+00  1.33D+00  1.39D+00
                    CP:  1.23D+00  1.31D+00
 E= -746.669636341370     Delta-E=       -0.000000000405 Rises=F Damp=F
 DIIS: error= 5.36D-07 at cycle  13 NSaved=  13.
 NSaved=13 IEnMin=13 EnMin= -746.669636341370     IErMin=13 ErrMin= 5.36D-07
 ErrMax= 5.36D-07  0.00D+00 EMaxC= 1.00D-01 BMatC= 4.17D-11 BMatP= 2.06D-10
 IDIUse=1 WtCom= 1.00D+00 WtEn= 0.00D+00
 Coeff-Com:  0.275D-06-0.180D-06-0.229D-04-0.586D-04-0.187D-03 0.175D-03
 Coeff-Com:  0.408D-02 0.299D-02-0.130D-01-0.589D-01-0.428D-01 0.332D+00
 Coeff-Com:  0.776D+00
 Coeff:      0.275D-06-0.180D-06-0.229D-04-0.586D-04-0.187D-03 0.175D-03
 Coeff:      0.408D-02 0.299D-02-0.130D-01-0.589D-01-0.428D-01 0.332D+00
 Coeff:      0.776D+00
 Gap=     0.280 Goal=   None    Shift=    0.000
 RMSDP=2.17D-07 MaxDP=1.58D-05 DE=-4.05D-10 OVMax= 5.80D-06

 Cycle  14  Pass 1  IDiag  1:
 RMSU=  6.26D-08    CP:  5.93D-01  1.48D+00  6.28D-01  8.06D-01  1.11D+00
                    CP:  1.19D+00  1.09D+00  1.45D+00  1.33D+00  1.41D+00
                    CP:  1.28D+00  1.46D+00  1.07D+00
 E= -746.669636341493     Delta-E=       -0.000000000123 Rises=F Damp=F
 DIIS: error= 1.72D-07 at cycle  14 NSaved=  14.
 NSaved=14 IEnMin=14 EnMin= -746.669636341493     IErMin=14 ErrMin= 1.72D-07
 ErrMax= 1.72D-07  0.00D+00 EMaxC= 1.00D-01 BMatC= 4.29D-12 BMatP= 4.17D-11
 IDIUse=1 WtCom= 1.00D+00 WtEn= 0.00D+00
 Coeff-Com: -0.257D-05 0.581D-05 0.156D-05-0.182D-04-0.155D-03-0.865D-04
 Coeff-Com:  0.916D-03 0.134D-02 0.271D-02-0.145D-01-0.347D-01-0.620D-03
 Coeff-Com:  0.225D+00 0.820D+00
 Coeff:     -0.257D-05 0.581D-05 0.156D-05-0.182D-04-0.155D-03-0.865D-04
 Coeff:      0.916D-03 0.134D-02 0.271D-02-0.145D-01-0.347D-01-0.620D-03
 Coeff:      0.225D+00 0.820D+00
 Gap=     0.280 Goal=   None    Shift=    0.000
 RMSDP=5.38D-08 MaxDP=3.11D-06 DE=-1.23D-10 OVMax= 2.54D-06

 Cycle  15  Pass 1  IDiag  1:
 RMSU=  2.56D-08    CP:  5.93D-01  1.48D+00  6.28D-01  8.06D-01  1.11D+00
                    CP:  1.19D+00  1.09D+00  1.45D+00  1.33D+00  1.41D+00
                    CP:  1.29D+00  1.50D+00  1.12D+00  1.23D+00
 E= -746.669636341510     Delta-E=       -0.000000000017 Rises=F Damp=F
 DIIS: error= 8.20D-08 at cycle  15 NSaved=  15.
 NSaved=15 IEnMin=15 EnMin= -746.669636341510     IErMin=15 ErrMin= 8.20D-08
 ErrMax= 8.20D-08  0.00D+00 EMaxC= 1.00D-01 BMatC= 8.24D-13 BMatP= 4.29D-12
 IDIUse=1 WtCom= 1.00D+00 WtEn= 0.00D+00
 Coeff-Com: -0.160D-05 0.339D-05 0.645D-05 0.553D-05-0.309D-04-0.796D-04
 Coeff-Com: -0.428D-03-0.217D-03 0.364D-02 0.462D-02-0.500D-02-0.626D-01
 Coeff-Com: -0.762D-01 0.214D+00 0.922D+00
 Coeff:     -0.160D-05 0.339D-05 0.645D-05 0.553D-05-0.309D-04-0.796D-04
 Coeff:     -0.428D-03-0.217D-03 0.364D-02 0.462D-02-0.500D-02-0.626D-01
 Coeff:     -0.762D-01 0.214D+00 0.922D+00
 Gap=     0.280 Goal=   None    Shift=    0.000
 RMSDP=3.31D-08 MaxDP=2.10D-06 DE=-1.71D-11 OVMax= 1.45D-06

 Cycle  16  Pass 1  IDiag  1:
 RMSU=  9.09D-09    CP:  5.93D-01  1.48D+00  6.28D-01  8.06D-01  1.11D+00
                    CP:  1.19D+00  1.09D+00  1.45D+00  1.33D+00  1.41D+00
                    CP:  1.30D+00  1.52D+00  1.18D+00  1.40D+00  1.17D+00
 E= -746.669636341484     Delta-E=        0.000000000025 Rises=F Damp=F
 DIIS: error= 3.74D-08 at cycle  16 NSaved=  16.
 NSaved=16 IEnMin=15 EnMin= -746.669636341510     IErMin=16 ErrMin= 3.74D-08
 ErrMax= 3.74D-08  0.00D+00 EMaxC= 1.00D-01 BMatC= 1.17D-13 BMatP= 8.24D-13
 IDIUse=1 WtCom= 1.00D+00 WtEn= 0.00D+00
 Coeff-Com: -0.558D-07 0.679D-07 0.102D-05 0.415D-05 0.177D-04-0.547D-05
 Coeff-Com: -0.187D-03-0.295D-03 0.331D-03 0.295D-02 0.473D-02-0.703D-02
 Coeff-Com: -0.414D-01-0.111D+00 0.114D+00 0.104D+01
 Coeff:     -0.558D-07 0.679D-07 0.102D-05 0.415D-05 0.177D-04-0.547D-05
 Coeff:     -0.187D-03-0.295D-03 0.331D-03 0.295D-02 0.473D-02-0.703D-02
 Coeff:     -0.414D-01-0.111D+00 0.114D+00 0.104D+01
 Gap=     0.280 Goal=   None    Shift=    0.000
 RMSDP=1.11D-08 MaxDP=8.16D-07 DE= 2.52D-11 OVMax= 6.64D-07

 Cycle  17  Pass 1  IDiag  1:
 RMSU=  3.10D-09    CP:  5.93D-01  1.48D+00  6.28D-01  8.06D-01  1.11D+00
                    CP:  1.19D+00  1.09D+00  1.45D+00  1.33D+00  1.41D+00
                    CP:  1.30D+00  1.52D+00  1.18D+00  1.45D+00  1.32D+00
                    CP:  1.34D+00
 E= -746.669636341480     Delta-E=        0.000000000004 Rises=F Damp=F
 DIIS: error= 1.44D-08 at cycle  17 NSaved=  17.
 NSaved=17 IEnMin=15 EnMin= -746.669636341510     IErMin=17 ErrMin= 1.44D-08
 ErrMax= 1.44D-08  0.00D+00 EMaxC= 1.00D-01 BMatC= 2.78D-14 BMatP= 1.17D-13
 IDIUse=1 WtCom= 1.00D+00 WtEn= 0.00D+00
 Coeff-Com:  0.206D-06-0.444D-06-0.685D-06 0.628D-06 0.121D-04 0.111D-04
 Coeff-Com:  0.103D-04-0.952D-04-0.458D-03 0.341D-03 0.234D-02 0.758D-02
 Coeff-Com: -0.215D-02-0.827D-01-0.114D+00 0.398D+00 0.791D+00
 Coeff:      0.206D-06-0.444D-06-0.685D-06 0.628D-06 0.121D-04 0.111D-04
 Coeff:      0.103D-04-0.952D-04-0.458D-03 0.341D-03 0.234D-02 0.758D-02
 Coeff:     -0.215D-02-0.827D-01-0.114D+00 0.398D+00 0.791D+00
 Gap=     0.280 Goal=   None    Shift=    0.000
 RMSDP=4.20D-09 MaxDP=2.85D-07 DE= 4.32D-12 OVMax= 1.91D-07

 SCF Done:  E(RwB97XD) =  -746.669636341     A.U. after   17 cycles
            NFock= 17  Conv=0.42D-08     -V/T= 2.0045
 KE= 7.433277312160D+02 PE=-3.831911065905D+03 EE= 1.297271807227D+03
 Leave Link  502 at Fri Nov  3 00:49:31 2017, MaxMem=  3758096384 cpu:      1481.0
 (Enter /share/apps/gaussian/g09_D01/g09/l801.exe)
 DoSCS=F DFT=T ScalE2(SS,OS)=  1.000000  1.000000
 ExpMin= 3.60D-02 ExpMax= 8.59D+03 ExpMxC= 1.30D+03 IAcc=3 IRadAn=         5 AccDes= 0.00D+00
 HarFok:  IExCor=  205 AccDes= 0.00D+00 IRadAn=         5 IDoV=-2 UseB2=F ITyADJ=14
 ICtDFT= 12500011 ScaDFX=  1.000000  1.000000  1.000000  1.000000
 Largest valence mixing into a core orbital is  5.73D-05
 Largest core mixing into a valence orbital is  1.60D-05
 Range of M.O.s used for correlation:    17   454
 NBasis=   457 NAE=    59 NBE=    59 NFC=    16 NFV=     0
 NROrb=    438 NOA=    43 NOB=    43 NVA=   395 NVB=   395

 **** Warning!!: The largest alpha MO coefficient is  0.25033788D+03

 Leave Link  801 at Fri Nov  3 00:49:31 2017, MaxMem=  3758096384 cpu:         1.1
 (Enter /share/apps/gaussian/g09_D01/g09/l914.exe)
 RHF ground state
 MDV=  3758096384 DFT=T DoStab=F Mixed=T DoRPA=T DoScal=F NonHer=T
 Would need an additional         29175500000 words for in-memory AO integral storage.
 Making orbital integer symmetry assigments:
    16 initial guesses have been made.
 Convergence on wavefunction:    0.001000000000000
 Davidson Disk Diagonalization:  ConvIn= 1.00D-03 SkipCon=T Conv= 1.00D-03.
 Max sub-space:   200 roots to seek:    16 dimension of matrix:        33970
 Iteration     1 Dimension    16 NMult     0 NNew     16
 CISAX will form    16 AO SS matrices at one time.
 NMat=    16 NSing=    16 JSym2X= 0.
 FoFJK:  IHMeth= 1 ICntrl=       0 DoSepK=T KAlg= 0 I1Cent=   0 FoldK=F
 IRaf=         1 NMat=  32 IRICut=       1 DoRegI=T DoRafI=F ISym2E= 0.
 FoFCou: FMM=F IPFlag=           0 FMFlag=      100000 FMFlg1=           0
         NFxFlg=           0 DoJE=F BraDBF=F KetDBF=F FulRan=T
         wScrn=  0.000000 ICntrl=     500 IOpCl=  0 I1Cent=           0 NGrid=           0
         NMat0=   16 NMatS0=     16 NMatT0=    0 NMatD0=   16 NMtDS0=    0 NMtDT0=    0
 Symmetry not used in FoFCou.
 New state      2 was old state     10
 New state      4 was old state      2
 Excitation Energies [eV] at current iteration:
 Root      1 :     4.510575424647508
 Root      2 :     4.568399172503071
 Root      3 :     5.287550745587257
 Root      4 :     5.682507359133576
 Root      5 :     5.775637309973975
 Root      6 :     6.091594528240820
 Root      7 :     6.481949581706133
 Root      8 :     6.588508593047822
 Root      9 :     6.627371642451365
 Root     10 :     6.840670763104944
 Root     11 :     6.953532290362753
 Root     12 :     6.998187062708157
 Root     13 :     7.206028093003986
 Root     14 :     7.372036174788363
 Root     15 :     7.521398292883161
 Root     16 :     7.598525530792430
 Iteration     2 Dimension    24 NMult    16 NNew      8
 CISAX will form     8 AO SS matrices at one time.
 NMat=     8 NSing=     8 JSym2X= 0.
 Root      1 not converged, maximum delta is    0.057680012611805
 Root      2 not converged, maximum delta is    0.053679430675257
 Root      3 not converged, maximum delta is    0.110000505913638
 Root      4 not converged, maximum delta is    0.076098605955123
 Excitation Energies [eV] at current iteration:
 Root      1 :     3.992365716810283   Change is   -0.518209707837225
 Root      2 :     4.284705597454096   Change is   -0.283693575048975
 Root      3 :     4.662558655332361   Change is   -0.624992090254896
 Root      4 :     5.424173859325317   Change is   -0.258333499808258
 Iteration     3 Dimension    32 NMult    24 NNew      8
 CISAX will form     8 AO SS matrices at one time.
 NMat=     8 NSing=     8 JSym2X= 0.
 Root      1 not converged, maximum delta is    0.022997834630352
 Root      2 not converged, maximum delta is    0.008831548409727
 Root      3 not converged, maximum delta is    0.072941715666651
 Root      4 not converged, maximum delta is    0.111399325985248
 Excitation Energies [eV] at current iteration:
 Root      1 :     3.951030629569902   Change is   -0.041335087240382
 Root      2 :     4.270118964819182   Change is   -0.014586632634914
 Root      3 :     4.592240193418609   Change is   -0.070318461913752
 Root      4 :     5.387467871443888   Change is   -0.036705987881430
 Iteration     4 Dimension    40 NMult    32 NNew      8
 CISAX will form     8 AO SS matrices at one time.
 NMat=     8 NSing=     8 JSym2X= 0.
 Root      1 not converged, maximum delta is    0.014906056961429
 Root      2 not converged, maximum delta is    0.002945947413660
 Root      3 not converged, maximum delta is    0.026771789929764
 Root      4 not converged, maximum delta is    0.457583208472283
 Excitation Energies [eV] at current iteration:
 Root      1 :     3.942866992154146   Change is   -0.008163637415755
 Root      2 :     4.269191287770082   Change is   -0.000927677049100
 Root      3 :     4.576063730362560   Change is   -0.016176463056048
 Root      4 :     5.159734696320919   Change is   -0.227733175122968
 Iteration     5 Dimension    48 NMult    40 NNew      8
 CISAX will form     8 AO SS matrices at one time.
 NMat=     8 NSing=     8 JSym2X= 0.
 Root      1 not converged, maximum delta is    0.004170878624465
 Root      2 not converged, maximum delta is    0.001254482649223
 Root      3 not converged, maximum delta is    0.008156221677599
 Root      4 not converged, maximum delta is    0.059652233599015
 Excitation Energies [eV] at current iteration:
 Root      1 :     3.941922329618487   Change is   -0.000944662535659
 Root      2 :     4.269093194973235   Change is   -0.000098092796848
 Root      3 :     4.574125792582784   Change is   -0.001937937779777
 Root      4 :     5.028439260140020   Change is   -0.131295436180899
 Iteration     6 Dimension    56 NMult    48 NNew      8
 CISAX will form     8 AO SS matrices at one time.
 NMat=     8 NSing=     8 JSym2X= 0.
 Root      1 not converged, maximum delta is    0.001174183161926
 Root      2 has converged.
 Root      3 not converged, maximum delta is    0.002108807110488
 Root      4 not converged, maximum delta is    0.019642776802006
 Excitation Energies [eV] at current iteration:
 Root      1 :     3.941803636915415   Change is   -0.000118692703072
 Root      2 :     4.269084251864882   Change is   -0.000008943108352
 Root      3 :     4.573902872047036   Change is   -0.000222920535747
 Root      4 :     5.006686753457747   Change is   -0.021752506682274
 Iteration     7 Dimension    62 NMult    56 NNew      6
 CISAX will form     6 AO SS matrices at one time.
 NMat=     6 NSing=     6 JSym2X= 0.
 Root      1 has converged.
 Root      2 has converged.
 Root      3 has converged.
 Root      4 not converged, maximum delta is    0.005055396765894
 Excitation Energies [eV] at current iteration:
 Root      1 :     3.941794938134688   Change is   -0.000008698780727
 Root      2 :     4.269084168954362   Change is   -0.000000082910520
 Root      3 :     4.573877741124955   Change is   -0.000025130922081
 Root      4 :     5.004150557249038   Change is   -0.002536196208709
 Iteration     8 Dimension    64 NMult    62 NNew      2
 CISAX will form     2 AO SS matrices at one time.
 NMat=     2 NSing=     2 JSym2X= 0.
 Root      1 has converged.
 Root      2 has converged.
 Root      3 has converged.
 Root      4 not converged, maximum delta is    0.001542141407330
 Excitation Energies [eV] at current iteration:
 Root      1 :     3.941794846663564   Change is   -0.000000091471123
 Root      2 :     4.269084159858298   Change is   -0.000000009096065
 Root      3 :     4.573877277011869   Change is   -0.000000464113086
 Root      4 :     5.003939449487723   Change is   -0.000211107761315
 Iteration     9 Dimension    66 NMult    64 NNew      2
 CISAX will form     2 AO SS matrices at one time.
 NMat=     2 NSing=     2 JSym2X= 0.
 Root      1 has converged.
 Root      2 has converged.
 Root      3 has converged.
 Root      4 has converged.
 Excitation Energies [eV] at current iteration:
 Root      1 :     3.941794828787861   Change is   -0.000000017875704
 Root      2 :     4.269084158894357   Change is   -0.000000000963941
 Root      3 :     4.573877259368827   Change is   -0.000000017643042
 Root      4 :     5.003916502471167   Change is   -0.000022947016555
 Convergence achieved on expansion vectors.
 ***********************************************************************
 Excited states from <AA,BB:AA,BB> singles matrix:
 ***********************************************************************
 
 1PDM for each excited state written to RWF  633
 Ground to excited state transition densities written to RWF  633
 Ground to excited state transition electric dipole moments (Au):
       state          X           Y           Z        Dip. S.      Osc.
         1         0.1251     -0.9240      2.5040      7.1391      0.6894
         2        -0.0296     -0.0038      0.0076      0.0010      0.0001
         3         0.1079     -0.5099      1.2805      1.9114      0.2142
         4        -0.2338      0.3945      0.3797      0.3544      0.0435
 Ground to excited state transition velocity dipole moments (Au):
       state          X           Y           Z        Dip. S.      Osc.
         1        -0.0191      0.1345     -0.3571      0.1460      0.6717
         2         0.0051      0.0007     -0.0009      0.0000      0.0001
         3        -0.0174      0.0823     -0.2104      0.0514      0.2037
         4         0.0412     -0.0714     -0.0587      0.0102      0.0371
 Ground to excited state transition magnetic dipole moments (Au):
       state          X           Y           Z
         1         4.1666      1.3241      0.2726
         2         0.1534     -0.3868     -0.0648
         3         3.5813      1.2125      0.2314
         4         0.8819      0.3151      0.2431
 Ground to excited state transition velocity quadrupole moments (Au):
       state          XX          YY          ZZ          XY          XZ          YZ
         1        -0.1321     -3.4501     -0.4860      0.8214     -1.2981      4.4238
         2         0.0668     -0.0520     -0.0644     -0.0806     -0.0216      0.0329
         3        -0.1282     -1.8317      0.8938      0.5253     -0.6038      1.9421
         4         0.3568      1.7918     -1.6306     -0.8625     -0.2785      1.2669
 <0|del|b> * <b|rxdel|0> + <0|del|b> * <b|delr+rdel|0>
 Rotatory Strengths (R) in cgs (10**-40 erg-esu-cm/Gauss)
       state          XX          YY          ZZ    R(velocity)    E-M Angle
         1       -92.3584     78.3773     20.5028      2.1739       89.95
         2        -0.2913      2.1133      0.7218      0.8480       75.21
         3       -20.3702    -72.0129     45.4546    -15.6428       90.74
         4       -11.6291     45.4435    -35.5161     -0.5672       90.26
 1/2[<0|r|b>*<b|rxdel|0> + (<0|rxdel|b>*<b|r|0>)*]
 Rotatory Strengths (R) in cgs (10**-40 erg-esu-cm/Gauss)
       state          XX          YY          ZZ     R(length)
         1      -368.5187    865.1439   -482.6927      4.6442
         2         3.2162     -1.0406      0.3494      0.8417
         3      -273.3755    437.2292   -209.5732    -15.2398
         4       145.8000    -87.9172    -65.2573     -2.4582
  1/2[<0|del|b>*<b|r|0> + (<0|r|b>*<b|del|0>)*] (Au)
       state          X           Y           Z        Dip. S.   Osc.(frdel)
         1        -0.0024     -0.1243     -0.8941      1.0207      0.6805
         2        -0.0002      0.0000      0.0000      0.0002      0.0001
         3        -0.0019     -0.0420     -0.2694      0.3133      0.2089
         4        -0.0096     -0.0282     -0.0223      0.0601      0.0401

 Excitation energies and oscillator strengths:
 
 Excited state symmetry could not be determined.
 Excited State   1:      Singlet-?Sym    3.9418 eV  314.54 nm  f=0.6894  <S**2>=0.000
      59 -> 60         0.68034
 This state for optimization and/or second-order correction.
 Total Energy, E(TD-HF/TD-KS) =  -746.524778041    
 Copying the excited state density for this state as the 1-particle RhoCI density.
 
 Excited state symmetry could not be determined.
 Excited State   2:      Singlet-?Sym    4.2691 eV  290.42 nm  f=0.0001  <S**2>=0.000
      56 -> 60         0.68444
 
 Excited state symmetry could not be determined.
 Excited State   3:      Singlet-?Sym    4.5739 eV  271.07 nm  f=0.2142  <S**2>=0.000
      57 -> 73        -0.11344
      58 -> 60         0.66173
      59 -> 66         0.15653
 
 Excited state symmetry could not be determined.
 Excited State   4:      Singlet-?Sym    5.0039 eV  247.77 nm  f=0.0435  <S**2>=0.000
      55 -> 60         0.11034
      57 -> 60         0.58280
      58 -> 60        -0.10165
      58 -> 66        -0.15465
      59 -> 66         0.23140
      59 -> 73        -0.10665
 SavETr:  write IOETrn=   770 NScale= 10 NData=  16 NLR=1 NState=    4 LETran=      82.
 Leave Link  914 at Fri Nov  3 01:05:44 2017, MaxMem=  3758096384 cpu:      3887.5
 (Enter /share/apps/gaussian/g09_D01/g09/l601.exe)
 Copying SCF densities to generalized density rwf, IOpCl= 0 IROHF=0.

 **********************************************************************

            Population analysis using the SCF density.

 **********************************************************************

 Alpha  occ. eigenvalues --  -19.28255 -19.23277 -19.21862 -14.49721 -10.37150
 Alpha  occ. eigenvalues --  -10.35528 -10.35287 -10.34966 -10.34590 -10.34329
 Alpha  occ. eigenvalues --  -10.33883 -10.29701 -10.28365 -10.27621 -10.27582
 Alpha  occ. eigenvalues --  -10.27419  -1.17121  -1.13850  -1.09887  -1.09301
 Alpha  occ. eigenvalues --   -0.94898  -0.89540  -0.86266  -0.85553  -0.83875
 Alpha  occ. eigenvalues --   -0.81512  -0.79171  -0.71786  -0.69967  -0.68590
 Alpha  occ. eigenvalues --   -0.65198  -0.62977  -0.61772  -0.59515  -0.58986
 Alpha  occ. eigenvalues --   -0.58298  -0.56749  -0.55860  -0.54145  -0.52768
 Alpha  occ. eigenvalues --   -0.52175  -0.51805  -0.51519  -0.50322  -0.49959
 Alpha  occ. eigenvalues --   -0.49510  -0.48656  -0.46566  -0.46295  -0.46246
 Alpha  occ. eigenvalues --   -0.43936  -0.42696  -0.41715  -0.41415  -0.38677
 Alpha  occ. eigenvalues --   -0.33303  -0.31170  -0.30150  -0.27657
 Alpha virt. eigenvalues --    0.00304   0.02549   0.04189   0.04722   0.05448
 Alpha virt. eigenvalues --    0.05808   0.06314   0.06515   0.07261   0.07707
 Alpha virt. eigenvalues --    0.07899   0.08239   0.08386   0.08866   0.09676
 Alpha virt. eigenvalues --    0.10030   0.10741   0.11671   0.12199   0.12652
 Alpha virt. eigenvalues --    0.13047   0.13552   0.14119   0.14424   0.14694
 Alpha virt. eigenvalues --    0.14835   0.15140   0.15645   0.16165   0.16546
 Alpha virt. eigenvalues --    0.17024   0.17416   0.17480   0.17670   0.18063
 Alpha virt. eigenvalues --    0.18521   0.18868   0.18927   0.19449   0.19948
 Alpha virt. eigenvalues --    0.20083   0.20378   0.20884   0.21451   0.21669
 Alpha virt. eigenvalues --    0.21976   0.22645   0.22939   0.23042   0.23735
 Alpha virt. eigenvalues --    0.23880   0.23995   0.24534   0.25179   0.25299
 Alpha virt. eigenvalues --    0.25552   0.25649   0.26649   0.27104   0.27724
 Alpha virt. eigenvalues --    0.27912   0.28258   0.28840   0.28979   0.29417
 Alpha virt. eigenvalues --    0.29766   0.29957   0.30660   0.31224   0.32034
 Alpha virt. eigenvalues --    0.33010   0.33260   0.33549   0.33665   0.34250
 Alpha virt. eigenvalues --    0.34812   0.35314   0.36269   0.36306   0.36495
 Alpha virt. eigenvalues --    0.37258   0.37861   0.38408   0.38590   0.38975
 Alpha virt. eigenvalues --    0.39289   0.39907   0.40355   0.40640   0.41321
 Alpha virt. eigenvalues --    0.41936   0.42735   0.43030   0.43417   0.44044
 Alpha virt. eigenvalues --    0.44492   0.44805   0.45653   0.46132   0.46640
 Alpha virt. eigenvalues --    0.47817   0.49359   0.50108   0.50707   0.51192
 Alpha virt. eigenvalues --    0.51842   0.52256   0.52889   0.54003   0.55036
 Alpha virt. eigenvalues --    0.55573   0.56872   0.58175   0.58767   0.60869
 Alpha virt. eigenvalues --    0.62605   0.63008   0.63960   0.64450   0.64980
 Alpha virt. eigenvalues --    0.65938   0.67157   0.67279   0.68116   0.68268
 Alpha virt. eigenvalues --    0.69040   0.69293   0.70031   0.70771   0.71459
 Alpha virt. eigenvalues --    0.71566   0.72018   0.72541   0.73229   0.73550
 Alpha virt. eigenvalues --    0.73804   0.75158   0.76503   0.76763   0.77281
 Alpha virt. eigenvalues --    0.77920   0.78385   0.79281   0.80886   0.81171
 Alpha virt. eigenvalues --    0.81512   0.82917   0.84313   0.85335   0.86623
 Alpha virt. eigenvalues --    0.87312   0.88002   0.88929   0.91255   0.92248
 Alpha virt. eigenvalues --    0.93664   0.95704   0.96681   0.96952   0.98601
 Alpha virt. eigenvalues --    0.98734   0.99607   1.02174   1.03137   1.04515
 Alpha virt. eigenvalues --    1.05045   1.05241   1.05814   1.06539   1.08297
 Alpha virt. eigenvalues --    1.09588   1.10371   1.10692   1.11440   1.12060
 Alpha virt. eigenvalues --    1.13095   1.14002   1.14430   1.15356   1.16798
 Alpha virt. eigenvalues --    1.16893   1.18183   1.19685   1.20603   1.22086
 Alpha virt. eigenvalues --    1.23616   1.24141   1.28037   1.30047   1.31127
 Alpha virt. eigenvalues --    1.34578   1.34771   1.36450   1.37474   1.38443
 Alpha virt. eigenvalues --    1.39230   1.39737   1.40812   1.43152   1.43927
 Alpha virt. eigenvalues --    1.47973   1.49666   1.50169   1.51395   1.51907
 Alpha virt. eigenvalues --    1.54460   1.54917   1.56890   1.57351   1.58616
 Alpha virt. eigenvalues --    1.60817   1.61196   1.62185   1.62773   1.63382
 Alpha virt. eigenvalues --    1.64727   1.64792   1.65125   1.66012   1.66830
 Alpha virt. eigenvalues --    1.68991   1.69901   1.70063   1.72513   1.72658
 Alpha virt. eigenvalues --    1.74627   1.76809   1.77355   1.77873   1.78544
 Alpha virt. eigenvalues --    1.79877   1.80685   1.81388   1.82229   1.82525
 Alpha virt. eigenvalues --    1.83048   1.84633   1.86686   1.87134   1.89100
 Alpha virt. eigenvalues --    1.91112   1.93006   1.94029   1.96324   1.97635
 Alpha virt. eigenvalues --    1.98770   1.99401   2.01323   2.02401   2.03826
 Alpha virt. eigenvalues --    2.05382   2.06329   2.07002   2.08014   2.08609
 Alpha virt. eigenvalues --    2.09120   2.09352   2.12216   2.14540   2.16357
 Alpha virt. eigenvalues --    2.17336   2.19105   2.19808   2.20768   2.21908
 Alpha virt. eigenvalues --    2.22719   2.23532   2.24233   2.27009   2.29584
 Alpha virt. eigenvalues --    2.30921   2.32184   2.37243   2.40109   2.41613
 Alpha virt. eigenvalues --    2.43845   2.46565   2.46774   2.49694   2.50151
 Alpha virt. eigenvalues --    2.52367   2.54351   2.54721   2.55882   2.57338
 Alpha virt. eigenvalues --    2.58084   2.59652   2.61190   2.61753   2.62883
 Alpha virt. eigenvalues --    2.63880   2.65882   2.67037   2.69733   2.70991
 Alpha virt. eigenvalues --    2.71246   2.74442   2.75938   2.76449   2.77489
 Alpha virt. eigenvalues --    2.80350   2.81639   2.82080   2.84087   2.84813
 Alpha virt. eigenvalues --    2.85438   2.86538   2.90135   2.90529   2.91555
 Alpha virt. eigenvalues --    2.93631   2.94649   2.95834   2.97491   2.97852
 Alpha virt. eigenvalues --    2.98868   2.99636   3.01630   3.04825   3.07727
 Alpha virt. eigenvalues --    3.12613   3.13556   3.14606   3.15665   3.18639
 Alpha virt. eigenvalues --    3.19382   3.22572   3.22696   3.23843   3.26876
 Alpha virt. eigenvalues --    3.29849   3.31716   3.31831   3.32883   3.35481
 Alpha virt. eigenvalues --    3.38229   3.40761   3.45476   3.50705   3.53730
 Alpha virt. eigenvalues --    3.55886   3.58602   3.62657   3.66599   3.67468
 Alpha virt. eigenvalues --    3.70876   3.73360   3.76666   3.78229   3.78872
 Alpha virt. eigenvalues --    3.81663   3.83681   3.85832   3.89550   3.91852
 Alpha virt. eigenvalues --    3.92998   3.93951   4.03362   4.08802   4.12836
 Alpha virt. eigenvalues --    4.17843   4.19541   4.26945   4.31572   4.35251
 Alpha virt. eigenvalues --    4.41759   4.67336   4.94573   4.96246   5.14542
 Alpha virt. eigenvalues --    5.16350   5.17502   5.19859   5.38150   5.50677
 Alpha virt. eigenvalues --    5.67244   5.83727   5.90450   5.98678  23.74256
 Alpha virt. eigenvalues --   23.93163  24.02537  24.03789  24.04357  24.04887
 Alpha virt. eigenvalues --   24.06566  24.07518  24.13909  24.23336  24.25228
 Alpha virt. eigenvalues --   24.30849  35.70241  50.10375  50.14949  50.19180
          Condensed to atoms (all electrons):
               1          2          3          4          5          6
     1  H    0.519657   0.410658  -0.043976  -0.049345  -0.019304  -0.008198
     2  C    0.410658   5.269402   0.234794   0.419841   0.387723   0.058873
     3  N   -0.043976   0.234794   6.857320  -0.044032  -0.048369   0.359756
     4  H   -0.049345   0.419841  -0.044032   0.533754  -0.020246   0.100363
     5  H   -0.019304   0.387723  -0.048369  -0.020246   0.481418   0.004736
     6  C   -0.008198   0.058873   0.359756   0.100363   0.004736  15.658715
     7  C   -0.001876  -0.072055   0.282182   0.006175   0.006424  -0.025782
     8  C   -0.016532   0.387708  -0.359316  -0.075479   0.047103  -0.214571
     9  H   -0.001375   0.010493  -0.066104   0.001926  -0.000491   0.263749
    10  H    0.002748  -0.003838  -0.048757  -0.001538  -0.006379  -0.028202
    11  H   -0.001222  -0.004567  -0.089420  -0.001875   0.002840   0.019934
    12  H   -0.000827   0.005789  -0.048193   0.002316  -0.005148  -0.042013
    13  C    0.017681  -0.335660  -0.053113  -0.041617  -0.024042  -5.511276
    14  H   -0.005312   0.017287  -0.030402   0.000464   0.003108   0.064069
    15  O    0.000294  -0.001877   0.003614   0.000618   0.000076   0.255741
    16  C    0.006026  -0.342698  -0.005117  -0.007214  -0.009643  -1.188324
    17  H    0.000018  -0.001104  -0.000099  -0.000042  -0.000116  -0.032261
    18  C   -0.001968  -0.053827   0.003086  -0.002811  -0.000328  -1.801249
    19  C   -0.002818   0.056325  -0.020031  -0.006653  -0.003011  -2.126036
    20  O    0.000049   0.000008  -0.000113  -0.000001  -0.000002   0.049978
    21  C   -0.000859   0.006856  -0.000508  -0.000914   0.000418  -0.084603
    22  C    0.000576  -0.000272  -0.000622   0.001781  -0.000658  -0.083484
    23  H   -0.002217   0.008914  -0.008204  -0.002714   0.000203  -0.192053
    24  C    0.000155  -0.002835  -0.001087  -0.000262  -0.000240  -0.280136
    25  H   -0.000010  -0.000022  -0.000035  -0.000010   0.000002  -0.004620
    26  H    0.000043  -0.001129   0.000339   0.000058  -0.000052   0.012033
    27  O    0.000003   0.000002   0.000001   0.000003   0.000000   0.000872
    28  C    0.000001  -0.000017  -0.000003  -0.000006  -0.000001   0.000055
    29  H    0.000001   0.000001   0.000000   0.000001   0.000000  -0.000159
    30  H    0.000000   0.000001   0.000000  -0.000001   0.000000   0.000084
    31  H    0.000000   0.000003   0.000000   0.000002   0.000000   0.000125
               7          8          9         10         11         12
     1  H   -0.001876  -0.016532  -0.001375   0.002748  -0.001222  -0.000827
     2  C   -0.072055   0.387708   0.010493  -0.003838  -0.004567   0.005789
     3  N    0.282182  -0.359316  -0.066104  -0.048757  -0.089420  -0.048193
     4  H    0.006175  -0.075479   0.001926  -0.001538  -0.001875   0.002316
     5  H    0.006424   0.047103  -0.000491  -0.006379   0.002840  -0.005148
     6  C   -0.025782  -0.214571   0.263749  -0.028202   0.019934  -0.042013
     7  C    5.194839  -0.146942  -0.042568   0.404697   0.405527   0.401203
     8  C   -0.146942  18.465708   0.185493   0.021587   0.014422   0.029005
     9  H   -0.042568   0.185493   0.462720   0.001736  -0.010443   0.003221
    10  H    0.404697   0.021587   0.001736   0.557777  -0.020602  -0.064678
    11  H    0.405527   0.014422  -0.010443  -0.020602   0.525578  -0.029670
    12  H    0.401203   0.029005   0.003221  -0.064678  -0.029670   0.557411
    13  C   -0.111755   1.318109   0.091441   0.000656   0.023793   0.003618
    14  H   -0.008294   0.507204   0.000516   0.001143  -0.002953   0.000477
    15  O    0.001857  -0.394474   0.005010  -0.000012   0.000966  -0.000051
    16  C    0.034099  -8.500044  -0.113055  -0.000349   0.014343  -0.000869
    17  H   -0.000204   0.001546   0.000489   0.000041   0.000196   0.000015
    18  C    0.001814  -6.677733  -0.080350  -0.000213   0.005526  -0.000394
    19  C   -0.021450   2.632245   0.057064   0.000912  -0.005371   0.000952
    20  O    0.000402   0.021292   0.000370   0.000001  -0.000056   0.000005
    21  C    0.000564   0.000045  -0.008004  -0.000013   0.000349  -0.000007
    22  C   -0.000769  -0.316270   0.002959   0.000048  -0.000453   0.000086
    23  H   -0.003004   0.089872   0.003101  -0.000048   0.000206  -0.000023
    24  C   -0.000571  -0.404555  -0.002303   0.000017   0.000044   0.000014
    25  H    0.000029  -0.030056  -0.000290   0.000000   0.000001   0.000000
    26  H    0.000130  -0.025699  -0.000385   0.000001   0.000013   0.000000
    27  O    0.000001   0.000996   0.000022   0.000000   0.000000   0.000000
    28  C    0.000002  -0.002602  -0.000051   0.000000   0.000001   0.000000
    29  H   -0.000001  -0.000136   0.000009   0.000000   0.000000   0.000000
    30  H    0.000000   0.000898  -0.000002   0.000000   0.000000   0.000000
    31  H    0.000000   0.000890   0.000011   0.000000   0.000000   0.000000
              13         14         15         16         17         18
     1  H    0.017681  -0.005312   0.000294   0.006026   0.000018  -0.001968
     2  C   -0.335660   0.017287  -0.001877  -0.342698  -0.001104  -0.053827
     3  N   -0.053113  -0.030402   0.003614  -0.005117  -0.000099   0.003086
     4  H   -0.041617   0.000464   0.000618  -0.007214  -0.000042  -0.002811
     5  H   -0.024042   0.003108   0.000076  -0.009643  -0.000116  -0.000328
     6  C   -5.511276   0.064069   0.255741  -1.188324  -0.032261  -1.801249
     7  C   -0.111755  -0.008294   0.001857   0.034099  -0.000204   0.001814
     8  C    1.318109   0.507204  -0.394474  -8.500044   0.001546  -6.677733
     9  H    0.091441   0.000516   0.005010  -0.113055   0.000489  -0.080350
    10  H    0.000656   0.001143  -0.000012  -0.000349   0.000041  -0.000213
    11  H    0.023793  -0.002953   0.000966   0.014343   0.000196   0.005526
    12  H    0.003618   0.000477  -0.000051  -0.000869   0.000015  -0.000394
    13  C   15.295898  -0.115308   0.693256  -0.199907   0.030326  -6.862847
    14  H   -0.115308   0.706899  -0.011991  -0.099212  -0.000785   0.007446
    15  O    0.693256  -0.011991   8.195009  -0.032523   0.085911  -0.267677
    16  C   -0.199907  -0.099212  -0.032523  27.057960  -0.119057   3.491434
    17  H    0.030326  -0.000785   0.085911  -0.119057   0.263521   0.000602
    18  C   -6.862847   0.007446  -0.267677   3.491434   0.000602  21.026424
    19  C    3.758751  -0.049504  -0.194775  -7.945314   0.062760  -4.556290
    20  O   -0.033405   0.001718   0.022396   0.085907   0.215013   0.232286
    21  C   -0.308904  -0.023467   0.040687  -4.043361   0.030923   2.423015
    22  C   -0.855513  -0.016958  -0.002151  -1.838192   0.023477   0.100261
    23  H    0.161810  -0.049200  -0.000609  -0.394960   0.001911  -0.021768
    24  C   -0.100142  -0.013936  -0.009840  -2.434415  -0.000121  -1.263238
    25  H   -0.063472  -0.001417  -0.000235  -0.136614   0.001634   0.135053
    26  H   -0.056494   0.009936   0.000660   0.125360   0.000646   0.044205
    27  O    0.013171  -0.000707  -0.000094   0.011327  -0.000353   0.041659
    28  C    0.016854   0.000617   0.000238  -0.078557   0.000163  -0.151796
    29  H    0.001920  -0.000131  -0.000050   0.004433  -0.000047   0.010724
    30  H    0.002429   0.000073   0.000021   0.004772   0.000052  -0.015997
    31  H    0.004328  -0.000033  -0.000050  -0.001913   0.000003  -0.009806
              19         20         21         22         23         24
     1  H   -0.002818   0.000049  -0.000859   0.000576  -0.002217   0.000155
     2  C    0.056325   0.000008   0.006856  -0.000272   0.008914  -0.002835
     3  N   -0.020031  -0.000113  -0.000508  -0.000622  -0.008204  -0.001087
     4  H   -0.006653  -0.000001  -0.000914   0.001781  -0.002714  -0.000262
     5  H   -0.003011  -0.000002   0.000418  -0.000658   0.000203  -0.000240
     6  C   -2.126036   0.049978  -0.084603  -0.083484  -0.192053  -0.280136
     7  C   -0.021450   0.000402   0.000564  -0.000769  -0.003004  -0.000571
     8  C    2.632245   0.021292   0.000045  -0.316270   0.089872  -0.404555
     9  H    0.057064   0.000370  -0.008004   0.002959   0.003101  -0.002303
    10  H    0.000912   0.000001  -0.000013   0.000048  -0.000048   0.000017
    11  H   -0.005371  -0.000056   0.000349  -0.000453   0.000206   0.000044
    12  H    0.000952   0.000005  -0.000007   0.000086  -0.000023   0.000014
    13  C    3.758751  -0.033405  -0.308904  -0.855513   0.161810  -0.100142
    14  H   -0.049504   0.001718  -0.023467  -0.016958  -0.049200  -0.013936
    15  O   -0.194775   0.022396   0.040687  -0.002151  -0.000609  -0.009840
    16  C   -7.945314   0.085907  -4.043361  -1.838192  -0.394960  -2.434415
    17  H    0.062760   0.215013   0.030923   0.023477   0.001911  -0.000121
    18  C   -4.556290   0.232286   2.423015   0.100261  -0.021768  -1.263238
    19  C   14.308218  -0.055830  -0.020404   1.602670   0.697822  -0.404600
    20  O   -0.055830   8.179141  -0.324322   0.009324  -0.004573   0.001204
    21  C   -0.020404  -0.324322  12.303944  -3.422560   0.168315  -1.069228
    22  C    1.602670   0.009324  -3.422560  11.146430  -0.206051   0.627369
    23  H    0.697822  -0.004573   0.168315  -0.206051   0.642529   0.068246
    24  C   -0.404600   0.001204  -1.069228   0.627369   0.068246  12.057267
    25  H    0.012622  -0.030334   0.693988  -0.045847   0.004655  -0.225535
    26  H   -0.064949   0.000674  -0.164869   0.575544  -0.044740  -0.126404
    27  O   -0.138061  -0.000302   0.281739  -0.641966   0.003340   0.353549
    28  C   -0.002047   0.005163  -0.393414   0.151540  -0.004074   0.208072
    29  H   -0.004369  -0.000005   0.042786  -0.027213   0.000519  -0.049465
    30  H    0.005188   0.000329  -0.028520   0.024056  -0.000395   0.051144
    31  H   -0.005933   0.000378   0.000955  -0.017788   0.000071   0.000065
              25         26         27         28         29         30
     1  H   -0.000010   0.000043   0.000003   0.000001   0.000001   0.000000
     2  C   -0.000022  -0.001129   0.000002  -0.000017   0.000001   0.000001
     3  N   -0.000035   0.000339   0.000001  -0.000003   0.000000   0.000000
     4  H   -0.000010   0.000058   0.000003  -0.000006   0.000001  -0.000001
     5  H    0.000002  -0.000052   0.000000  -0.000001   0.000000   0.000000
     6  C   -0.004620   0.012033   0.000872   0.000055  -0.000159   0.000084
     7  C    0.000029   0.000130   0.000001   0.000002  -0.000001   0.000000
     8  C   -0.030056  -0.025699   0.000996  -0.002602  -0.000136   0.000898
     9  H   -0.000290  -0.000385   0.000022  -0.000051   0.000009  -0.000002
    10  H    0.000000   0.000001   0.000000   0.000000   0.000000   0.000000
    11  H    0.000001   0.000013   0.000000   0.000001   0.000000   0.000000
    12  H    0.000000   0.000000   0.000000   0.000000   0.000000   0.000000
    13  C   -0.063472  -0.056494   0.013171   0.016854   0.001920   0.002429
    14  H   -0.001417   0.009936  -0.000707   0.000617  -0.000131   0.000073
    15  O   -0.000235   0.000660  -0.000094   0.000238  -0.000050   0.000021
    16  C   -0.136614   0.125360   0.011327  -0.078557   0.004433   0.004772
    17  H    0.001634   0.000646  -0.000353   0.000163  -0.000047   0.000052
    18  C    0.135053   0.044205   0.041659  -0.151796   0.010724  -0.015997
    19  C    0.012622  -0.064949  -0.138061  -0.002047  -0.004369   0.005188
    20  O   -0.030334   0.000674  -0.000302   0.005163  -0.000005   0.000329
    21  C    0.693988  -0.164869   0.281739  -0.393414   0.042786  -0.028520
    22  C   -0.045847   0.575544  -0.641966   0.151540  -0.027213   0.024056
    23  H    0.004655  -0.044740   0.003340  -0.004074   0.000519  -0.000395
    24  C   -0.225535  -0.126404   0.353549   0.208072  -0.049465   0.051144
    25  H    0.512727  -0.002029  -0.015897  -0.018773  -0.006839  -0.001876
    26  H   -0.002029   0.497702  -0.029548   0.006357  -0.001770   0.001266
    27  O   -0.015897  -0.029548   8.174899   0.204613  -0.034281  -0.065993
    28  C   -0.018773   0.006357   0.204613   5.251801   0.411456   0.386146
    29  H   -0.006839  -0.001770  -0.034281   0.411456   0.557683  -0.020338
    30  H   -0.001876   0.001266  -0.065993   0.386146  -0.020338   0.459217
    31  H   -0.009270  -0.000259  -0.029749   0.403879  -0.060514  -0.020132
              31
     1  H    0.000000
     2  C    0.000003
     3  N    0.000000
     4  H    0.000002
     5  H    0.000000
     6  C    0.000125
     7  C    0.000000
     8  C    0.000890
     9  H    0.000011
    10  H    0.000000
    11  H    0.000000
    12  H    0.000000
    13  C    0.004328
    14  H   -0.000033
    15  O   -0.000050
    16  C   -0.001913
    17  H    0.000003
    18  C   -0.009806
    19  C   -0.005933
    20  O    0.000378
    21  C    0.000955
    22  C   -0.017788
    23  H    0.000071
    24  C    0.000065
    25  H   -0.009270
    26  H   -0.000259
    27  O   -0.029749
    28  C    0.403879
    29  H   -0.060514
    30  H   -0.020132
    31  H    0.582197
 Mulliken charges:
               1
     1  H    0.197928
     2  C   -0.454779
     3  N    0.126408
     4  H    0.187458
     5  H    0.203979
     6  C    0.773881
     7  C   -0.304673
     8  C   -0.559713
     9  H    0.235091
    10  H    0.183264
    11  H    0.152895
    12  H    0.187759
    13  C   -0.760583
    14  H    0.108654
    15  O   -0.389947
    16  C    2.655676
    17  H    0.434941
    18  C    0.244756
    19  C   -1.568081
    20  O   -0.376693
    21  C   -0.100629
    22  C   -0.789353
    23  H    0.083120
    24  C   -0.978234
    25  H    0.232468
    26  H    0.243361
    27  O   -0.129247
    28  C   -0.395616
    29  H    0.175786
    30  H    0.217579
    31  H    0.162539
 Sum of Mulliken charges =   0.00000
 Mulliken charges with hydrogens summed into heavy atoms:
               1
     2  C    0.134586
     3  N    0.126408
     6  C    1.008973
     7  C    0.219246
     8  C   -0.451058
    13  C   -0.760583
    15  O   -0.389947
    16  C    2.655676
    18  C    0.244756
    19  C   -1.484961
    20  O    0.058248
    21  C    0.131840
    22  C   -0.545992
    24  C   -0.978234
    27  O   -0.129247
    28  C    0.160289
 Electronic spatial extent (au):  <R**2>=          27355.9480
 Charge=              0.0000 electrons
 Dipole moment (field-independent basis, Debye):
    X=             -1.6613    Y=              4.7363    Z=             -4.0937  Tot=              6.4769
 Quadrupole moment (field-independent basis, Debye-Ang):
   XX=           -106.5860   YY=           -158.1774   ZZ=            -61.6504
   XY=             21.0427   XZ=             -6.2182   YZ=             12.7790
 Traceless Quadrupole moment (field-independent basis, Debye-Ang):
   XX=              2.2186   YY=            -49.3728   ZZ=             47.1542
   XY=             21.0427   XZ=             -6.2182   YZ=             12.7790
 Octapole moment (field-independent basis, Debye-Ang**2):
  XXX=           -633.4193  YYY=           2603.5709  ZZZ=           -235.1671  XYY=           -417.3390
  XXY=            746.9089  XXZ=            -99.0286  XZZ=           -118.6752  YZZ=            394.7310
  YYZ=            -85.0530  XYZ=             16.3970
 Hexadecapole moment (field-independent basis, Debye-Ang**3):
 XXXX=          -2831.6355 YYYY=         -34149.1586 ZZZZ=          -5281.0777 XXXY=           4522.1924
 XXXZ=           -537.1015 YYYX=           6347.8867 YYYZ=           1938.2342 ZZZX=           -395.5751
 ZZZY=           1824.8224 XXYY=          -5946.6778 XXZZ=          -1393.1071 YYZZ=          -3680.8998
 XXYZ=            875.0694 YYXZ=           -143.9190 ZZXY=            792.7482
 N-N= 1.044641891120D+03 E-N=-3.831911064660D+03  KE= 7.433277312160D+02
 Leave Link  601 at Fri Nov  3 01:05:44 2017, MaxMem=  3758096384 cpu:         0.2
 (Enter /share/apps/gaussian/g09_D01/g09/l9999.exe)
 1\1\GINC-NXV42\SP\RwB97XD TD-FC\6-311++G(d,p)\C12H15N1O3\BTX008\03-Nov
 -2017\0\\#p wb97xd 6-311++G** td=(nstates=4) nosymm\\Title\\0,1\H,0,0.
 345574,-4.077623,-2.392176\C,0,1.343082,-3.975034,-2.848303\N,0,1.8470
 27,-5.275681,-3.263373\H,0,2.033677,-3.527395,-2.118344\H,0,1.282493,-
 3.321451,-3.725493\C,0,2.142454,-6.211873,-2.365208\C,0,2.001122,-5.50
 5614,-4.691549\C,0,1.988497,-6.098169,-0.997678\H,0,2.537274,-7.143277
 ,-2.772012\H,0,2.689611,-4.760873,-5.113396\H,0,2.383038,-6.516928,-4.
 86098\H,0,1.024796,-5.411241,-5.191752\C,0,2.362739,-7.164149,-0.13391
 3\H,0,1.573675,-5.187319,-0.579271\O,0,2.878073,-8.254666,-0.608437\C,
 0,2.153913,-7.075376,1.322564\H,0,3.063136,-9.057421,0.563225\C,0,2.51
 0894,-8.18584,2.142818\C,0,1.620884,-5.946134,1.979347\O,0,3.023325,-9
 .3027,1.596076\C,0,2.333499,-8.150725,3.534505\C,0,1.431454,-5.898882,
 3.346653\H,0,1.325863,-5.077154,1.394485\C,0,1.789015,-7.015261,4.1299
 19\H,0,2.639189,-9.021924,4.109276\H,0,0.975524,-5.034795,3.829048\O,0
 ,1.557824,-6.901495,5.467288\C,0,1.917353,-8.006841,6.303941\H,0,1.291
 806,-8.884639,6.072208\H,0,1.733455,-7.674128,7.330326\H,0,2.98019,-8.
 270125,6.188704\\Version=ES64L-G09RevD.01\HF=-746.6696363\RMSD=4.201e-
 09\PG=C01 [X(C12H15N1O3)]\\@


 OLD HORSE! OLD HORSE! WHAT BROUGHT YOU HERE?
 FROM SACARAP' TO PORTLAND PIER
 I'VE CARTED STONE THIS MANY A YEAR;
 TILL, KILLED BY BLOWS AND SORE ABUSE,
 THEY SALTED ME DOWN FOR SAILORS' USE.
 THE SAILORS THEY DO ME DESPISE;
 THEY TURN ME OVER AND DAMN MY EYES;
 CUT OFF MY MEAT, AND SCRAPE MY BONES,
 AND PITCH ME OVER TO DAVY JONES.

    SAILORS' COMPLAINT ABOUT THE BEEF
    SERVED ON SHIPBOARD, CIRCA 1835.
 Job cpu time:       0 days  1 hours 30 minutes  3.0 seconds.
 File lengths (MBytes):  RWF=    314 Int=      0 D2E=      0 Chk=     36 Scr=      1
 Normal termination of Gaussian 09 at Fri Nov  3 01:05:44 2017.
