
     Program PWSCF v.6.1 (svn rev. 13369) starts on 10Oct2017 at 16:30: 0 

     This program is part of the open-source Quantum ESPRESSO suite
     for quantum simulation of materials; please cite
         "P. Giannozzi et al., J. Phys.:Condens. Matter 21 395502 (2009);
          URL http://www.quantum-espresso.org", 
     in publications or presentations arising from this work. More details at
     http://www.quantum-espresso.org/quote

     Parallel version (MPI), running on     1 processors
     Waiting for input...
     Reading input from standard input

     Current dimensions of program PWSCF are:
     Max number of different atomic species (ntypx) = 10
     Max number of k-points (npk) =  40000
     Max angular momentum in pseudopotentials (lmaxx) =  3
     Message from routine iosys:
     london is obsolete, use "vdw_corr='grimme-d2'" instead

     IMPORTANT: XC functional enforced from input :
     Exchange-correlation      = PBE ( 1  4  3  4 0 0)
     Any further DFT definition will be discarded
     Please, verify this is what you really want

               file C.pbe-rrkjus.UPF: wavefunction(s)  2S 2P renormalized
               file H.pbe-rrkjus.UPF: wavefunction(s)  1S renormalized
               file O.pbe-rrkjus.UPF: wavefunction(s)  2S renormalized
               file N.pbe-rrkjus.UPF: wavefunction(s)  2S renormalized

     -------------------------------------
     Parameters for Dispersion Correction:
     -------------------------------------
       atom      VdW radius       C_6     

        C          2.744         60.710
        H          1.892          4.857
        O          2.536         24.284
        N          2.640         42.670

     Subspace diagonalization in iterative solution of the eigenvalue problem:
     a serial algorithm will be used

 
     G-vector sticks info
     --------------------
     sticks:   dense  smooth     PW     G-vecs:    dense   smooth      PW
     Sum        3019    3019    837               169855   169855   25105
 


     bravais-lattice index     =            0
     lattice parameter (alat)  =      14.0342  a.u.
     unit-cell volume          =    7653.1420 (a.u.)^3
     number of atoms/cell      =          124
     number of atomic types    =            4
     number of electrons       =       344.00
     number of Kohn-Sham states=          172
     kinetic-energy cutoff     =      30.0000  Ry
     charge density cutoff     =     120.0000  Ry
     convergence threshold     =      1.0E-07
     mixing beta               =       0.7000
     number of iterations used =            8  plain     mixing
     Exchange-correlation      = PBE ( 1  4  3  4 0 0)
     nstep                     =           50


     celldm(1)=  14.034240  celldm(2)=   0.000000  celldm(3)=   0.000000
     celldm(4)=   0.000000  celldm(5)=   0.000000  celldm(6)=   0.000000

     crystal axes: (cart. coord. in units of alat)
               a(1) = (   1.000000   0.000000   0.000000 )  
               a(2) = (   0.000000   1.600867   0.000000 )  
               a(3) = (  -0.373929   0.000000   1.729489 )  

     reciprocal axes: (cart. coord. in units 2 pi/alat)
               b(1) = (  1.000000  0.000000  0.216208 )  
               b(2) = (  0.000000  0.624661  0.000000 )  
               b(3) = (  0.000000  0.000000  0.578206 )  


     PseudoPot. # 1 for C  read from file:
     /data/home/btx156/espresso/pseudo/C.pbe-rrkjus.UPF
     MD5 check sum: 00fb224312de0c5b6853bd333518df6f
     Pseudo is Ultrasoft, Zval =  4.0
     Generated by new atomic code, or converted to UPF format
     Using radial grid of  627 points,  4 beta functions with: 
                l(1) =   0
                l(2) =   0
                l(3) =   1
                l(4) =   1
     Q(r) pseudized with 0 coefficients 


     PseudoPot. # 2 for H  read from file:
     /data/home/btx156/espresso/pseudo/H.pbe-rrkjus.UPF
     MD5 check sum: 7cc9d459525c9a0585f487a71c3c9563
     Pseudo is Ultrasoft, Zval =  1.0
     Generated by new atomic code, or converted to UPF format
     Using radial grid of 1061 points,  2 beta functions with: 
                l(1) =   0
                l(2) =   0
     Q(r) pseudized with 0 coefficients 


     PseudoPot. # 3 for O  read from file:
     /data/home/btx156/espresso/pseudo/O.pbe-rrkjus.UPF
     MD5 check sum: 390ba29e75625707450f3bd3f0eb6be9
     Pseudo is Ultrasoft, Zval =  6.0
     Generated by new atomic code, or converted to UPF format
     Using radial grid of 1269 points,  4 beta functions with: 
                l(1) =   0
                l(2) =   0
                l(3) =   1
                l(4) =   1
     Q(r) pseudized with 0 coefficients 


     PseudoPot. # 4 for N  read from file:
     /data/home/btx156/espresso/pseudo/N.pbe-rrkjus.UPF
     MD5 check sum: 0c3fbe5807a93f9ba59d5a7019aa238b
     Pseudo is Ultrasoft, Zval =  5.0
     Generated by new atomic code, or converted to UPF format
     Using radial grid of 1257 points,  4 beta functions with: 
                l(1) =   0
                l(2) =   0
                l(3) =   1
                l(4) =   1
     Q(r) pseudized with 0 coefficients 


     atomic species   valence    mass     pseudopotential
        C              4.00    12.00000     C ( 1.00)
        H              1.00     1.00790     H ( 1.00)
        O              6.00    15.99940     O ( 1.00)
        N              5.00    14.00670     N ( 1.00)

      4 Sym. Ops., with inversion, found ( 2 have fractional translation)



   Cartesian axes

     site n.     atom                  positions (alat units)
         1           O   tau(   1) = (   0.1032729   1.4720067   0.1285692  )
         2           C   tau(   2) = (   0.0230087   1.4485935   0.6866609  )
         3           O   tau(   3) = (  -0.0940585   1.1486817   0.6498309  )
         4           C   tau(   4) = (  -0.0051101   1.4366401   0.8827769  )
         5           C   tau(   5) = (   0.0721427   1.4566880   0.3086460  )
         6           C   tau(   6) = (  -0.0011726   1.3037965   0.3888193  )
         7           C   tau(   7) = (  -0.0250591   1.2990683   0.5762114  )
         8           O   tau(   8) = (  -0.0745004   1.2898007   0.9466707  )
         9           N   tau(   9) = (   0.0643311   0.0900572   1.3041609  )
        10           C   tau(  10) = (   0.0245516   1.5648650   1.1832220  )
        11           C   tau(  11) = (   0.0947817  -0.0002200   0.5982230  )
        12           C   tau(  12) = (   0.0452821   1.5801754   0.9990839  )
        13           C   tau(  13) = (   0.1202887   0.0061425   0.4141137  )
        14           C   tau(  14) = (   0.1321879   0.2651908   1.2482712  )
        15           C   tau(  15) = (   0.0435820   0.0590965   1.4964663  )
        16           C   tau(  16) = (   0.0548619   1.3231707   0.0159116  )
        17           H   tau(  17) = (   0.1390925   1.2049741   0.0471161  )
        18           H   tau(  18) = (  -0.2943050   1.3679708   1.6071962  )
        19           H   tau(  19) = (   0.9117496   1.2877192   0.0314297  )
        20           H   tau(  20) = (  -0.0423342   1.1864885   0.3114257  )
        21           H   tau(  21) = (  -0.0286114   1.4394504   1.2379985  )
        22           H   tau(  22) = (   0.1011383   0.1019553   0.9427448  )
        23           H   tau(  23) = (   0.1816801   0.1224928   0.3491587  )
        24           H   tau(  24) = (   0.1345066   0.1167892   0.6769753  )
        25           H   tau(  25) = (  -0.0491237   0.1593766   1.5532698  )
        26           H   tau(  26) = (   0.0391984   0.3254658   1.1499815  )
        27           H   tau(  27) = (   0.1403476   0.3531964   1.3663872  )
        28           H   tau(  28) = (  -0.0078433   1.5237891   1.5192804  )
        29           H   tau(  29) = (   0.2665035   0.2513770   1.1868531  )
        30           H   tau(  30) = (   0.1750454   0.0718039   1.5638205  )
        31           H   tau(  31) = (  -0.0994191   1.1817088   0.7889054  )
        32           O   tau(  32) = (   0.2097627   0.6715731   0.7361764  )
        33           O   tau(  33) = (   0.5227983   0.1288605   1.6009207  )
        34           O   tau(  34) = (   0.4163084   0.9292941   0.9933135  )
        35           C   tau(  35) = (   0.2900268   0.6481599   0.1780848  )
        36           C   tau(  36) = (   0.6030624   0.1522737   1.0428291  )
        37           C   tau(  37) = (   0.3360443   0.9527073   1.5514052  )
        38           O   tau(  38) = (   0.4070941   0.3482481   0.2149134  )
        39           O   tau(  39) = (   0.7201296   0.4521854   1.0796577  )
        40           O   tau(  40) = (   0.2189771   1.2526190   1.5145752  )
        41           C   tau(  41) = (  -0.0557832   0.6362065   1.7114573  )
        42           C   tau(  42) = (   0.6311813   0.1642271   0.8467130  )
        43           C   tau(  43) = (   0.6818543   0.9646607   0.0180313  )
        44           C   tau(  44) = (   0.2408929   0.6562545   0.5560983  )
        45           C   tau(  45) = (   0.5539285   0.1441791   1.4208426  )
        46           C   tau(  46) = (   0.3851783   0.9446127   1.1733903  )
        47           C   tau(  47) = (   0.3142082   0.5033629   0.4759250  )
        48           C   tau(  48) = (   0.6272438   0.2970707   1.3406693  )
        49           C   tau(  49) = (   0.3118630   1.0975043   1.2535636  )
        50           C   tau(  50) = (   0.3380947   0.4986347   0.2885329  )
        51           C   tau(  51) = (   0.6511303   0.3017989   1.1532772  )
        52           C   tau(  52) = (   0.2879765   1.1022325   1.4409557  )
        53           O   tau(  53) = (   0.0136072   0.4893671   1.6475622  )
        54           O   tau(  54) = (   0.7005716   0.3110665   0.7828179  )
        55           O   tau(  55) = (   0.6124640   1.1115001   0.0819264  )
        56           N   tau(  56) = (  -0.1252244   0.8904908   1.2900720  )
        57           N   tau(  57) = (   0.5617400   1.5108099   0.4253277  )
        58           N   tau(  58) = (   0.7512956   0.7103763   0.4394166  )
        59           C   tau(  59) = (  -0.0854448   0.7644314   1.4110109  )
        60           C   tau(  60) = (   0.6015196   0.0360021   0.5462666  )
        61           C   tau(  61) = (   0.7115160   0.8364357   0.3184777  )
        62           C   tau(  62) = (   0.2182538   0.8002136   0.2665213  )
        63           C   tau(  63) = (   0.5312894   1.6010872   1.1312656  )
        64           C   tau(  64) = (   0.4078173   0.8006536   1.4629673  )
        65           C   tau(  65) = (  -0.1061753   0.7797419   1.5951504  )
        66           C   tau(  66) = (   0.5807891   0.0206917   0.7304061  )
        67           C   tau(  67) = (   0.7322465   0.8211253   0.1343382  )
        68           C   tau(  68) = (   0.1927469   0.8065761   0.4506306  )
        69           C   tau(  69) = (   0.5057824   1.5947246   1.3153749  )
        70           C   tau(  70) = (   0.4333243   0.7942910   1.2788593  )
        71           C   tau(  71) = (  -0.1930812   1.0656244   1.3459617  )
        72           C   tau(  72) = (   0.4938832   1.3356763   0.4812174  )
        73           C   tau(  73) = (   0.8191524   0.5352427   0.3835269  )
        74           C   tau(  74) = (  -0.1044753   0.8595301   1.0977666  )
        75           C   tau(  75) = (   0.5824892   1.5417706   0.2330223  )
        76           C   tau(  76) = (   0.7305464   0.7413371   0.6317220  )
        77           C   tau(  77) = (   0.2581737   0.5227371   0.8488327  )
        78           C   tau(  78) = (   0.5712093   0.2776965   1.7135784  )
        79           C   tau(  79) = (   0.3678975   1.0781301   0.8806559  )
        80           H   tau(  80) = (   0.1739431   0.4045405   0.8176295  )
        81           H   tau(  81) = (   0.4869787   0.3958930   1.6823738  )
        82           H   tau(  82) = (   0.4521280   1.1963266   0.9118604  )
        83           H   tau(  83) = (   0.2334117   0.5675372   0.9870367  )
        84           H   tau(  84) = (   0.9203761   0.2328964   0.1222924  )
        85           H   tau(  85) = (   0.3926594   1.0333300   0.7424519  )
        86           H   tau(  86) = (   0.4012860   0.4872856   0.8333160  )
        87           H   tau(  87) = (  -0.2856785   0.3131480   1.6980603  )
        88           H   tau(  88) = (   0.2247852   1.1135816   0.8961740  )
        89           H   tau(  89) = (   0.3553698   0.3860549   0.5533186  )
        90           H   tau(  90) = (   0.6684053   0.4143786   1.4180629  )
        91           H   tau(  91) = (   0.2707014   1.2148122   1.1761700  )
        92           H   tau(  92) = (  -0.0322819   0.6390169   1.3562344  )
        93           H   tau(  93) = (   0.6546825   0.1614167   0.4914901  )
        94           H   tau(  94) = (   0.6583531   0.9618503   0.3732542  )
        95           H   tau(  95) = (  -0.1620316   0.9023889   1.6514894  )
        96           H   tau(  96) = (   0.5249328   1.4989119   0.7867451  )
        97           H   tau(  97) = (   0.7881027   0.6984783   0.0780005  )
        98           H   tau(  98) = (   0.1313554   0.9229264   0.5155856  )
        99           H   tau(  99) = (   0.4443910   1.4783743   1.3803299  )
       100           H   tau( 100) = (   0.4947157   0.6779407   1.2139043  )
       101           H   tau( 101) = (   0.1785289   0.9172227   0.1877690  )
       102           H   tau( 102) = (   0.4915659   1.4840780   1.0525133  )
       103           H   tau( 103) = (   0.4475422   0.6836444   1.5417196  )
       104           H   tau( 104) = (  -0.0117695   0.9598102   1.0409644  )
       105           H   tau( 105) = (   0.6751949   1.4414905   0.1762201  )
       106           H   tau( 106) = (   0.6378407   0.6410569   0.6885255  )
       107           H   tau( 107) = (  -0.1000917   1.1258994   1.4442514  )
       108           H   tau( 108) = (   0.5868727   1.2754013   0.5795071  )
       109           H   tau( 109) = (   0.7261629   0.4749678   0.2852372  )
       110           H   tau( 110) = (  -0.2012396   1.1536300   1.2278471  )
       111           H   tau( 111) = (   0.4857248   1.2476707   0.3631028  )
       112           H   tau( 112) = (   0.8273121   0.4472372   0.5016429  )
       113           H   tau( 113) = (  -0.0530499   0.7233555   1.0749525  )
       114           H   tau( 114) = (   0.6339145   0.0770781   0.2102082  )
       115           H   tau( 115) = (   0.6791211   0.8775116   0.6545361  )
       116           H   tau( 116) = (   0.6726032   1.0518106   1.4073798  )
       117           H   tau( 117) = (   0.3595677   1.3494901   0.5426355  )
       118           H   tau( 118) = (  -0.0465321   0.5490566   0.3221088  )
       119           H   tau( 119) = (  -0.2359387   0.8722375   1.0304137  )
       120           H   tau( 120) = (   0.4510258   1.5290633   0.1656694  )
       121           H   tau( 121) = (   0.8620098   0.7286297   0.6990762  )
       122           H   tau( 122) = (   0.4124547   0.3812752   0.0758389  )
       123           H   tau( 123) = (   0.7254902   0.4191583   0.9405832  )
       124           H   tau( 124) = (   0.2136165   1.2195919   1.6536497  )

     number of k points=    42
                       cart. coord. in units 2pi/alat
        k(    1) = (   0.0000000   0.0000000   0.0000000), wk =   0.0208333
        k(    2) = (   0.0000000   0.0000000   0.1445514), wk =   0.0416667
        k(    3) = (   0.0000000   0.0000000  -0.2891028), wk =   0.0208333
        k(    4) = (   0.0000000   0.1561654   0.0000000), wk =   0.0416667
        k(    5) = (   0.0000000   0.1561654   0.1445514), wk =   0.0833333
        k(    6) = (   0.0000000   0.1561654  -0.2891028), wk =   0.0416667
        k(    7) = (   0.0000000  -0.3123307   0.0000000), wk =   0.0208333
        k(    8) = (   0.0000000  -0.3123307   0.1445514), wk =   0.0416667
        k(    9) = (   0.0000000  -0.3123307  -0.2891028), wk =   0.0208333
        k(   10) = (   0.1666667   0.0000000   0.0360346), wk =   0.0416667
        k(   11) = (   0.1666667   0.0000000   0.1805860), wk =   0.0416667
        k(   12) = (   0.1666667   0.0000000  -0.2530682), wk =   0.0416667
        k(   13) = (   0.1666667   0.0000000  -0.1085168), wk =   0.0416667
        k(   14) = (   0.1666667   0.1561654   0.0360346), wk =   0.0833333
        k(   15) = (   0.1666667   0.1561654   0.1805860), wk =   0.0833333
        k(   16) = (   0.1666667   0.1561654  -0.2530682), wk =   0.0833333
        k(   17) = (   0.1666667   0.1561654  -0.1085168), wk =   0.0833333
        k(   18) = (   0.1666667  -0.3123307   0.0360346), wk =   0.0416667
        k(   19) = (   0.1666667  -0.3123307   0.1805860), wk =   0.0416667
        k(   20) = (   0.1666667  -0.3123307  -0.2530682), wk =   0.0416667
        k(   21) = (   0.1666667  -0.3123307  -0.1085168), wk =   0.0416667
        k(   22) = (   0.3333333   0.0000000   0.0720692), wk =   0.0416667
        k(   23) = (   0.3333333   0.0000000   0.2166206), wk =   0.0416667
        k(   24) = (   0.3333333   0.0000000  -0.2170336), wk =   0.0416667
        k(   25) = (   0.3333333   0.0000000  -0.0724822), wk =   0.0416667
        k(   26) = (   0.3333333   0.1561654   0.0720692), wk =   0.0833333
        k(   27) = (   0.3333333   0.1561654   0.2166206), wk =   0.0833333
        k(   28) = (   0.3333333   0.1561654  -0.2170336), wk =   0.0833333
        k(   29) = (   0.3333333   0.1561654  -0.0724822), wk =   0.0833333
        k(   30) = (   0.3333333  -0.3123307   0.0720692), wk =   0.0416667
        k(   31) = (   0.3333333  -0.3123307   0.2166206), wk =   0.0416667
        k(   32) = (   0.3333333  -0.3123307  -0.2170336), wk =   0.0416667
        k(   33) = (   0.3333333  -0.3123307  -0.0724822), wk =   0.0416667
        k(   34) = (  -0.5000000   0.0000000  -0.1081038), wk =   0.0208333
        k(   35) = (  -0.5000000   0.0000000   0.0364476), wk =   0.0416667
        k(   36) = (  -0.5000000   0.0000000  -0.3972066), wk =   0.0208333
        k(   37) = (  -0.5000000   0.1561654  -0.1081038), wk =   0.0416667
        k(   38) = (  -0.5000000   0.1561654   0.0364476), wk =   0.0833333
        k(   39) = (  -0.5000000   0.1561654  -0.3972066), wk =   0.0416667
        k(   40) = (  -0.5000000  -0.3123307  -0.1081038), wk =   0.0208333
        k(   41) = (  -0.5000000  -0.3123307   0.0364476), wk =   0.0416667
        k(   42) = (  -0.5000000  -0.3123307  -0.3972066), wk =   0.0208333

     Dense  grid:   169855 G-vectors     FFT dimensions: (  50,  80,  90)

     Estimated max dynamical RAM per process >    3163.86MB

     Initial potential from superposition of free atoms

     starting charge  338.22517, renormalised to  344.00000
     Starting wfc are  316 randomized atomic wfcs

     total cpu time spent up to now is      264.5 secs

     Self-consistent Calculation

     iteration #  1     ecut=    30.00 Ry     beta=0.70
     Davidson diagonalization with overlap
     ethr =  1.00E-02,  avg # of iterations =  2.0

     total cpu time spent up to now is      796.9 secs

     total energy              =   -1073.67867410 Ry
     Harris-Foulkes estimate   =   -1088.65198411 Ry
     estimated scf accuracy    <      22.77840325 Ry

     iteration #  2     ecut=    30.00 Ry     beta=0.70
     Davidson diagonalization with overlap
     ethr =  6.62E-03,  avg # of iterations =  4.0

     total cpu time spent up to now is     1362.4 secs

     total energy              =   -1075.97272087 Ry
     Harris-Foulkes estimate   =   -1083.60734128 Ry
     estimated scf accuracy    <      13.86114121 Ry

     iteration #  3     ecut=    30.00 Ry     beta=0.70
     Davidson diagonalization with overlap
     ethr =  4.03E-03,  avg # of iterations =  4.0

     total cpu time spent up to now is     1909.8 secs

     total energy              =   -1079.10243726 Ry
     Harris-Foulkes estimate   =   -1080.80306935 Ry
     estimated scf accuracy    <       3.51105993 Ry

     iteration #  4     ecut=    30.00 Ry     beta=0.70
     Davidson diagonalization with overlap
     ethr =  1.02E-03,  avg # of iterations =  4.0

     total cpu time spent up to now is     2435.7 secs

     total energy              =   -1079.83315912 Ry
     Harris-Foulkes estimate   =   -1080.23605596 Ry
     estimated scf accuracy    <       0.94585796 Ry

     iteration #  5     ecut=    30.00 Ry     beta=0.70
     Davidson diagonalization with overlap
     ethr =  2.75E-04,  avg # of iterations =  4.0

     total cpu time spent up to now is     2929.5 secs

     total energy              =   -1080.00957727 Ry
     Harris-Foulkes estimate   =   -1080.03569643 Ry
     estimated scf accuracy    <       0.05301636 Ry

     iteration #  6     ecut=    30.00 Ry     beta=0.70
     Davidson diagonalization with overlap
     ethr =  1.54E-05,  avg # of iterations =  4.0

     total cpu time spent up to now is     3485.9 secs

     total energy              =   -1080.02354503 Ry
     Harris-Foulkes estimate   =   -1080.02577617 Ry
     estimated scf accuracy    <       0.00502564 Ry

     iteration #  7     ecut=    30.00 Ry     beta=0.70
     Davidson diagonalization with overlap
     ethr =  1.46E-06,  avg # of iterations =  4.0

     total cpu time spent up to now is     4026.9 secs

     total energy              =   -1080.02460359 Ry
     Harris-Foulkes estimate   =   -1080.02518048 Ry
     estimated scf accuracy    <       0.00124327 Ry

     iteration #  8     ecut=    30.00 Ry     beta=0.70
     Davidson diagonalization with overlap
     ethr =  3.61E-07,  avg # of iterations =  4.0

     total cpu time spent up to now is     4554.7 secs

     total energy              =   -1080.02489723 Ry
     Harris-Foulkes estimate   =   -1080.02497558 Ry
     estimated scf accuracy    <       0.00018092 Ry

     iteration #  9     ecut=    30.00 Ry     beta=0.70
     Davidson diagonalization with overlap
     ethr =  5.26E-08,  avg # of iterations =  4.0

     total cpu time spent up to now is     5085.8 secs

     total energy              =   -1080.02493571 Ry
     Harris-Foulkes estimate   =   -1080.02494999 Ry
     estimated scf accuracy    <       0.00003120 Ry

     iteration # 10     ecut=    30.00 Ry     beta=0.70
     Davidson diagonalization with overlap
     ethr =  9.07E-09,  avg # of iterations =  4.0

     total cpu time spent up to now is     5584.4 secs

     total energy              =   -1080.02494220 Ry
     Harris-Foulkes estimate   =   -1080.02494372 Ry
     estimated scf accuracy    <       0.00000335 Ry

     iteration # 11     ecut=    30.00 Ry     beta=0.70
     Davidson diagonalization with overlap
     ethr =  9.75E-10,  avg # of iterations =  3.0

     total cpu time spent up to now is     6102.1 secs

     total energy              =   -1080.02494307 Ry
     Harris-Foulkes estimate   =   -1080.02494325 Ry
     estimated scf accuracy    <       0.00000051 Ry

     iteration # 12     ecut=    30.00 Ry     beta=0.70
     Davidson diagonalization with overlap
     ethr =  1.48E-10,  avg # of iterations =  3.0

     total cpu time spent up to now is     6617.6 secs

     End of self-consistent calculation

          k = 0.0000 0.0000 0.0000 ( 21265 PWs)   bands (ev):

   -20.7019 -20.7010 -20.6584 -20.6581 -20.0532 -20.0518 -20.0498 -20.0490
   -18.8374 -18.8352 -18.8348 -18.8283 -18.0371 -18.0368 -18.0361 -18.0326
   -14.9400 -14.9357 -14.9353 -14.9311 -13.2504 -13.2299 -13.1630 -13.1363
   -12.6946 -12.6802 -12.6064 -12.6003 -12.2449 -12.2238 -12.1956 -12.1757
   -11.8673 -11.8487 -11.8289 -11.8067 -11.3993 -11.3721 -11.3514 -11.3447
   -10.7887 -10.7427 -10.7081 -10.6890  -9.1202  -9.1029  -9.0905  -9.0700
    -8.7844  -8.7502  -8.7345  -8.7251  -8.3786  -8.3329  -8.2115  -8.1709
    -7.3825  -7.3724  -7.2427  -7.2222  -6.9789  -6.9279  -6.9184  -6.8690
    -6.7391  -6.6927  -6.6800  -6.6196  -6.2094  -6.1745  -6.1731  -6.1631
    -5.8279  -5.8108  -5.8088  -5.7968  -5.7881  -5.7001  -5.6388  -5.6292
    -5.5003  -5.4643  -5.4222  -5.3534  -5.1881  -5.1859  -5.0777  -5.0656
    -4.9231  -4.8942  -4.8857  -4.8583  -4.6846  -4.6244  -4.5730  -4.5213
    -4.3525  -4.2517  -4.2446  -4.1761  -4.1601  -4.1148  -4.1115  -4.0259
    -3.9644  -3.9466  -3.9057  -3.8288  -3.6971  -3.6544  -3.5920  -3.5917
    -3.5512  -3.5400  -3.5041  -3.4545  -3.4489  -3.4323  -3.3930  -3.3394
    -3.2051  -3.1718  -3.1318  -3.1190  -3.0742  -3.0190  -3.0132  -3.0039
    -2.9615  -2.9185  -2.8913  -2.8194  -2.7730  -2.7579  -2.7215  -2.6827
    -2.5106  -2.4589  -2.4343  -2.4293  -2.0256  -2.0235  -2.0089  -1.9910
    -1.8665  -1.8376  -1.7905  -1.7056  -1.6514  -1.5774  -1.4745  -1.4358
    -1.2170  -1.1895  -1.0905  -1.0140   0.2275   0.2721   0.2897   0.3001
     0.3214   0.3307   0.3549   0.3883   0.5574   0.6438   0.6928   0.8291
     1.1528   1.1727   1.3413   1.4026

          k = 0.0000 0.0000 0.1446 ( 21211 PWs)   bands (ev):

   -20.7017 -20.7011 -20.6583 -20.6581 -20.0529 -20.0520 -20.0497 -20.0492
   -18.8372 -18.8356 -18.8337 -18.8292 -18.0370 -18.0363 -18.0361 -18.0332
   -14.9397 -14.9373 -14.9335 -14.9312 -13.2495 -13.2343 -13.1622 -13.1426
   -12.6863 -12.6793 -12.6049 -12.5966 -12.2415 -12.2264 -12.1914 -12.1775
   -11.8648 -11.8515 -11.8212 -11.8095 -11.4022 -11.3852 -11.3546 -11.3543
   -10.7653 -10.7609 -10.6993 -10.6890  -9.1303  -9.1085  -9.0740  -9.0683
    -8.7659  -8.7560  -8.7374  -8.7147  -8.3582  -8.3350  -8.2200  -8.2036
    -7.3777  -7.3536  -7.2815  -7.2503  -6.9570  -6.9290  -6.9196  -6.8803
    -6.7136  -6.7047  -6.6860  -6.5921  -6.2016  -6.1733  -6.1502  -6.1365
    -5.8926  -5.8758  -5.7858  -5.7628  -5.7575  -5.7109  -5.6560  -5.6344
    -5.4669  -5.4326  -5.4234  -5.3785  -5.1778  -5.1727  -5.0952  -5.0788
    -4.9598  -4.9238  -4.8714  -4.8455  -4.6704  -4.6331  -4.5554  -4.5316
    -4.3160  -4.2422  -4.2211  -4.1887  -4.1832  -4.1418  -4.1187  -4.0414
    -3.9517  -3.9024  -3.8793  -3.8471  -3.6741  -3.6700  -3.6317  -3.5906
    -3.5449  -3.5352  -3.4935  -3.4838  -3.4606  -3.4138  -3.3941  -3.3573
    -3.1961  -3.1923  -3.1515  -3.1217  -3.0776  -3.0366  -3.0165  -2.9883
    -2.9206  -2.9038  -2.8820  -2.8083  -2.7541  -2.7540  -2.7415  -2.6861
    -2.5154  -2.4712  -2.4435  -2.4148  -2.0292  -2.0214  -2.0134  -1.9985
    -1.8723  -1.8468  -1.7750  -1.7238  -1.6274  -1.5852  -1.4674  -1.4430
    -1.1934  -1.1607  -1.1046  -1.0369   0.2401   0.2834   0.2907   0.3072
     0.3179   0.3225   0.3508   0.3639   0.5811   0.6390   0.7040   0.7948
     1.1473   1.1631   1.3657   1.4055

          k = 0.0000 0.0000-0.2891 ( 21228 PWs)   bands (ev):

   -20.7015 -20.7014 -20.6583 -20.6582 -20.0524 -20.0524 -20.0495 -20.0495
   -18.8365 -18.8364 -18.8315 -18.8313 -18.0366 -18.0366 -18.0347 -18.0346
   -14.9388 -14.9388 -14.9320 -14.9319 -13.2437 -13.2436 -13.1553 -13.1552
   -12.6773 -12.6773 -12.5991 -12.5991 -12.2335 -12.2335 -12.1832 -12.1832
   -11.8581 -11.8580 -11.8134 -11.8134 -11.3927 -11.3927 -11.3698 -11.3698
   -10.7575 -10.7575 -10.6927 -10.6927  -9.1273  -9.1273  -9.0621  -9.0620
    -8.7573  -8.7572  -8.7188  -8.7188  -8.3345  -8.3345  -8.2361  -8.2361
    -7.3459  -7.3459  -7.3067  -7.3067  -6.9300  -6.9300  -6.9087  -6.9086
    -6.7131  -6.7130  -6.6211  -6.6211  -6.1787  -6.1786  -6.1153  -6.1152
    -5.9310  -5.9310  -5.7623  -5.7623  -5.7319  -5.7319  -5.6477  -5.6477
    -5.4319  -5.4319  -5.4078  -5.4078  -5.1610  -5.1609  -5.1049  -5.1049
    -4.9630  -4.9630  -4.8629  -4.8629  -4.6371  -4.6370  -4.5427  -4.5426
    -4.2491  -4.2491  -4.2195  -4.2195  -4.1756  -4.1756  -4.0843  -4.0843
    -3.9298  -3.9297  -3.8320  -3.8320  -3.6683  -3.6683  -3.6550  -3.6550
    -3.5094  -3.5094  -3.4802  -3.4802  -3.4597  -3.4597  -3.3745  -3.3745
    -3.2133  -3.2133  -3.1452  -3.1452  -3.0793  -3.0793  -2.9697  -2.9697
    -2.8993  -2.8993  -2.8324  -2.8324  -2.7606  -2.7606  -2.7093  -2.7093
    -2.5048  -2.5047  -2.4226  -2.4226  -2.0262  -2.0262  -2.0124  -2.0124
    -1.8656  -1.8655  -1.7492  -1.7492  -1.6012  -1.6012  -1.4554  -1.4553
    -1.1445  -1.1445  -1.0960  -1.0959   0.2728   0.2729   0.3057   0.3057
     0.3163   0.3163   0.3399   0.3399   0.6201   0.6202   0.7367   0.7367
     1.1481   1.1482   1.3982   1.3983

          k = 0.0000 0.1562 0.0000 ( 21253 PWs)   bands (ev):

   -20.7018 -20.7011 -20.6583 -20.6581 -20.0530 -20.0520 -20.0497 -20.0491
   -18.8374 -18.8366 -18.8328 -18.8289 -18.0373 -18.0369 -18.0353 -18.0330
   -14.9394 -14.9363 -14.9347 -14.9317 -13.2475 -13.2329 -13.1592 -13.1403
   -12.6925 -12.6824 -12.6052 -12.6009 -12.2389 -12.2165 -12.2040 -12.1825
   -11.8610 -11.8430 -11.8337 -11.8135 -11.3921 -11.3680 -11.3578 -11.3488
   -10.7817 -10.7490 -10.7058 -10.6923  -9.1156  -9.1003  -9.0949  -9.0768
    -8.7818  -8.7616  -8.7237  -8.7211  -8.3553  -8.3093  -8.2374  -8.1945
    -7.3640  -7.3516  -7.2651  -7.2463  -6.9677  -6.9233  -6.9165  -6.8752
    -6.7321  -6.7023  -6.6732  -6.6341  -6.2095  -6.1875  -6.1697  -6.1585
    -5.8247  -5.8221  -5.8140  -5.7929  -5.7590  -5.7045  -5.6599  -5.6505
    -5.4844  -5.4608  -5.4041  -5.3541  -5.1902  -5.1868  -5.0738  -5.0692
    -4.9208  -4.8996  -4.8827  -4.8599  -4.6636  -4.6107  -4.5803  -4.5415
    -4.3167  -4.2479  -4.2350  -4.1780  -4.1763  -4.1397  -4.0999  -4.0234
    -3.9666  -3.9336  -3.9146  -3.8424  -3.6831  -3.6401  -3.6227  -3.5767
    -3.5567  -3.5404  -3.5007  -3.4752  -3.4365  -3.4180  -3.3828  -3.3567
    -3.2234  -3.1860  -3.1471  -3.0978  -3.0607  -3.0438  -2.9940  -2.9874
    -2.9562  -2.9496  -2.8894  -2.8314  -2.7706  -2.7558  -2.7245  -2.6949
    -2.4919  -2.4566  -2.4247  -2.4246  -2.0247  -2.0227  -2.0120  -1.9938
    -1.8463  -1.8175  -1.7982  -1.7139  -1.6557  -1.6047  -1.4672  -1.4425
    -1.2150  -1.1938  -1.0784  -1.0245   0.2329   0.2681   0.2934   0.3028
     0.3259   0.3366   0.3439   0.3823   0.5701   0.6310   0.7165   0.8121
     1.1535   1.1679   1.3523   1.3954

          k = 0.0000 0.1562 0.1446 ( 21248 PWs)   bands (ev):

   -20.7017 -20.7012 -20.6583 -20.6582 -20.0528 -20.0521 -20.0497 -20.0493
   -18.8371 -18.8363 -18.8326 -18.8297 -18.0370 -18.0363 -18.0356 -18.0336
   -14.9392 -14.9374 -14.9335 -14.9317 -13.2472 -13.2364 -13.1596 -13.1458
   -12.6846 -12.6796 -12.6042 -12.5982 -12.2354 -12.2201 -12.1989 -12.1843
   -11.8595 -11.8483 -11.8245 -11.8149 -11.3959 -11.3802 -11.3622 -11.3566
   -10.7595 -10.7570 -10.7035 -10.6953  -9.1223  -9.1018  -9.0825  -9.0734
    -8.7676  -8.7635  -8.7286  -8.7159  -8.3388  -8.3151  -8.2412  -8.2212
    -7.3612  -7.3378  -7.2917  -7.2635  -6.9555  -6.9289  -6.9256  -6.8914
    -6.7165  -6.6957  -6.6799  -6.6062  -6.1955  -6.1691  -6.1557  -6.1388
    -5.8813  -5.8647  -5.8019  -5.7897  -5.7569  -5.7142  -5.6677  -5.6462
    -5.4439  -5.4166  -5.4103  -5.3729  -5.1837  -5.1752  -5.0890  -5.0787
    -4.9491  -4.9201  -4.8878  -4.8621  -4.6466  -4.6163  -4.5621  -4.5431
    -4.2946  -4.2423  -4.2338  -4.1958  -4.1782  -4.1325  -4.1187  -4.0517
    -3.9369  -3.9088  -3.8763  -3.8481  -3.6812  -3.6548  -3.6199  -3.5937
    -3.5656  -3.5178  -3.5066  -3.4841  -3.4657  -3.4236  -3.3867  -3.3667
    -3.2038  -3.1732  -3.1690  -3.1065  -3.0800  -3.0493  -3.0087  -2.9804
    -2.9472  -2.9265  -2.8651  -2.8150  -2.7659  -2.7555  -2.7276  -2.6939
    -2.5021  -2.4705  -2.4320  -2.4124  -2.0271  -2.0197  -2.0142  -2.0001
    -1.8496  -1.8260  -1.7805  -1.7294  -1.6418  -1.6114  -1.4615  -1.4461
    -1.1914  -1.1682  -1.0928  -1.0459   0.2446   0.2756   0.2977   0.3060
     0.3192   0.3295   0.3444   0.3628   0.5880   0.6299   0.7206   0.7844
     1.1486   1.1604   1.3716   1.4000

          k = 0.0000 0.1562-0.2891 ( 21232 PWs)   bands (ev):

   -20.7015 -20.7014 -20.6583 -20.6582 -20.0524 -20.0523 -20.0496 -20.0495
   -18.8365 -18.8364 -18.8314 -18.8313 -18.0363 -18.0363 -18.0349 -18.0349
   -14.9386 -14.9385 -14.9322 -14.9322 -13.2433 -13.2432 -13.1558 -13.1557
   -12.6757 -12.6757 -12.6005 -12.6004 -12.2275 -12.2275 -12.1901 -12.1901
   -11.8548 -11.8548 -11.8170 -11.8169 -11.3888 -11.3888 -11.3726 -11.3726
   -10.7488 -10.7488 -10.7021 -10.7021  -9.1168  -9.1167  -9.0695  -9.0694
    -8.7618  -8.7618  -8.7187  -8.7187  -8.3198  -8.3198  -8.2489  -8.2489
    -7.3391  -7.3391  -7.3020  -7.3020  -6.9366  -6.9366  -6.9225  -6.9225
    -6.6972  -6.6972  -6.6331  -6.6331  -6.1653  -6.1653  -6.1224  -6.1224
    -5.9200  -5.9199  -5.8018  -5.8018  -5.7294  -5.7294  -5.6553  -5.6553
    -5.4111  -5.4111  -5.3898  -5.3898  -5.1693  -5.1693  -5.0967  -5.0967
    -4.9555  -4.9554  -4.8845  -4.8845  -4.6182  -4.6182  -4.5479  -4.5479
    -4.2513  -4.2513  -4.2284  -4.2284  -4.1632  -4.1632  -4.0922  -4.0922
    -3.9060  -3.9060  -3.8346  -3.8346  -3.6700  -3.6700  -3.6496  -3.6496
    -3.5216  -3.5215  -3.4904  -3.4904  -3.4451  -3.4451  -3.3952  -3.3952
    -3.1981  -3.1981  -3.1376  -3.1376  -3.0888  -3.0888  -2.9639  -2.9639
    -2.9336  -2.9336  -2.8308  -2.8307  -2.7534  -2.7534  -2.7123  -2.7123
    -2.4995  -2.4995  -2.4178  -2.4178  -2.0266  -2.0265  -2.0075  -2.0075
    -1.8420  -1.8419  -1.7543  -1.7543  -1.6247  -1.6246  -1.4527  -1.4526
    -1.1448  -1.1448  -1.0976  -1.0976   0.2754   0.2754   0.2969   0.2969
     0.3243   0.3244   0.3406   0.3406   0.6181   0.6181   0.7399   0.7400
     1.1485   1.1486   1.3972   1.3973

          k = 0.0000-0.3123 0.0000 ( 21240 PWs)   bands (ev):

   -20.7015 -20.7014 -20.6583 -20.6582 -20.0525 -20.0525 -20.0494 -20.0494
   -18.8373 -18.8372 -18.8306 -18.8305 -18.0372 -18.0372 -18.0341 -18.0340
   -14.9379 -14.9378 -14.9332 -14.9332 -13.2403 -13.2402 -13.1499 -13.1498
   -12.6875 -12.6875 -12.6028 -12.6028 -12.2226 -12.2226 -12.1993 -12.1993
   -11.8465 -11.8465 -11.8288 -11.8288 -11.3747 -11.3746 -11.3584 -11.3583
   -10.7650 -10.7650 -10.6996 -10.6996  -9.1051  -9.1050  -9.0907  -9.0907
    -8.7741  -8.7741  -8.7171  -8.7171  -8.2976  -8.2976  -8.2520  -8.2520
    -7.3163  -7.3162  -7.3008  -7.3008  -6.9424  -6.9424  -6.8931  -6.8931
    -6.7173  -6.7173  -6.6588  -6.6588  -6.2036  -6.2036  -6.1614  -6.1614
    -5.8260  -5.8259  -5.8038  -5.8038  -5.7083  -5.7083  -5.6881  -5.6881
    -5.4624  -5.4623  -5.3723  -5.3723  -5.1912  -5.1911  -5.0693  -5.0692
    -4.9133  -4.9132  -4.8705  -4.8705  -4.6103  -4.6102  -4.5828  -4.5828
    -4.2570  -4.2570  -4.2119  -4.2118  -4.1760  -4.1759  -4.0536  -4.0536
    -3.9599  -3.9599  -3.8742  -3.8742  -3.6633  -3.6633  -3.5911  -3.5911
    -3.5492  -3.5492  -3.4992  -3.4991  -3.4000  -3.3999  -3.3882  -3.3881
    -3.2260  -3.2259  -3.1194  -3.1193  -3.0263  -3.0263  -3.0022  -3.0021
    -2.9720  -2.9719  -2.8523  -2.8523  -2.7644  -2.7643  -2.7178  -2.7177
    -2.4641  -2.4640  -2.4181  -2.4180  -2.0255  -2.0255  -2.0039  -2.0038
    -1.8162  -1.8162  -1.7588  -1.7587  -1.6457  -1.6457  -1.4551  -1.4550
    -1.2055  -1.2055  -1.0508  -1.0508   0.2485   0.2486   0.3137   0.3138
     0.3184   0.3184   0.3630   0.3630   0.6004   0.6005   0.7675   0.7675
     1.1587   1.1587   1.3756   1.3757

          k = 0.0000-0.3123 0.1446 ( 21250 PWs)   bands (ev):

   -20.7015 -20.7014 -20.6583 -20.6582 -20.0524 -20.0524 -20.0495 -20.0495
   -18.8370 -18.8368 -18.8310 -18.8309 -18.0368 -18.0367 -18.0345 -18.0345
   -14.9381 -14.9380 -14.9329 -14.9328 -13.2417 -13.2416 -13.1530 -13.1529
   -12.6814 -12.6814 -12.6016 -12.6016 -12.2203 -12.2202 -12.2001 -12.2000
   -11.8488 -11.8488 -11.8250 -11.8249 -11.3809 -11.3809 -11.3658 -11.3658
   -10.7525 -10.7524 -10.7057 -10.7057  -9.1027  -9.1027  -9.0867  -9.0867
    -8.7686  -8.7686  -8.7199  -8.7199  -8.2936  -8.2936  -8.2644  -8.2643
    -7.3241  -7.3241  -7.2989  -7.2989  -6.9428  -6.9428  -6.9151  -6.9150
    -6.7090  -6.7090  -6.6412  -6.6411  -6.1806  -6.1806  -6.1475  -6.1475
    -5.8456  -5.8455  -5.8340  -5.8340  -5.7377  -5.7376  -5.6654  -5.6653
    -5.4122  -5.4122  -5.3830  -5.3830  -5.1846  -5.1845  -5.0795  -5.0794
    -4.9209  -4.9209  -4.8979  -4.8979  -4.5940  -4.5940  -4.5795  -4.5795
    -4.2638  -4.2638  -4.2114  -4.2113  -4.1634  -4.1634  -4.0840  -4.0839
    -3.9132  -3.9132  -3.8655  -3.8655  -3.6612  -3.6612  -3.6070  -3.6070
    -3.5502  -3.5502  -3.4944  -3.4943  -3.4474  -3.4473  -3.3799  -3.3798
    -3.2017  -3.2017  -3.1233  -3.1232  -3.0677  -3.0677  -2.9845  -2.9844
    -2.9650  -2.9649  -2.8341  -2.8341  -2.7597  -2.7596  -2.7161  -2.7160
    -2.4797  -2.4797  -2.4153  -2.4153  -2.0239  -2.0239  -2.0070  -2.0070
    -1.8080  -1.8080  -1.7640  -1.7640  -1.6500  -1.6499  -1.4524  -1.4524
    -1.1820  -1.1820  -1.0683  -1.0683   0.2582   0.2583   0.3063   0.3064
     0.3246   0.3247   0.3522   0.3523   0.6079   0.6079   0.7556   0.7556
     1.1538   1.1538   1.3860   1.3861

          k = 0.0000-0.3123-0.2891 ( 21216 PWs)   bands (ev):

   -20.7015 -20.7014 -20.6583 -20.6582 -20.0523 -20.0523 -20.0496 -20.0496
   -18.8365 -18.8364 -18.8314 -18.8313 -18.0358 -18.0357 -18.0355 -18.0355
   -14.9383 -14.9382 -14.9325 -14.9324 -13.2429 -13.2428 -13.1564 -13.1563
   -12.6741 -12.6741 -12.6018 -12.6018 -12.2175 -12.2175 -12.2011 -12.2010
   -11.8507 -11.8507 -11.8213 -11.8213 -11.3805 -11.3804 -11.3800 -11.3800
   -10.7324 -10.7324 -10.7193 -10.7193  -9.0991  -9.0991  -9.0839  -9.0839
    -8.7661  -8.7661  -8.7189  -8.7188  -8.2949  -8.2949  -8.2719  -8.2719
    -7.3320  -7.3320  -7.2972  -7.2972  -6.9426  -6.9426  -6.9365  -6.9365
    -6.6702  -6.6702  -6.6570  -6.6570  -6.1412  -6.1412  -6.1401  -6.1401
    -5.8948  -5.8948  -5.8509  -5.8509  -5.7272  -5.7272  -5.6645  -5.6645
    -5.3959  -5.3959  -5.3679  -5.3679  -5.1786  -5.1785  -5.0888  -5.0888
    -4.9329  -4.9329  -4.9203  -4.9202  -4.5822  -4.5821  -4.5719  -4.5719
    -4.2613  -4.2613  -4.2252  -4.2252  -4.1352  -4.1352  -4.1217  -4.1217
    -3.8597  -3.8597  -3.8571  -3.8571  -3.6648  -3.6647  -3.6481  -3.6481
    -3.5339  -3.5339  -3.4946  -3.4946  -3.4395  -3.4395  -3.4154  -3.4153
    -3.1737  -3.1737  -3.1454  -3.1454  -3.0898  -3.0898  -2.9731  -2.9731
    -2.9513  -2.9513  -2.8305  -2.8304  -2.7393  -2.7392  -2.7249  -2.7248
    -2.4947  -2.4947  -2.4131  -2.4131  -2.0264  -2.0264  -2.0051  -2.0051
    -1.7954  -1.7954  -1.7745  -1.7745  -1.6540  -1.6540  -1.4498  -1.4497
    -1.1449  -1.1449  -1.0993  -1.0993   0.2799   0.2799   0.2893   0.2893
     0.3293   0.3293   0.3412   0.3413   0.6162   0.6162   0.7430   0.7430
     1.1489   1.1490   1.3962   1.3963

          k = 0.1667 0.0000 0.0360 ( 21226 PWs)   bands (ev):

   -20.7018 -20.7010 -20.6583 -20.6581 -20.0531 -20.0519 -20.0498 -20.0491
   -18.8372 -18.8354 -18.8343 -18.8287 -18.0370 -18.0364 -18.0361 -18.0328
   -14.9404 -14.9364 -14.9358 -14.9320 -13.2449 -13.2241 -13.1686 -13.1424
   -12.6893 -12.6764 -12.6105 -12.6058 -12.2439 -12.2262 -12.1928 -12.1762
   -11.8664 -11.8504 -11.8275 -11.8085 -11.3972 -11.3737 -11.3502 -11.3442
   -10.7843 -10.7393 -10.7145 -10.6927  -9.1202  -9.1055  -9.0884  -9.0702
    -8.7805  -8.7494  -8.7355  -8.7288  -8.3756  -8.3360  -8.2098  -8.1746
    -7.3834  -7.3741  -7.2418  -7.2234  -6.9756  -6.9316  -6.9150  -6.8729
    -6.7371  -6.6873  -6.6846  -6.6251  -6.2075  -6.1782  -6.1722  -6.1634
    -5.8336  -5.8082  -5.7910  -5.7867  -5.7454  -5.6595  -5.6098  -5.5920
    -5.5054  -5.4685  -5.4242  -5.3553  -5.2062  -5.1813  -5.0901  -5.0865
    -4.9215  -4.8967  -4.8947  -4.8566  -4.6811  -4.6289  -4.5695  -4.5272
    -4.3415  -4.2698  -4.2558  -4.1919  -4.1590  -4.1080  -4.0898  -4.0266
    -3.9605  -3.9492  -3.9017  -3.8360  -3.7011  -3.6823  -3.6404  -3.5770
    -3.5497  -3.5324  -3.5265  -3.4956  -3.4525  -3.4127  -3.3852  -3.3624
    -3.2165  -3.1704  -3.1455  -3.1164  -3.0811  -3.0325  -3.0056  -3.0020
    -2.9433  -2.9166  -2.9026  -2.8338  -2.7604  -2.7553  -2.7382  -2.6895
    -2.5099  -2.4465  -2.4394  -2.4218  -2.0298  -2.0289  -2.0051  -1.9906
    -1.8610  -1.8394  -1.7659  -1.7138  -1.6235  -1.5963  -1.4550  -1.4470
    -1.2177  -1.1804  -1.1010  -1.0382   0.2437   0.2760   0.2904   0.2989
     0.3263   0.3406   0.3563   0.3841   0.5674   0.6548   0.6854   0.8177
     1.1550   1.1704   1.3261   1.3772

          k = 0.1667 0.0000 0.1806 ( 21221 PWs)   bands (ev):

   -20.7016 -20.7012 -20.6583 -20.6581 -20.0526 -20.0523 -20.0496 -20.0494
   -18.8367 -18.8361 -18.8323 -18.8306 -18.0367 -18.0363 -18.0352 -18.0340
   -14.9407 -14.9371 -14.9344 -14.9321 -13.2429 -13.2291 -13.1669 -13.1503
   -12.6778 -12.6774 -12.6088 -12.6034 -12.2380 -12.2313 -12.1876 -12.1792
   -11.8621 -11.8554 -11.8155 -11.8154 -11.3946 -11.3914 -11.3579 -11.3493
   -10.7598 -10.7557 -10.7012 -10.7011  -9.1318  -9.1074  -9.0768  -9.0658
    -8.7573  -8.7553  -8.7413  -8.7199  -8.3472  -8.3454  -8.2161  -8.2099
    -7.3812  -7.3540  -7.2811  -7.2503  -6.9507  -6.9351  -6.9132  -6.8875
    -6.7217  -6.6981  -6.6751  -6.6072  -6.1967  -6.1795  -6.1468  -6.1374
    -5.9057  -5.8634  -5.7606  -5.7473  -5.7079  -5.6740  -5.6362  -5.6097
    -5.4814  -5.4404  -5.4117  -5.3867  -5.1953  -5.1586  -5.1117  -5.0957
    -4.9551  -4.9298  -4.8669  -4.8562  -4.6627  -4.6452  -4.5494  -4.5407
    -4.2890  -4.2716  -4.2384  -4.1957  -4.1819  -4.1233  -4.1125  -4.0470
    -3.9439  -3.9099  -3.8737  -3.8523  -3.6847  -3.6779  -3.6497  -3.6070
    -3.5990  -3.5352  -3.4835  -3.4747  -3.4699  -3.4364  -3.3965  -3.3560
    -3.2159  -3.1903  -3.1523  -3.1244  -3.0866  -3.0195  -3.0150  -2.9994
    -2.9220  -2.8951  -2.8707  -2.8115  -2.7832  -2.7647  -2.7258  -2.6968
    -2.5042  -2.4825  -2.4265  -2.4223  -2.0293  -2.0259  -2.0152  -1.9973
    -1.8620  -1.8505  -1.7469  -1.7335  -1.6057  -1.6017  -1.4687  -1.4348
    -1.1705  -1.1399  -1.1289  -1.0802   0.2607   0.2913   0.2970   0.3071
     0.3207   0.3276   0.3455   0.3573   0.5942   0.6532   0.6962   0.7767
     1.1407   1.1658   1.3563   1.3783

          k = 0.1667 0.0000-0.2531 ( 21216 PWs)   bands (ev):

   -20.7016 -20.7012 -20.6583 -20.6582 -20.0528 -20.0520 -20.0498 -20.0492
   -18.8370 -18.8358 -18.8330 -18.8299 -18.0367 -18.0364 -18.0356 -18.0336
   -14.9400 -14.9383 -14.9329 -14.9328 -13.2402 -13.2373 -13.1622 -13.1580
   -12.6764 -12.6696 -12.6066 -12.6014 -12.2378 -12.2290 -12.1850 -12.1804
   -11.8608 -11.8535 -11.8206 -11.8084 -11.4017 -11.3833 -11.3723 -11.3676
   -10.7676 -10.7476 -10.7069 -10.6781  -9.1282  -9.1265  -9.0697  -9.0555
    -8.7601  -8.7590  -8.7227  -8.7098  -8.3449  -8.3256  -8.2475  -8.2274
    -7.3474  -7.3458  -7.3101  -7.3054  -6.9301  -6.9292  -6.9124  -6.9055
    -6.7166  -6.7099  -6.6425  -6.5985  -6.1842  -6.1698  -6.1217  -6.1124
    -5.9342  -5.9151  -5.7785  -5.7690  -5.7052  -5.6685  -5.6210  -5.5829
    -5.4453  -5.4204  -5.4049  -5.4047  -5.1899  -5.1739  -5.1316  -5.0995
    -4.9742  -4.9579  -4.8901  -4.8396  -4.6452  -4.6312  -4.5566  -4.5304
    -4.2869  -4.2449  -4.2130  -4.2095  -4.1846  -4.1629  -4.0907  -4.0689
    -3.9339  -3.9251  -3.8366  -3.8282  -3.6871  -3.6800  -3.6632  -3.6356
    -3.5724  -3.5055  -3.5028  -3.4854  -3.4733  -3.4729  -3.3867  -3.3619
    -3.2379  -3.1975  -3.1478  -3.1377  -3.0732  -3.0603  -2.9851  -2.9547
    -2.9407  -2.9006  -2.8666  -2.8375  -2.7753  -2.7249  -2.7229  -2.6937
    -2.5215  -2.4853  -2.4294  -2.3948  -2.0319  -2.0216  -2.0144  -2.0113
    -1.8677  -1.8545  -1.7696  -1.7069  -1.6113  -1.5862  -1.4812  -1.4266
    -1.1832  -1.1323  -1.1271  -1.0736   0.2695   0.2759   0.3027   0.3105
     0.3205   0.3251   0.3379   0.3612   0.6248   0.6249   0.7273   0.7353
     1.1436   1.1583   1.3673   1.3824

          k = 0.1667 0.0000-0.1085 ( 21213 PWs)   bands (ev):

   -20.7018 -20.7010 -20.6583 -20.6581 -20.0531 -20.0517 -20.0499 -20.0490
   -18.8373 -18.8352 -18.8347 -18.8285 -18.0369 -18.0366 -18.0361 -18.0326
   -14.9394 -14.9384 -14.9343 -14.9322 -13.2455 -13.2288 -13.1677 -13.1463
   -12.6848 -12.6724 -12.6100 -12.6010 -12.2433 -12.2243 -12.1917 -12.1764
   -11.8653 -11.8472 -11.8283 -11.8063 -11.4067 -11.3807 -11.3588 -11.3508
   -10.7696 -10.7654 -10.6976 -10.6809  -9.1269  -9.1136  -9.0816  -9.0603
    -8.7742  -8.7583  -8.7309  -8.7097  -8.3674  -8.3286  -8.2305  -8.1956
    -7.3745  -7.3603  -7.2776  -7.2549  -6.9597  -6.9267  -6.9206  -6.8786
    -6.7169  -6.7066  -6.6817  -6.5896  -6.2001  -6.1691  -6.1521  -6.1386
    -5.8807  -5.8795  -5.7836  -5.7731  -5.7443  -5.6529  -5.6188  -5.5745
    -5.4613  -5.4438  -5.4178  -5.3621  -5.2044  -5.1979  -5.1093  -5.0889
    -4.9609  -4.9331  -4.8899  -4.8259  -4.6756  -4.6297  -4.5678  -4.5186
    -4.3305  -4.2632  -4.2291  -4.1992  -4.1529  -4.1272  -4.1242  -4.0317
    -3.9499  -3.9021  -3.8805  -3.8449  -3.6968  -3.6901  -3.6359  -3.5937
    -3.5341  -3.5330  -3.5118  -3.5093  -3.4979  -3.4377  -3.3765  -3.3720
    -3.2039  -3.1645  -3.1537  -3.1445  -3.0499  -3.0436  -3.0252  -2.9828
    -2.9465  -2.9298  -2.8837  -2.8397  -2.7556  -2.7371  -2.7244  -2.6870
    -2.5227  -2.4605  -2.4409  -2.3903  -2.0340  -2.0237  -2.0085  -1.9994
    -1.8671  -1.8431  -1.7797  -1.6957  -1.6231  -1.5863  -1.4758  -1.4304
    -1.2263  -1.1743  -1.1018  -1.0322   0.2409   0.2829   0.2833   0.3100
     0.3207   0.3388   0.3498   0.3853   0.5811   0.6416   0.6992   0.7954
     1.1599   1.1601   1.3374   1.3823

          k = 0.1667 0.1562 0.0360 ( 21223 PWs)   bands (ev):

   -20.7017 -20.7011 -20.6583 -20.6581 -20.0529 -20.0520 -20.0497 -20.0492
   -18.8373 -18.8364 -18.8328 -18.8293 -18.0371 -18.0366 -18.0354 -18.0332
   -14.9397 -14.9367 -14.9355 -14.9326 -13.2419 -13.2272 -13.1649 -13.1463
   -12.6874 -12.6783 -12.6096 -12.6062 -12.2379 -12.2200 -12.2001 -12.1830
   -11.8602 -11.8452 -11.8319 -11.8150 -11.3903 -11.3699 -11.3560 -11.3484
   -10.7775 -10.7455 -10.7118 -10.6964  -9.1163  -9.1047  -9.0909  -9.0764
    -8.7782  -8.7598  -8.7266  -8.7241  -8.3523  -8.3126  -8.2353  -8.1981
    -7.3649  -7.3538  -7.2641  -7.2476  -6.9644  -6.9216  -6.9182  -6.8784
    -6.7319  -6.7015  -6.6740  -6.6375  -6.2075  -6.1857  -6.1734  -6.1603
    -5.8344  -5.8153  -5.7874  -5.7823  -5.7237  -5.6678  -5.6297  -5.6150
    -5.4885  -5.4653  -5.4059  -5.3548  -5.2042  -5.1862  -5.0925  -5.0852
    -4.9179  -4.9009  -4.8883  -4.8600  -4.6606  -4.6153  -4.5779  -4.5451
    -4.3091  -4.2648  -4.2404  -4.1864  -4.1770  -4.1374  -4.0833  -4.0228
    -3.9688  -3.9317  -3.9190  -3.8521  -3.6954  -3.6456  -3.6282  -3.6041
    -3.5532  -3.5432  -3.5327  -3.5124  -3.4438  -3.3965  -3.3799  -3.3697
    -3.2300  -3.1893  -3.1455  -3.1067  -3.0692  -3.0291  -3.0275  -2.9695
    -2.9538  -2.9351  -2.9008  -2.8391  -2.7609  -2.7557  -2.7345  -2.6969
    -2.4964  -2.4549  -2.4283  -2.4158  -2.0287  -2.0258  -2.0076  -1.9938
    -1.8433  -1.8192  -1.7814  -1.7167  -1.6378  -1.6010  -1.4546  -1.4488
    -1.2156  -1.1875  -1.0920  -1.0475   0.2479   0.2759   0.2950   0.3012
     0.3341   0.3380   0.3457   0.3791   0.5803   0.6420   0.7077   0.8006
     1.1556   1.1667   1.3353   1.3713

          k = 0.1667 0.1562 0.1806 ( 21222 PWs)   bands (ev):

   -20.7015 -20.7013 -20.6583 -20.6581 -20.0525 -20.0523 -20.0496 -20.0495
   -18.8367 -18.8363 -18.8320 -18.8308 -18.0366 -18.0359 -18.0355 -18.0343
   -14.9400 -14.9374 -14.9343 -14.9326 -13.2406 -13.2308 -13.1650 -13.1531
   -12.6772 -12.6763 -12.6087 -12.6047 -12.2324 -12.2253 -12.1941 -12.1860
   -11.8576 -11.8513 -11.8209 -11.8188 -11.3906 -11.3837 -11.3634 -11.3542
   -10.7525 -10.7498 -10.7083 -10.7078  -9.1244  -9.0999  -9.0857  -9.0703
    -8.7630  -8.7585  -8.7336  -8.7209  -8.3279  -8.3256  -8.2344  -8.2296
    -7.3646  -7.3394  -7.2910  -7.2629  -6.9488  -6.9355  -6.9190  -6.8981
    -6.7176  -6.6866  -6.6798  -6.6198  -6.1904  -6.1710  -6.1531  -6.1443
    -5.8942  -5.8556  -5.7885  -5.7655  -5.7006  -5.6814  -5.6445  -5.6255
    -5.4508  -5.4220  -5.4056  -5.3777  -5.1975  -5.1693  -5.1067  -5.0928
    -4.9433  -4.9251  -4.8803  -4.8741  -4.6402  -4.6262  -4.5577  -4.5483
    -4.2812  -4.2587  -4.2336  -4.2166  -4.1712  -4.1288  -4.1106  -4.0546
    -3.9398  -3.9127  -3.8721  -3.8580  -3.6814  -3.6663  -3.6357  -3.6138
    -3.5977  -3.5277  -3.5174  -3.4862  -3.4628  -3.4342  -3.3973  -3.3660
    -3.2177  -3.1716  -3.1594  -3.1053  -3.1032  -3.0342  -3.0152  -2.9775
    -2.9551  -2.9039  -2.8673  -2.8187  -2.7739  -2.7508  -2.7335  -2.7039
    -2.4965  -2.4800  -2.4232  -2.4199  -2.0300  -2.0239  -2.0106  -1.9985
    -1.8493  -1.8235  -1.7623  -1.7310  -1.6385  -1.5989  -1.4621  -1.4380
    -1.1703  -1.1496  -1.1190  -1.0874   0.2646   0.2872   0.3063   0.3107
     0.3179   0.3274   0.3434   0.3531   0.6014   0.6438   0.7107   0.7674
     1.1438   1.1617   1.3597   1.3755

          k = 0.1667 0.1562-0.2531 ( 21235 PWs)   bands (ev):

   -20.7015 -20.7013 -20.6583 -20.6582 -20.0526 -20.0521 -20.0498 -20.0494
   -18.8369 -18.8361 -18.8324 -18.8302 -18.0366 -18.0359 -18.0358 -18.0340
   -14.9395 -14.9383 -14.9332 -14.9330 -13.2394 -13.2373 -13.1622 -13.1592
   -12.6739 -12.6689 -12.6072 -12.6033 -12.2313 -12.2231 -12.1926 -12.1872
   -11.8575 -11.8507 -11.8229 -11.8128 -11.3971 -11.3803 -11.3763 -11.3693
   -10.7595 -10.7384 -10.7156 -10.6883  -9.1187  -9.1148  -9.0763  -9.0638
    -8.7646  -8.7642  -8.7198  -8.7118  -8.3305  -8.3107  -8.2601  -8.2406
    -7.3408  -7.3380  -7.3053  -7.3018  -6.9367  -6.9363  -6.9260  -6.9197
    -6.7091  -6.6854  -6.6543  -6.6100  -6.1737  -6.1551  -6.1319  -6.1151
    -5.9232  -5.9059  -5.8118  -5.8009  -5.7078  -5.6778  -5.6206  -5.5920
    -5.4181  -5.4042  -5.3984  -5.3776  -5.1993  -5.1777  -5.1263  -5.0992
    -4.9663  -4.9481  -4.9063  -4.8651  -4.6260  -4.6114  -4.5612  -4.5361
    -4.2724  -4.2496  -4.2399  -4.2021  -4.1715  -4.1547  -4.1056  -4.0771
    -3.9134  -3.8998  -3.8486  -3.8219  -3.7001  -3.6696  -3.6561  -3.6371
    -3.5713  -3.5385  -3.5001  -3.4894  -3.4775  -3.4661  -3.3983  -3.3766
    -3.2205  -3.1798  -3.1432  -3.1195  -3.1033  -3.0619  -2.9971  -2.9656
    -2.9464  -2.8955  -2.8719  -2.8499  -2.7698  -2.7345  -2.7160  -2.6895
    -2.5164  -2.4875  -2.4194  -2.3954  -2.0290  -2.0258  -2.0109  -2.0052
    -1.8445  -1.8345  -1.7691  -1.7221  -1.6322  -1.5987  -1.4697  -1.4320
    -1.1814  -1.1514  -1.1112  -1.0792   0.2714   0.2775   0.2986   0.3044
     0.3259   0.3282   0.3424   0.3589   0.6228   0.6239   0.7317   0.7371
     1.1459   1.1564   1.3685   1.3791

          k = 0.1667 0.1562-0.1085 ( 21252 PWs)   bands (ev):

   -20.7017 -20.7011 -20.6583 -20.6582 -20.0529 -20.0519 -20.0498 -20.0492
   -18.8374 -18.8365 -18.8328 -18.8290 -18.0371 -18.0367 -18.0354 -18.0331
   -14.9390 -14.9382 -14.9344 -14.9327 -13.2430 -13.2312 -13.1648 -13.1496
   -12.6825 -12.6737 -12.6090 -12.6026 -12.2368 -12.2171 -12.2003 -12.1833
   -11.8602 -11.8442 -11.8308 -11.8122 -11.3996 -11.3768 -11.3643 -11.3550
   -10.7644 -10.7617 -10.7006 -10.6877  -9.1190  -9.1066  -9.0872  -9.0687
    -8.7752  -8.7660  -8.7226  -8.7105  -8.3480  -8.3085  -8.2512  -8.2142
    -7.3587  -7.3435  -7.2882  -7.2681  -6.9589  -6.9288  -6.9250  -6.8894
    -6.7185  -6.6994  -6.6746  -6.6025  -6.1962  -6.1708  -6.1532  -6.1366
    -5.8773  -5.8686  -5.8097  -5.7819  -5.7336  -5.6693  -5.6220  -5.5888
    -5.4485  -5.4267  -5.4006  -5.3562  -5.2112  -5.1949  -5.1087  -5.0924
    -4.9522  -4.9266  -4.9001  -4.8466  -4.6511  -4.6126  -4.5733  -4.5335
    -4.2998  -4.2602  -4.2357  -4.1967  -4.1637  -4.1422  -4.1043  -4.0462
    -3.9314  -3.9084  -3.8788  -3.8494  -3.7060  -3.6654  -3.6240  -3.6016
    -3.5536  -3.5450  -3.5308  -3.5137  -3.4762  -3.4396  -3.3791  -3.3718
    -3.2042  -3.1834  -3.1471  -3.1165  -3.0693  -3.0485  -3.0269  -2.9787
    -2.9594  -2.9211  -2.8899  -2.8443  -2.7669  -2.7518  -2.7073  -2.6839
    -2.5135  -2.4700  -2.4221  -2.3903  -2.0294  -2.0199  -2.0139  -2.0009
    -1.8404  -1.8287  -1.7840  -1.7111  -1.6315  -1.6002  -1.4684  -1.4368
    -1.2224  -1.1862  -1.0898  -1.0416   0.2449   0.2744   0.2919   0.3072
     0.3275   0.3369   0.3493   0.3808   0.5898   0.6333   0.7156   0.7838
     1.1577   1.1610   1.3440   1.3759

          k = 0.1667-0.3123 0.0360 ( 21242 PWs)   bands (ev):

   -20.7015 -20.7014 -20.6583 -20.6582 -20.0525 -20.0524 -20.0495 -20.0494
   -18.8371 -18.8370 -18.8308 -18.8307 -18.0370 -18.0369 -18.0342 -18.0342
   -14.9382 -14.9382 -14.9342 -14.9341 -13.2346 -13.2345 -13.1558 -13.1557
   -12.6829 -12.6829 -12.6076 -12.6076 -12.2226 -12.2226 -12.1989 -12.1988
   -11.8464 -11.8463 -11.8295 -11.8295 -11.3741 -11.3741 -11.3579 -11.3578
   -10.7612 -10.7612 -10.7046 -10.7045  -9.1079  -9.1079  -9.0882  -9.0881
    -8.7711  -8.7711  -8.7205  -8.7205  -8.2952  -8.2952  -8.2552  -8.2551
    -7.3204  -7.3204  -7.2985  -7.2985  -6.9393  -6.9392  -6.8960  -6.8960
    -6.7186  -6.7186  -6.6593  -6.6593  -6.2014  -6.2014  -6.1648  -6.1648
    -5.8286  -5.8286  -5.7805  -5.7805  -5.6820  -5.6819  -5.6495  -5.6495
    -5.4674  -5.4674  -5.3729  -5.3729  -5.1973  -5.1972  -5.0880  -5.0879
    -4.9106  -4.9106  -4.8731  -4.8731  -4.6090  -4.6089  -4.5852  -4.5852
    -4.2623  -4.2623  -4.2119  -4.2119  -4.1765  -4.1764  -4.0502  -4.0501
    -3.9616  -3.9616  -3.8846  -3.8846  -3.6643  -3.6642  -3.5938  -3.5938
    -3.5722  -3.5722  -3.5315  -3.5314  -3.4138  -3.4138  -3.3719  -3.3719
    -3.2273  -3.2273  -3.1243  -3.1243  -3.0285  -3.0285  -3.0099  -3.0099
    -2.9624  -2.9623  -2.8580  -2.8579  -2.7622  -2.7622  -2.7163  -2.7163
    -2.4722  -2.4722  -2.4149  -2.4149  -2.0267  -2.0267  -2.0026  -2.0026
    -1.8124  -1.8124  -1.7600  -1.7600  -1.6271  -1.6270  -1.4522  -1.4521
    -1.2039  -1.2038  -1.0699  -1.0699   0.2606   0.2606   0.3136   0.3137
     0.3229   0.3229   0.3616   0.3617   0.6111   0.6111   0.7567   0.7567
     1.1596   1.1596   1.3550   1.3550

          k = 0.1667-0.3123 0.1806 ( 21224 PWs)   bands (ev):

   -20.7015 -20.7014 -20.6583 -20.6582 -20.0523 -20.0523 -20.0496 -20.0496
   -18.8366 -18.8365 -18.8314 -18.8312 -18.0361 -18.0360 -18.0351 -18.0351
   -14.9386 -14.9385 -14.9336 -14.9336 -13.2355 -13.2354 -13.1595 -13.1595
   -12.6759 -12.6759 -12.6073 -12.6073 -12.2205 -12.2205 -12.1994 -12.1993
   -11.8489 -11.8488 -11.8255 -11.8255 -11.3787 -11.3787 -11.3666 -11.3666
   -10.7412 -10.7412 -10.7184 -10.7184  -9.1059  -9.1059  -9.0836  -9.0836
    -8.7638  -8.7638  -8.7252  -8.7252  -8.2879  -8.2879  -8.2704  -8.2703
    -7.3294  -7.3294  -7.2957  -7.2957  -6.9361  -6.9361  -6.9217  -6.9217
    -6.7027  -6.7027  -6.6499  -6.6499  -6.1726  -6.1726  -6.1560  -6.1560
    -5.8634  -5.8633  -5.8003  -5.8003  -5.6905  -5.6905  -5.6465  -5.6465
    -5.4129  -5.4129  -5.3859  -5.3859  -5.1903  -5.1903  -5.0956  -5.0956
    -4.9125  -4.9125  -4.9059  -4.9059  -4.5932  -4.5932  -4.5811  -4.5811
    -4.2662  -4.2662  -4.2159  -4.2159  -4.1650  -4.1649  -4.0771  -4.0771
    -3.9250  -3.9250  -3.8701  -3.8700  -3.6614  -3.6613  -3.6299  -3.6299
    -3.5643  -3.5642  -3.5069  -3.5069  -3.4494  -3.4494  -3.3871  -3.3871
    -3.2024  -3.2023  -3.1241  -3.1241  -3.0661  -3.0661  -2.9997  -2.9996
    -2.9471  -2.9471  -2.8376  -2.8375  -2.7515  -2.7514  -2.7270  -2.7270
    -2.4831  -2.4831  -2.4190  -2.4189  -2.0277  -2.0277  -2.0025  -2.0025
    -1.8061  -1.8060  -1.7654  -1.7654  -1.6313  -1.6313  -1.4481  -1.4480
    -1.1629  -1.1629  -1.1034  -1.1034   0.2761   0.2761   0.3110   0.3111
     0.3274   0.3274   0.3423   0.3423   0.6215   0.6215   0.7417   0.7417
     1.1522   1.1522   1.3679   1.3679

          k = 0.1667-0.3123-0.2531 ( 21242 PWs)   bands (ev):

   -20.7014 -20.7013 -20.6583 -20.6582 -20.0523 -20.0523 -20.0496 -20.0496
   -18.8367 -18.8366 -18.8312 -18.8311 -18.0363 -18.0362 -18.0349 -18.0348
   -14.9387 -14.9386 -14.9334 -14.9333 -13.2379 -13.2378 -13.1613 -13.1613
   -12.6697 -12.6697 -12.6067 -12.6067 -12.2171 -12.2170 -12.2010 -12.2009
   -11.8508 -11.8508 -11.8215 -11.8215 -11.3864 -11.3864 -11.3741 -11.3741
   -10.7396 -10.7396 -10.7120 -10.7120  -9.0997  -9.0997  -9.0838  -9.0838
    -8.7689  -8.7689  -8.7157  -8.7157  -8.2990  -8.2990  -8.2701  -8.2701
    -7.3319  -7.3319  -7.2993  -7.2993  -6.9432  -6.9432  -6.9365  -6.9364
    -6.6842  -6.6842  -6.6416  -6.6416  -6.1519  -6.1519  -6.1297  -6.1297
    -5.8929  -5.8929  -5.8491  -5.8491  -5.6975  -5.6975  -5.6110  -5.6110
    -5.3957  -5.3956  -5.3667  -5.3667  -5.1970  -5.1969  -5.1091  -5.1090
    -4.9402  -4.9401  -4.9140  -4.9139  -4.5866  -4.5866  -4.5676  -4.5675
    -4.2618  -4.2618  -4.2222  -4.2222  -4.1498  -4.1498  -4.1092  -4.1092
    -3.8756  -3.8755  -3.8450  -3.8450  -3.6873  -3.6873  -3.6404  -3.6404
    -3.5657  -3.5656  -3.4957  -3.4957  -3.4792  -3.4792  -3.3979  -3.3979
    -3.1813  -3.1813  -3.1366  -3.1366  -3.0812  -3.0811  -2.9995  -2.9994
    -2.9290  -2.9290  -2.8559  -2.8559  -2.7533  -2.7532  -2.7005  -2.7005
    -2.5003  -2.5003  -2.4030  -2.4029  -2.0283  -2.0282  -2.0046  -2.0046
    -1.8007  -1.8007  -1.7679  -1.7678  -1.6332  -1.6331  -1.4476  -1.4475
    -1.1712  -1.1712  -1.0938  -1.0937   0.2763   0.2764   0.2976   0.2976
     0.3297   0.3298   0.3518   0.3518   0.6220   0.6220   0.7374   0.7374
     1.1513   1.1513   1.3728   1.3729

          k = 0.1667-0.3123-0.1085 ( 21246 PWs)   bands (ev):

   -20.7015 -20.7014 -20.6583 -20.6582 -20.0525 -20.0524 -20.0495 -20.0494
   -18.8372 -18.8371 -18.8307 -18.8306 -18.0371 -18.0370 -18.0341 -18.0341
   -14.9383 -14.9383 -14.9339 -14.9338 -13.2371 -13.2370 -13.1575 -13.1574
   -12.6776 -12.6775 -12.6061 -12.6061 -12.2195 -12.2195 -12.2001 -12.2001
   -11.8489 -11.8489 -11.8250 -11.8250 -11.3829 -11.3828 -11.3643 -11.3642
   -10.7580 -10.7580 -10.6996 -10.6996  -9.1020  -9.1020  -9.0881  -9.0881
    -8.7737  -8.7737  -8.7139  -8.7139  -8.3013  -8.3013  -8.2596  -8.2596
    -7.3217  -7.3217  -7.3034  -7.3034  -6.9466  -6.9466  -6.9122  -6.9122
    -6.7113  -6.7112  -6.6365  -6.6365  -6.1850  -6.1850  -6.1417  -6.1417
    -5.8637  -5.8637  -5.8150  -5.8150  -5.7051  -5.7051  -5.6117  -5.6117
    -5.4241  -5.4241  -5.3680  -5.3680  -5.2056  -5.2056  -5.1002  -5.1001
    -4.9309  -4.9309  -4.8902  -4.8902  -4.6003  -4.6003  -4.5740  -4.5740
    -4.2616  -4.2616  -4.2133  -4.2133  -4.1692  -4.1692  -4.0788  -4.0788
    -3.9061  -3.9060  -3.8701  -3.8701  -3.6763  -3.6763  -3.6146  -3.6146
    -3.5587  -3.5586  -3.5336  -3.5335  -3.4522  -3.4522  -3.3772  -3.3772
    -3.1996  -3.1996  -3.1279  -3.1279  -3.0527  -3.0526  -3.0120  -3.0120
    -2.9546  -2.9546  -2.8561  -2.8561  -2.7664  -2.7663  -2.6934  -2.6934
    -2.4901  -2.4900  -2.3986  -2.3986  -2.0240  -2.0240  -2.0084  -2.0083
    -1.8086  -1.8086  -1.7603  -1.7602  -1.6291  -1.6290  -1.4515  -1.4514
    -1.2079  -1.2079  -1.0647  -1.0647   0.2576   0.2576   0.3054   0.3054
     0.3282   0.3283   0.3660   0.3660   0.6115   0.6115   0.7524   0.7524
     1.1587   1.1588   1.3600   1.3601

          k = 0.3333 0.0000 0.0721 ( 21268 PWs)   bands (ev):

   -20.7016 -20.7011 -20.6583 -20.6581 -20.0528 -20.0521 -20.0497 -20.0493
   -18.8369 -18.8358 -18.8331 -18.8299 -18.0366 -18.0361 -18.0356 -18.0335
   -14.9408 -14.9385 -14.9363 -14.9341 -13.2298 -13.2092 -13.1827 -13.1590
   -12.6756 -12.6669 -12.6211 -12.6196 -12.2409 -12.2312 -12.1871 -12.1781
   -11.8636 -11.8546 -11.8239 -11.8131 -11.3916 -11.3782 -11.3474 -11.3438
   -10.7715 -10.7317 -10.7293 -10.7029  -9.1194  -9.1112  -9.0833  -9.0723
    -8.7700  -8.7485  -8.7380  -8.7378  -8.3675  -8.3447  -8.2043  -8.1840
    -7.3844  -7.3784  -7.2387  -7.2274  -6.9667  -6.9414  -6.9064  -6.8826
    -6.7289  -6.6974  -6.6742  -6.6392  -6.2020  -6.1857  -6.1699  -6.1649
    -5.8232  -5.8077  -5.7840  -5.7839  -5.6249  -5.5556  -5.5273  -5.5158
    -5.5027  -5.4669  -5.4211  -5.3538  -5.2658  -5.2020  -5.1610  -5.1335
    -4.9159  -4.9099  -4.8953  -4.8645  -4.6704  -4.6411  -4.5620  -4.5402
    -4.3140  -4.2939  -4.2600  -4.2197  -4.1547  -4.0866  -4.0685  -4.0322
    -3.9571  -3.9560  -3.8894  -3.8532  -3.7444  -3.7207  -3.6760  -3.5921
    -3.5860  -3.5830  -3.5312  -3.5301  -3.4649  -3.4118  -3.3834  -3.3695
    -3.2040  -3.1639  -3.1596  -3.1125  -3.0886  -3.0782  -2.9856  -2.9766
    -2.9269  -2.9165  -2.9120  -2.8589  -2.7746  -2.7730  -2.7299  -2.7020
    -2.5006  -2.4544  -2.4255  -2.4140  -2.0348  -2.0341  -2.0034  -1.9949
    -1.8502  -1.8416  -1.7230  -1.7159  -1.6112  -1.5882  -1.4544  -1.4334
    -1.2073  -1.1679  -1.1287  -1.0991   0.2783   0.2826   0.2894   0.3021
     0.3385   0.3532   0.3597   0.3749   0.5927   0.6602   0.6852   0.7810
     1.1719   1.1787   1.2876   1.3153

          k = 0.3333 0.0000 0.2166 ( 21257 PWs)   bands (ev):

   -20.7014 -20.7013 -20.6583 -20.6581 -20.0526 -20.0521 -20.0497 -20.0493
   -18.8367 -18.8361 -18.8322 -18.8307 -18.0364 -18.0364 -18.0350 -18.0341
   -14.9416 -14.9373 -14.9364 -14.9342 -13.2270 -13.2178 -13.1773 -13.1675
   -12.6700 -12.6598 -12.6215 -12.6177 -12.2366 -12.2335 -12.1825 -12.1813
   -11.8589 -11.8570 -11.8231 -11.8110 -11.3981 -11.3866 -11.3604 -11.3460
   -10.7587 -10.7562 -10.7073 -10.6976  -9.1308  -9.1103  -9.0841  -9.0588
    -8.7641  -8.7558  -8.7311  -8.7218  -8.3573  -8.3375  -8.2288  -8.2019
    -7.3821  -7.3604  -7.2760  -7.2553  -6.9433  -6.9424  -6.9031  -6.8976
    -6.7282  -6.6981  -6.6507  -6.6287  -6.1870  -6.1848  -6.1446  -6.1410
    -5.9039  -5.8619  -5.7650  -5.7453  -5.5837  -5.5679  -5.5582  -5.5143
    -5.4916  -5.4382  -5.3962  -5.3766  -5.2571  -5.1982  -5.1687  -5.1475
    -4.9524  -4.9426  -4.8890  -4.8418  -4.6597  -4.6533  -4.5666  -4.5259
    -4.2955  -4.2745  -4.2573  -4.2066  -4.1648  -4.1147  -4.0665  -4.0652
    -3.9299  -3.9237  -3.8672  -3.8562  -3.7216  -3.7133  -3.7067  -3.6412
    -3.6224  -3.5545  -3.5222  -3.5157  -3.4674  -3.4396  -3.3982  -3.3633
    -3.2252  -3.1730  -3.1408  -3.1256  -3.0744  -3.0565  -3.0027  -2.9904
    -2.9240  -2.9037  -2.8873  -2.8542  -2.7947  -2.7576  -2.7120  -2.7019
    -2.5012  -2.4847  -2.4235  -2.3934  -2.0310  -2.0309  -2.0145  -2.0011
    -1.8504  -1.8477  -1.7462  -1.6970  -1.5977  -1.5928  -1.4702  -1.4182
    -1.1813  -1.1509  -1.1335  -1.1272   0.2777   0.2936   0.3030   0.3123
     0.3228   0.3430   0.3467   0.3747   0.6137   0.6710   0.6824   0.7439
     1.1520   1.1834   1.3130   1.3166

          k = 0.3333 0.0000-0.2170 ( 21258 PWs)   bands (ev):

   -20.7016 -20.7010 -20.6583 -20.6582 -20.0531 -20.0516 -20.0500 -20.0491
   -18.8372 -18.8353 -18.8343 -18.8288 -18.0366 -18.0363 -18.0361 -18.0329
   -14.9414 -14.9381 -14.9350 -14.9347 -13.2301 -13.2220 -13.1779 -13.1675
   -12.6679 -12.6552 -12.6204 -12.6123 -12.2409 -12.2257 -12.1857 -12.1779
   -11.8622 -11.8471 -11.8292 -11.8058 -11.4081 -11.3763 -11.3743 -11.3664
   -10.7753 -10.7405 -10.7170 -10.6673  -9.1288  -9.1261  -9.0763  -9.0512
    -8.7650  -8.7621  -8.7227  -8.7010  -8.3539  -8.3194  -8.2581  -8.2227
    -7.3502  -7.3454  -7.3151  -7.3049  -6.9302  -6.9269  -6.9167  -6.9033
    -6.7199  -6.7072  -6.6581  -6.5810  -6.1854  -6.1618  -6.1288  -6.1132
    -5.9233  -5.9101  -5.7846  -5.7805  -5.6114  -5.5426  -5.5094  -5.4811
    -5.4597  -5.4072  -5.3977  -5.3949  -5.2499  -5.2437  -5.1714  -5.1601
    -4.9829  -4.9644  -4.9166  -4.8200  -4.6520  -4.6278  -4.5683  -4.5209
    -4.3084  -4.2860  -4.1982  -4.1973  -4.1910  -4.1345  -4.1062  -4.0201
    -3.9352  -3.9234  -3.8468  -3.8260  -3.7227  -3.7027  -3.6842  -3.6702
    -3.6150  -3.5526  -3.5368  -3.5230  -3.4901  -3.4777  -3.3727  -3.3609
    -3.2633  -3.1806  -3.1302  -3.1241  -3.0677  -3.0404  -3.0162  -2.9901
    -2.9734  -2.9206  -2.8658  -2.8538  -2.7760  -2.7323  -2.7058  -2.6877
    -2.5279  -2.4620  -2.4241  -2.3685  -2.0351  -2.0212  -2.0163  -2.0140
    -1.8552  -1.8469  -1.7617  -1.6864  -1.6008  -1.5797  -1.4724  -1.4202
    -1.2393  -1.1594  -1.1240  -1.0729   0.2748   0.2769   0.3051   0.3085
     0.3280   0.3392   0.3455   0.3934   0.6347   0.6415   0.7086   0.7147
     1.1580   1.1877   1.3052   1.3255

          k = 0.3333 0.0000-0.0725 ( 21242 PWs)   bands (ev):

   -20.7017 -20.7010 -20.6583 -20.6581 -20.0531 -20.0516 -20.0500 -20.0490
   -18.8372 -18.8352 -18.8347 -18.8285 -18.0367 -18.0365 -18.0360 -18.0326
   -14.9402 -14.9393 -14.9355 -14.9344 -13.2328 -13.2138 -13.1825 -13.1597
   -12.6747 -12.6581 -12.6211 -12.6160 -12.2431 -12.2256 -12.1885 -12.1764
   -11.8642 -11.8448 -11.8338 -11.8060 -11.4072 -11.3788 -11.3615 -11.3473
   -10.7692 -10.7658 -10.6994 -10.6813  -9.1217  -9.1207  -9.0869  -9.0553
    -8.7763  -8.7601  -8.7258  -8.7100  -8.3710  -8.3271  -8.2373  -8.1935
    -7.3719  -7.3700  -7.2712  -7.2614  -6.9576  -6.9286  -6.9163  -6.8833
    -6.7262  -6.7019  -6.6693  -6.6011  -6.1948  -6.1700  -6.1509  -6.1419
    -5.8848  -5.8771  -5.7847  -5.7553  -5.6436  -5.5335  -5.5109  -5.4955
    -5.4637  -5.4559  -5.4060  -5.3433  -5.2843  -5.2318  -5.1597  -5.1467
    -4.9597  -4.9478  -4.9036  -4.8170  -4.6754  -4.6344  -4.5760  -4.5130
    -4.3263  -4.3024  -4.2234  -4.2161  -4.1475  -4.1143  -4.1102  -4.0008
    -3.9413  -3.9071  -3.8806  -3.8524  -3.7434  -3.7221  -3.6638  -3.6211
    -3.5965  -3.5613  -3.5515  -3.5396  -3.4716  -3.4420  -3.3869  -3.3612
    -3.2234  -3.1728  -3.1427  -3.1193  -3.0856  -3.0687  -2.9974  -2.9952
    -2.9514  -2.9293  -2.8754  -2.8748  -2.7559  -2.7408  -2.7197  -2.6965
    -2.5196  -2.4519  -2.4295  -2.3752  -2.0372  -2.0298  -2.0056  -2.0031
    -1.8527  -1.8426  -1.7522  -1.6921  -1.6106  -1.5783  -1.4569  -1.4356
    -1.2513  -1.1756  -1.1157  -1.0632   0.2655   0.2808   0.2869   0.3134
     0.3265   0.3513   0.3527   0.4002   0.5998   0.6508   0.6879   0.7694
     1.1704   1.1899   1.2858   1.3184

          k = 0.3333 0.1562 0.0721 ( 21251 PWs)   bands (ev):

   -20.7015 -20.7012 -20.6583 -20.6581 -20.0526 -20.0521 -20.0497 -20.0493
   -18.8368 -18.8362 -18.8324 -18.8302 -18.0366 -18.0358 -18.0356 -18.0338
   -14.9401 -14.9380 -14.9368 -14.9347 -13.2267 -13.2120 -13.1796 -13.1627
   -12.6743 -12.6682 -12.6206 -12.6195 -12.2351 -12.2256 -12.1937 -12.1847
   -11.8578 -11.8495 -11.8282 -11.8189 -11.3856 -11.3742 -11.3524 -11.3481
   -10.7653 -10.7356 -10.7274 -10.7073  -9.1168  -9.1108  -9.0852  -9.0769
    -8.7686  -8.7557  -8.7341  -8.7311  -8.3443  -8.3214  -8.2289  -8.2075
    -7.3659  -7.3591  -7.2609  -7.2511  -6.9556  -6.9301  -6.9103  -6.8869
    -6.7281  -6.7067  -6.6697  -6.6465  -6.2015  -6.1822  -6.1803  -6.1656
    -5.8274  -5.8158  -5.7739  -5.7730  -5.6145  -5.5711  -5.5408  -5.5320
    -5.4879  -5.4683  -5.4021  -5.3541  -5.2578  -5.2104  -5.1603  -5.1391
    -4.9095  -4.9036  -4.8924  -4.8671  -4.6521  -4.6268  -4.5718  -4.5537
    -4.2893  -4.2782  -4.2441  -4.2041  -4.1752  -4.1289  -4.0593  -4.0329
    -3.9683  -3.9336  -3.9209  -3.8763  -3.7261  -3.6851  -3.6622  -3.6210
    -3.5975  -3.5915  -3.5456  -3.5364  -3.4566  -3.4153  -3.3705  -3.3619
    -3.2199  -3.1924  -3.1370  -3.1114  -3.0815  -3.0684  -3.0009  -2.9552
    -2.9456  -2.9204  -2.9155  -2.8591  -2.7692  -2.7559  -2.7322  -2.7066
    -2.5003  -2.4716  -2.4183  -2.4083  -2.0331  -2.0306  -2.0033  -1.9953
    -1.8359  -1.8229  -1.7534  -1.7196  -1.6112  -1.5766  -1.4514  -1.4371
    -1.2068  -1.1774  -1.1269  -1.1052   0.2807   0.2906   0.2991   0.3017
     0.3404   0.3471   0.3489   0.3708   0.6063   0.6688   0.6823   0.7646
     1.1726   1.1775   1.2928   1.3124

          k = 0.3333 0.1562 0.2166 ( 21226 PWs)   bands (ev):

   -20.7014 -20.7013 -20.6582 -20.6581 -20.0525 -20.0521 -20.0497 -20.0494
   -18.8367 -18.8362 -18.8320 -18.8308 -18.0362 -18.0360 -18.0352 -18.0344
   -14.9409 -14.9377 -14.9363 -14.9345 -13.2250 -13.2182 -13.1770 -13.1698
   -12.6677 -12.6602 -12.6219 -12.6187 -12.2304 -12.2280 -12.1892 -12.1882
   -11.8568 -11.8507 -11.8268 -11.8158 -11.3923 -11.3804 -11.3656 -11.3515
   -10.7513 -10.7482 -10.7146 -10.7065  -9.1244  -9.1015  -9.0911  -9.0654
    -8.7673  -8.7584  -8.7284  -8.7210  -8.3378  -8.3179  -8.2463  -8.2222
    -7.3658  -7.3458  -7.2870  -7.2670  -6.9446  -6.9405  -6.9098  -6.9071
    -6.7204  -6.6881  -6.6619  -6.6352  -6.1864  -6.1716  -6.1517  -6.1467
    -5.8943  -5.8610  -5.7841  -5.7581  -5.5961  -5.5762  -5.5574  -5.5247
    -5.4532  -5.4213  -5.3900  -5.3713  -5.2594  -5.2087  -5.1677  -5.1512
    -4.9426  -4.9307  -4.8979  -4.8593  -4.6410  -4.6293  -4.5707  -4.5373
    -4.2762  -4.2683  -4.2392  -4.2171  -4.1652  -4.1256  -4.0903  -4.0580
    -3.9385  -3.9181  -3.8753  -3.8658  -3.7099  -3.7001  -3.6818  -3.6546
    -3.6337  -3.5704  -3.5295  -3.5159  -3.4636  -3.4426  -3.4042  -3.3703
    -3.2187  -3.1648  -3.1419  -3.1026  -3.0970  -3.0622  -3.0106  -2.9633
    -2.9521  -2.9074  -2.8861  -2.8615  -2.7816  -2.7492  -2.7208  -2.6961
    -2.5093  -2.4866  -2.4163  -2.3963  -2.0344  -2.0261  -2.0104  -1.9983
    -1.8433  -1.8211  -1.7514  -1.7210  -1.6087  -1.5770  -1.4614  -1.4249
    -1.1817  -1.1590  -1.1363  -1.1295   0.2822   0.2949   0.3099   0.3157
     0.3223   0.3389   0.3436   0.3680   0.6228   0.6703   0.6851   0.7356
     1.1566   1.1788   1.3136   1.3164

          k = 0.3333 0.1562-0.2170 ( 21231 PWs)   bands (ev):

   -20.7015 -20.7011 -20.6582 -20.6581 -20.0528 -20.0518 -20.0499 -20.0492
   -18.8372 -18.8363 -18.8328 -18.8294 -18.0368 -18.0364 -18.0354 -18.0333
   -14.9408 -14.9383 -14.9353 -14.9347 -13.2285 -13.2226 -13.1772 -13.1697
   -12.6645 -12.6548 -12.6212 -12.6147 -12.2338 -12.2192 -12.1943 -12.1848
   -11.8591 -11.8454 -11.8299 -11.8105 -11.4030 -11.3791 -11.3740 -11.3670
   -10.7675 -10.7310 -10.7250 -10.6780  -9.1202  -9.1132  -9.0825  -9.0602
    -8.7695  -8.7683  -8.7176  -8.7040  -8.3396  -8.3040  -8.2710  -8.2360
    -7.3422  -7.3369  -7.3101  -7.3037  -6.9368  -6.9354  -6.9299  -6.9177
    -6.7176  -6.6775  -6.6680  -6.5918  -6.1783  -6.1467  -6.1403  -6.1119
    -5.9149  -5.9000  -5.8236  -5.8036  -5.6075  -5.5594  -5.5101  -5.4847
    -5.4266  -5.4032  -5.3892  -5.3637  -5.2699  -5.2376  -5.1783  -5.1618
    -4.9741  -4.9496  -4.9268  -4.8488  -4.6313  -4.6073  -4.5722  -4.5272
    -4.2870  -4.2735  -4.2254  -4.1938  -4.1774  -4.1388  -4.1172  -4.0382
    -3.9194  -3.8968  -3.8644  -3.8148  -3.7322  -3.7009  -3.6850  -3.6630
    -3.6165  -3.5806  -3.5300  -3.5204  -3.5021  -3.4894  -3.3811  -3.3687
    -3.2380  -3.1646  -3.1336  -3.1037  -3.0906  -3.0680  -3.0204  -2.9694
    -2.9492  -2.9322  -2.8772  -2.8748  -2.7797  -2.7471  -2.6889  -2.6756
    -2.5250  -2.4751  -2.4113  -2.3746  -2.0305  -2.0279  -2.0124  -2.0062
    -1.8411  -1.8238  -1.7656  -1.7101  -1.6027  -1.5754  -1.4648  -1.4276
    -1.2351  -1.1820  -1.1118  -1.0799   0.2747   0.2772   0.3053   0.3066
     0.3310   0.3386   0.3532   0.3869   0.6354   0.6403   0.7122   0.7164
     1.1620   1.1833   1.3074   1.3217

          k = 0.3333 0.1562-0.0725 ( 21250 PWs)   bands (ev):

   -20.7016 -20.7011 -20.6583 -20.6581 -20.0529 -20.0518 -20.0499 -20.0492
   -18.8372 -18.8365 -18.8328 -18.8291 -18.0369 -18.0366 -18.0353 -18.0330
   -14.9398 -14.9389 -14.9359 -14.9349 -13.2301 -13.2166 -13.1793 -13.1632
   -12.6718 -12.6599 -12.6208 -12.6169 -12.2363 -12.2190 -12.1969 -12.1833
   -11.8598 -11.8394 -11.8380 -11.8118 -11.3999 -11.3749 -11.3664 -11.3524
   -10.7636 -10.7613 -10.7028 -10.6888  -9.1179  -9.1092  -9.0921  -9.0641
    -8.7772  -8.7665  -8.7196  -8.7103  -8.3517  -8.3068  -8.2573  -8.2128
    -7.3582  -7.3511  -7.2824  -7.2742  -6.9580  -6.9289  -6.9235  -6.8926
    -6.7211  -6.6956  -6.6691  -6.6113  -6.1933  -6.1700  -6.1540  -6.1377
    -5.8819  -5.8736  -5.8016  -5.7665  -5.6247  -5.5527  -5.5224  -5.5021
    -5.4596  -5.4365  -5.3899  -5.3386  -5.2787  -5.2353  -5.1660  -5.1506
    -4.9524  -4.9350  -4.9093  -4.8390  -4.6515  -4.6157  -4.5797  -4.5290
    -4.2908  -4.2864  -4.2310  -4.2092  -4.1670  -4.1480  -4.0788  -4.0222
    -3.9276  -3.9065  -3.8880  -3.8599  -3.7391  -3.7035  -3.6582  -3.6325
    -3.6099  -3.5784  -3.5552  -3.5466  -3.4585  -3.4416  -3.3927  -3.3662
    -3.2187  -3.1815  -3.1311  -3.1109  -3.0981  -3.0516  -3.0193  -2.9789
    -2.9564  -2.9299  -2.8984  -2.8639  -2.7710  -2.7547  -2.6989  -2.6845
    -2.5149  -2.4688  -2.4148  -2.3794  -2.0346  -2.0220  -2.0133  -1.9999
    -1.8349  -1.8231  -1.7681  -1.7092  -1.6057  -1.5738  -1.4554  -1.4398
    -1.2469  -1.1942  -1.1063  -1.0710   0.2667   0.2813   0.2928   0.3096
     0.3313   0.3470   0.3554   0.3934   0.6095   0.6489   0.6965   0.7577
     1.1729   1.1868   1.2905   1.3138

          k = 0.3333-0.3123 0.0721 ( 21232 PWs)   bands (ev):

   -20.7014 -20.7013 -20.6582 -20.6581 -20.0523 -20.0523 -20.0496 -20.0495
   -18.8367 -18.8366 -18.8312 -18.8311 -18.0363 -18.0362 -18.0347 -18.0346
   -14.9387 -14.9387 -14.9362 -14.9361 -13.2193 -13.2193 -13.1715 -13.1714
   -12.6713 -12.6713 -12.6198 -12.6198 -12.2226 -12.2226 -12.1979 -12.1979
   -11.8461 -11.8460 -11.8309 -11.8309 -11.3730 -11.3729 -11.3569 -11.3568
   -10.7504 -10.7504 -10.7177 -10.7176  -9.1121  -9.1121  -9.0846  -9.0846
    -8.7637  -8.7637  -8.7287  -8.7287  -8.2886  -8.2886  -8.2634  -8.2633
    -7.3269  -7.3269  -7.2956  -7.2956  -6.9307  -6.9307  -6.9040  -6.9040
    -6.7213  -6.7213  -6.6599  -6.6598  -6.1947  -6.1947  -6.1735  -6.1734
    -5.8262  -5.8262  -5.7646  -5.7646  -5.5923  -5.5923  -5.5506  -5.5505
    -5.4729  -5.4729  -5.3717  -5.3717  -5.2344  -5.2344  -5.1512  -5.1511
    -4.9025  -4.9025  -4.8783  -4.8783  -4.6060  -4.6060  -4.5903  -4.5902
    -4.2570  -4.2570  -4.2164  -4.2164  -4.1747  -4.1747  -4.0487  -4.0486
    -3.9583  -3.9583  -3.9101  -3.9101  -3.6832  -3.6831  -3.6357  -3.6357
    -3.6155  -3.6154  -3.5521  -3.5521  -3.4345  -3.4345  -3.3561  -3.3560
    -3.2186  -3.2186  -3.1319  -3.1319  -3.0424  -3.0424  -3.0042  -3.0042
    -2.9426  -2.9426  -2.8756  -2.8756  -2.7546  -2.7546  -2.7192  -2.7192
    -2.4935  -2.4935  -2.4083  -2.4082  -2.0308  -2.0307  -1.9986  -1.9986
    -1.8077  -1.8077  -1.7586  -1.7586  -1.5882  -1.5882  -1.4443  -1.4442
    -1.1966  -1.1966  -1.1182  -1.1181   0.2882   0.2882   0.3136   0.3137
     0.3314   0.3315   0.3568   0.3569   0.6386   0.6386   0.7238   0.7238
     1.1747   1.1748   1.3037   1.3038

          k = 0.3333-0.3123 0.2166 ( 21202 PWs)   bands (ev):

   -20.7014 -20.7013 -20.6582 -20.6581 -20.0523 -20.0522 -20.0496 -20.0496
   -18.8365 -18.8364 -18.8314 -18.8313 -18.0358 -18.0357 -18.0352 -18.0351
   -14.9393 -14.9392 -14.9354 -14.9354 -13.2208 -13.2207 -13.1745 -13.1744
   -12.6629 -12.6629 -12.6210 -12.6210 -12.2201 -12.2201 -12.1988 -12.1987
   -11.8490 -11.8490 -11.8260 -11.8260 -11.3789 -11.3789 -11.3654 -11.3653
   -10.7348 -10.7348 -10.7259 -10.7259  -9.1082  -9.1081  -9.0823  -9.0822
    -8.7656  -8.7656  -8.7231  -8.7231  -8.2932  -8.2931  -8.2684  -8.2683
    -7.3328  -7.3328  -7.2962  -7.2962  -6.9337  -6.9337  -6.9249  -6.9249
    -6.6979  -6.6979  -6.6547  -6.6547  -6.1703  -6.1703  -6.1574  -6.1574
    -5.8728  -5.8728  -5.7856  -5.7856  -5.5963  -5.5963  -5.5432  -5.5432
    -5.4034  -5.4034  -5.3858  -5.3858  -5.2408  -5.2408  -5.1600  -5.1600
    -4.9213  -4.9213  -4.8962  -4.8962  -4.6000  -4.6000  -4.5757  -4.5757
    -4.2561  -4.2561  -4.2190  -4.2190  -4.1687  -4.1687  -4.0712  -4.0712
    -3.9334  -3.9333  -3.8774  -3.8774  -3.6898  -3.6897  -3.6647  -3.6646
    -3.6207  -3.6207  -3.5225  -3.5224  -3.4529  -3.4529  -3.3931  -3.3930
    -3.1927  -3.1927  -3.1252  -3.1252  -3.0575  -3.0575  -3.0111  -3.0110
    -2.9314  -2.9314  -2.8715  -2.8715  -2.7603  -2.7602  -2.7055  -2.7054
    -2.5024  -2.5024  -2.4045  -2.4045  -2.0322  -2.0322  -1.9988  -1.9988
    -1.8060  -1.8060  -1.7605  -1.7605  -1.5900  -1.5900  -1.4420  -1.4419
    -1.1745  -1.1745  -1.1355  -1.1355   0.2927   0.2927   0.3139   0.3139
     0.3311   0.3312   0.3510   0.3511   0.6459   0.6459   0.7123   0.7124
     1.1676   1.1677   1.3152   1.3153

          k = 0.3333-0.3123-0.2170 ( 21222 PWs)   bands (ev):

   -20.7014 -20.7013 -20.6582 -20.6581 -20.0523 -20.0523 -20.0496 -20.0495
   -18.8371 -18.8369 -18.8309 -18.8308 -18.0367 -18.0366 -18.0343 -18.0342
   -14.9394 -14.9393 -14.9352 -14.9352 -13.2251 -13.2250 -13.1741 -13.1740
   -12.6578 -12.6578 -12.6196 -12.6196 -12.2161 -12.2161 -12.2008 -12.2008
   -11.8509 -11.8509 -11.8218 -11.8218 -11.3909 -11.3909 -11.3696 -11.3696
   -10.7478 -10.7478 -10.7037 -10.7037  -9.1009  -9.1009  -9.0838  -9.0838
    -8.7737  -8.7737  -8.7103  -8.7103  -8.3060  -8.3060  -8.2677  -8.2677
    -7.3307  -7.3307  -7.3041  -7.3041  -6.9447  -6.9446  -6.9360  -6.9359
    -6.6971  -6.6971  -6.6258  -6.6258  -6.1601  -6.1601  -6.1222  -6.1222
    -5.8892  -5.8892  -5.8517  -5.8517  -5.5898  -5.5898  -5.5006  -5.5006
    -5.3906  -5.3906  -5.3646  -5.3646  -5.2606  -5.2605  -5.1736  -5.1736
    -4.9511  -4.9511  -4.9063  -4.9063  -4.5916  -4.5915  -4.5627  -4.5627
    -4.2539  -4.2539  -4.2255  -4.2255  -4.1678  -4.1678  -4.0821  -4.0821
    -3.8941  -3.8941  -3.8374  -3.8374  -3.7216  -3.7215  -3.6675  -3.6675
    -3.6108  -3.6108  -3.5298  -3.5298  -3.5005  -3.5004  -3.3823  -3.3823
    -3.1869  -3.1869  -3.1273  -3.1273  -3.0639  -3.0639  -3.0186  -3.0186
    -2.9171  -2.9170  -2.8963  -2.8963  -2.7688  -2.7687  -2.6732  -2.6732
    -2.5029  -2.5028  -2.3912  -2.3912  -2.0305  -2.0305  -2.0041  -2.0040
    -1.8032  -1.8031  -1.7618  -1.7618  -1.5878  -1.5878  -1.4460  -1.4459
    -1.2156  -1.2156  -1.0953  -1.0953   0.2759   0.2759   0.3054   0.3054
     0.3358   0.3358   0.3705   0.3706   0.6377   0.6377   0.7169   0.7169
     1.1724   1.1725   1.3138   1.3138

          k = 0.3333-0.3123-0.0725 ( 21248 PWs)   bands (ev):

   -20.7014 -20.7013 -20.6583 -20.6581 -20.0524 -20.0523 -20.0495 -20.0495
   -18.8372 -18.8371 -18.8307 -18.8306 -18.0369 -18.0369 -18.0341 -18.0340
   -14.9389 -14.9389 -14.9358 -14.9358 -13.2234 -13.2233 -13.1714 -13.1713
   -12.6654 -12.6654 -12.6190 -12.6190 -12.2191 -12.2191 -12.1995 -12.1995
   -11.8491 -11.8491 -11.8255 -11.8255 -11.3829 -11.3828 -11.3633 -11.3632
   -10.7565 -10.7565 -10.7021 -10.7021  -9.1052  -9.1052  -9.0859  -9.0859
    -8.7748  -8.7748  -8.7125  -8.7125  -8.3048  -8.3048  -8.2594  -8.2594
    -7.3256  -7.3256  -7.3035  -7.3035  -6.9462  -6.9461  -6.9135  -6.9135
    -6.7079  -6.7079  -6.6401  -6.6401  -6.1841  -6.1840  -6.1421  -6.1420
    -5.8760  -5.8760  -5.7955  -5.7955  -5.5900  -5.5900  -5.5200  -5.5200
    -5.4380  -5.4380  -5.3559  -5.3559  -5.2544  -5.2544  -5.1624  -5.1623
    -4.9354  -4.9354  -4.8869  -4.8869  -4.6044  -4.6043  -4.5713  -4.5713
    -4.2522  -4.2522  -4.2180  -4.2180  -4.1903  -4.1903  -4.0539  -4.0538
    -3.9058  -3.9057  -3.8844  -3.8844  -3.7070  -3.7070  -3.6503  -3.6502
    -3.6096  -3.6095  -3.5569  -3.5568  -3.4439  -3.4439  -3.3849  -3.3849
    -3.1977  -3.1976  -3.1328  -3.1328  -3.0428  -3.0428  -3.0220  -3.0220
    -2.9501  -2.9501  -2.8739  -2.8739  -2.7725  -2.7725  -2.6812  -2.6812
    -2.4961  -2.4960  -2.3937  -2.3937  -2.0285  -2.0284  -2.0043  -2.0043
    -1.8055  -1.8054  -1.7591  -1.7591  -1.5860  -1.5859  -1.4485  -1.4484
    -1.2268  -1.2268  -1.0887  -1.0887   0.2731   0.2731   0.3066   0.3067
     0.3341   0.3341   0.3750   0.3750   0.6315   0.6315   0.7273   0.7273
     1.1796   1.1797   1.3021   1.3022

          k =-0.5000 0.0000-0.1081 ( 21228 PWs)   bands (ev):

   -20.7014 -20.7013 -20.6582 -20.6581 -20.0524 -20.0524 -20.0495 -20.0494
   -18.8364 -18.8363 -18.8315 -18.8314 -18.0363 -18.0363 -18.0345 -18.0345
   -14.9403 -14.9402 -14.9359 -14.9359 -13.2102 -13.2102 -13.1804 -13.1803
   -12.6625 -12.6625 -12.6293 -12.6293 -12.2365 -12.2365 -12.1817 -12.1816
   -11.8594 -11.8594 -11.8188 -11.8188 -11.3846 -11.3846 -11.3448 -11.3448
   -10.7523 -10.7523 -10.7164 -10.7164  -9.1164  -9.1163  -9.0771  -9.0771
    -8.7564  -8.7564  -8.7408  -8.7408  -8.3562  -8.3562  -8.1951  -8.1951
    -7.3826  -7.3826  -7.2332  -7.2332  -6.9543  -6.9542  -6.8947  -6.8946
    -6.7141  -6.7141  -6.6570  -6.6570  -6.1940  -6.1940  -6.1673  -6.1673
    -5.8128  -5.8127  -5.7824  -5.7824  -5.5386  -5.5386  -5.4856  -5.4855
    -5.4254  -5.4254  -5.3946  -5.3946  -5.2650  -5.2650  -5.2110  -5.2109
    -4.9137  -4.9137  -4.8829  -4.8829  -4.6561  -4.6560  -4.5525  -4.5525
    -4.2872  -4.2872  -4.2552  -4.2551  -4.1151  -4.1151  -4.0445  -4.0445
    -3.9622  -3.9622  -3.8721  -3.8721  -3.7537  -3.7537  -3.6694  -3.6694
    -3.5993  -3.5993  -3.5295  -3.5295  -3.4529  -3.4529  -3.3668  -3.3668
    -3.1700  -3.1700  -3.1366  -3.1366  -3.0960  -3.0959  -2.9685  -2.9685
    -2.9219  -2.9218  -2.8926  -2.8926  -2.7877  -2.7877  -2.7130  -2.7129
    -2.4795  -2.4795  -2.4134  -2.4134  -2.0360  -2.0359  -2.0010  -2.0009
[...]
    -7.3295  -7.3295  -7.3071  -7.3071  -6.9455  -6.9455  -6.9356  -6.9356
    -6.7017  -6.7017  -6.6197  -6.6197  -6.1632  -6.1631  -6.1196  -6.1196
    -5.8881  -5.8881  -5.8527  -5.8527  -5.4716  -5.4715  -5.4598  -5.4597
    -5.3925  -5.3925  -5.3457  -5.3457  -5.3129  -5.3129  -5.2500  -5.2499
    -4.9557  -4.9556  -4.9035  -4.9035  -4.5931  -4.5931  -4.5611  -4.5611
    -4.2395  -4.2395  -4.2352  -4.2351  -4.1775  -4.1774  -4.0620  -4.0620
    -3.9047  -3.9046  -3.8350  -3.8350  -3.7406  -3.7405  -3.7019  -3.7018
    -3.6200  -3.6200  -3.5437  -3.5437  -3.5068  -3.5068  -3.3751  -3.3751
    -3.1894  -3.1894  -3.1242  -3.1242  -3.0671  -3.0671  -3.0052  -3.0052
    -2.9375  -2.9374  -2.8981  -2.8981  -2.7754  -2.7754  -2.6629  -2.6629
    -2.5006  -2.5006  -2.3886  -2.3885  -2.0314  -2.0313  -2.0039  -2.0039
    -1.8027  -1.8027  -1.7598  -1.7598  -1.5622  -1.5622  -1.4474  -1.4474
    -1.2375  -1.2375  -1.0991  -1.0991   0.2767   0.2768   0.3074   0.3074
     0.3400   0.3401   0.3801   0.3801   0.6513   0.6513   0.6981   0.6981
     1.2070   1.2071   1.2622   1.2622

     highest occupied level (ev):     1.4055

!    total energy              =   -1080.02494317 Ry
     Harris-Foulkes estimate   =   -1080.02494319 Ry
     estimated scf accuracy    <       0.00000003 Ry

     The total energy is the sum of the following terms:

     one-electron contribution =    -866.06511678 Ry
     hartree contribution      =     552.38221323 Ry
     xc contribution           =    -315.22946857 Ry
     ewald contribution        =    -450.56508108 Ry
     Dispersion Correction     =      -0.54748997 Ry

     convergence has been achieved in  12 iterations

     Forces acting on atoms (cartesian axes, Ry/au):

     atom    1 type  3   force =    -0.00009098   -0.00008272   -0.00001842
     atom    2 type  1   force =    -0.00033213    0.00013301   -0.00041808
     atom    3 type  3   force =    -0.00029398    0.00018940    0.00023855
     atom    4 type  1   force =    -0.00019333    0.00037620    0.00051262
     atom    5 type  1   force =    -0.00065877   -0.00045897    0.00000659
     atom    6 type  1   force =    -0.00003005    0.00042882    0.00014820
     atom    7 type  1   force =     0.00022817    0.00023728   -0.00019030
     atom    8 type  3   force =     0.00003482    0.00002532   -0.00010615
     atom    9 type  4   force =     0.00095283    0.00013604    0.00027311
     atom   10 type  1   force =    -0.00007226   -0.00011295   -0.00005491
     atom   11 type  1   force =     0.00053612   -0.00006007   -0.00020246
     atom   12 type  1   force =    -0.00006089   -0.00055057   -0.00020521
     atom   13 type  1   force =    -0.00000097    0.00001572   -0.00000372
     atom   14 type  1   force =    -0.00040749    0.00000742    0.00007509
     atom   15 type  1   force =    -0.00019488   -0.00013849    0.00023201
     atom   16 type  1   force =     0.00011532   -0.00015039    0.00012185
     atom   17 type  2   force =     0.00023689   -0.00014934    0.00021509
     atom   18 type  2   force =     0.00012358    0.00023999   -0.00003726
     atom   19 type  2   force =     0.00025412    0.00042951    0.00048616
     atom   20 type  2   force =     0.00019256   -0.00045339   -0.00055062
     atom   21 type  2   force =     0.00066676   -0.00028484    0.00027005
     atom   22 type  2   force =     0.00019715    0.00000192   -0.00075851
     atom   23 type  2   force =    -0.00024743    0.00038029   -0.00001532
     atom   24 type  2   force =    -0.00036241    0.00030661   -0.00003481
     atom   25 type  2   force =    -0.00025042    0.00020578    0.00045387
     atom   26 type  2   force =    -0.00042096    0.00066778   -0.00024097
     atom   27 type  2   force =    -0.00018463    0.00019000    0.00050386
     atom   28 type  2   force =    -0.00008495   -0.00018449   -0.00017090
     atom   29 type  2   force =    -0.00083345   -0.00006233    0.00040018
     atom   30 type  2   force =    -0.00043598    0.00019448   -0.00027172
     atom   31 type  2   force =     0.00041853    0.00014096    0.00035701
     atom   32 type  3   force =     0.00009098   -0.00008272    0.00001842
     atom   33 type  3   force =     0.00009098    0.00008272    0.00001842
     atom   34 type  3   force =    -0.00009098    0.00008272   -0.00001842
     atom   35 type  1   force =     0.00033213    0.00013301    0.00041808
     atom   36 type  1   force =     0.00033213   -0.00013301    0.00041808
     atom   37 type  1   force =    -0.00033213   -0.00013301   -0.00041808
     atom   38 type  3   force =     0.00029398    0.00018940   -0.00023855
     atom   39 type  3   force =     0.00029398   -0.00018940   -0.00023855
     atom   40 type  3   force =    -0.00029398   -0.00018940    0.00023855
     atom   41 type  1   force =     0.00019333    0.00037620   -0.00051262
     atom   42 type  1   force =     0.00019333   -0.00037620   -0.00051262
     atom   43 type  1   force =    -0.00019333   -0.00037620    0.00051262
     atom   44 type  1   force =     0.00065877   -0.00045897   -0.00000659
     atom   45 type  1   force =     0.00065877    0.00045897   -0.00000659
     atom   46 type  1   force =    -0.00065877    0.00045897    0.00000659
     atom   47 type  1   force =     0.00003005    0.00042882   -0.00014820
     atom   48 type  1   force =     0.00003005   -0.00042882   -0.00014820
     atom   49 type  1   force =    -0.00003005   -0.00042882    0.00014820
     atom   50 type  1   force =    -0.00022817    0.00023728    0.00019030
     atom   51 type  1   force =    -0.00022817   -0.00023728    0.00019030
     atom   52 type  1   force =     0.00022817   -0.00023728   -0.00019030
     atom   53 type  3   force =    -0.00003482    0.00002532    0.00010615
     atom   54 type  3   force =    -0.00003482   -0.00002532    0.00010615
     atom   55 type  3   force =     0.00003482   -0.00002532   -0.00010615
     atom   56 type  4   force =    -0.00095283    0.00013604   -0.00027311
     atom   57 type  4   force =    -0.00095283   -0.00013604   -0.00027311
     atom   58 type  4   force =     0.00095283   -0.00013604    0.00027311
     atom   59 type  1   force =     0.00007226   -0.00011295    0.00005491
     atom   60 type  1   force =     0.00007226    0.00011295    0.00005491
     atom   61 type  1   force =    -0.00007226    0.00011295   -0.00005491
     atom   62 type  1   force =    -0.00053612   -0.00006007    0.00020246
     atom   63 type  1   force =    -0.00053612    0.00006007    0.00020246
     atom   64 type  1   force =     0.00053612    0.00006007   -0.00020246
     atom   65 type  1   force =     0.00006089   -0.00055057    0.00020521
     atom   66 type  1   force =     0.00006089    0.00055057    0.00020521
     atom   67 type  1   force =    -0.00006089    0.00055057   -0.00020521
     atom   68 type  1   force =     0.00000097    0.00001572    0.00000372
     atom   69 type  1   force =     0.00000097   -0.00001572    0.00000372
     atom   70 type  1   force =    -0.00000097   -0.00001572   -0.00000372
     atom   71 type  1   force =     0.00040749    0.00000742   -0.00007509
     atom   72 type  1   force =     0.00040749   -0.00000742   -0.00007509
     atom   73 type  1   force =    -0.00040749   -0.00000742    0.00007509
     atom   74 type  1   force =     0.00019488   -0.00013849   -0.00023201
     atom   75 type  1   force =     0.00019488    0.00013849   -0.00023201
     atom   76 type  1   force =    -0.00019488    0.00013849    0.00023201
     atom   77 type  1   force =    -0.00011532   -0.00015039   -0.00012185
     atom   78 type  1   force =    -0.00011532    0.00015039   -0.00012185
     atom   79 type  1   force =     0.00011532    0.00015039    0.00012185
     atom   80 type  2   force =    -0.00023689   -0.00014934   -0.00021509
     atom   81 type  2   force =    -0.00023689    0.00014934   -0.00021509
     atom   82 type  2   force =     0.00023689    0.00014934    0.00021509
     atom   83 type  2   force =    -0.00012358    0.00023999    0.00003726
     atom   84 type  2   force =    -0.00012358   -0.00023999    0.00003726
     atom   85 type  2   force =     0.00012358   -0.00023999   -0.00003726
     atom   86 type  2   force =    -0.00025412    0.00042951   -0.00048616
     atom   87 type  2   force =    -0.00025412   -0.00042951   -0.00048616
     atom   88 type  2   force =     0.00025412   -0.00042951    0.00048616
     atom   89 type  2   force =    -0.00019256   -0.00045339    0.00055062
     atom   90 type  2   force =    -0.00019256    0.00045339    0.00055062
     atom   91 type  2   force =     0.00019256    0.00045339   -0.00055062
     atom   92 type  2   force =    -0.00066676   -0.00028484   -0.00027005
     atom   93 type  2   force =    -0.00066676    0.00028484   -0.00027005
     atom   94 type  2   force =     0.00066676    0.00028484    0.00027005
     atom   95 type  2   force =    -0.00019715    0.00000192    0.00075851
     atom   96 type  2   force =    -0.00019715   -0.00000192    0.00075851
     atom   97 type  2   force =     0.00019715   -0.00000192   -0.00075851
     atom   98 type  2   force =     0.00024743    0.00038029    0.00001532
     atom   99 type  2   force =     0.00024743   -0.00038029    0.00001532
     atom  100 type  2   force =    -0.00024743   -0.00038029   -0.00001532
     atom  101 type  2   force =     0.00036241    0.00030661    0.00003481
     atom  102 type  2   force =     0.00036241   -0.00030661    0.00003481
     atom  103 type  2   force =    -0.00036241   -0.00030661   -0.00003481
     atom  104 type  2   force =     0.00025042    0.00020578   -0.00045387
     atom  105 type  2   force =     0.00025042   -0.00020578   -0.00045387
     atom  106 type  2   force =    -0.00025042   -0.00020578    0.00045387
     atom  107 type  2   force =     0.00042096    0.00066778    0.00024097
     atom  108 type  2   force =     0.00042096   -0.00066778    0.00024097
     atom  109 type  2   force =    -0.00042096   -0.00066778   -0.00024097
     atom  110 type  2   force =     0.00018463    0.00019000   -0.00050386
     atom  111 type  2   force =     0.00018463   -0.00019000   -0.00050386
     atom  112 type  2   force =    -0.00018463   -0.00019000    0.00050386
     atom  113 type  2   force =     0.00008495   -0.00018449    0.00017090
     atom  114 type  2   force =     0.00008495    0.00018449    0.00017090
     atom  115 type  2   force =    -0.00008495    0.00018449   -0.00017090
     atom  116 type  2   force =     0.00083345   -0.00006233   -0.00040018
     atom  117 type  2   force =     0.00083345    0.00006233   -0.00040018
     atom  118 type  2   force =    -0.00083345    0.00006233    0.00040018
     atom  119 type  2   force =     0.00043598    0.00019448    0.00027172
     atom  120 type  2   force =     0.00043598   -0.00019448    0.00027172
     atom  121 type  2   force =    -0.00043598   -0.00019448   -0.00027172
     atom  122 type  2   force =    -0.00041853    0.00014096   -0.00035701
     atom  123 type  2   force =    -0.00041853   -0.00014096   -0.00035701
     atom  124 type  2   force =     0.00041853   -0.00014096    0.00035701

     Total force =     0.006239     Total SCF correction =     0.000318

     BFGS Geometry Optimization

     bfgs converged in   1 scf cycles and   0 bfgs steps
     (criteria: energy <  1.0E-04 Ry, force <  1.0E-03 Ry/Bohr)

     End of BFGS Geometry Optimization

     Final energy   =   -1080.0249431680 Ry
Begin final coordinates

ATOMIC_POSITIONS (angstrom)
O        0.766966230  10.932004596   0.954832159
C        0.170876763  10.758124139   5.099555524
O       -0.698534821   8.530799677   4.826034016
C       -0.037950739  10.669350995   6.556030974
C        0.535774800  10.818239320   2.292190508
C       -0.008708515   9.682774894   2.887605337
C       -0.186103962   9.647660403   4.279291865
O       -0.553284967   9.578833704   7.030544483
N        0.477761551   0.668819130   9.685480975
C        0.182334712  11.621626535   8.787316214
C        0.703906093  -0.001633948   4.442763192
C        0.336291712  11.735330861   7.419796284
C        0.893336209   0.045618196   3.075456638
C        0.981706862   1.969466289   9.270410838
C        0.323665945   0.438886161  11.113656586
C        0.407437217   9.826659300   0.118168919
H        1.032984046   8.948860785   0.349912461
H       -2.185685408  10.159371807  11.936003587
H        6.771199759   9.563375197   0.233415523
H       -0.314399040   8.811575536   2.312834005
H       -0.212485156  10.690222617   9.194119640
H        0.751113790   0.757181117   7.001388790
H        1.349265780   0.909705331   2.593061864
H        0.998926911   0.867346329   5.027624664
H       -0.364822339   1.183626474  11.535513652
H        0.291111168   2.417104497   8.540452245
H        1.042305841   2.623048569  10.147611021
H       -0.058249422  11.316572079  11.283087991
H        1.979214720   1.866876503   8.814283532
H        1.299992008   0.533258893  11.613869545
H       -0.738345742   8.776078733   5.858884745
O        1.557823770   4.987504596   5.467287841
O        3.882613770   0.956995404  11.889397841
O        3.091756230   6.901495404   7.376942159
C        2.153913237   4.813624139   1.322564476
C        4.478703237   1.130875861   7.744674476
C        2.495666763   7.075375861  11.521665524
O        3.023324821   2.586299677   1.596075984
O        5.348114821   3.358200323   8.018185984
O        1.626255179   9.302700323  11.248144016
C       -0.414279261   4.724850995  12.710309026
C        4.687530739   1.219649005   6.288199026
C        5.063859261   7.164149005   0.133910974
C        1.789015200   4.873739320   4.129919492
C        4.113805200   1.070760680  10.552029492
C        2.860564800   7.015260680   8.714300508
C        2.333498515   3.738274894   3.534504663
C        4.658288515   2.206225106   9.956614663
C        2.316081485   8.150725106   9.309715337
C        2.510893962   3.703160403   2.142818135
C        4.835683962   2.241339597   8.564928135
C        2.138686038   8.185839597  10.701401865
O        0.101054967   3.634333704  12.235785517
O        5.202864967   2.310166296   5.813675517
O        4.548525033   8.254666296   0.608434483
N       -0.929991551   6.613319130   9.580849025
N        4.171818449  11.220180870   3.158739025
N        5.579571551   5.275680870   3.263370975
C       -0.634564712   5.677126535  10.479013786
C        4.467245288   0.267373465   4.056903786
C        5.284144712   6.211873465   2.365206214
C        1.620883907   5.942866052   1.979346808
C        3.945673907  11.890633948   8.401456808
C        3.028696093   5.946133948  10.864873192
C       -0.788521712   5.790830861  11.846543716
C        4.313288288   0.153669139   5.424433716
C        5.438101712   6.098169139   0.997676284
C        1.431453791   5.990118196   3.346653362
C        3.756243791  11.843381804   9.768763362
C        3.218126209   5.898881804   9.497576638
C       -1.433936862   7.913966289   9.995919162
C        3.667873138   9.919533711   3.573809162
C        6.083516862   3.975033711   2.848300838
C       -0.775895945   6.383386161   8.152673414
C        4.325914055  11.450113839   1.730563414
C        5.425475945   5.505613839   4.691546586
C        1.917352783   3.882159300   6.303941081
C        4.242142783   2.062340700  12.726061081
C        2.732227217   8.006840700   6.540278919
H        1.291805954   3.004360785   6.072207539
H        3.616595954   2.940139215  12.494317539
H        3.357774046   8.884639215   6.772022461
H        1.733455408   4.214871807   7.330326413
H        6.835265408   1.729628193   0.908216413
H        2.916124592   7.674128193   5.513893587
H        2.980190241   3.618875197   6.188704477
H       -2.121619759   2.325624803  12.610814477
H        1.669389759   8.270124803   6.655525523
H        2.639189040   2.867075536   4.109275995
H        4.963979040   3.077424464  10.531385995
H        2.010390960   9.021924464   8.734944005
H       -0.239744844   4.745722617  10.072210360
H        4.862065156   1.198777383   3.650100360
H        4.889324844   7.143277383   2.772009640
H       -1.203343790   6.701681117  12.264951210
H        3.898466210  11.131818883   5.842841210
H        5.852923790   5.187318883   0.579278790
H        0.975524220   6.854205331   3.829048136
H        3.300314220  10.979294669  10.251158136
H        3.674055780   5.034794669   9.015181864
H        1.325863089   6.811846329   1.394485336
H        3.650663089  11.021653671   7.816595336
H        3.323716911   5.077153671  11.449734664
H       -0.087407661   7.128126474   7.730826348
H        5.014402339  10.705373526   1.308716348
H        4.736987661   4.760873526   5.113403652
H       -0.743341168   8.361604497  10.725877755
H        4.358468832   9.471895503   4.303767755
H        5.392921168   3.527395503   2.118342245
H       -1.494525841   8.567548569   9.118728979
H        3.607284159   9.265951431   2.696618979
H        6.144115841   3.321451431   3.725501021
H       -0.393980578   5.372072079   7.983242009
H        4.707829422   0.572427921   1.561132009
H        5.043560578   6.516927921   4.860977991
H        4.995155280   7.811376503  10.452046468
H        2.670365280  10.022123497   4.029936468
H       -0.345575280   4.077623497   2.392173532
H       -1.752222008   6.477758893   7.652470455
H        3.349587992  11.355741107   1.230360455
H        6.401802008   5.411241107   5.191759545
H        3.063135742   2.831578733   0.563225255
H        5.387925742   3.112921267   6.985335255
H        1.586444258   9.057421267  12.280994745
End final coordinates



     Writing output data file 2hp_3_422.save
 
     init_run     :    261.79s CPU    264.45s WALL (       1 calls)
     electrons    :   6277.31s CPU   6353.10s WALL (       1 calls)
     forces       :     99.06s CPU     99.36s WALL (       1 calls)

     Called by init_run:
     wfcinit      :    257.73s CPU    260.22s WALL (       1 calls)
     potinit      :      1.59s CPU      1.61s WALL (       1 calls)

     Called by electrons:
     c_bands      :   5674.51s CPU   5747.20s WALL (      12 calls)
     sum_band     :    588.58s CPU    590.23s WALL (      12 calls)
     v_of_rho     :      2.13s CPU      2.14s WALL (      13 calls)
     newd         :      4.42s CPU      5.94s WALL (      13 calls)
     mix_rho      :      0.46s CPU      0.47s WALL (      12 calls)

     Called by c_bands:
     init_us_2    :     61.48s CPU     61.53s WALL (    1092 calls)
     cegterg      :   5462.60s CPU   5535.12s WALL (     504 calls)

     Called by sum_band:
     sum_band:bec :      0.34s CPU      0.34s WALL (     504 calls)
     addusdens    :      4.74s CPU      6.14s WALL (      12 calls)

     Called by *egterg:
     h_psi        :   3250.92s CPU   3253.33s WALL (    2395 calls)
     s_psi        :    776.66s CPU    776.63s WALL (    2395 calls)
     g_psi        :     26.16s CPU     26.16s WALL (    1849 calls)
     cdiaghg      :    188.90s CPU    188.91s WALL (    2353 calls)

     Called by h_psi:
     h_psi:pot    :   3220.32s CPU   3221.80s WALL (    2395 calls)
     h_psi:calbec :    719.69s CPU    719.68s WALL (    2395 calls)
     vloc_psi     :   1724.35s CPU   1725.84s WALL (    2395 calls)
     add_vuspsi   :    776.28s CPU    776.26s WALL (    2395 calls)

     General routines
     calbec       :   1028.19s CPU   1028.16s WALL (    3067 calls)
     fft          :      0.74s CPU      0.75s WALL (     170 calls)
     fftw         :   1741.60s CPU   1742.96s WALL (  613642 calls)
     davcio       :      0.08s CPU      1.58s WALL (      42 calls)
 
     Parallel routines
     fft_scatter  :    203.59s CPU    203.87s WALL (  613812 calls)
 
     PWSCF        :     1h50m CPU        1h51m WALL

 
   This run was terminated on:  18:22: 0  10Oct2017            

=------------------------------------------------------------------------------=
   JOB DONE.
=------------------------------------------------------------------------------=
