 Entering Gaussian System, Link 0=g09
 Input=2hc_1_rel-mega_dimer_1.com
 Output=2hc_1_rel-mega_dimer_1.out
 Initial command:
 /share/apps/gaussian/g09_D01/g09/l1.exe "/tmp/159434.1.all.q/Gau-50190.inp" -scrdir="/tmp/159434.1.all.q/"
 Entering Link 1 = /share/apps/gaussian/g09_D01/g09/l1.exe PID=     50191.
  
 Copyright (c) 1988,1990,1992,1993,1995,1998,2003,2009,2013,
            Gaussian, Inc.  All Rights Reserved.
  
 This is part of the Gaussian(R) 09 program.  It is based on
 the Gaussian(R) 03 system (copyright 2003, Gaussian, Inc.),
 the Gaussian(R) 98 system (copyright 1998, Gaussian, Inc.),
 the Gaussian(R) 94 system (copyright 1995, Gaussian, Inc.),
 the Gaussian 92(TM) system (copyright 1992, Gaussian, Inc.),
 the Gaussian 90(TM) system (copyright 1990, Gaussian, Inc.),
 the Gaussian 88(TM) system (copyright 1988, Gaussian, Inc.),
 the Gaussian 86(TM) system (copyright 1986, Carnegie Mellon
 University), and the Gaussian 82(TM) system (copyright 1983,
 Carnegie Mellon University). Gaussian is a federally registered
 trademark of Gaussian, Inc.
  
 This software contains proprietary and confidential information,
 including trade secrets, belonging to Gaussian, Inc.
  
 This software is provided under written license and may be
 used, copied, transmitted, or stored only in accord with that
 written license.
  
 The following legend is applicable only to US Government
 contracts under FAR:
  
                    RESTRICTED RIGHTS LEGEND
  
 Use, reproduction and disclosure by the US Government is
 subject to restrictions as set forth in subparagraphs (a)
 and (c) of the Commercial Computer Software - Restricted
 Rights clause in FAR 52.227-19.
  
 Gaussian, Inc.
 340 Quinnipiac St., Bldg. 40, Wallingford CT 06492
  
  
 ---------------------------------------------------------------
 Warning -- This program may not be used in any manner that
 competes with the business of Gaussian, Inc. or will provide
 assistance to any competitor of Gaussian, Inc.  The licensee
 of this program is prohibited from giving any competitor of
 Gaussian, Inc. access to this program.  By using this program,
 the user acknowledges that Gaussian, Inc. is engaged in the
 business of creating and licensing software in the field of
 computational chemistry and represents and warrants to the
 licensee that it is not a competitor of Gaussian, Inc. and that
 it will not use this program in any manner prohibited above.
 ---------------------------------------------------------------
  

 Cite this work as:
 Gaussian 09, Revision D.01,
 M. J. Frisch, G. W. Trucks, H. B. Schlegel, G. E. Scuseria, 
 M. A. Robb, J. R. Cheeseman, G. Scalmani, V. Barone, B. Mennucci, 
 G. A. Petersson, H. Nakatsuji, M. Caricato, X. Li, H. P. Hratchian, 
 A. F. Izmaylov, J. Bloino, G. Zheng, J. L. Sonnenberg, M. Hada, 
 M. Ehara, K. Toyota, R. Fukuda, J. Hasegawa, M. Ishida, T. Nakajima, 
 Y. Honda, O. Kitao, H. Nakai, T. Vreven, J. A. Montgomery, Jr., 
 J. E. Peralta, F. Ogliaro, M. Bearpark, J. J. Heyd, E. Brothers, 
 K. N. Kudin, V. N. Staroverov, T. Keith, R. Kobayashi, J. Normand, 
 K. Raghavachari, A. Rendell, J. C. Burant, S. S. Iyengar, J. Tomasi, 
 M. Cossi, N. Rega, J. M. Millam, M. Klene, J. E. Knox, J. B. Cross, 
 V. Bakken, C. Adamo, J. Jaramillo, R. Gomperts, R. E. Stratmann, 
 O. Yazyev, A. J. Austin, R. Cammi, C. Pomelli, J. W. Ochterski, 
 R. L. Martin, K. Morokuma, V. G. Zakrzewski, G. A. Voth, 
 P. Salvador, J. J. Dannenberg, S. Dapprich, A. D. Daniels, 
 O. Farkas, J. B. Foresman, J. V. Ortiz, J. Cioslowski, 
 and D. J. Fox, Gaussian, Inc., Wallingford CT, 2013.
 
 ******************************************
 Gaussian 09:  ES64L-G09RevD.01 24-Apr-2013
                 1-Nov-2017 
 ******************************************
 %chk=2hc_1_rel-mega_dimer_1.chk
 %nproc=4
 Will use up to    4 processors via shared memory.
 %mem=28GB
 ------------------------------------------
 #p wb97xd/6-311++G** td=(nstates=2) nosymm
 ------------------------------------------
 1/38=1/1;
 2/12=2,15=1,17=6,18=5,40=1/2;
 3/5=4,6=6,7=1111,11=9,16=1,25=1,30=1,74=-58/1,2,8,3;
 4//1;
 5/5=2,38=5/2;
 8/6=1,10=2,108=2/1;
 9/41=2,42=1,70=2/14;
 6/7=2,8=2,9=2,10=2/1;
 99/5=1,9=1/99;
 Leave Link    1 at Wed Nov  1 19:19:32 2017, MaxMem=  3758096384 cpu:         0.2
 (Enter /share/apps/gaussian/g09_D01/g09/l101.exe)
 -----
 Title
 -----
 Symbolic Z-matrix:
 Charge =  0 Multiplicity = 1
 C                    -0.0456   -3.21264  -0.67304 
 C                    -1.16356  -4.03755  -0.99906 
 H                    -0.12129  -2.47529   0.12188 
 C                     1.14661  -3.33552  -1.34859 
 C                    -0.99793  -4.97495  -2.05567 
 N                    -2.33745  -3.93316  -0.32458 
 C                     1.3206   -4.2705   -2.39922 
 H                     1.97111  -2.6822   -1.06047 
 C                     0.20216  -5.07477  -2.7253 
 H                    -1.8261   -5.61189  -2.35623 
 C                    -3.45104  -4.81759  -0.63829 
 C                    -2.48278  -2.95113   0.73861 
 C                     2.5213   -4.39693  -3.16445 
 H                     0.29953  -5.79229  -3.54133 
 H                    -3.15029  -5.87257  -0.54965 
 H                    -4.26893  -4.62644   0.06324 
 H                    -3.81896  -4.64893  -1.66218 
 H                    -2.29016  -1.93341   0.36524 
 H                    -3.50245  -2.99128   1.13259 
 H                    -1.7832   -3.15238   1.56346 
 C                     3.70418  -3.73004  -2.97634 
 H                     2.47843  -5.09195  -4.01001 
 C                     4.82425  -3.90407  -3.86262 
 H                     3.81017  -3.04269  -2.1395 
 C                     6.11603  -3.24131  -3.59483 
 O                     4.72679  -4.64403  -4.90867 
 C                     7.19644  -3.4445   -4.50546 
 C                     6.35306  -2.41888  -2.473 
 H                     6.04768  -4.52891  -5.53026 
 C                     8.44931  -2.86207  -4.2561 
 O                     7.03904  -4.19827  -5.6112 
 C                     7.5888   -1.83401  -2.24194 
 H                     5.55265  -2.22183  -1.76161 
 C                     8.64194  -2.06555  -3.13706 
 H                     9.25731  -3.06914  -4.95777 
 H                     7.73762  -1.19613  -1.37118 
 H                     9.61957  -1.61959  -2.9473 
 C                    -4.46043   1.698    -1.11664 
 C                    -5.7133    2.28044  -1.366 
 C                    -3.38002   1.90119  -2.02727 
 O                    -4.30303   0.94423  -0.0109 
 C                    -5.90593   3.07695  -2.48504 
 H                    -6.5213    2.07336  -0.66433 
 C                    -3.61705   2.72362  -3.1491 
 C                    -2.08824   1.23843  -1.75948 
 H                    -3.31167   0.61359  -0.09184 
 C                    -4.85279   3.30849  -3.38017 
 H                    -6.88356   3.52291  -2.6748 
 H                    -2.81664   2.92067  -3.86049 
 C                    -0.96817   1.41246  -2.64576 
 O                    -1.99078   0.49847  -0.71343 
 H                    -5.00161   3.94637  -4.25092 
 C                     0.21471   0.74557  -2.45765 
 H                    -1.07416   2.09981  -3.4826 
 C                     1.41541   0.872    -3.22288 
 H                     0.25758   0.05055  -1.61209 
 C                     1.5894    1.80698  -4.27351 
 C                     2.53385   0.06773  -2.89681 
 H                     0.76491   2.4603   -4.56163 
 C                     2.78161   1.92986  -4.94906 
 H                     2.43648  -0.64979  -2.08077 
 C                     3.73394   0.16755  -3.56643 
 C                     3.89957   1.10495  -4.62304 
 H                     2.8573    2.66721  -5.74398 
 H                     4.56211  -0.46939  -3.26587 
 N                     5.07346   1.20934  -5.29752 
 C                     5.21879   2.19137  -6.36071 
 C                     6.18705   0.32491  -4.98381 
 H                     5.02617   3.20909  -5.98734 
 H                     6.23846   2.15122  -6.75469 
 H                     4.51921   1.99012  -7.18556 
 H                     5.8863   -0.73007  -5.07245 
 H                     7.00493   0.51606  -5.68534 
 H                     6.55497   0.49358  -3.95992 
 
 NAtoms=     74 NQM=       74 NQMF=       0 NMMI=      0 NMMIF=      0
                NMic=       0 NMicF=      0.
                    Isotopes and Nuclear Properties:
 (Nuclear quadrupole moments (NQMom) in fm**2, nuclear magnetic moments (NMagM)
  in nuclear magnetons)

  Atom         1           2           3           4           5           6           7           8           9          10
 IAtWgt=          12          12           1          12          12          14          12           1          12           1
 AtmWgt=  12.0000000  12.0000000   1.0078250  12.0000000  12.0000000  14.0030740  12.0000000   1.0078250  12.0000000   1.0078250
 NucSpn=           0           0           1           0           0           2           0           1           0           1
 AtZEff=   0.0000000   0.0000000   0.0000000   0.0000000   0.0000000   0.0000000   0.0000000   0.0000000   0.0000000   0.0000000
 NQMom=    0.0000000   0.0000000   0.0000000   0.0000000   0.0000000   2.0440000   0.0000000   0.0000000   0.0000000   0.0000000
 NMagM=    0.0000000   0.0000000   2.7928460   0.0000000   0.0000000   0.4037610   0.0000000   2.7928460   0.0000000   2.7928460
 AtZNuc=   6.0000000   6.0000000   1.0000000   6.0000000   6.0000000   7.0000000   6.0000000   1.0000000   6.0000000   1.0000000

  Atom        11          12          13          14          15          16          17          18          19          20
 IAtWgt=          12          12          12           1           1           1           1           1           1           1
 AtmWgt=  12.0000000  12.0000000  12.0000000   1.0078250   1.0078250   1.0078250   1.0078250   1.0078250   1.0078250   1.0078250
 NucSpn=           0           0           0           1           1           1           1           1           1           1
 AtZEff=   0.0000000   0.0000000   0.0000000   0.0000000   0.0000000   0.0000000   0.0000000   0.0000000   0.0000000   0.0000000
 NQMom=    0.0000000   0.0000000   0.0000000   0.0000000   0.0000000   0.0000000   0.0000000   0.0000000   0.0000000   0.0000000
 NMagM=    0.0000000   0.0000000   0.0000000   2.7928460   2.7928460   2.7928460   2.7928460   2.7928460   2.7928460   2.7928460
 AtZNuc=   6.0000000   6.0000000   6.0000000   1.0000000   1.0000000   1.0000000   1.0000000   1.0000000   1.0000000   1.0000000

  Atom        21          22          23          24          25          26          27          28          29          30
 IAtWgt=          12           1          12           1          12          16          12          12           1          12
 AtmWgt=  12.0000000   1.0078250  12.0000000   1.0078250  12.0000000  15.9949146  12.0000000  12.0000000   1.0078250  12.0000000
 NucSpn=           0           1           0           1           0           0           0           0           1           0
 AtZEff=   0.0000000   0.0000000   0.0000000   0.0000000   0.0000000   0.0000000   0.0000000   0.0000000   0.0000000   0.0000000
 NQMom=    0.0000000   0.0000000   0.0000000   0.0000000   0.0000000   0.0000000   0.0000000   0.0000000   0.0000000   0.0000000
 NMagM=    0.0000000   2.7928460   0.0000000   2.7928460   0.0000000   0.0000000   0.0000000   0.0000000   2.7928460   0.0000000
 AtZNuc=   6.0000000   1.0000000   6.0000000   1.0000000   6.0000000   8.0000000   6.0000000   6.0000000   1.0000000   6.0000000

  Atom        31          32          33          34          35          36          37          38          39          40
 IAtWgt=          16          12           1          12           1           1           1          12          12          12
 AtmWgt=  15.9949146  12.0000000   1.0078250  12.0000000   1.0078250   1.0078250   1.0078250  12.0000000  12.0000000  12.0000000
 NucSpn=           0           0           1           0           1           1           1           0           0           0
 AtZEff=   0.0000000   0.0000000   0.0000000   0.0000000   0.0000000   0.0000000   0.0000000   0.0000000   0.0000000   0.0000000
 NQMom=    0.0000000   0.0000000   0.0000000   0.0000000   0.0000000   0.0000000   0.0000000   0.0000000   0.0000000   0.0000000
 NMagM=    0.0000000   0.0000000   2.7928460   0.0000000   2.7928460   2.7928460   2.7928460   0.0000000   0.0000000   0.0000000
 AtZNuc=   8.0000000   6.0000000   1.0000000   6.0000000   1.0000000   1.0000000   1.0000000   6.0000000   6.0000000   6.0000000

  Atom        41          42          43          44          45          46          47          48          49          50
 IAtWgt=          16          12           1          12          12           1          12           1           1          12
 AtmWgt=  15.9949146  12.0000000   1.0078250  12.0000000  12.0000000   1.0078250  12.0000000   1.0078250   1.0078250  12.0000000
 NucSpn=           0           0           1           0           0           1           0           1           1           0
 AtZEff=   0.0000000   0.0000000   0.0000000   0.0000000   0.0000000   0.0000000   0.0000000   0.0000000   0.0000000   0.0000000
 NQMom=    0.0000000   0.0000000   0.0000000   0.0000000   0.0000000   0.0000000   0.0000000   0.0000000   0.0000000   0.0000000
 NMagM=    0.0000000   0.0000000   2.7928460   0.0000000   0.0000000   2.7928460   0.0000000   2.7928460   2.7928460   0.0000000
 AtZNuc=   8.0000000   6.0000000   1.0000000   6.0000000   6.0000000   1.0000000   6.0000000   1.0000000   1.0000000   6.0000000

  Atom        51          52          53          54          55          56          57          58          59          60
 IAtWgt=          16           1          12           1          12           1          12          12           1          12
 AtmWgt=  15.9949146   1.0078250  12.0000000   1.0078250  12.0000000   1.0078250  12.0000000  12.0000000   1.0078250  12.0000000
 NucSpn=           0           1           0           1           0           1           0           0           1           0
 AtZEff=   0.0000000   0.0000000   0.0000000   0.0000000   0.0000000   0.0000000   0.0000000   0.0000000   0.0000000   0.0000000
 NQMom=    0.0000000   0.0000000   0.0000000   0.0000000   0.0000000   0.0000000   0.0000000   0.0000000   0.0000000   0.0000000
 NMagM=    0.0000000   2.7928460   0.0000000   2.7928460   0.0000000   2.7928460   0.0000000   0.0000000   2.7928460   0.0000000
 AtZNuc=   8.0000000   1.0000000   6.0000000   1.0000000   6.0000000   1.0000000   6.0000000   6.0000000   1.0000000   6.0000000

  Atom        61          62          63          64          65          66          67          68          69          70
 IAtWgt=           1          12          12           1           1          14          12          12           1           1
 AtmWgt=   1.0078250  12.0000000  12.0000000   1.0078250   1.0078250  14.0030740  12.0000000  12.0000000   1.0078250   1.0078250
 NucSpn=           1           0           0           1           1           2           0           0           1           1
 AtZEff=   0.0000000   0.0000000   0.0000000   0.0000000   0.0000000   0.0000000   0.0000000   0.0000000   0.0000000   0.0000000
 NQMom=    0.0000000   0.0000000   0.0000000   0.0000000   0.0000000   2.0440000   0.0000000   0.0000000   0.0000000   0.0000000
 NMagM=    2.7928460   0.0000000   0.0000000   2.7928460   2.7928460   0.4037610   0.0000000   0.0000000   2.7928460   2.7928460
 AtZNuc=   1.0000000   6.0000000   6.0000000   1.0000000   1.0000000   7.0000000   6.0000000   6.0000000   1.0000000   1.0000000

  Atom        71          72          73          74
 IAtWgt=           1           1           1           1
 AtmWgt=   1.0078250   1.0078250   1.0078250   1.0078250
 NucSpn=           1           1           1           1
 AtZEff=   0.0000000   0.0000000   0.0000000   0.0000000
 NQMom=    0.0000000   0.0000000   0.0000000   0.0000000
 NMagM=    2.7928460   2.7928460   2.7928460   2.7928460
 AtZNuc=   1.0000000   1.0000000   1.0000000   1.0000000
 Leave Link  101 at Wed Nov  1 19:19:32 2017, MaxMem=  3758096384 cpu:         0.5
 (Enter /share/apps/gaussian/g09_D01/g09/l202.exe)
 Symmetry turned off by external request.
 Stoichiometry    C34H34N2O4
 Framework group  C1[X(C34H34N2O4)]
 Deg. of freedom   216
 Full point group                 C1      NOp   1
                          Input orientation:                          
 ---------------------------------------------------------------------
 Center     Atomic      Atomic             Coordinates (Angstroms)
 Number     Number       Type             X           Y           Z
 ---------------------------------------------------------------------
      1          6           0       -0.045604   -3.212643   -0.673042
      2          6           0       -1.163557   -4.037551   -0.999057
      3          1           0       -0.121291   -2.475288    0.121883
      4          6           0        1.146608   -3.335524   -1.348586
      5          6           0       -0.997931   -4.974953   -2.055672
      6          7           0       -2.337452   -3.933160   -0.324579
      7          6           0        1.320601   -4.270503   -2.399224
      8          1           0        1.971105   -2.682196   -1.060472
      9          6           0        0.202155   -5.074774   -2.725295
     10          1           0       -1.826104   -5.611893   -2.356233
     11          6           0       -3.451039   -4.817588   -0.638286
     12          6           0       -2.482782   -2.951131    0.738607
     13          6           0        2.521300   -4.396929   -3.164451
     14          1           0        0.299534   -5.792287   -3.541330
     15          1           0       -3.150286   -5.872565   -0.549647
     16          1           0       -4.268925   -4.626441    0.063239
     17          1           0       -3.818958   -4.648925   -1.662177
     18          1           0       -2.290162   -1.933406    0.365237
     19          1           0       -3.502453   -2.991283    1.132588
     20          1           0       -1.783201   -3.152381    1.563457
     21          6           0        3.704177   -3.730044   -2.976341
     22          1           0        2.478430   -5.091951   -4.010014
     23          6           0        4.824246   -3.904072   -3.862622
     24          1           0        3.810173   -3.042685   -2.139497
     25          6           0        6.116034   -3.241308   -3.594826
     26          8           0        4.726790   -4.644034   -4.908669
     27          6           0        7.196441   -3.444502   -4.505463
     28          6           0        6.353060   -2.418884   -2.472996
     29          1           0        6.047681   -4.528914   -5.530262
     30          6           0        8.449310   -2.862065   -4.256098
     31          8           0        7.039043   -4.198267   -5.611204
     32          6           0        7.588797   -1.834009   -2.241935
     33          1           0        5.552651   -2.221827   -1.761605
     34          6           0        8.641937   -2.065551   -3.137064
     35          1           0        9.257308   -3.069135   -4.957770
     36          1           0        7.737617   -1.196134   -1.371176
     37          1           0        9.619574   -1.619592   -2.947297
     38          6           0       -4.460431    1.697999   -1.116637
     39          6           0       -5.713299    2.280435   -1.366002
     40          6           0       -3.380024    1.901192   -2.027274
     41          8           0       -4.303033    0.944233   -0.010897
     42          6           0       -5.905928    3.076949   -2.485036
     43          1           0       -6.521299    2.073365   -0.664330
     44          6           0       -3.617051    2.723616   -3.149103
     45          6           0       -2.088235    1.238428   -1.759477
     46          1           0       -3.311670    0.613585   -0.091837
     47          6           0       -4.852787    3.308490   -3.380165
     48          1           0       -6.883564    3.522908   -2.674803
     49          1           0       -2.816641    2.920673   -3.860494
     50          6           0       -0.968168    1.412456   -2.645759
     51          8           0       -1.990780    0.498466   -0.713431
     52          1           0       -5.001607    3.946366   -4.250924
     53          6           0        0.214710    0.745571   -2.457648
     54          1           0       -1.074164    2.099815   -3.482603
     55          6           0        1.415410    0.871997   -3.222876
     56          1           0        0.257579    0.050548   -1.612086
     57          6           0        1.589403    1.806976   -4.273513
     58          6           0        2.533855    0.067726   -2.896805
     59          1           0        0.764905    2.460304   -4.561628
     60          6           0        2.781614    1.929857   -4.949058
     61          1           0        2.436477   -0.649787   -2.080769
     62          6           0        3.733941    0.167547   -3.566428
     63          6           0        3.899567    1.104949   -4.623043
     64          1           0        2.857302    2.667212   -5.743983
     65          1           0        4.562114   -0.469393   -3.265867
     66          7           0        5.073463    1.209340   -5.297521
     67          6           0        5.218793    2.191367   -6.360708
     68          6           0        6.187049    0.324912   -4.983814
     69          1           0        5.026173    3.209094   -5.987337
     70          1           0        6.238463    2.151217   -6.754687
     71          1           0        4.519212    1.990119   -7.185558
     72          1           0        5.886297   -0.730065   -5.072452
     73          1           0        7.004935    0.516059   -5.685338
     74          1           0        6.554969    0.493576   -3.959923
 ---------------------------------------------------------------------
 Rotational constants (GHZ):      0.1182829      0.0441228      0.0344765
 Leave Link  202 at Wed Nov  1 19:19:32 2017, MaxMem=  3758096384 cpu:         0.2
 (Enter /share/apps/gaussian/g09_D01/g09/l301.exe)
 Standard basis: 6-311++G(d,p) (5D, 7F)
 Ernie: Thresh=  0.10000D-02 Tol=  0.10000D-05 Strict=F.
  1118 basis functions,  1746 primitive gaussians,  1158 cartesian basis functions
   142 alpha electrons      142 beta electrons
       nuclear repulsion energy      4178.8682696813 Hartrees.
 IExCor= 4639 DFT=T Ex+Corr=wB97XD ExCW=0 ScaHFX=  1.000000
 ScaDFX=  1.000000  1.000000  1.000000  1.000000 ScalE2=  1.000000  1.000000
 IRadAn=      0 IRanWt=     -1 IRanGd=            0 ICorTp=0 IEmpDi=121
  HFx wShort=  0.000000 wLong=  0.200000 cFull=  0.222036 cShort=  0.000000 cLong=  0.777964
  DFx wShort=  0.000000 wLong=  0.200000 cFull=  0.000000 cShort=  0.000000 cLong=  1.000000
 NAtoms=   74 NActive=   74 NUniq=   74 SFac= 1.00D+00 NAtFMM=   60 NAOKFM=T Big=T
 Integral buffers will be    131072 words long.
 Raffenetti 1 integral format.
 Two-electron integral symmetry is turned off.
 R6Disp:  Grimme-D2 Dispersion energy=       -0.0581134283 Hartrees.
 Nuclear repulsion after empirical dispersion term =     4178.8101562530 Hartrees.
 Leave Link  301 at Wed Nov  1 19:19:33 2017, MaxMem=  3758096384 cpu:         0.4
 (Enter /share/apps/gaussian/g09_D01/g09/l302.exe)
 NPDir=0 NMtPBC=     1 NCelOv=     1 NCel=       1 NClECP=     1 NCelD=      1
         NCelK=      1 NCelE2=     1 NClLst=     1 CellRange=     0.0.
 One-electron integrals computed using PRISM.
 NBasis=  1118 RedAO= T EigKep=  1.03D-06  NBF=  1118
 NBsUse=  1102 1.00D-06 EigRej=  9.08D-07 NBFU=  1102
 Precomputing XC quadrature grid using
 IXCGrd= 4 IRadAn=           0 IRanWt=          -1 IRanGd=           0 AccXCQ= 0.00D+00.
 Generated NRdTot=       0 NPtTot=           0 NUsed=           0 NTot=          32
 NSgBfM=  1102  1102  1102  1102  1102 MxSgAt=    74 MxSgA2=    74.
 Leave Link  302 at Wed Nov  1 19:19:56 2017, MaxMem=  3758096384 cpu:        45.9
 (Enter /share/apps/gaussian/g09_D01/g09/l308.exe)
 Leave Link  308 at Wed Nov  1 19:19:58 2017, MaxMem=  3758096384 cpu:         3.4
 (Enter /share/apps/gaussian/g09_D01/g09/l303.exe)
 DipDrv:  MaxL=1.
 Leave Link  303 at Wed Nov  1 19:19:59 2017, MaxMem=  3758096384 cpu:         2.1
 (Enter /share/apps/gaussian/g09_D01/g09/l401.exe)
 ExpMin= 3.60D-02 ExpMax= 8.59D+03 ExpMxC= 1.30D+03 IAcc=3 IRadAn=         5 AccDes= 0.00D+00
 Harris functional with IExCor= 4639 and IRadAn=       5 diagonalized for initial guess.
 HarFok:  IExCor= 4639 AccDes= 0.00D+00 IRadAn=         5 IDoV= 1 UseB2=F ITyADJ=14
 ICtDFT=  3500011 ScaDFX=  1.000000  1.000000  1.000000  1.000000
 FoFCou: FMM=F IPFlag=           0 FMFlag=      100000 FMFlg1=        2001
         NFxFlg=           0 DoJE=T BraDBF=F KetDBF=T FulRan=T
         wScrn=  0.000000 ICntrl=     500 IOpCl=  0 I1Cent=   200000004 NGrid=           0
         NMat0=    1 NMatS0=      1 NMatT0=    0 NMatD0=    1 NMtDS0=    0 NMtDT0=    0
 Symmetry not used in FoFCou.
 Harris En= -1650.96255793417    
 JPrj=0 DoOrth=F DoCkMO=F.
 Leave Link  401 at Wed Nov  1 19:23:46 2017, MaxMem=  3758096384 cpu:       452.2
 (Enter /share/apps/gaussian/g09_D01/g09/l502.exe)
 Closed shell SCF:
 Using DIIS extrapolation, IDIIS=  1040.
 Two-electron integral symmetry not used.
 IVT=     4055486 IEndB=     4055486 NGot=  3758096384 MDV=  3755399661
 LenX=  3755399661 LenY=  3754057539
 Requested convergence on RMS density matrix=1.00D-08 within 128 cycles.
 Requested convergence on MAX density matrix=1.00D-06.
 Requested convergence on             energy=1.00D-06.
 No special actions if energy rises.
 Fock matrices will be formed incrementally for  20 cycles.

 Cycle   1  Pass 1  IDiag  1:
 FoFJK:  IHMeth= 1 ICntrl=       0 DoSepK=T KAlg= 0 I1Cent=   0 FoldK=F
 IRaf=         1 NMat=   1 IRICut=       1 DoRegI=T DoRafI=F ISym2E= 0.
 FoFCou: FMM=T IPFlag=           0 FMFlag=      100000 FMFlg1=        2001
         NFxFlg=           0 DoJE=T BraDBF=F KetDBF=F FulRan=T
         wScrn=  0.000000 ICntrl=     500 IOpCl=  0 I1Cent=           0 NGrid=           0
         NMat0=    1 NMatS0=      1 NMatT0=    0 NMatD0=    1 NMtDS0=    0 NMtDT0=    0
 Symmetry not used in FoFCou.
 FMM levels:  10  Number of levels for PrismC:   9
 E= -1725.77556814536    
 DIIS: error= 4.87D-02 at cycle   1 NSaved=   1.
 NSaved= 1 IEnMin= 1 EnMin= -1725.77556814536     IErMin= 1 ErrMin= 4.87D-02
 ErrMax= 4.87D-02  0.00D+00 EMaxC= 1.00D-01 BMatC= 3.75D+00 BMatP= 3.75D+00
 IDIUse=3 WtCom= 5.13D-01 WtEn= 4.87D-01
 Coeff-Com:  0.100D+01
 Coeff-En:   0.100D+01
 Coeff:      0.100D+01
 Gap=     0.264 Goal=   None    Shift=    0.000
 GapD=    0.264 DampG=1.000 DampE=0.500 DampFc=0.5000 IDamp=-1.
 Damping current iteration by 5.00D-01
 RMSDP=1.96D-02 MaxDP=2.66D+00              OVMax= 1.99D-01

 Cycle   2  Pass 1  IDiag  1:
 RMSU=  3.30D-03    CP:  8.25D-01
 E= -1726.02605246381     Delta-E=       -0.250484318447 Rises=F Damp=T
 DIIS: error= 2.25D-02 at cycle   2 NSaved=   2.
 NSaved= 2 IEnMin= 2 EnMin= -1726.02605246381     IErMin= 2 ErrMin= 2.25D-02
 ErrMax= 2.25D-02  0.00D+00 EMaxC= 1.00D-01 BMatC= 7.89D-01 BMatP= 3.75D+00
 IDIUse=3 WtCom= 7.75D-01 WtEn= 2.25D-01
 Coeff-Com: -0.573D+00 0.157D+01
 Coeff-En:   0.000D+00 0.100D+01
 Coeff:     -0.444D+00 0.144D+01
 Gap=     0.268 Goal=   None    Shift=    0.000
 RMSDP=1.13D-02 MaxDP=1.65D+00 DE=-2.50D-01 OVMax= 2.40D-01

 Cycle   3  Pass 1  IDiag  1:
 RMSU=  4.29D-03    CP:  6.28D-01  7.82D-01
 E= -1726.07815239863     Delta-E=       -0.052099934818 Rises=F Damp=F
 DIIS: error= 2.47D-02 at cycle   3 NSaved=   3.
 NSaved= 3 IEnMin= 3 EnMin= -1726.07815239863     IErMin= 2 ErrMin= 2.25D-02
 ErrMax= 2.47D-02  0.00D+00 EMaxC= 1.00D-01 BMatC= 3.03D-01 BMatP= 7.89D-01
 IDIUse=3 WtCom= 7.53D-01 WtEn= 2.47D-01
 Coeff-Com: -0.390D+00 0.838D+00 0.553D+00
 Coeff-En:   0.000D+00 0.379D+00 0.621D+00
 Coeff:     -0.294D+00 0.724D+00 0.570D+00
 Gap=     0.265 Goal=   None    Shift=    0.000
 RMSDP=3.52D-03 MaxDP=3.18D-01 DE=-5.21D-02 OVMax= 1.23D-01

 Cycle   4  Pass 1  IDiag  1:
 RMSU=  1.23D-03    CP:  5.94D-01  1.32D+00  5.02D-01
 E= -1726.32563360193     Delta-E=       -0.247481203303 Rises=F Damp=F
 DIIS: error= 4.68D-03 at cycle   4 NSaved=   4.
 NSaved= 4 IEnMin= 4 EnMin= -1726.32563360193     IErMin= 4 ErrMin= 4.68D-03
 ErrMax= 4.68D-03  0.00D+00 EMaxC= 1.00D-01 BMatC= 2.11D-02 BMatP= 3.03D-01
 IDIUse=3 WtCom= 9.53D-01 WtEn= 4.68D-02
 Coeff-Com: -0.145D+00 0.312D+00 0.324D+00 0.508D+00
 Coeff-En:   0.000D+00 0.000D+00 0.000D+00 0.100D+01
 Coeff:     -0.138D+00 0.298D+00 0.309D+00 0.531D+00
 Gap=     0.231 Goal=   None    Shift=    0.000
 RMSDP=7.59D-04 MaxDP=5.24D-02 DE=-2.47D-01 OVMax= 2.52D-02

 Cycle   5  Pass 1  IDiag  1:
 RMSU=  4.15D-04    CP:  5.99D-01  1.23D+00  6.17D-01  8.88D-01
 E= -1726.34320329650     Delta-E=       -0.017569694568 Rises=F Damp=F
 DIIS: error= 6.85D-04 at cycle   5 NSaved=   5.
 NSaved= 5 IEnMin= 5 EnMin= -1726.34320329650     IErMin= 5 ErrMin= 6.85D-04
 ErrMax= 6.85D-04  0.00D+00 EMaxC= 1.00D-01 BMatC= 3.46D-04 BMatP= 2.11D-02
 IDIUse=3 WtCom= 9.93D-01 WtEn= 6.85D-03
 Coeff-Com:  0.238D-01-0.508D-01 0.455D-03 0.146D+00 0.880D+00
 Coeff-En:   0.000D+00 0.000D+00 0.000D+00 0.000D+00 0.100D+01
 Coeff:      0.236D-01-0.505D-01 0.452D-03 0.145D+00 0.881D+00
 Gap=     0.232 Goal=   None    Shift=    0.000
 RMSDP=3.00D-04 MaxDP=2.69D-02 DE=-1.76D-02 OVMax= 1.06D-02

 Cycle   6  Pass 1  IDiag  1:
 RMSU=  1.84D-04    CP:  5.96D-01  1.22D+00  6.20D-01  1.03D+00  1.08D+00
 E= -1726.34373483628     Delta-E=       -0.000531539784 Rises=F Damp=F
 DIIS: error= 5.23D-04 at cycle   6 NSaved=   6.
 NSaved= 6 IEnMin= 6 EnMin= -1726.34373483628     IErMin= 6 ErrMin= 5.23D-04
 ErrMax= 5.23D-04  0.00D+00 EMaxC= 1.00D-01 BMatC= 1.23D-04 BMatP= 3.46D-04
 IDIUse=3 WtCom= 9.95D-01 WtEn= 5.23D-03
 Coeff-Com:  0.280D-01-0.601D-01-0.391D-01-0.281D-02 0.443D+00 0.631D+00
 Coeff-En:   0.000D+00 0.000D+00 0.000D+00 0.000D+00 0.000D+00 0.100D+01
 Coeff:      0.278D-01-0.597D-01-0.389D-01-0.280D-02 0.441D+00 0.633D+00
 Gap=     0.233 Goal=   None    Shift=    0.000
 RMSDP=8.70D-05 MaxDP=7.87D-03 DE=-5.32D-04 OVMax= 5.54D-03

 Cycle   7  Pass 1  IDiag  1:
 RMSU=  6.21D-05    CP:  5.96D-01  1.22D+00  6.20D-01  1.06D+00  1.19D+00
                    CP:  1.05D+00
 E= -1726.34390060274     Delta-E=       -0.000165766460 Rises=F Damp=F
 DIIS: error= 1.84D-04 at cycle   7 NSaved=   7.
 NSaved= 7 IEnMin= 7 EnMin= -1726.34390060274     IErMin= 7 ErrMin= 1.84D-04
 ErrMax= 1.84D-04  0.00D+00 EMaxC= 1.00D-01 BMatC= 1.18D-05 BMatP= 1.23D-04
 IDIUse=3 WtCom= 9.98D-01 WtEn= 1.84D-03
 Coeff-Com:  0.238D-02-0.507D-02-0.808D-02-0.219D-01-0.354D-01 0.185D+00
 Coeff-Com:  0.883D+00
 Coeff-En:   0.000D+00 0.000D+00 0.000D+00 0.000D+00 0.000D+00 0.000D+00
 Coeff-En:   0.100D+01
 Coeff:      0.237D-02-0.506D-02-0.807D-02-0.219D-01-0.353D-01 0.184D+00
 Coeff:      0.884D+00
 Gap=     0.233 Goal=   None    Shift=    0.000
 RMSDP=5.81D-05 MaxDP=6.67D-03 DE=-1.66D-04 OVMax= 3.67D-03

 Cycle   8  Pass 1  IDiag  1:
 RMSU=  3.37D-05    CP:  5.96D-01  1.22D+00  6.19D-01  1.08D+00  1.25D+00
                    CP:  1.22D+00  1.07D+00
 E= -1726.34393576636     Delta-E=       -0.000035163622 Rises=F Damp=F
 DIIS: error= 9.95D-05 at cycle   8 NSaved=   8.
 NSaved= 8 IEnMin= 8 EnMin= -1726.34393576636     IErMin= 8 ErrMin= 9.95D-05
 ErrMax= 9.95D-05  0.00D+00 EMaxC= 1.00D-01 BMatC= 3.20D-06 BMatP= 1.18D-05
 IDIUse=1 WtCom= 1.00D+00 WtEn= 0.00D+00
 Coeff-Com: -0.377D-02 0.812D-02 0.296D-02-0.119D-01-0.107D+00-0.218D-01
 Coeff-Com:  0.405D+00 0.728D+00
 Coeff:     -0.377D-02 0.812D-02 0.296D-02-0.119D-01-0.107D+00-0.218D-01
 Coeff:      0.405D+00 0.728D+00
 Gap=     0.233 Goal=   None    Shift=    0.000
 RMSDP=2.93D-05 MaxDP=3.93D-03 DE=-3.52D-05 OVMax= 2.13D-03

 Cycle   9  Pass 1  IDiag  1:
 RMSU=  1.37D-05    CP:  5.96D-01  1.22D+00  6.18D-01  1.09D+00  1.28D+00
                    CP:  1.28D+00  1.32D+00  1.07D+00
 E= -1726.34394560391     Delta-E=       -0.000009837546 Rises=F Damp=F
 DIIS: error= 3.83D-05 at cycle   9 NSaved=   9.
 NSaved= 9 IEnMin= 9 EnMin= -1726.34394560391     IErMin= 9 ErrMin= 3.83D-05
 ErrMax= 3.83D-05  0.00D+00 EMaxC= 1.00D-01 BMatC= 5.01D-07 BMatP= 3.20D-06
 IDIUse=1 WtCom= 1.00D+00 WtEn= 0.00D+00
 Coeff-Com: -0.172D-02 0.368D-02 0.327D-02 0.188D-02-0.240D-01-0.448D-01
 Coeff-Com: -0.109D+00 0.175D+00 0.995D+00
 Coeff:     -0.172D-02 0.368D-02 0.327D-02 0.188D-02-0.240D-01-0.448D-01
 Coeff:     -0.109D+00 0.175D+00 0.995D+00
 Gap=     0.233 Goal=   None    Shift=    0.000
 RMSDP=1.79D-05 MaxDP=2.21D-03 DE=-9.84D-06 OVMax= 1.26D-03

 Cycle  10  Pass 1  IDiag  1:
 RMSU=  8.33D-06    CP:  5.96D-01  1.22D+00  6.17D-01  1.09D+00  1.29D+00
                    CP:  1.31D+00  1.46D+00  1.22D+00  1.64D+00
 E= -1726.34394802877     Delta-E=       -0.000002424866 Rises=F Damp=F
 DIIS: error= 1.44D-05 at cycle  10 NSaved=  10.
 NSaved=10 IEnMin=10 EnMin= -1726.34394802877     IErMin=10 ErrMin= 1.44D-05
 ErrMax= 1.44D-05  0.00D+00 EMaxC= 1.00D-01 BMatC= 7.89D-08 BMatP= 5.01D-07
 IDIUse=1 WtCom= 1.00D+00 WtEn= 0.00D+00
 Coeff-Com:  0.200D-03-0.433D-03 0.443D-03 0.280D-02 0.103D-01-0.882D-02
 Coeff-Com: -0.103D+00-0.594D-01 0.311D+00 0.847D+00
 Coeff:      0.200D-03-0.433D-03 0.443D-03 0.280D-02 0.103D-01-0.882D-02
 Coeff:     -0.103D+00-0.594D-01 0.311D+00 0.847D+00
 Gap=     0.233 Goal=   None    Shift=    0.000
 RMSDP=6.00D-06 MaxDP=7.71D-04 DE=-2.42D-06 OVMax= 4.40D-04

 Cycle  11  Pass 1  IDiag  1:
 RMSU=  2.47D-06    CP:  5.96D-01  1.22D+00  6.17D-01  1.09D+00  1.30D+00
                    CP:  1.31D+00  1.50D+00  1.28D+00  1.87D+00  1.08D+00
 E= -1726.34394833052     Delta-E=       -0.000000301748 Rises=F Damp=F
 DIIS: error= 4.90D-06 at cycle  11 NSaved=  11.
 NSaved=11 IEnMin=11 EnMin= -1726.34394833052     IErMin=11 ErrMin= 4.90D-06
 ErrMax= 4.90D-06  0.00D+00 EMaxC= 1.00D-01 BMatC= 2.18D-08 BMatP= 7.89D-08
 IDIUse=1 WtCom= 1.00D+00 WtEn= 0.00D+00
 Coeff-Com:  0.379D-03-0.807D-03-0.371D-03 0.107D-02 0.834D-02 0.402D-02
 Coeff-Com: -0.187D-01-0.512D-01-0.769D-01 0.344D+00 0.790D+00
 Coeff:      0.379D-03-0.807D-03-0.371D-03 0.107D-02 0.834D-02 0.402D-02
 Coeff:     -0.187D-01-0.512D-01-0.769D-01 0.344D+00 0.790D+00
 Gap=     0.233 Goal=   None    Shift=    0.000
 RMSDP=2.61D-06 MaxDP=3.06D-04 DE=-3.02D-07 OVMax= 1.33D-04

 Cycle  12  Pass 1  IDiag  1:
 RMSU=  1.14D-06    CP:  5.96D-01  1.22D+00  6.17D-01  1.09D+00  1.30D+00
                    CP:  1.31D+00  1.51D+00  1.30D+00  1.96D+00  1.18D+00
                    CP:  1.23D+00
 E= -1726.34394838077     Delta-E=       -0.000000050253 Rises=F Damp=F
 DIIS: error= 2.00D-06 at cycle  12 NSaved=  12.
 NSaved=12 IEnMin=12 EnMin= -1726.34394838077     IErMin=12 ErrMin= 2.00D-06
 ErrMax= 2.00D-06  0.00D+00 EMaxC= 1.00D-01 BMatC= 3.81D-09 BMatP= 2.18D-08
 IDIUse=1 WtCom= 1.00D+00 WtEn= 0.00D+00
 Coeff-Com:  0.128D-03-0.270D-03-0.218D-03 0.931D-04 0.195D-02 0.264D-02
 Coeff-Com:  0.106D-01-0.113D-01-0.899D-01-0.234D-02 0.335D+00 0.754D+00
 Coeff:      0.128D-03-0.270D-03-0.218D-03 0.931D-04 0.195D-02 0.264D-02
 Coeff:      0.106D-01-0.113D-01-0.899D-01-0.234D-02 0.335D+00 0.754D+00
 Gap=     0.233 Goal=   None    Shift=    0.000
 RMSDP=1.11D-06 MaxDP=7.38D-05 DE=-5.03D-08 OVMax= 4.10D-05

 Cycle  13  Pass 1  IDiag  1:
 RMSU=  4.72D-07    CP:  5.96D-01  1.22D+00  6.17D-01  1.09D+00  1.30D+00
                    CP:  1.31D+00  1.52D+00  1.30D+00  2.00D+00  1.23D+00
                    CP:  1.41D+00  1.08D+00
 E= -1726.34394838785     Delta-E=       -0.000000007074 Rises=F Damp=F
 DIIS: error= 9.42D-07 at cycle  13 NSaved=  13.
 NSaved=13 IEnMin=13 EnMin= -1726.34394838785     IErMin=13 ErrMin= 9.42D-07
 ErrMax= 9.42D-07  0.00D+00 EMaxC= 1.00D-01 BMatC= 6.95D-10 BMatP= 3.81D-09
 IDIUse=1 WtCom= 1.00D+00 WtEn= 0.00D+00
 Coeff-Com: -0.674D-05 0.150D-04-0.359D-04-0.151D-03-0.612D-03 0.237D-03
 Coeff-Com:  0.833D-02 0.393D-02-0.239D-01-0.620D-01 0.107D-02 0.345D+00
 Coeff-Com:  0.728D+00
 Coeff:     -0.674D-05 0.150D-04-0.359D-04-0.151D-03-0.612D-03 0.237D-03
 Coeff:      0.833D-02 0.393D-02-0.239D-01-0.620D-01 0.107D-02 0.345D+00
 Coeff:      0.728D+00
 Gap=     0.233 Goal=   None    Shift=    0.000
 RMSDP=3.48D-07 MaxDP=3.04D-05 DE=-7.07D-09 OVMax= 1.38D-05

 Cycle  14  Pass 1  IDiag  1:
 RMSU=  2.07D-07    CP:  5.96D-01  1.22D+00  6.17D-01  1.09D+00  1.30D+00
                    CP:  1.31D+00  1.52D+00  1.30D+00  2.00D+00  1.24D+00
                    CP:  1.44D+00  1.21D+00  9.98D-01
 E= -1726.34394838930     Delta-E=       -0.000000001455 Rises=F Damp=F
 DIIS: error= 3.40D-07 at cycle  14 NSaved=  14.
 NSaved=14 IEnMin=14 EnMin= -1726.34394838930     IErMin=14 ErrMin= 3.40D-07
 ErrMax= 3.40D-07  0.00D+00 EMaxC= 1.00D-01 BMatC= 7.51D-11 BMatP= 6.95D-10
 IDIUse=1 WtCom= 1.00D+00 WtEn= 0.00D+00
 Coeff-Com: -0.153D-04 0.325D-04 0.592D-05-0.854D-04-0.464D-03-0.202D-03
 Coeff-Com:  0.232D-02 0.230D-02 0.340D-03-0.240D-01-0.377D-01 0.583D-01
 Coeff-Com:  0.272D+00 0.727D+00
 Coeff:     -0.153D-04 0.325D-04 0.592D-05-0.854D-04-0.464D-03-0.202D-03
 Coeff:      0.232D-02 0.230D-02 0.340D-03-0.240D-01-0.377D-01 0.583D-01
 Coeff:      0.272D+00 0.727D+00
 Gap=     0.233 Goal=   None    Shift=    0.000
 RMSDP=1.38D-07 MaxDP=1.17D-05 DE=-1.46D-09 OVMax= 4.63D-06

 Cycle  15  Pass 1  IDiag  1:
 RMSU=  9.23D-08    CP:  5.96D-01  1.22D+00  6.17D-01  1.09D+00  1.30D+00
                    CP:  1.31D+00  1.52D+00  1.30D+00  2.00D+00  1.24D+00
                    CP:  1.45D+00  1.24D+00  1.10D+00  1.20D+00
 E= -1726.34394838943     Delta-E=       -0.000000000127 Rises=F Damp=F
 DIIS: error= 1.77D-07 at cycle  15 NSaved=  15.
 NSaved=15 IEnMin=15 EnMin= -1726.34394838943     IErMin=15 ErrMin= 1.77D-07
 ErrMax= 1.77D-07  0.00D+00 EMaxC= 1.00D-01 BMatC= 1.94D-11 BMatP= 7.51D-11
 IDIUse=1 WtCom= 1.00D+00 WtEn= 0.00D+00
 Coeff-Com: -0.630D-05 0.132D-04 0.987D-05-0.171D-04-0.104D-03-0.156D-03
 Coeff-Com: -0.506D-03 0.148D-03 0.542D-02 0.747D-03-0.208D-01-0.376D-01
 Coeff-Com: -0.171D-01 0.345D+00 0.725D+00
 Coeff:     -0.630D-05 0.132D-04 0.987D-05-0.171D-04-0.104D-03-0.156D-03
 Coeff:     -0.506D-03 0.148D-03 0.542D-02 0.747D-03-0.208D-01-0.376D-01
 Coeff:     -0.171D-01 0.345D+00 0.725D+00
 Gap=     0.233 Goal=   None    Shift=    0.000
 RMSDP=1.20D-07 MaxDP=1.26D-05 DE=-1.27D-10 OVMax= 3.19D-06

 Cycle  16  Pass 1  IDiag  1:
 RMSU=  8.78D-08    CP:  5.96D-01  1.22D+00  6.17D-01  1.09D+00  1.30D+00
                    CP:  1.31D+00  1.52D+00  1.30D+00  2.00D+00  1.24D+00
                    CP:  1.45D+00  1.27D+00  1.16D+00  1.36D+00  1.22D+00
 E= -1726.34394838951     Delta-E=       -0.000000000075 Rises=F Damp=F
 DIIS: error= 6.80D-08 at cycle  16 NSaved=  16.
 NSaved=16 IEnMin=16 EnMin= -1726.34394838951     IErMin=16 ErrMin= 6.80D-08
 ErrMax= 6.80D-08  0.00D+00 EMaxC= 1.00D-01 BMatC= 2.52D-12 BMatP= 1.94D-11
 IDIUse=1 WtCom= 1.00D+00 WtEn= 0.00D+00
 Coeff-Com: -0.418D-06 0.839D-06 0.263D-05 0.603D-05 0.345D-04-0.214D-04
 Coeff-Com: -0.404D-03-0.370D-03 0.144D-02 0.381D-02-0.964D-03-0.165D-01
 Coeff-Com: -0.480D-01-0.324D-01 0.233D+00 0.860D+00
 Coeff:     -0.418D-06 0.839D-06 0.263D-05 0.603D-05 0.345D-04-0.214D-04
 Coeff:     -0.404D-03-0.370D-03 0.144D-02 0.381D-02-0.964D-03-0.165D-01
 Coeff:     -0.480D-01-0.324D-01 0.233D+00 0.860D+00
 Gap=     0.233 Goal=   None    Shift=    0.000
 RMSDP=1.59D-07 MaxDP=1.14D-05 DE=-7.46D-11 OVMax= 1.49D-06

 Cycle  17  Pass 1  IDiag  1:
 RMSU=  1.05D-07    CP:  5.96D-01  1.22D+00  6.17D-01  1.09D+00  1.30D+00
                    CP:  1.31D+00  1.52D+00  1.30D+00  2.00D+00  1.24D+00
                    CP:  1.46D+00  1.29D+00  1.21D+00  1.36D+00  1.69D+00
                    CP:  1.89D+00
 E= -1726.34394838973     Delta-E=       -0.000000000219 Rises=F Damp=F
 DIIS: error= 2.46D-08 at cycle  17 NSaved=  17.
 NSaved=17 IEnMin=17 EnMin= -1726.34394838973     IErMin=17 ErrMin= 2.46D-08
 ErrMax= 2.46D-08  0.00D+00 EMaxC= 1.00D-01 BMatC= 4.52D-13 BMatP= 2.52D-12
 IDIUse=1 WtCom= 1.00D+00 WtEn= 0.00D+00
 Coeff-Com:  0.703D-06-0.148D-05-0.643D-06 0.465D-05 0.284D-04 0.141D-04
 Coeff-Com: -0.322D-04-0.171D-03-0.419D-03 0.123D-02 0.270D-02 0.203D-02
 Coeff-Com: -0.131D-01-0.773D-01-0.374D-01 0.279D+00 0.843D+00
 Coeff:      0.703D-06-0.148D-05-0.643D-06 0.465D-05 0.284D-04 0.141D-04
 Coeff:     -0.322D-04-0.171D-03-0.419D-03 0.123D-02 0.270D-02 0.203D-02
 Coeff:     -0.131D-01-0.773D-01-0.374D-01 0.279D+00 0.843D+00
 Gap=     0.233 Goal=   None    Shift=    0.000
 RMSDP=2.48D-07 MaxDP=1.65D-05 DE=-2.19D-10 OVMax= 6.90D-07

 Cycle  18  Pass 1  IDiag  1:
 RMSU=  1.09D-07    CP:  5.96D-01  1.22D+00  6.17D-01  1.09D+00  1.30D+00
                    CP:  1.31D+00  1.52D+00  1.30D+00  1.99D+00  1.25D+00
                    CP:  1.47D+00  1.29D+00  1.25D+00  1.34D+00  2.30D+00
                    CP:  3.00D+00  2.02D+00
 E= -1726.34394839012     Delta-E=       -0.000000000396 Rises=F Damp=F
 DIIS: error= 1.28D-08 at cycle  18 NSaved=  18.
 NSaved=18 IEnMin=18 EnMin= -1726.34394839012     IErMin=18 ErrMin= 1.28D-08
 ErrMax= 1.28D-08  0.00D+00 EMaxC= 1.00D-01 BMatC= 1.77D-13 BMatP= 4.52D-13
 IDIUse=1 WtCom= 1.00D+00 WtEn= 0.00D+00
 Coeff-Com:  0.355D-06-0.744D-06-0.459D-06 0.174D-05 0.114D-04 0.784D-05
 Coeff-Com:  0.107D-04-0.617D-04-0.277D-03 0.375D-03 0.110D-02 0.213D-02
 Coeff-Com: -0.260D-02-0.327D-01-0.282D-01 0.631D-01 0.372D+00 0.626D+00
 Coeff:      0.355D-06-0.744D-06-0.459D-06 0.174D-05 0.114D-04 0.784D-05
 Coeff:      0.107D-04-0.617D-04-0.277D-03 0.375D-03 0.110D-02 0.213D-02
 Coeff:     -0.260D-02-0.327D-01-0.282D-01 0.631D-01 0.372D+00 0.626D+00
 Gap=     0.233 Goal=   None    Shift=    0.000
 RMSDP=2.78D-07 MaxDP=2.16D-05 DE=-3.96D-10 OVMax= 1.66D-07

 Cycle  19  Pass 1  IDiag  1:
 RMSU=  1.20D-07    CP:  5.96D-01  1.22D+00  6.17D-01  1.09D+00  1.30D+00
                    CP:  1.31D+00  1.52D+00  1.30D+00  1.99D+00  1.25D+00
                    CP:  1.49D+00  1.30D+00  1.28D+00  1.21D+00  2.79D+00
                    CP:  3.00D+00  3.00D+00  2.29D+00
 E= -1726.34394839015     Delta-E=       -0.000000000031 Rises=F Damp=F
 DIIS: error= 1.83D-08 at cycle  19 NSaved=  19.
 NSaved=19 IEnMin=19 EnMin= -1726.34394839015     IErMin=18 ErrMin= 1.28D-08
 ErrMax= 1.83D-08  0.00D+00 EMaxC= 1.00D-01 BMatC= 2.31D-13 BMatP= 1.77D-13
 IDIUse=1 WtCom= 1.00D+00 WtEn= 0.00D+00
 Coeff-Com:  0.364D-06-0.764D-06-0.490D-06 0.172D-05 0.113D-04 0.818D-05
 Coeff-Com:  0.148D-04-0.598D-04-0.295D-03 0.349D-03 0.112D-02 0.234D-02
 Coeff-Com: -0.217D-02-0.330D-01-0.306D-01 0.559D-01 0.379D+00 0.727D+00
 Coeff-Com: -0.100D+00
 Coeff:      0.364D-06-0.764D-06-0.490D-06 0.172D-05 0.113D-04 0.818D-05
 Coeff:      0.148D-04-0.598D-04-0.295D-03 0.349D-03 0.112D-02 0.234D-02
 Coeff:     -0.217D-02-0.330D-01-0.306D-01 0.559D-01 0.379D+00 0.727D+00
 Coeff:     -0.100D+00
 Gap=     0.233 Goal=   None    Shift=    0.000
 RMSDP=4.07D-08 MaxDP=3.07D-06 DE=-3.09D-11 OVMax= 5.49D-09

 Cycle  20  Pass 1  IDiag  1:
 RMSU=  1.84D-08    CP:  5.96D-01  1.22D+00  6.17D-01  1.09D+00  1.30D+00
                    CP:  1.31D+00  1.52D+00  1.30D+00  1.99D+00  1.25D+00
                    CP:  1.48D+00  1.30D+00  1.27D+00  1.24D+00  2.78D+00
                    CP:  3.00D+00  3.00D+00  2.09D+00  8.57D-01
 E= -1726.34394839054     Delta-E=       -0.000000000387 Rises=F Damp=F
 DIIS: error= 2.06D-08 at cycle  20 NSaved=  20.
 NSaved=20 IEnMin=20 EnMin= -1726.34394839054     IErMin=18 ErrMin= 1.28D-08
 ErrMax= 2.06D-08  0.00D+00 EMaxC= 1.00D-01 BMatC= 2.41D-13 BMatP= 1.77D-13
 IDIUse=1 WtCom= 1.00D+00 WtEn= 0.00D+00
 Coeff-Com:  0.361D-06-0.758D-06-0.488D-06 0.169D-05 0.112D-04 0.812D-05
 Coeff-Com:  0.152D-04-0.587D-04-0.293D-03 0.340D-03 0.110D-02 0.234D-02
 Coeff-Com: -0.206D-02-0.325D-01-0.305D-01 0.534D-01 0.373D+00 0.740D+00
 Coeff-Com: -0.305D+00 0.200D+00
 Coeff:      0.361D-06-0.758D-06-0.488D-06 0.169D-05 0.112D-04 0.812D-05
 Coeff:      0.152D-04-0.587D-04-0.293D-03 0.340D-03 0.110D-02 0.234D-02
 Coeff:     -0.206D-02-0.325D-01-0.305D-01 0.534D-01 0.373D+00 0.740D+00
 Coeff:     -0.305D+00 0.200D+00
 Gap=     0.233 Goal=   None    Shift=    0.000
 RMSDP=2.94D-08 MaxDP=2.19D-06 DE=-3.87D-10 OVMax= 3.82D-09

 Cycle  21  Pass 1  IDiag  1:
 Restarting incremental Fock formation.
 E= -1726.34394839012     Delta-E=        0.000000000417 Rises=F Damp=F
 DIIS: error= 1.55D-07 at cycle  21 NSaved=  20.
 NSaved=20 IEnMin=19 EnMin= -1726.34394839054     IErMin=17 ErrMin= 1.28D-08
 ErrMax= 1.55D-07  0.00D+00 EMaxC= 1.00D-01 BMatC= 8.38D-12 BMatP= 1.77D-13
 IDIUse=1 WtCom= 1.00D+00 WtEn= 0.00D+00
 Coeff-Com:  0.121D-07-0.194D-07 0.123D-05 0.499D-05 0.347D-05 0.217D-04
 Coeff-Com: -0.304D-04-0.232D-03 0.205D-03 0.766D-03 0.218D-02-0.105D-02
 Coeff-Com: -0.276D-01-0.281D-01 0.378D-01 0.333D+00 0.727D+00-0.296D+00
 Coeff-Com:  0.212D+00 0.400D-01
 Coeff:      0.121D-07-0.194D-07 0.123D-05 0.499D-05 0.347D-05 0.217D-04
 Coeff:     -0.304D-04-0.232D-03 0.205D-03 0.766D-03 0.218D-02-0.105D-02
 Coeff:     -0.276D-01-0.281D-01 0.378D-01 0.333D+00 0.727D+00-0.296D+00
 Coeff:      0.212D+00 0.400D-01
 Gap=     0.233 Goal=   None    Shift=    0.000
 RMSDP=1.73D-07 MaxDP=1.56D-05 DE= 4.17D-10 OVMax= 3.14D-08

 Cycle  22  Pass 1  IDiag  1:
 RMSU=  1.69D-07    CP:  1.00D+00
 E= -1726.34394839034     Delta-E=       -0.000000000219 Rises=F Damp=F
 DIIS: error= 1.48D-07 at cycle  22 NSaved=  20.
 NSaved=20 IEnMin=18 EnMin= -1726.34394839054     IErMin=16 ErrMin= 1.28D-08
 ErrMax= 1.48D-07  0.00D+00 EMaxC= 1.00D-01 BMatC= 7.81D-12 BMatP= 1.77D-13
 IDIUse=1 WtCom= 1.00D+00 WtEn= 0.00D+00
 Coeff-Com: -0.376D-07 0.104D-05 0.459D-05 0.356D-05 0.216D-04-0.280D-04
 Coeff-Com: -0.219D-03 0.177D-03 0.703D-03 0.210D-02-0.770D-03-0.255D-01
 Coeff-Com: -0.268D-01 0.317D-01 0.307D+00 0.702D+00-0.242D+00 0.186D+00
 Coeff-Com: -0.676D+00 0.741D+00
 Coeff:     -0.376D-07 0.104D-05 0.459D-05 0.356D-05 0.216D-04-0.280D-04
 Coeff:     -0.219D-03 0.177D-03 0.703D-03 0.210D-02-0.770D-03-0.255D-01
 Coeff:     -0.268D-01 0.317D-01 0.307D+00 0.702D+00-0.242D+00 0.186D+00
 Coeff:     -0.676D+00 0.741D+00
 Gap=     0.233 Goal=   None    Shift=    0.000
 RMSDP=1.84D-07 MaxDP=1.60D-05 DE=-2.19D-10 OVMax= 2.30D-08

 Cycle  23  Pass 1  IDiag  1:
 RMSU=  8.30D-08    CP:  1.00D+00  1.95D+00
 E= -1726.34394838997     Delta-E=        0.000000000371 Rises=F Damp=F
 DIIS: error= 1.44D-07 at cycle  23 NSaved=  20.
 NSaved=20 IEnMin=17 EnMin= -1726.34394839054     IErMin=15 ErrMin= 1.28D-08
 ErrMax= 1.44D-07  0.00D+00 EMaxC= 1.00D-01 BMatC= 7.55D-12 BMatP= 1.77D-13
 IDIUse=1 WtCom= 1.00D+00 WtEn= 0.00D+00
 Large coefficients: NSaved= 20 BigCof=    0.00 CofMax=   10.00 Det=-7.48D-15
 Inversion failed.  Reducing to 19 matrices.
 Large coefficients: NSaved= 19 BigCof=    0.00 CofMax=   10.00 Det=-7.49D-15
 Inversion failed.  Reducing to 18 matrices.
 Large coefficients: NSaved= 18 BigCof=    0.00 CofMax=   10.00 Det=-7.50D-15
 Inversion failed.  Reducing to 17 matrices.
 Large coefficients: NSaved= 17 BigCof=    0.00 CofMax=   10.00 Det=-7.50D-15
 Inversion failed.  Reducing to 16 matrices.
 Large coefficients: NSaved= 16 BigCof=    0.00 CofMax=   10.00 Det=-7.50D-15
 Inversion failed.  Reducing to 15 matrices.
 Coeff-Com:  0.205D-04 0.140D-03-0.216D-03 0.436D-03-0.639D-03-0.121D-01
 Coeff-Com: -0.105D-01 0.840D-02 0.226D+00 0.732D+00-0.209D+00 0.196D+00
 Coeff-Com: -0.682D+00 0.574D+00 0.178D+00
 Coeff:      0.205D-04 0.140D-03-0.216D-03 0.436D-03-0.639D-03-0.121D-01
 Coeff:     -0.105D-01 0.840D-02 0.226D+00 0.732D+00-0.209D+00 0.196D+00
 Coeff:     -0.682D+00 0.574D+00 0.178D+00
 Gap=     0.233 Goal=   None    Shift=    0.000
 RMSDP=7.13D-08 MaxDP=6.28D-06 DE= 3.71D-10 OVMax= 1.66D-08

 Cycle  24  Pass 1  IDiag  1:
 RMSU=  3.92D-08    CP:  1.00D+00  2.21D+00  1.35D+00
 E= -1726.34394839055     Delta-E=       -0.000000000584 Rises=F Damp=F
 DIIS: error= 1.43D-07 at cycle  24 NSaved=  16.
 NSaved=16 IEnMin=16 EnMin= -1726.34394839055     IErMin=10 ErrMin= 1.28D-08
 ErrMax= 1.43D-07  0.00D+00 EMaxC= 1.00D-01 BMatC= 7.49D-12 BMatP= 1.77D-13
 IDIUse=1 WtCom= 1.00D+00 WtEn= 0.00D+00
 Large coefficients: NSaved= 16 BigCof=    0.00 CofMax=   10.00 Det=-7.50D-15
 Inversion failed.  Reducing to 15 matrices.
 Coeff-Com:  0.143D-03-0.166D-03 0.490D-03-0.620D-03-0.121D-01-0.109D-01
 Coeff-Com:  0.649D-02 0.223D+00 0.739D+00-0.218D+00 0.202D+00-0.680D+00
 Coeff-Com:  0.580D+00 0.102D+00 0.678D-01
 Coeff:      0.143D-03-0.166D-03 0.490D-03-0.620D-03-0.121D-01-0.109D-01
 Coeff:      0.649D-02 0.223D+00 0.739D+00-0.218D+00 0.202D+00-0.680D+00
 Coeff:      0.580D+00 0.102D+00 0.678D-01
 Gap=     0.233 Goal=   None    Shift=    0.000
 RMSDP=1.26D-08 MaxDP=9.97D-07 DE=-5.84D-10 OVMax= 1.52D-08

 Cycle  25  Pass 1  IDiag  1:
 RMSU=  1.13D-08    CP:  1.00D+00  2.22D+00  1.33D+00  1.08D+00
 E= -1726.34394839081     Delta-E=       -0.000000000254 Rises=F Damp=F
 DIIS: error= 1.43D-07 at cycle  25 NSaved=  16.
 NSaved=16 IEnMin=16 EnMin= -1726.34394839081     IErMin= 9 ErrMin= 1.28D-08
 ErrMax= 1.43D-07  0.00D+00 EMaxC= 1.00D-01 BMatC= 7.50D-12 BMatP= 1.77D-13
 IDIUse=1 WtCom= 1.00D+00 WtEn= 0.00D+00
 Large coefficients: NSaved= 16 BigCof=    0.00 CofMax=   10.00 Det=-7.50D-15
 Inversion failed.  Reducing to 15 matrices.
 Coeff-Com: -0.256D-03 0.840D-03 0.462D-03-0.106D-01-0.126D-01-0.474D-02
 Coeff-Com:  0.214D+00 0.764D+00-0.223D+00 0.201D+00-0.683D+00 0.584D+00
 Coeff-Com:  0.876D-01 0.130D+00-0.486D-01
 Coeff:     -0.256D-03 0.840D-03 0.462D-03-0.106D-01-0.126D-01-0.474D-02
 Coeff:      0.214D+00 0.764D+00-0.223D+00 0.201D+00-0.683D+00 0.584D+00
 Coeff:      0.876D-01 0.130D+00-0.486D-01
 Gap=     0.233 Goal=   None    Shift=    0.000
 RMSDP=9.90D-09 MaxDP=8.37D-07 DE=-2.54D-10 OVMax= 3.65D-08

 SCF Done:  E(RwB97XD) =  -1726.34394839     A.U. after   25 cycles
            NFock= 25  Conv=0.99D-08     -V/T= 2.0047
 KE= 1.718304148296D+03 PE=-1.237559401712D+04 EE= 4.752135764180D+03
 Leave Link  502 at Thu Nov  2 03:18:04 2017, MaxMem=  3758096384 cpu:     56747.6
 (Enter /share/apps/gaussian/g09_D01/g09/l801.exe)
 DoSCS=F DFT=T ScalE2(SS,OS)=  1.000000  1.000000
 ExpMin= 3.60D-02 ExpMax= 8.59D+03 ExpMxC= 1.30D+03 IAcc=3 IRadAn=         5 AccDes= 0.00D+00
 HarFok:  IExCor=  205 AccDes= 0.00D+00 IRadAn=         5 IDoV=-2 UseB2=F ITyADJ=14
 ICtDFT= 12500011 ScaDFX=  1.000000  1.000000  1.000000  1.000000
 Largest valence mixing into a core orbital is  5.72D-05
 Largest core mixing into a valence orbital is  1.59D-05
 Range of M.O.s used for correlation:    41  1102
 NBasis=  1118 NAE=   142 NBE=   142 NFC=    40 NFV=     0
 NROrb=   1062 NOA=   102 NOB=   102 NVA=   960 NVB=   960

 **** Warning!!: The largest alpha MO coefficient is  0.12963724D+03

 Leave Link  801 at Thu Nov  2 03:18:11 2017, MaxMem=  3758096384 cpu:        13.0
 (Enter /share/apps/gaussian/g09_D01/g09/l914.exe)
 RHF ground state
 MDV=  3758096384 DFT=T DoStab=F Mixed=T DoRPA=T DoScal=F NonHer=T
 Would need an additional       1170851800000 words for in-memory AO integral storage.
 Making orbital integer symmetry assigments:
     8 initial guesses have been made.
 Convergence on wavefunction:    0.001000000000000
 Davidson Disk Diagonalization:  ConvIn= 1.00D-03 SkipCon=T Conv= 1.00D-03.
 Max sub-space:   200 roots to seek:     8 dimension of matrix:       195840
 Iteration     1 Dimension     8 NMult     0 NNew      8
 CISAX will form     8 AO SS matrices at one time.
 NMat=     8 NSing=     8 JSym2X= 0.
 FoFJK:  IHMeth= 1 ICntrl=       0 DoSepK=T KAlg= 0 I1Cent=   0 FoldK=F
 IRaf=         1 NMat=  16 IRICut=       1 DoRegI=T DoRafI=F ISym2E= 0.
 FoFCou: FMM=T IPFlag=           0 FMFlag=      100000 FMFlg1=        2001
         NFxFlg=           0 DoJE=F BraDBF=F KetDBF=F FulRan=T
         wScrn=  0.000000 ICntrl=     500 IOpCl=  0 I1Cent=           0 NGrid=           0
         NMat0=    8 NMatS0=      8 NMatT0=    0 NMatD0=    8 NMtDS0=    0 NMtDT0=    0
 Symmetry not used in FoFCou.
 FMM levels:  10  Number of levels for PrismC:   9
 New state      2 was old state      4
 Excitation Energies [eV] at current iteration:
 Root      1 :     3.754664290411860
 Root      2 :     3.978347918887349
 Root      3 :     4.076806461154537
 Root      4 :     4.103343082486710
 Root      5 :     4.647687795922046
 Root      6 :     4.729023671950623
 Root      7 :     5.721710851739636
 Root      8 :     5.810881845346667
 Iteration     2 Dimension    12 NMult     8 NNew      4
 CISAX will form     4 AO SS matrices at one time.
 NMat=     4 NSing=     4 JSym2X= 0.
 Root      1 not converged, maximum delta is    0.056770370721394
 Root      2 not converged, maximum delta is    0.111251156230448
 Excitation Energies [eV] at current iteration:
 Root      1 :     3.182890883346024   Change is   -0.571773407065836
 Root      2 :     3.424568746593116   Change is   -0.553779172294233
 Iteration     3 Dimension    16 NMult    12 NNew      4
 CISAX will form     4 AO SS matrices at one time.
 NMat=     4 NSing=     4 JSym2X= 0.
 Root      1 not converged, maximum delta is    0.012825999490248
 Root      2 not converged, maximum delta is    0.018301289791125
 Excitation Energies [eV] at current iteration:
 Root      1 :     3.136140560260272   Change is   -0.046750323085752
 Root      2 :     3.356703740332143   Change is   -0.067865006260973
 Iteration     4 Dimension    20 NMult    16 NNew      4
 CISAX will form     4 AO SS matrices at one time.
 NMat=     4 NSing=     4 JSym2X= 0.
 Root      1 not converged, maximum delta is    0.006383141236571
 Root      2 not converged, maximum delta is    0.006519321444923
 Excitation Energies [eV] at current iteration:
 Root      1 :     3.129984861555214   Change is   -0.006155698705058
 Root      2 :     3.347887560897838   Change is   -0.008816179434304
 Iteration     5 Dimension    24 NMult    20 NNew      4
 CISAX will form     4 AO SS matrices at one time.
 NMat=     4 NSing=     4 JSym2X= 0.
 Root      1 not converged, maximum delta is    0.002248587087974
 Root      2 not converged, maximum delta is    0.003456797645794
 Excitation Energies [eV] at current iteration:
 Root      1 :     3.129059614566812   Change is   -0.000925246988401
 Root      2 :     3.346409820205862   Change is   -0.001477740691976
 Iteration     6 Dimension    28 NMult    24 NNew      4
 CISAX will form     4 AO SS matrices at one time.
 NMat=     4 NSing=     4 JSym2X= 0.
 Root      1 has converged.
 Root      2 not converged, maximum delta is    0.001596989594058
 Excitation Energies [eV] at current iteration:
 Root      1 :     3.128929417617006   Change is   -0.000130196949807
 Root      2 :     3.346117519161719   Change is   -0.000292301044143
 Iteration     7 Dimension    30 NMult    28 NNew      2
 CISAX will form     2 AO SS matrices at one time.
 NMat=     2 NSing=     2 JSym2X= 0.
 Root      1 has converged.
 Root      2 not converged, maximum delta is    0.001612841675069
 Excitation Energies [eV] at current iteration:
 Root      1 :     3.128928959620019   Change is   -0.000000457996987
 Root      2 :     3.346027451519621   Change is   -0.000090067642098
 Iteration     8 Dimension    32 NMult    30 NNew      2
 CISAX will form     2 AO SS matrices at one time.
 NMat=     2 NSing=     2 JSym2X= 0.
 Root      1 has converged.
 Root      2 not converged, maximum delta is    0.001181076461325
 Excitation Energies [eV] at current iteration:
 Root      1 :     3.128928513821666   Change is   -0.000000445798353
 Root      2 :     3.345994688751746   Change is   -0.000032762767875
 Iteration     9 Dimension    34 NMult    32 NNew      2
 CISAX will form     2 AO SS matrices at one time.
 NMat=     2 NSing=     2 JSym2X= 0.
 Root      1 has converged.
 Root      2 has converged.
 Excitation Energies [eV] at current iteration:
 Root      1 :     3.128928409372628   Change is   -0.000000104449038
 Root      2 :     3.345984409009031   Change is   -0.000010279742715
 Convergence achieved on expansion vectors.
 ***********************************************************************
 Excited states from <AA,BB:AA,BB> singles matrix:
 ***********************************************************************
 
 1PDM for each excited state written to RWF  633
 Ground to excited state transition densities written to RWF  633
 Ground to excited state transition electric dipole moments (Au):
       state          X           Y           Z        Dip. S.      Osc.
         1         0.0966      0.4846     -0.0383      0.2457      0.0188
         2         4.8658     -0.0974     -1.8301     27.0349      2.2162
 Ground to excited state transition velocity dipole moments (Au):
       state          X           Y           Z        Dip. S.      Osc.
         1        -0.0109     -0.0534      0.0041      0.0030      0.0173
         2        -0.5904      0.0111      0.2250      0.3993      2.1649
 Ground to excited state transition magnetic dipole moments (Au):
       state          X           Y           Z
         1        -1.6390     -0.3915     -3.5452
         2        -0.6556      2.5347     -1.8559
 Ground to excited state transition velocity quadrupole moments (Au):
       state          XX          YY          ZZ          XY          XZ          YZ
         1        -2.4708      0.2954      0.3641      2.6112     -0.1029     -0.8461
         2        -2.8075      0.4682     -2.4325      0.7568      3.7300     -0.5401
 <0|del|b> * <b|rxdel|0> + <0|del|b> * <b|delr+rdel|0>
 Rotatory Strengths (R) in cgs (10**-40 erg-esu-cm/Gauss)
       state          XX          YY          ZZ    R(velocity)    E-M Angle
         1        35.6161      5.3023    107.6554     49.5246       83.53
         2      -749.2034    340.0113    396.3019     -4.2967       90.06
 1/2[<0|r|b>*<b|rxdel|0> + (<0|rxdel|b>*<b|r|0>)*]
 Rotatory Strengths (R) in cgs (10**-40 erg-esu-cm/Gauss)
       state          XX          YY          ZZ     R(length)
         1       111.9968    134.1702    -96.0545     50.0375
         2      2256.0413    174.5070  -2401.9269      9.5405
  1/2[<0|del|b>*<b|r|0> + (<0|r|b>*<b|del|0>)*] (Au)
       state          X           Y           Z        Dip. S.   Osc.(frdel)
         1        -0.0010     -0.0259     -0.0002      0.0271      0.0181
         2        -2.8728     -0.0011     -0.4117      3.2856      2.1904

 Excitation energies and oscillator strengths:
 
 Excited state symmetry could not be determined.
 Excited State   1:      Singlet-?Sym    3.1289 eV  396.25 nm  f=0.0188  <S**2>=0.000
     141 -> 144       -0.43484
     142 -> 143        0.48597
 This state for optimization and/or second-order correction.
 Total Energy, E(TD-HF/TD-KS) =  -1726.22896238    
 Copying the excited state density for this state as the 1-particle RhoCI density.
 
 Excited state symmetry could not be determined.
 Excited State   2:      Singlet-?Sym    3.3460 eV  370.55 nm  f=2.2162  <S**2>=0.000
     140 -> 144        0.10315
     141 -> 143        0.34571
     141 -> 144        0.32562
     142 -> 143        0.29925
     142 -> 144       -0.33368
 SavETr:  write IOETrn=   770 NScale= 10 NData=  16 NLR=1 NState=    2 LETran=      46.
 Leave Link  914 at Thu Nov  2 15:42:58 2017, MaxMem=  3758096384 cpu:     89190.9
 (Enter /share/apps/gaussian/g09_D01/g09/l601.exe)
 Copying SCF densities to generalized density rwf, IOpCl= 0 IROHF=0.

 **********************************************************************

            Population analysis using the SCF density.

 **********************************************************************

 Alpha  occ. eigenvalues --  -19.25068 -19.24963 -19.23935 -19.23801 -14.47363
 Alpha  occ. eigenvalues --  -14.47224 -10.38741 -10.38710 -10.36351 -10.35965
 Alpha  occ. eigenvalues --  -10.35237 -10.35133 -10.33121 -10.32918 -10.32316
 Alpha  occ. eigenvalues --  -10.32067 -10.32012 -10.31993 -10.31118 -10.30852
 Alpha  occ. eigenvalues --  -10.30748 -10.30734 -10.30692 -10.30672 -10.30564
 Alpha  occ. eigenvalues --  -10.30562 -10.30309 -10.30239 -10.29950 -10.29885
 Alpha  occ. eigenvalues --  -10.29743 -10.29561 -10.29471 -10.29370 -10.29353
 Alpha  occ. eigenvalues --  -10.29238 -10.29112 -10.29075 -10.28877 -10.28697
 Alpha  occ. eigenvalues --   -1.15626  -1.15613  -1.11742  -1.11687  -1.07536
 Alpha  occ. eigenvalues --   -1.07364  -0.96987  -0.96917  -0.96631  -0.96114
 Alpha  occ. eigenvalues --   -0.91042  -0.91000  -0.87923  -0.87607  -0.86816
 Alpha  occ. eigenvalues --   -0.86704  -0.85030  -0.84889  -0.84399  -0.84030
 Alpha  occ. eigenvalues --   -0.83468  -0.83335  -0.79185  -0.79125  -0.75065
 Alpha  occ. eigenvalues --   -0.74857  -0.72411  -0.72217  -0.71519  -0.71315
 Alpha  occ. eigenvalues --   -0.69902  -0.69553  -0.67952  -0.67857  -0.64738
 Alpha  occ. eigenvalues --   -0.64672  -0.63185  -0.62978  -0.61670  -0.61533
 Alpha  occ. eigenvalues --   -0.60585  -0.60286  -0.58724  -0.58597  -0.58078
 Alpha  occ. eigenvalues --   -0.57904  -0.57081  -0.56888  -0.56231  -0.56029
 Alpha  occ. eigenvalues --   -0.55486  -0.54948  -0.54412  -0.54309  -0.52893
 Alpha  occ. eigenvalues --   -0.52774  -0.52701  -0.52275  -0.52224  -0.51926
 Alpha  occ. eigenvalues --   -0.51821  -0.51796  -0.51168  -0.51077  -0.50514
 Alpha  occ. eigenvalues --   -0.50262  -0.49724  -0.49596  -0.48264  -0.48079
 Alpha  occ. eigenvalues --   -0.47806  -0.47661  -0.47617  -0.47393  -0.47134
 Alpha  occ. eigenvalues --   -0.47061  -0.46668  -0.46623  -0.46426  -0.46161
 Alpha  occ. eigenvalues --   -0.45843  -0.45740  -0.43237  -0.42959  -0.42813
 Alpha  occ. eigenvalues --   -0.42496  -0.42380  -0.42192  -0.41111  -0.40988
 Alpha  occ. eigenvalues --   -0.35300  -0.35107  -0.34877  -0.34760  -0.34746
 Alpha  occ. eigenvalues --   -0.34584  -0.34376  -0.33972  -0.30457  -0.30027
 Alpha  occ. eigenvalues --   -0.26762  -0.26689
 Alpha virt. eigenvalues --   -0.03369  -0.03260   0.02648   0.03011   0.03099
 Alpha virt. eigenvalues --    0.03567   0.03827   0.04258   0.04438   0.04617
 Alpha virt. eigenvalues --    0.04881   0.05025   0.05329   0.05623   0.05904
 Alpha virt. eigenvalues --    0.06126   0.06464   0.06589   0.06645   0.06754
 Alpha virt. eigenvalues --    0.07188   0.07359   0.07531   0.07982   0.08094
 Alpha virt. eigenvalues --    0.08399   0.08615   0.08957   0.09024   0.09421
 Alpha virt. eigenvalues --    0.09617   0.09783   0.10203   0.10251   0.10660
 Alpha virt. eigenvalues --    0.10814   0.11254   0.11411   0.11600   0.11985
 Alpha virt. eigenvalues --    0.12079   0.12401   0.12598   0.12739   0.12947
 Alpha virt. eigenvalues --    0.13266   0.13421   0.13749   0.13788   0.14042
 Alpha virt. eigenvalues --    0.14359   0.14435   0.14693   0.14922   0.15122
 Alpha virt. eigenvalues --    0.15319   0.15445   0.15533   0.15668   0.15790
 Alpha virt. eigenvalues --    0.15869   0.16117   0.16328   0.16471   0.16529
 Alpha virt. eigenvalues --    0.16571   0.16850   0.17035   0.17196   0.17362
 Alpha virt. eigenvalues --    0.17476   0.17716   0.17859   0.18112   0.18232
 Alpha virt. eigenvalues --    0.18405   0.18604   0.18815   0.18979   0.19130
 Alpha virt. eigenvalues --    0.19292   0.19438   0.19633   0.19776   0.19973
 Alpha virt. eigenvalues --    0.20070   0.20201   0.20476   0.20634   0.20754
 Alpha virt. eigenvalues --    0.20887   0.20973   0.21040   0.21322   0.21453
 Alpha virt. eigenvalues --    0.21687   0.21836   0.21924   0.22239   0.22307
 Alpha virt. eigenvalues --    0.22367   0.22389   0.22530   0.22686   0.22828
 Alpha virt. eigenvalues --    0.23014   0.23173   0.23325   0.23564   0.23597
 Alpha virt. eigenvalues --    0.23887   0.23940   0.24143   0.24201   0.24471
 Alpha virt. eigenvalues --    0.24570   0.24837   0.24975   0.25154   0.25302
 Alpha virt. eigenvalues --    0.25543   0.25584   0.25767   0.25971   0.26150
 Alpha virt. eigenvalues --    0.26441   0.26781   0.26853   0.26974   0.27002
 Alpha virt. eigenvalues --    0.27265   0.27326   0.27603   0.27664   0.28066
 Alpha virt. eigenvalues --    0.28211   0.28374   0.28463   0.28593   0.28795
 Alpha virt. eigenvalues --    0.28846   0.29071   0.29208   0.29364   0.29509
 Alpha virt. eigenvalues --    0.29653   0.29899   0.30164   0.30354   0.30498
 Alpha virt. eigenvalues --    0.30614   0.30723   0.30900   0.31178   0.31212
 Alpha virt. eigenvalues --    0.31359   0.31583   0.31888   0.31974   0.32253
 Alpha virt. eigenvalues --    0.32337   0.32750   0.32917   0.33015   0.33133
 Alpha virt. eigenvalues --    0.33383   0.33472   0.33808   0.33997   0.34134
 Alpha virt. eigenvalues --    0.34239   0.34556   0.34724   0.34849   0.34927
 Alpha virt. eigenvalues --    0.35185   0.35343   0.35367   0.35572   0.35640
 Alpha virt. eigenvalues --    0.35867   0.35926   0.36331   0.36451   0.36566
 Alpha virt. eigenvalues --    0.36745   0.36996   0.37308   0.37476   0.37642
 Alpha virt. eigenvalues --    0.37941   0.38024   0.38285   0.38517   0.38699
 Alpha virt. eigenvalues --    0.38815   0.39087   0.39180   0.39327   0.39521
 Alpha virt. eigenvalues --    0.39660   0.39697   0.39895   0.39969   0.40430
 Alpha virt. eigenvalues --    0.40505   0.40688   0.40914   0.40986   0.41191
 Alpha virt. eigenvalues --    0.41458   0.41538   0.41716   0.42073   0.42264
 Alpha virt. eigenvalues --    0.42453   0.42612   0.43253   0.43529   0.43640
 Alpha virt. eigenvalues --    0.43748   0.43868   0.44169   0.44433   0.44923
 Alpha virt. eigenvalues --    0.45049   0.45307   0.45671   0.46006   0.46121
 Alpha virt. eigenvalues --    0.46396   0.46691   0.46961   0.47070   0.47305
 Alpha virt. eigenvalues --    0.47406   0.47916   0.48533   0.49050   0.49447
 Alpha virt. eigenvalues --    0.49529   0.49966   0.50133   0.50248   0.50742
 Alpha virt. eigenvalues --    0.51046   0.51429   0.51743   0.52140   0.52621
 Alpha virt. eigenvalues --    0.53150   0.53768   0.54184   0.54669   0.54892
 Alpha virt. eigenvalues --    0.55177   0.55910   0.56370   0.56841   0.57680
 Alpha virt. eigenvalues --    0.58233   0.58635   0.58937   0.59446   0.59968
 Alpha virt. eigenvalues --    0.60481   0.60885   0.61010   0.61540   0.61959
 Alpha virt. eigenvalues --    0.62278   0.62484   0.62602   0.62818   0.63112
 Alpha virt. eigenvalues --    0.63209   0.63580   0.63991   0.64341   0.64468
 Alpha virt. eigenvalues --    0.65129   0.65272   0.65483   0.65669   0.65838
 Alpha virt. eigenvalues --    0.66082   0.66603   0.66982   0.67165   0.67344
 Alpha virt. eigenvalues --    0.67507   0.68209   0.68396   0.68618   0.69055
 Alpha virt. eigenvalues --    0.69217   0.69482   0.69739   0.69827   0.69971
 Alpha virt. eigenvalues --    0.70532   0.70818   0.71020   0.71368   0.71555
 Alpha virt. eigenvalues --    0.71800   0.71979   0.72446   0.72583   0.72856
 Alpha virt. eigenvalues --    0.73096   0.73428   0.73893   0.74227   0.74346
 Alpha virt. eigenvalues --    0.74816   0.75020   0.75615   0.75724   0.75887
 Alpha virt. eigenvalues --    0.76082   0.76365   0.76862   0.77114   0.77410
 Alpha virt. eigenvalues --    0.77730   0.77939   0.78184   0.78393   0.78831
 Alpha virt. eigenvalues --    0.79107   0.79444   0.79557   0.79896   0.80210
 Alpha virt. eigenvalues --    0.80543   0.80929   0.81140   0.81515   0.81768
 Alpha virt. eigenvalues --    0.81833   0.81902   0.82127   0.82602   0.83407
 Alpha virt. eigenvalues --    0.83509   0.83625   0.83971   0.84203   0.84368
 Alpha virt. eigenvalues --    0.84409   0.84868   0.85094   0.85236   0.85675
 Alpha virt. eigenvalues --    0.86188   0.86310   0.86689   0.86795   0.87311
 Alpha virt. eigenvalues --    0.87515   0.87839   0.88120   0.88595   0.89105
 Alpha virt. eigenvalues --    0.89427   0.89806   0.90083   0.90495   0.90984
 Alpha virt. eigenvalues --    0.91485   0.92150   0.92348   0.92779   0.93128
 Alpha virt. eigenvalues --    0.93827   0.94384   0.94880   0.95032   0.95210
 Alpha virt. eigenvalues --    0.95658   0.96035   0.96296   0.96756   0.97097
 Alpha virt. eigenvalues --    0.97505   0.97861   0.98300   0.98604   0.98899
 Alpha virt. eigenvalues --    0.99095   0.99410   1.00029   1.00085   1.00279
 Alpha virt. eigenvalues --    1.00850   1.00888   1.01287   1.01689   1.02160
 Alpha virt. eigenvalues --    1.02393   1.03198   1.03416   1.03828   1.04448
 Alpha virt. eigenvalues --    1.04869   1.04903   1.05151   1.05436   1.05734
 Alpha virt. eigenvalues --    1.06011   1.06089   1.06521   1.06773   1.07345
 Alpha virt. eigenvalues --    1.07447   1.08274   1.08569   1.09056   1.09235
 Alpha virt. eigenvalues --    1.09463   1.09727   1.10027   1.10259   1.10730
 Alpha virt. eigenvalues --    1.11035   1.11276   1.11448   1.11620   1.11935
 Alpha virt. eigenvalues --    1.12523   1.13136   1.13590   1.14076   1.14152
 Alpha virt. eigenvalues --    1.14531   1.14916   1.15087   1.15667   1.16042
 Alpha virt. eigenvalues --    1.16338   1.16795   1.17124   1.17637   1.17888
 Alpha virt. eigenvalues --    1.18043   1.18315   1.18908   1.19134   1.19542
 Alpha virt. eigenvalues --    1.20404   1.20827   1.21048   1.21454   1.21699
 Alpha virt. eigenvalues --    1.22020   1.22405   1.22685   1.23123   1.23844
 Alpha virt. eigenvalues --    1.24226   1.24388   1.24542   1.25699   1.26165
 Alpha virt. eigenvalues --    1.27667   1.29415   1.29848   1.31735   1.32172
 Alpha virt. eigenvalues --    1.32601   1.33295   1.34039   1.34669   1.35994
 Alpha virt. eigenvalues --    1.36402   1.36941   1.37458   1.38140   1.38584
 Alpha virt. eigenvalues --    1.39467   1.39925   1.40309   1.41251   1.41597
 Alpha virt. eigenvalues --    1.43851   1.44375   1.44563   1.48936   1.49529
 Alpha virt. eigenvalues --    1.49717   1.50520   1.50632   1.51607   1.52006
 Alpha virt. eigenvalues --    1.52492   1.52755   1.53562   1.54040   1.54713
 Alpha virt. eigenvalues --    1.55393   1.55893   1.56392   1.57117   1.57233
 Alpha virt. eigenvalues --    1.57604   1.58057   1.58099   1.58299   1.58466
 Alpha virt. eigenvalues --    1.59140   1.59577   1.59951   1.60467   1.60861
 Alpha virt. eigenvalues --    1.61350   1.62281   1.62470   1.63158   1.63401
 Alpha virt. eigenvalues --    1.63641   1.64080   1.64138   1.64301   1.64705
 Alpha virt. eigenvalues --    1.64756   1.65112   1.65121   1.65215   1.65553
 Alpha virt. eigenvalues --    1.65915   1.65985   1.66647   1.66774   1.67105
 Alpha virt. eigenvalues --    1.67248   1.67860   1.68009   1.68754   1.68973
 Alpha virt. eigenvalues --    1.69032   1.69440   1.69559   1.70499   1.70654
 Alpha virt. eigenvalues --    1.70980   1.71714   1.72104   1.73808   1.74090
 Alpha virt. eigenvalues --    1.74701   1.75120   1.75522   1.75923   1.77228
 Alpha virt. eigenvalues --    1.77782   1.78269   1.78646   1.79124   1.79370
 Alpha virt. eigenvalues --    1.80395   1.80537   1.81289   1.81381   1.81612
 Alpha virt. eigenvalues --    1.81794   1.82029   1.82188   1.82471   1.82734
 Alpha virt. eigenvalues --    1.83149   1.83345   1.84194   1.84520   1.84724
 Alpha virt. eigenvalues --    1.85766   1.86165   1.86404   1.86814   1.87480
 Alpha virt. eigenvalues --    1.87798   1.88858   1.89060   1.89187   1.90299
 Alpha virt. eigenvalues --    1.90766   1.91012   1.91533   1.91832   1.92842
 Alpha virt. eigenvalues --    1.94093   1.94370   1.96092   1.96535   1.97324
 Alpha virt. eigenvalues --    1.97609   1.97806   1.98345   1.98820   1.98943
 Alpha virt. eigenvalues --    1.99140   1.99981   2.00383   2.00815   2.01012
 Alpha virt. eigenvalues --    2.01525   2.01905   2.02056   2.02261   2.02597
 Alpha virt. eigenvalues --    2.02759   2.03180   2.03903   2.04022   2.04483
 Alpha virt. eigenvalues --    2.04617   2.04829   2.05246   2.05396   2.05811
 Alpha virt. eigenvalues --    2.06947   2.07504   2.08084   2.08302   2.08477
 Alpha virt. eigenvalues --    2.08634   2.09193   2.09772   2.10019   2.10258
 Alpha virt. eigenvalues --    2.11628   2.11879   2.12197   2.13038   2.13446
 Alpha virt. eigenvalues --    2.14294   2.15185   2.15330   2.15927   2.16319
 Alpha virt. eigenvalues --    2.16858   2.17006   2.17875   2.18125   2.18733
 Alpha virt. eigenvalues --    2.19475   2.20126   2.20380   2.20838   2.21423
 Alpha virt. eigenvalues --    2.21512   2.22627   2.23587   2.24777   2.25246
 Alpha virt. eigenvalues --    2.25648   2.27397   2.27761   2.27936   2.28499
 Alpha virt. eigenvalues --    2.29802   2.31174   2.32886   2.33578   2.33867
 Alpha virt. eigenvalues --    2.34142   2.35736   2.36505   2.37665   2.37857
 Alpha virt. eigenvalues --    2.38366   2.38383   2.40733   2.41197   2.41492
 Alpha virt. eigenvalues --    2.42061   2.42832   2.42913   2.43845   2.44011
 Alpha virt. eigenvalues --    2.45052   2.45474   2.47233   2.47707   2.50098
 Alpha virt. eigenvalues --    2.50329   2.51833   2.52329   2.54617   2.54909
 Alpha virt. eigenvalues --    2.55011   2.55097   2.56484   2.57179   2.57755
 Alpha virt. eigenvalues --    2.57797   2.58054   2.58371   2.58579   2.59064
 Alpha virt. eigenvalues --    2.59323   2.60584   2.61052   2.62014   2.62056
 Alpha virt. eigenvalues --    2.62400   2.63447   2.64391   2.65539   2.65832
 Alpha virt. eigenvalues --    2.68182   2.68668   2.69516   2.69977   2.70099
 Alpha virt. eigenvalues --    2.71137   2.71318   2.72544   2.74007   2.74605
 Alpha virt. eigenvalues --    2.75739   2.76164   2.76989   2.78919   2.79291
 Alpha virt. eigenvalues --    2.79748   2.79921   2.80287   2.80324   2.81090
 Alpha virt. eigenvalues --    2.81228   2.81516   2.81906   2.82362   2.82961
 Alpha virt. eigenvalues --    2.83089   2.83398   2.83787   2.84009   2.84104
 Alpha virt. eigenvalues --    2.84543   2.84800   2.85120   2.85516   2.85617
 Alpha virt. eigenvalues --    2.86118   2.86193   2.86680   2.86962   2.87210
 Alpha virt. eigenvalues --    2.87856   2.88241   2.88995   2.89153   2.89623
 Alpha virt. eigenvalues --    2.90296   2.90442   2.90844   2.91242   2.92318
 Alpha virt. eigenvalues --    2.92823   2.93453   2.93760   2.94043   2.94148
 Alpha virt. eigenvalues --    2.94401   2.94922   2.95454   2.96087   2.96452
 Alpha virt. eigenvalues --    2.97194   2.97565   2.97992   2.98543   2.99072
 Alpha virt. eigenvalues --    2.99543   3.00134   3.01215   3.01893   3.02821
 Alpha virt. eigenvalues --    3.02957   3.03608   3.04646   3.04883   3.05295
 Alpha virt. eigenvalues --    3.05437   3.05983   3.06856   3.07594   3.07964
 Alpha virt. eigenvalues --    3.08639   3.09097   3.09580   3.10496   3.11234
 Alpha virt. eigenvalues --    3.13262   3.14736   3.16004   3.18666   3.19752
 Alpha virt. eigenvalues --    3.20077   3.20576   3.20798   3.21274   3.21496
 Alpha virt. eigenvalues --    3.21741   3.21915   3.22332   3.26880   3.27426
 Alpha virt. eigenvalues --    3.27918   3.28576   3.29835   3.29955   3.30608
 Alpha virt. eigenvalues --    3.30977   3.31495   3.33259   3.34595   3.35062
 Alpha virt. eigenvalues --    3.36310   3.37477   3.38214   3.38859   3.39494
 Alpha virt. eigenvalues --    3.39798   3.42456   3.43167   3.46211   3.47032
 Alpha virt. eigenvalues --    3.47902   3.48544   3.48977   3.49129   3.50087
 Alpha virt. eigenvalues --    3.50577   3.56928   3.57245   3.60461   3.61411
 Alpha virt. eigenvalues --    3.62066   3.62449   3.63164   3.63353   3.63797
 Alpha virt. eigenvalues --    3.64222   3.65196   3.66445   3.66696   3.67523
 Alpha virt. eigenvalues --    3.68420   3.69273   3.73128   3.73830   3.77681
 Alpha virt. eigenvalues --    3.77756   3.78145   3.78618   3.78858   3.79197
 Alpha virt. eigenvalues --    3.80070   3.80461   3.80671   3.81067   3.87985
 Alpha virt. eigenvalues --    3.88131   3.89701   3.90031   3.90162   3.91240
 Alpha virt. eigenvalues --    3.94633   3.95197   4.01642   4.01708   4.05958
 Alpha virt. eigenvalues --    4.06531   4.09030   4.09197   4.11941   4.12270
 Alpha virt. eigenvalues --    4.12813   4.13336   4.13732   4.14576   4.16178
 Alpha virt. eigenvalues --    4.16988   4.27140   4.27782   4.27883   4.28898
 Alpha virt. eigenvalues --    4.29900   4.30360   4.31592   4.32588   4.37765
 Alpha virt. eigenvalues --    4.39165   4.52820   4.53219   4.77212   4.77861
 Alpha virt. eigenvalues --    4.92518   4.92919   4.93272   4.93572   5.00936
 Alpha virt. eigenvalues --    5.00954   5.17012   5.17392   5.18882   5.18975
 Alpha virt. eigenvalues --    5.21182   5.21745   5.37773   5.38428   5.65793
 Alpha virt. eigenvalues --    5.66160   5.86442   5.87020   5.96267   5.96708
 Alpha virt. eigenvalues --   23.71667  23.75020  23.80574  23.82479  23.94595
 Alpha virt. eigenvalues --   23.95381  24.03091  24.03353  24.04056  24.04563
 Alpha virt. eigenvalues --   24.04816  24.05154  24.05282  24.06261  24.07554
 Alpha virt. eigenvalues --   24.08411  24.09561  24.09629  24.10157  24.10261
 Alpha virt. eigenvalues --   24.13933  24.14015  24.14195  24.14487  24.22086
 Alpha virt. eigenvalues --   24.22297  24.25641  24.25775  24.28065  24.28256
 Alpha virt. eigenvalues --   24.30552  24.30940  24.31320  24.31747  35.75026
 Alpha virt. eigenvalues --   35.75265  50.13387  50.13991  50.18196  50.18887
          Condensed to atoms (all electrons):
 Mulliken charges:
               1
     1  C   -0.262819
     2  C   -0.401572
     3  H    0.263193
     4  C   -0.102431
     5  C   -0.297516
     6  N    0.108503
     7  C    0.285602
     8  H    0.130511
     9  C   -0.229259
    10  H    0.195864
    11  C   -0.358660
    12  C   -0.404372
    13  C   -0.003950
    14  H    0.207283
    15  H    0.171222
    16  H    0.165600
    17  H    0.179683
    18  H    0.127670
    19  H    0.158354
    20  H    0.184242
    21  C    0.031390
    22  H    0.274940
    23  C   -0.284707
    24  H   -0.236106
    25  C    0.456320
    26  O   -0.308274
    27  C    0.150323
    28  C   -0.370777
    29  H    0.368954
    30  C   -0.259173
    31  O   -0.281708
    32  C   -0.169986
    33  H    0.220599
    34  C   -0.438253
    35  H    0.259968
    36  H    0.220021
    37  H    0.216932
    38  C    0.047155
    39  C   -0.637884
    40  C    1.780335
    41  O   -0.264565
    42  C   -0.309429
    43  H    0.228895
    44  C   -1.094461
    45  C   -0.222660
    46  H    0.446772
    47  C   -0.557140
    48  H    0.208837
    49  H    0.129031
    50  C   -0.101131
    51  O   -0.297792
    52  H    0.224167
    53  C    0.179328
    54  H   -0.177770
    55  C    0.771919
    56  H    0.168519
    57  C   -0.385390
    58  C   -0.211490
    59  H    0.186500
    60  C   -0.606508
    61  H   -0.002656
    62  C    0.275306
    63  C   -0.465668
    64  H    0.219018
    65  H    0.064388
    66  N    0.208569
    67  C   -0.333748
    68  C   -0.601757
    69  H    0.166888
    70  H    0.173202
    71  H    0.171808
    72  H    0.283930
    73  H    0.135102
    74  H    0.232769
 Sum of Mulliken charges =   0.00000
 Mulliken charges with hydrogens summed into heavy atoms:
               1
     1  C    0.000375
     2  C   -0.401572
     4  C    0.028079
     5  C   -0.101652
     6  N    0.108503
     7  C    0.285602
     9  C   -0.021976
    11  C    0.157846
    12  C    0.065893
    13  C    0.270990
    21  C   -0.204716
    23  C   -0.284707
    25  C    0.456320
    26  O   -0.308274
    27  C    0.150323
    28  C   -0.150178
    30  C    0.000795
    31  O    0.087246
    32  C    0.050035
    34  C   -0.221322
    38  C    0.047155
    39  C   -0.408990
    40  C    1.780335
    41  O    0.182207
    42  C   -0.100592
    44  C   -0.965430
    45  C   -0.222660
    47  C   -0.332973
    50  C   -0.278901
    51  O   -0.297792
    53  C    0.347848
    55  C    0.771919
    57  C   -0.198890
    58  C   -0.214146
    60  C   -0.387490
    62  C    0.339694
    63  C   -0.465668
    66  N    0.208569
    67  C    0.178151
    68  C    0.050045
 Electronic spatial extent (au):  <R**2>=          40911.9833
 Charge=              0.0000 electrons
 Dipole moment (field-independent basis, Debye):
    X=             -0.3216    Y=              2.8081    Z=             -0.2220  Tot=              2.8352
 Quadrupole moment (field-independent basis, Debye-Ang):
   XX=           -220.1356   YY=           -240.8953   ZZ=           -235.9691
   XY=             42.9289   XZ=              9.5142   YZ=            -40.0037
 Traceless Quadrupole moment (field-independent basis, Debye-Ang):
   XX=             12.1978   YY=             -8.5620   ZZ=             -3.6358
   XY=             42.9289   XZ=              9.5142   YZ=            -40.0037
 Octapole moment (field-independent basis, Debye-Ang**2):
  XXX=           -903.3861  YYY=            826.2966  ZZZ=           1993.7496  XYY=           -555.7414
  XXY=            454.5924  XXZ=            641.6260  XZZ=           -374.2974  YZZ=            500.8732
  YYZ=            706.2642  XYZ=           -180.8168
 Hexadecapole moment (field-independent basis, Debye-Ang**3):
 XXXX=         -26063.1968 YYYY=         -12877.6551 ZZZZ=         -15610.1898 XXXY=           4875.4957
 XXXZ=           5996.8112 YYYX=           4858.4218 YYYZ=          -2058.9023 ZZZX=           6316.6399
 ZZZY=          -3081.4849 XXYY=          -7454.5379 XXZZ=          -7443.8227 YYZZ=          -5010.7532
 XXYZ=          -1914.7691 YYXZ=           2895.3595 ZZXY=           2457.0622
 N-N= 4.178810156253D+03 E-N=-1.237559401713D+04  KE= 1.718304148296D+03
 Leave Link  601 at Thu Nov  2 15:42:59 2017, MaxMem=  3758096384 cpu:         2.0
 (Enter /share/apps/gaussian/g09_D01/g09/l9999.exe)
 1\1\GINC-SM7\SP\RwB97XD TD-FC\6-311++G(d,p)\C34H34N2O4\BTX008\02-Nov-2
 017\0\\#p wb97xd/6-311++G** td=(nstates=2) nosymm\\Title\\0,1\C,0,-0.0
 45604,-3.212643,-0.673042\C,0,-1.163557,-4.037551,-0.999057\H,0,-0.121
 291,-2.475288,0.121883\C,0,1.146608,-3.335524,-1.348586\C,0,-0.997931,
 -4.974953,-2.055672\N,0,-2.337452,-3.93316,-0.324579\C,0,1.320601,-4.2
 70503,-2.399224\H,0,1.971105,-2.682196,-1.060472\C,0,0.202155,-5.07477
 4,-2.725295\H,0,-1.826104,-5.611893,-2.356233\C,0,-3.451039,-4.817588,
 -0.638286\C,0,-2.482782,-2.951131,0.738607\C,0,2.5213,-4.396929,-3.164
 451\H,0,0.299534,-5.792287,-3.54133\H,0,-3.150286,-5.872565,-0.549647\
 H,0,-4.268925,-4.626441,0.063239\H,0,-3.818958,-4.648925,-1.662177\H,0
 ,-2.290162,-1.933406,0.365237\H,0,-3.502453,-2.991283,1.132588\H,0,-1.
 783201,-3.152381,1.563457\C,0,3.704177,-3.730044,-2.976341\H,0,2.47843
 ,-5.091951,-4.010014\C,0,4.824246,-3.904072,-3.862622\H,0,3.810173,-3.
 042685,-2.139497\C,0,6.116034,-3.241308,-3.594826\O,0,4.72679,-4.64403
 4,-4.908669\C,0,7.196441,-3.444502,-4.505463\C,0,6.35306,-2.418884,-2.
 472996\H,0,6.047681,-4.528914,-5.530262\C,0,8.44931,-2.862065,-4.25609
 8\O,0,7.039043,-4.198267,-5.611204\C,0,7.588797,-1.834009,-2.241935\H,
 0,5.552651,-2.221827,-1.761605\C,0,8.641937,-2.065551,-3.137064\H,0,9.
 257308,-3.069135,-4.95777\H,0,7.737617,-1.196134,-1.371176\H,0,9.61957
 4,-1.619592,-2.947297\C,0,-4.460431,1.697999,-1.116637\C,0,-5.713299,2
 .280435,-1.366002\C,0,-3.380024,1.901192,-2.027274\O,0,-4.303033,0.944
 233,-0.010897\C,0,-5.905928,3.076949,-2.485036\H,0,-6.521299,2.073365,
 -0.66433\C,0,-3.617051,2.723616,-3.149103\C,0,-2.088235,1.238428,-1.75
 9477\H,0,-3.31167,0.613585,-0.091837\C,0,-4.852787,3.30849,-3.380165\H
 ,0,-6.883564,3.522908,-2.674803\H,0,-2.816641,2.920673,-3.860494\C,0,-
 0.968168,1.412456,-2.645759\O,0,-1.99078,0.498466,-0.713431\H,0,-5.001
 607,3.946366,-4.250924\C,0,0.21471,0.745571,-2.457648\H,0,-1.074164,2.
 099815,-3.482603\C,0,1.41541,0.871997,-3.222876\H,0,0.257579,0.050548,
 -1.612086\C,0,1.589403,1.806976,-4.273513\C,0,2.533855,0.067726,-2.896
 805\H,0,0.764905,2.460304,-4.561628\C,0,2.781614,1.929857,-4.949058\H,
 0,2.436477,-0.649787,-2.080769\C,0,3.733941,0.167547,-3.566428\C,0,3.8
 99567,1.104949,-4.623043\H,0,2.857302,2.667212,-5.743983\H,0,4.562114,
 -0.469393,-3.265867\N,0,5.073463,1.20934,-5.297521\C,0,5.218793,2.1913
 67,-6.360708\C,0,6.187049,0.324912,-4.983814\H,0,5.026173,3.209094,-5.
 987337\H,0,6.238463,2.151217,-6.754687\H,0,4.519212,1.990119,-7.185558
 \H,0,5.886297,-0.730065,-5.072452\H,0,7.004935,0.516059,-5.685338\H,0,
 6.554969,0.493576,-3.959923\\Version=ES64L-G09RevD.01\HF=-1726.3439484
 \RMSD=9.896e-09\PG=C01 [X(C34H34N2O4)]\\@


 Ideas are like rabbits. You get a couple and learn
 how to handle them, and pretty soon you have a dozen.
                                    -- John Steinbeck
 Job cpu time:       1 days 16 hours 41 minutes  0.8 seconds.
 File lengths (MBytes):  RWF=   1174 Int=      0 D2E=      0 Chk=    130 Scr=      1
 Normal termination of Gaussian 09 at Thu Nov  2 15:43:00 2017.
