 Entering Gaussian System, Link 0=g09
 Input=2hc_1_rel-mega_dimer_1_mon-1.com
 Output=2hc_1_rel-mega_dimer_1_mon-1.out
 Initial command:
 /share/apps/gaussian/g09_D01/g09/l1.exe "/tmp/159434.1.all.q/Gau-61353.inp" -scrdir="/tmp/159434.1.all.q/"
 Entering Link 1 = /share/apps/gaussian/g09_D01/g09/l1.exe PID=     61355.
  
 Copyright (c) 1988,1990,1992,1993,1995,1998,2003,2009,2013,
            Gaussian, Inc.  All Rights Reserved.
  
 This is part of the Gaussian(R) 09 program.  It is based on
 the Gaussian(R) 03 system (copyright 2003, Gaussian, Inc.),
 the Gaussian(R) 98 system (copyright 1998, Gaussian, Inc.),
 the Gaussian(R) 94 system (copyright 1995, Gaussian, Inc.),
 the Gaussian 92(TM) system (copyright 1992, Gaussian, Inc.),
 the Gaussian 90(TM) system (copyright 1990, Gaussian, Inc.),
 the Gaussian 88(TM) system (copyright 1988, Gaussian, Inc.),
 the Gaussian 86(TM) system (copyright 1986, Carnegie Mellon
 University), and the Gaussian 82(TM) system (copyright 1983,
 Carnegie Mellon University). Gaussian is a federally registered
 trademark of Gaussian, Inc.
  
 This software contains proprietary and confidential information,
 including trade secrets, belonging to Gaussian, Inc.
  
 This software is provided under written license and may be
 used, copied, transmitted, or stored only in accord with that
 written license.
  
 The following legend is applicable only to US Government
 contracts under FAR:
  
                    RESTRICTED RIGHTS LEGEND
  
 Use, reproduction and disclosure by the US Government is
 subject to restrictions as set forth in subparagraphs (a)
 and (c) of the Commercial Computer Software - Restricted
 Rights clause in FAR 52.227-19.
  
 Gaussian, Inc.
 340 Quinnipiac St., Bldg. 40, Wallingford CT 06492
  
  
 ---------------------------------------------------------------
 Warning -- This program may not be used in any manner that
 competes with the business of Gaussian, Inc. or will provide
 assistance to any competitor of Gaussian, Inc.  The licensee
 of this program is prohibited from giving any competitor of
 Gaussian, Inc. access to this program.  By using this program,
 the user acknowledges that Gaussian, Inc. is engaged in the
 business of creating and licensing software in the field of
 computational chemistry and represents and warrants to the
 licensee that it is not a competitor of Gaussian, Inc. and that
 it will not use this program in any manner prohibited above.
 ---------------------------------------------------------------
  

 Cite this work as:
 Gaussian 09, Revision D.01,
 M. J. Frisch, G. W. Trucks, H. B. Schlegel, G. E. Scuseria, 
 M. A. Robb, J. R. Cheeseman, G. Scalmani, V. Barone, B. Mennucci, 
 G. A. Petersson, H. Nakatsuji, M. Caricato, X. Li, H. P. Hratchian, 
 A. F. Izmaylov, J. Bloino, G. Zheng, J. L. Sonnenberg, M. Hada, 
 M. Ehara, K. Toyota, R. Fukuda, J. Hasegawa, M. Ishida, T. Nakajima, 
 Y. Honda, O. Kitao, H. Nakai, T. Vreven, J. A. Montgomery, Jr., 
 J. E. Peralta, F. Ogliaro, M. Bearpark, J. J. Heyd, E. Brothers, 
 K. N. Kudin, V. N. Staroverov, T. Keith, R. Kobayashi, J. Normand, 
 K. Raghavachari, A. Rendell, J. C. Burant, S. S. Iyengar, J. Tomasi, 
 M. Cossi, N. Rega, J. M. Millam, M. Klene, J. E. Knox, J. B. Cross, 
 V. Bakken, C. Adamo, J. Jaramillo, R. Gomperts, R. E. Stratmann, 
 O. Yazyev, A. J. Austin, R. Cammi, C. Pomelli, J. W. Ochterski, 
 R. L. Martin, K. Morokuma, V. G. Zakrzewski, G. A. Voth, 
 P. Salvador, J. J. Dannenberg, S. Dapprich, A. D. Daniels, 
 O. Farkas, J. B. Foresman, J. V. Ortiz, J. Cioslowski, 
 and D. J. Fox, Gaussian, Inc., Wallingford CT, 2013.
 
 ******************************************
 Gaussian 09:  ES64L-G09RevD.01 24-Apr-2013
                 2-Nov-2017 
 ******************************************
 %chk=2hc_1_rel-mega_dimer_1.chk
 %nproc=4
 Will use up to    4 processors via shared memory.
 %mem=28GB
 ------------------------------------------
 #p wb97xd/6-311++G** td=(nstates=2) nosymm
 ------------------------------------------
 1/38=1/1;
 2/12=2,15=1,17=6,18=5,40=1/2;
 3/5=4,6=6,7=1111,11=9,16=1,25=1,30=1,74=-58/1,2,8,3;
 4//1;
 5/5=2,38=5/2;
 8/6=1,10=2,108=2/1;
 9/41=2,42=1,70=2/14;
 6/7=2,8=2,9=2,10=2/1;
 99/5=1,9=1/99;
 Leave Link    1 at Thu Nov  2 18:00:32 2017, MaxMem=  3758096384 cpu:         0.4
 (Enter /share/apps/gaussian/g09_D01/g09/l101.exe)
 -----
 Title
 -----
 Symbolic Z-matrix:
 Charge =  0 Multiplicity = 1
 C                    -4.46043   1.698    -1.11664 
 C                    -5.7133    2.28044  -1.366 
 C                    -3.38002   1.90119  -2.02727 
 O                    -4.30303   0.94423  -0.0109 
 C                    -5.90593   3.07695  -2.48504 
 H                    -6.5213    2.07336  -0.66433 
 C                    -3.61705   2.72362  -3.1491 
 C                    -2.08824   1.23843  -1.75948 
 H                    -3.31167   0.61359  -0.09184 
 C                    -4.85279   3.30849  -3.38017 
 H                    -6.88356   3.52291  -2.6748 
 H                    -2.81664   2.92067  -3.86049 
 C                    -0.96817   1.41246  -2.64576 
 O                    -1.99078   0.49847  -0.71343 
 H                    -5.00161   3.94637  -4.25092 
 C                     0.21471   0.74557  -2.45765 
 H                    -1.07416   2.09981  -3.4826 
 C                     1.41541   0.872    -3.22288 
 H                     0.25758   0.05055  -1.61209 
 C                     1.5894    1.80698  -4.27351 
 C                     2.53385   0.06773  -2.89681 
 H                     0.76491   2.4603   -4.56163 
 C                     2.78161   1.92986  -4.94906 
 H                     2.43648  -0.64979  -2.08077 
 C                     3.73394   0.16755  -3.56643 
 C                     3.89957   1.10495  -4.62304 
 H                     2.8573    2.66721  -5.74398 
 H                     4.56211  -0.46939  -3.26587 
 N                     5.07346   1.20934  -5.29752 
 C                     5.21879   2.19137  -6.36071 
 C                     6.18705   0.32491  -4.98381 
 H                     5.02617   3.20909  -5.98734 
 H                     6.23846   2.15122  -6.75469 
 H                     4.51921   1.99012  -7.18556 
 H                     5.8863   -0.73007  -5.07245 
 H                     7.00493   0.51606  -5.68534 
 H                     6.55497   0.49358  -3.95992 
 
 NAtoms=     37 NQM=       37 NQMF=       0 NMMI=      0 NMMIF=      0
                NMic=       0 NMicF=      0.
                    Isotopes and Nuclear Properties:
 (Nuclear quadrupole moments (NQMom) in fm**2, nuclear magnetic moments (NMagM)
  in nuclear magnetons)

  Atom         1           2           3           4           5           6           7           8           9          10
 IAtWgt=          12          12          12          16          12           1          12          12           1          12
 AtmWgt=  12.0000000  12.0000000  12.0000000  15.9949146  12.0000000   1.0078250  12.0000000  12.0000000   1.0078250  12.0000000
 NucSpn=           0           0           0           0           0           1           0           0           1           0
 AtZEff=   0.0000000   0.0000000   0.0000000   0.0000000   0.0000000   0.0000000   0.0000000   0.0000000   0.0000000   0.0000000
 NQMom=    0.0000000   0.0000000   0.0000000   0.0000000   0.0000000   0.0000000   0.0000000   0.0000000   0.0000000   0.0000000
 NMagM=    0.0000000   0.0000000   0.0000000   0.0000000   0.0000000   2.7928460   0.0000000   0.0000000   2.7928460   0.0000000
 AtZNuc=   6.0000000   6.0000000   6.0000000   8.0000000   6.0000000   1.0000000   6.0000000   6.0000000   1.0000000   6.0000000

  Atom        11          12          13          14          15          16          17          18          19          20
 IAtWgt=           1           1          12          16           1          12           1          12           1          12
 AtmWgt=   1.0078250   1.0078250  12.0000000  15.9949146   1.0078250  12.0000000   1.0078250  12.0000000   1.0078250  12.0000000
 NucSpn=           1           1           0           0           1           0           1           0           1           0
 AtZEff=   0.0000000   0.0000000   0.0000000   0.0000000   0.0000000   0.0000000   0.0000000   0.0000000   0.0000000   0.0000000
 NQMom=    0.0000000   0.0000000   0.0000000   0.0000000   0.0000000   0.0000000   0.0000000   0.0000000   0.0000000   0.0000000
 NMagM=    2.7928460   2.7928460   0.0000000   0.0000000   2.7928460   0.0000000   2.7928460   0.0000000   2.7928460   0.0000000
 AtZNuc=   1.0000000   1.0000000   6.0000000   8.0000000   1.0000000   6.0000000   1.0000000   6.0000000   1.0000000   6.0000000

  Atom        21          22          23          24          25          26          27          28          29          30
 IAtWgt=          12           1          12           1          12          12           1           1          14          12
 AtmWgt=  12.0000000   1.0078250  12.0000000   1.0078250  12.0000000  12.0000000   1.0078250   1.0078250  14.0030740  12.0000000
 NucSpn=           0           1           0           1           0           0           1           1           2           0
 AtZEff=   0.0000000   0.0000000   0.0000000   0.0000000   0.0000000   0.0000000   0.0000000   0.0000000   0.0000000   0.0000000
 NQMom=    0.0000000   0.0000000   0.0000000   0.0000000   0.0000000   0.0000000   0.0000000   0.0000000   2.0440000   0.0000000
 NMagM=    0.0000000   2.7928460   0.0000000   2.7928460   0.0000000   0.0000000   2.7928460   2.7928460   0.4037610   0.0000000
 AtZNuc=   6.0000000   1.0000000   6.0000000   1.0000000   6.0000000   6.0000000   1.0000000   1.0000000   7.0000000   6.0000000

  Atom        31          32          33          34          35          36          37
 IAtWgt=          12           1           1           1           1           1           1
 AtmWgt=  12.0000000   1.0078250   1.0078250   1.0078250   1.0078250   1.0078250   1.0078250
 NucSpn=           0           1           1           1           1           1           1
 AtZEff=   0.0000000   0.0000000   0.0000000   0.0000000   0.0000000   0.0000000   0.0000000
 NQMom=    0.0000000   0.0000000   0.0000000   0.0000000   0.0000000   0.0000000   0.0000000
 NMagM=    0.0000000   2.7928460   2.7928460   2.7928460   2.7928460   2.7928460   2.7928460
 AtZNuc=   6.0000000   1.0000000   1.0000000   1.0000000   1.0000000   1.0000000   1.0000000
 Leave Link  101 at Thu Nov  2 18:00:38 2017, MaxMem=  3758096384 cpu:         0.4
 (Enter /share/apps/gaussian/g09_D01/g09/l202.exe)
                          Input orientation:                          
 ---------------------------------------------------------------------
 Center     Atomic      Atomic             Coordinates (Angstroms)
 Number     Number       Type             X           Y           Z
 ---------------------------------------------------------------------
      1          6           0       -4.460431    1.697999   -1.116637
      2          6           0       -5.713299    2.280435   -1.366002
      3          6           0       -3.380024    1.901192   -2.027274
      4          8           0       -4.303033    0.944233   -0.010897
      5          6           0       -5.905928    3.076949   -2.485036
      6          1           0       -6.521299    2.073365   -0.664330
      7          6           0       -3.617051    2.723616   -3.149103
      8          6           0       -2.088235    1.238428   -1.759477
      9          1           0       -3.311670    0.613585   -0.091837
     10          6           0       -4.852787    3.308490   -3.380165
     11          1           0       -6.883564    3.522908   -2.674803
     12          1           0       -2.816641    2.920673   -3.860494
     13          6           0       -0.968168    1.412456   -2.645759
     14          8           0       -1.990780    0.498466   -0.713431
     15          1           0       -5.001607    3.946366   -4.250924
     16          6           0        0.214710    0.745571   -2.457648
     17          1           0       -1.074164    2.099815   -3.482603
     18          6           0        1.415410    0.871997   -3.222876
     19          1           0        0.257579    0.050548   -1.612086
     20          6           0        1.589403    1.806976   -4.273513
     21          6           0        2.533855    0.067726   -2.896805
     22          1           0        0.764905    2.460304   -4.561628
     23          6           0        2.781614    1.929857   -4.949058
     24          1           0        2.436477   -0.649787   -2.080769
     25          6           0        3.733941    0.167547   -3.566428
     26          6           0        3.899567    1.104949   -4.623043
     27          1           0        2.857302    2.667212   -5.743983
     28          1           0        4.562114   -0.469393   -3.265867
     29          7           0        5.073463    1.209340   -5.297521
     30          6           0        5.218793    2.191367   -6.360708
     31          6           0        6.187049    0.324912   -4.983814
     32          1           0        5.026173    3.209094   -5.987337
     33          1           0        6.238463    2.151217   -6.754687
     34          1           0        4.519212    1.990119   -7.185558
     35          1           0        5.886297   -0.730065   -5.072452
     36          1           0        7.004935    0.516059   -5.685338
     37          1           0        6.554969    0.493576   -3.959923
 ---------------------------------------------------------------------
                    Distance matrix (angstroms):
                    1          2          3          4          5
     1  C    0.000000
     2  C    1.403956   0.000000
     3  C    1.427525   2.454644   0.000000
     4  O    1.347441   2.368670   2.415262   0.000000
     5  C    2.421462   1.387003   2.823498   3.638559   0.000000
     6  H    2.143049   1.089993   3.428537   2.573445   2.168140
     7  C    2.427776   2.787492   1.411050   3.672208   2.409313
     8  C    2.500353   3.792320   1.476377   2.837149   4.298997
     9  H    1.883035   3.188998   2.325623   1.048179   4.304154
    10  C    2.805563   2.419552   2.445370   4.152578   1.401418
    11  H    3.410242   2.150865   3.914594   4.517200   1.091175
    12  H    3.424285   3.875954   2.171966   4.575486   3.385262
    13  C    3.823042   4.990735   2.537407   4.275869   5.213237
    14  O    2.775001   4.178326   2.371460   2.457392   5.011541
    15  H    3.895097   3.406553   3.428832   5.242007   2.166112
    16  C    4.956044   6.220031   3.800368   5.141601   6.549678
    17  H    4.150428   5.102372   2.733939   4.879929   5.029500
    18  C    6.296350   7.500011   5.048257   6.559163   7.681680
    19  H    5.021870   6.378428   4.102368   4.915451   6.921702
    20  C    6.824825   7.874468   5.454326   7.323594   7.809703
    21  C    7.399110   8.674963   6.252331   7.472601   8.969666
    22  H    6.305015   7.225753   4.890398   6.977938   7.013736
    23  C    8.196855   9.226307   6.819342   8.691899   9.102780
    24  H    7.349081   8.689991   6.351538   7.228158   9.145912
    25  C    8.688584   9.927563   7.482180   8.822584  10.127246
    26  C    9.084941  10.217499   7.769457   9.411714  10.227785
    27  H    8.712113   9.631797   7.301024   9.333131   9.358569
    28  H    9.524867  10.805330   8.380414   9.549031  11.079988
    29  N   10.421790  11.530755   9.090358  10.767421  11.486734
    30  C   11.019577  12.019387   9.633406  11.512628  11.813742
    31  C   11.410927  12.590906  10.136798  11.625630  12.651391
    32  H   10.770459  11.728402   9.383861  11.308471  11.480175
    33  H   12.102039  13.111035  10.720366  12.572138  12.906321
    34  H   10.842100  11.775220   9.434709  11.419354  11.487369
    35  H   11.340139  12.543983  10.102541  11.499785  12.658777
    36  H   12.398574  13.547072  11.097180  12.659098  13.545866
    37  H   11.440015  12.666163  10.218640  11.562617  12.811052
                    6          7          8          9         10
     6  H    0.000000
     7  C    3.877058   0.000000
     8  C    4.642039   2.544430   0.000000
     9  H    3.572174   3.727246   2.160612   0.000000
    10  C    3.418366   1.386546   3.815041   4.522240   0.000000
    11  H    2.504878   3.396165   5.389977   5.281506   2.160455
    12  H    4.965671   1.088836   2.788332   4.446401   2.127677
    13  C    5.932969   2.998179   1.438865   3.557065   4.384582
    14  O    4.796699   3.678117   1.285011   1.464371   4.816512
    15  H    4.322182   2.150842   4.693397   5.591182   1.089612
    16  C    7.095974   4.367283   2.456401   4.248510   5.753183
    17  H    6.133078   2.639436   2.177037   4.325807   3.968549
    18  C    8.425010   5.362798   3.814621   5.675867   6.726926
    19  H    7.137452   4.951815   2.633558   3.920167   6.313171
    20  C    8.881478   5.404784   4.490951   6.552184   6.674910
    21  C    9.539515   6.704554   4.901813   6.506610   8.080759
    22  H    8.272087   4.611518   4.181559   6.325177   5.802908
    23  C   10.243226   6.694237   5.862331   7.902739   7.914931
    24  H    9.469087   7.011875   4.913411   6.212339   8.395818
    25  C   10.827015   7.793891   6.189474   7.868441   9.145060
    26  C   11.189445   7.828929   6.638644   8.530838   9.110655
    27  H   10.682401   6.975230   6.509689   8.615124   8.089768
    28  H   11.665147   8.781098   7.029438   8.558258  10.145237
    29  N   12.516050   9.079304   7.988024   9.887595  10.325363
    30  C   13.049613   9.416466   8.687467  10.703128  10.562591
    31  C   13.535773  10.258671   8.928112  10.688332  11.547788
    32  H   12.765907   9.110246   8.507240  10.536281  10.217684
    33  H   14.138955  10.509949   9.752908  11.745762  11.650859
    34  H   12.822879   9.112067   8.582875  10.655442  10.200661
    35  H   13.462511  10.292755   8.856858  10.545829  11.597486
    36  H   14.511882  11.141471   9.930757  11.735804  12.398269
    37  H   13.577387  10.445118   8.949958  10.598446  11.764215
                   11         12         13         14         15
    11  H    0.000000
    12  H    4.278833   0.000000
    13  C    6.280666   2.677154   0.000000
    14  O    6.077299   4.056247   2.369600   0.000000
    15  H    2.491031   2.445109   5.026518   5.785063   0.000000
    16  C    7.625369   3.985992   1.370884   2.822683   6.377373
    17  H    6.035467   1.962864   1.088120   3.327584   4.407366
    18  C    8.729300   4.744880   2.511295   4.247231   7.189349
    19  H    8.011403   4.769044   2.103742   2.462383   7.056905
    20  C    8.791557   4.563346   3.057188   5.215754   6.929568
    21  C   10.033711   6.139691   3.759719   5.042319   8.582580
    22  H    7.949108   3.678451   2.787845   5.123595   5.963018
    23  C   10.056128   5.788536   4.430999   6.539508   8.070454
    24  H   10.228755   6.596276   4.020406   4.773751   9.008845
    25  C   11.170714   7.111702   4.950481   6.404805   9.542421
    26  C   11.221323   6.998985   5.262989   7.095708   9.351097
    27  H   10.248734   5.983762   5.080121   7.315314   8.101106
    28  H   12.136366   8.141999   5.874513   7.098739  10.579888
    29  N   12.457999   8.200454   6.601091   8.451198  10.492555
    30  C   12.721083   8.446961   7.258515   9.313195  10.582428
    31  C   13.652825   9.437492   7.605681   9.227306  11.782957
    32  H   12.365808   8.131198   7.094094   9.186905  10.203679
    33  H   13.809945   9.537469   8.328541  10.341605  11.654637
    34  H   12.357979   8.107818   7.145265   9.300186  10.153077
    35  H   13.671351   9.515138   7.580430   9.086182  11.878147
    36  H   14.525662  10.274998   8.579798  10.278281  12.569073
    37  H   13.835554   9.681310   7.692136   9.141639  12.064862
                   16         17         18         19         20
    16  C    0.000000
    17  H    2.132066   0.000000
    18  C    1.429419   2.788005   0.000000
    19  H    1.095386   3.077640   2.147090   0.000000
    20  C    2.512713   2.793901   1.417144   3.455718   0.000000
    21  C    2.455762   4.182146   1.415660   2.613854   2.410872
    22  H    2.769432   2.162504   2.176725   3.842408   1.090708
    23  C    3.768110   4.128729   2.442393   4.586713   1.375801
    24  H    2.650530   4.674404   2.159355   2.336178   3.400198
    25  C    3.734768   5.182524   2.447420   3.989766   2.790473
    26  C    4.289086   5.198881   2.861079   4.841663   2.439646
    27  H    4.634220   4.570799   3.414356   5.538778   2.123642
    28  H    4.585769   6.198019   3.420953   4.640512   3.877398
    29  N    5.646897   6.471491   4.218922   6.173975   3.680277
    30  C    6.508844   6.920490   5.104160   7.193480   4.204356
    31  C    6.498254   7.624246   5.115539   6.826598   4.882560
    32  H    6.455837   6.687175   5.112913   7.201300   4.088339
    33  H    7.531665   8.011472   6.113259   8.162728   5.280955
    34  H    6.513891   6.708932   5.156223   7.279220   4.134892
    35  H    6.417289   7.680095   5.096701   6.653267   5.053531
    36  H    7.521823   8.522451   6.118268   7.895245   5.743492
    37  H    6.520676   7.810986   5.205911   6.735409   5.145892
                   21         22         23         24         25
    21  C    0.000000
    22  H    3.409582   0.000000
    23  C    2.782204   2.120988   0.000000
    24  H    1.090973   4.315261   3.873082   0.000000
    25  C    1.377884   3.881022   2.433994   2.135095   0.000000
    26  C    2.433290   3.415679   1.427087   3.418024   1.422178
    27  H    3.868898   2.412240   1.086889   4.959709   3.429077
    28  H    2.130385   4.967989   3.429244   2.440355   1.087152
    29  N    3.676456   4.546441   2.427580   4.556045   2.424115
    30  C    4.870048   4.811043   2.828601   5.842201   3.756146
    31  C    4.215160   5.842755   3.764843   4.841952   2.837514
    32  H    5.062729   4.555408   2.784334   6.071142   4.096544
    33  H    5.740062   5.904649   3.906290   6.644263   4.513599
    34  H    5.102023   4.604444   2.832810   6.112754   4.127532
    35  H    4.075387   6.055415   4.090167   4.567042   2.776050
    36  H    5.288428   6.631801   4.514130   5.934890   3.912882
    37  H    4.181020   6.144502   4.156862   4.669098   2.866938
                   26         27         28         29         30
    26  C    0.000000
    27  H    2.187119   0.000000
    28  H    2.181616   4.345772   0.000000
    29  N    1.357884   2.689998   2.684630   0.000000
    30  C    2.437240   2.486648   4.133874   1.454601   0.000000
    31  C    2.443601   4.141430   2.494529   1.456262   2.513366
    32  H    2.749175   2.248746   4.599241   2.115916   1.101034
    33  H    3.333019   3.566514   4.674356   2.089902   1.093873
    34  H    2.781001   2.301855   4.627636   2.116954   1.100133
    35  H    2.741595   4.600789   2.255030   2.114863   3.261891
    36  H    3.334452   4.672661   3.576637   2.088450   2.540292
    37  H    2.804401   4.645461   2.319589   2.120459   3.229803
                   31         32         33         34         35
    31  C    0.000000
    32  H    3.266986   0.000000
    33  H    2.544410   1.782576   0.000000
    34  H    3.225255   1.782875   1.779726   0.000000
    35  H    1.100584   4.134465   3.354955   3.705879   0.000000
    36  H    1.094354   3.355464   2.098744   3.256122   1.783201
    37  H    1.100984   3.717750   3.264760   4.097398   1.783855
                   36         37
    36  H    0.000000
    37  H    1.783264   0.000000
 Symmetry turned off by external request.
 Stoichiometry    C17H17NO2
 Framework group  C1[X(C17H17NO2)]
 Deg. of freedom   105
 Full point group                 C1      NOp   1
 Rotational constants (GHZ):      1.0904252      0.1072611      0.0979094
 Leave Link  202 at Thu Nov  2 18:00:51 2017, MaxMem=  3758096384 cpu:        11.1
 (Enter /share/apps/gaussian/g09_D01/g09/l301.exe)
 Standard basis: 6-311++G(d,p) (5D, 7F)
 Ernie: Thresh=  0.10000D-02 Tol=  0.10000D-05 Strict=F.
   559 basis functions,   873 primitive gaussians,   579 cartesian basis functions
    71 alpha electrons       71 beta electrons
       nuclear repulsion energy      1358.4109602487 Hartrees.
 IExCor= 4639 DFT=T Ex+Corr=wB97XD ExCW=0 ScaHFX=  1.000000
 ScaDFX=  1.000000  1.000000  1.000000  1.000000 ScalE2=  1.000000  1.000000
 IRadAn=      0 IRanWt=     -1 IRanGd=            0 ICorTp=0 IEmpDi=121
  HFx wShort=  0.000000 wLong=  0.200000 cFull=  0.222036 cShort=  0.000000 cLong=  0.777964
  DFx wShort=  0.000000 wLong=  0.200000 cFull=  0.000000 cShort=  0.000000 cLong=  1.000000
 NAtoms=   37 NActive=   37 NUniq=   37 SFac= 1.00D+00 NAtFMM=   60 NAOKFM=F Big=F
 Integral buffers will be    131072 words long.
 Raffenetti 1 integral format.
 Two-electron integral symmetry is turned off.
 R6Disp:  Grimme-D2 Dispersion energy=       -0.0228555456 Hartrees.
 Nuclear repulsion after empirical dispersion term =     1358.3881047032 Hartrees.
 Leave Link  301 at Thu Nov  2 18:01:08 2017, MaxMem=  3758096384 cpu:         9.1
 (Enter /share/apps/gaussian/g09_D01/g09/l302.exe)
 NPDir=0 NMtPBC=     1 NCelOv=     1 NCel=       1 NClECP=     1 NCelD=      1
         NCelK=      1 NCelE2=     1 NClLst=     1 CellRange=     0.0.
 One-electron integrals computed using PRISM.
 NBasis=   559 RedAO= T EigKep=  1.16D-06  NBF=   559
 NBsUse=   553 1.00D-06 EigRej=  5.34D-07 NBFU=   553
 Precomputing XC quadrature grid using
 IXCGrd= 4 IRadAn=           0 IRanWt=          -1 IRanGd=           0 AccXCQ= 0.00D+00.
 Generated NRdTot=       0 NPtTot=           0 NUsed=           0 NTot=          32
 NSgBfM=   560   560   562   565   565 MxSgAt=    37 MxSgA2=    37.
 Leave Link  302 at Thu Nov  2 18:01:15 2017, MaxMem=  3758096384 cpu:        13.2
 (Enter /share/apps/gaussian/g09_D01/g09/l308.exe)
 Leave Link  308 at Thu Nov  2 18:01:16 2017, MaxMem=  3758096384 cpu:         1.5
 (Enter /share/apps/gaussian/g09_D01/g09/l303.exe)
 DipDrv:  MaxL=1.
 Leave Link  303 at Thu Nov  2 18:01:16 2017, MaxMem=  3758096384 cpu:         1.0
 (Enter /share/apps/gaussian/g09_D01/g09/l401.exe)
 ExpMin= 3.60D-02 ExpMax= 8.59D+03 ExpMxC= 1.30D+03 IAcc=3 IRadAn=         5 AccDes= 0.00D+00
 Harris functional with IExCor= 4639 and IRadAn=       5 diagonalized for initial guess.
 HarFok:  IExCor= 4639 AccDes= 0.00D+00 IRadAn=         5 IDoV= 1 UseB2=F ITyADJ=14
 ICtDFT=  3500011 ScaDFX=  1.000000  1.000000  1.000000  1.000000
