 Entering Gaussian System, Link 0=g09
 Input=2hc_1_rel-mega_dimer_1_mon-1.com
 Output=2hc_1_rel-mega_dimer_1_mon-1.out
 Initial command:
 /share/apps/gaussian/g09_D01/g09/l1.exe "/tmp/167949.1.all.q/Gau-28692.inp" -scrdir="/tmp/167949.1.all.q/"
 Entering Link 1 = /share/apps/gaussian/g09_D01/g09/l1.exe PID=     28693.
  
 Copyright (c) 1988,1990,1992,1993,1995,1998,2003,2009,2013,
            Gaussian, Inc.  All Rights Reserved.
  
 This is part of the Gaussian(R) 09 program.  It is based on
 the Gaussian(R) 03 system (copyright 2003, Gaussian, Inc.),
 the Gaussian(R) 98 system (copyright 1998, Gaussian, Inc.),
 the Gaussian(R) 94 system (copyright 1995, Gaussian, Inc.),
 the Gaussian 92(TM) system (copyright 1992, Gaussian, Inc.),
 the Gaussian 90(TM) system (copyright 1990, Gaussian, Inc.),
 the Gaussian 88(TM) system (copyright 1988, Gaussian, Inc.),
 the Gaussian 86(TM) system (copyright 1986, Carnegie Mellon
 University), and the Gaussian 82(TM) system (copyright 1983,
 Carnegie Mellon University). Gaussian is a federally registered
 trademark of Gaussian, Inc.
  
 This software contains proprietary and confidential information,
 including trade secrets, belonging to Gaussian, Inc.
  
 This software is provided under written license and may be
 used, copied, transmitted, or stored only in accord with that
 written license.
  
 The following legend is applicable only to US Government
 contracts under FAR:
  
                    RESTRICTED RIGHTS LEGEND
  
 Use, reproduction and disclosure by the US Government is
 subject to restrictions as set forth in subparagraphs (a)
 and (c) of the Commercial Computer Software - Restricted
 Rights clause in FAR 52.227-19.
  
 Gaussian, Inc.
 340 Quinnipiac St., Bldg. 40, Wallingford CT 06492
  
  
 ---------------------------------------------------------------
 Warning -- This program may not be used in any manner that
 competes with the business of Gaussian, Inc. or will provide
 assistance to any competitor of Gaussian, Inc.  The licensee
 of this program is prohibited from giving any competitor of
 Gaussian, Inc. access to this program.  By using this program,
 the user acknowledges that Gaussian, Inc. is engaged in the
 business of creating and licensing software in the field of
 computational chemistry and represents and warrants to the
 licensee that it is not a competitor of Gaussian, Inc. and that
 it will not use this program in any manner prohibited above.
 ---------------------------------------------------------------
  

 Cite this work as:
 Gaussian 09, Revision D.01,
 M. J. Frisch, G. W. Trucks, H. B. Schlegel, G. E. Scuseria, 
 M. A. Robb, J. R. Cheeseman, G. Scalmani, V. Barone, B. Mennucci, 
 G. A. Petersson, H. Nakatsuji, M. Caricato, X. Li, H. P. Hratchian, 
 A. F. Izmaylov, J. Bloino, G. Zheng, J. L. Sonnenberg, M. Hada, 
 M. Ehara, K. Toyota, R. Fukuda, J. Hasegawa, M. Ishida, T. Nakajima, 
 Y. Honda, O. Kitao, H. Nakai, T. Vreven, J. A. Montgomery, Jr., 
 J. E. Peralta, F. Ogliaro, M. Bearpark, J. J. Heyd, E. Brothers, 
 K. N. Kudin, V. N. Staroverov, T. Keith, R. Kobayashi, J. Normand, 
 K. Raghavachari, A. Rendell, J. C. Burant, S. S. Iyengar, J. Tomasi, 
 M. Cossi, N. Rega, J. M. Millam, M. Klene, J. E. Knox, J. B. Cross, 
 V. Bakken, C. Adamo, J. Jaramillo, R. Gomperts, R. E. Stratmann, 
 O. Yazyev, A. J. Austin, R. Cammi, C. Pomelli, J. W. Ochterski, 
 R. L. Martin, K. Morokuma, V. G. Zakrzewski, G. A. Voth, 
 P. Salvador, J. J. Dannenberg, S. Dapprich, A. D. Daniels, 
 O. Farkas, J. B. Foresman, J. V. Ortiz, J. Cioslowski, 
 and D. J. Fox, Gaussian, Inc., Wallingford CT, 2013.
 
 ******************************************
 Gaussian 09:  ES64L-G09RevD.01 24-Apr-2013
                 8-Nov-2017 
 ******************************************
 %chk=2hc_1_rel-mega_dimer_1.chk
 %nproc=4
 Will use up to    4 processors via shared memory.
 %mem=28GB
 ------------------------------------------
 #p wb97xd/6-311++G** td=(nstates=2) nosymm
 ------------------------------------------
 1/38=1/1;
 2/12=2,15=1,17=6,18=5,40=1/2;
 3/5=4,6=6,7=1111,11=9,16=1,25=1,30=1,74=-58/1,2,8,3;
 4//1;
 5/5=2,38=5/2;
 8/6=1,10=2,108=2/1;
 9/41=2,42=1,70=2/14;
 6/7=2,8=2,9=2,10=2/1;
 99/5=1,9=1/99;
 Leave Link    1 at Wed Nov  8 18:01:13 2017, MaxMem=  3758096384 cpu:         0.3
 (Enter /share/apps/gaussian/g09_D01/g09/l101.exe)
 -----
 Title
 -----
 Symbolic Z-matrix:
 Charge =  0 Multiplicity = 1
 C                    -4.46043   1.698    -1.11664 
 C                    -5.7133    2.28044  -1.366 
 C                    -3.38002   1.90119  -2.02727 
 O                    -4.30303   0.94423  -0.0109 
 C                    -5.90593   3.07695  -2.48504 
 H                    -6.5213    2.07336  -0.66433 
 C                    -3.61705   2.72362  -3.1491 
 C                    -2.08824   1.23843  -1.75948 
 H                    -3.31167   0.61359  -0.09184 
 C                    -4.85279   3.30849  -3.38017 
 H                    -6.88356   3.52291  -2.6748 
 H                    -2.81664   2.92067  -3.86049 
 C                    -0.96817   1.41246  -2.64576 
 O                    -1.99078   0.49847  -0.71343 
 H                    -5.00161   3.94637  -4.25092 
 C                     0.21471   0.74557  -2.45765 
 H                    -1.07416   2.09981  -3.4826 
 C                     1.41541   0.872    -3.22288 
 H                     0.25758   0.05055  -1.61209 
 C                     1.5894    1.80698  -4.27351 
 C                     2.53385   0.06773  -2.89681 
 H                     0.76491   2.4603   -4.56163 
 C                     2.78161   1.92986  -4.94906 
 H                     2.43648  -0.64979  -2.08077 
 C                     3.73394   0.16755  -3.56643 
 C                     3.89957   1.10495  -4.62304 
 H                     2.8573    2.66721  -5.74398 
 H                     4.56211  -0.46939  -3.26587 
 N                     5.07346   1.20934  -5.29752 
 C                     5.21879   2.19137  -6.36071 
 C                     6.18705   0.32491  -4.98381 
 H                     5.02617   3.20909  -5.98734 
 H                     6.23846   2.15122  -6.75469 
 H                     4.51921   1.99012  -7.18556 
 H                     5.8863   -0.73007  -5.07245 
 H                     7.00493   0.51606  -5.68534 
 H                     6.55497   0.49358  -3.95992 
 
 NAtoms=     37 NQM=       37 NQMF=       0 NMMI=      0 NMMIF=      0
                NMic=       0 NMicF=      0.
                    Isotopes and Nuclear Properties:
 (Nuclear quadrupole moments (NQMom) in fm**2, nuclear magnetic moments (NMagM)
  in nuclear magnetons)

  Atom         1           2           3           4           5           6           7           8           9          10
 IAtWgt=          12          12          12          16          12           1          12          12           1          12
 AtmWgt=  12.0000000  12.0000000  12.0000000  15.9949146  12.0000000   1.0078250  12.0000000  12.0000000   1.0078250  12.0000000
 NucSpn=           0           0           0           0           0           1           0           0           1           0
 AtZEff=   0.0000000   0.0000000   0.0000000   0.0000000   0.0000000   0.0000000   0.0000000   0.0000000   0.0000000   0.0000000
 NQMom=    0.0000000   0.0000000   0.0000000   0.0000000   0.0000000   0.0000000   0.0000000   0.0000000   0.0000000   0.0000000
 NMagM=    0.0000000   0.0000000   0.0000000   0.0000000   0.0000000   2.7928460   0.0000000   0.0000000   2.7928460   0.0000000
 AtZNuc=   6.0000000   6.0000000   6.0000000   8.0000000   6.0000000   1.0000000   6.0000000   6.0000000   1.0000000   6.0000000

  Atom        11          12          13          14          15          16          17          18          19          20
 IAtWgt=           1           1          12          16           1          12           1          12           1          12
 AtmWgt=   1.0078250   1.0078250  12.0000000  15.9949146   1.0078250  12.0000000   1.0078250  12.0000000   1.0078250  12.0000000
 NucSpn=           1           1           0           0           1           0           1           0           1           0
 AtZEff=   0.0000000   0.0000000   0.0000000   0.0000000   0.0000000   0.0000000   0.0000000   0.0000000   0.0000000   0.0000000
 NQMom=    0.0000000   0.0000000   0.0000000   0.0000000   0.0000000   0.0000000   0.0000000   0.0000000   0.0000000   0.0000000
 NMagM=    2.7928460   2.7928460   0.0000000   0.0000000   2.7928460   0.0000000   2.7928460   0.0000000   2.7928460   0.0000000
 AtZNuc=   1.0000000   1.0000000   6.0000000   8.0000000   1.0000000   6.0000000   1.0000000   6.0000000   1.0000000   6.0000000

  Atom        21          22          23          24          25          26          27          28          29          30
 IAtWgt=          12           1          12           1          12          12           1           1          14          12
 AtmWgt=  12.0000000   1.0078250  12.0000000   1.0078250  12.0000000  12.0000000   1.0078250   1.0078250  14.0030740  12.0000000
 NucSpn=           0           1           0           1           0           0           1           1           2           0
 AtZEff=   0.0000000   0.0000000   0.0000000   0.0000000   0.0000000   0.0000000   0.0000000   0.0000000   0.0000000   0.0000000
 NQMom=    0.0000000   0.0000000   0.0000000   0.0000000   0.0000000   0.0000000   0.0000000   0.0000000   2.0440000   0.0000000
 NMagM=    0.0000000   2.7928460   0.0000000   2.7928460   0.0000000   0.0000000   2.7928460   2.7928460   0.4037610   0.0000000
 AtZNuc=   6.0000000   1.0000000   6.0000000   1.0000000   6.0000000   6.0000000   1.0000000   1.0000000   7.0000000   6.0000000

  Atom        31          32          33          34          35          36          37
 IAtWgt=          12           1           1           1           1           1           1
 AtmWgt=  12.0000000   1.0078250   1.0078250   1.0078250   1.0078250   1.0078250   1.0078250
 NucSpn=           0           1           1           1           1           1           1
 AtZEff=   0.0000000   0.0000000   0.0000000   0.0000000   0.0000000   0.0000000   0.0000000
 NQMom=    0.0000000   0.0000000   0.0000000   0.0000000   0.0000000   0.0000000   0.0000000
 NMagM=    0.0000000   2.7928460   2.7928460   2.7928460   2.7928460   2.7928460   2.7928460
 AtZNuc=   6.0000000   1.0000000   1.0000000   1.0000000   1.0000000   1.0000000   1.0000000
 Leave Link  101 at Wed Nov  8 18:01:13 2017, MaxMem=  3758096384 cpu:         0.3
 (Enter /share/apps/gaussian/g09_D01/g09/l202.exe)
                          Input orientation:                          
 ---------------------------------------------------------------------
 Center     Atomic      Atomic             Coordinates (Angstroms)
 Number     Number       Type             X           Y           Z
 ---------------------------------------------------------------------
      1          6           0       -4.460431    1.697999   -1.116637
      2          6           0       -5.713299    2.280435   -1.366002
      3          6           0       -3.380024    1.901192   -2.027274
      4          8           0       -4.303033    0.944233   -0.010897
      5          6           0       -5.905928    3.076949   -2.485036
      6          1           0       -6.521299    2.073365   -0.664330
      7          6           0       -3.617051    2.723616   -3.149103
      8          6           0       -2.088235    1.238428   -1.759477
      9          1           0       -3.311670    0.613585   -0.091837
     10          6           0       -4.852787    3.308490   -3.380165
     11          1           0       -6.883564    3.522908   -2.674803
     12          1           0       -2.816641    2.920673   -3.860494
     13          6           0       -0.968168    1.412456   -2.645759
     14          8           0       -1.990780    0.498466   -0.713431
     15          1           0       -5.001607    3.946366   -4.250924
     16          6           0        0.214710    0.745571   -2.457648
     17          1           0       -1.074164    2.099815   -3.482603
     18          6           0        1.415410    0.871997   -3.222876
     19          1           0        0.257579    0.050548   -1.612086
     20          6           0        1.589403    1.806976   -4.273513
     21          6           0        2.533855    0.067726   -2.896805
     22          1           0        0.764905    2.460304   -4.561628
     23          6           0        2.781614    1.929857   -4.949058
     24          1           0        2.436477   -0.649787   -2.080769
     25          6           0        3.733941    0.167547   -3.566428
     26          6           0        3.899567    1.104949   -4.623043
     27          1           0        2.857302    2.667212   -5.743983
     28          1           0        4.562114   -0.469393   -3.265867
     29          7           0        5.073463    1.209340   -5.297521
     30          6           0        5.218793    2.191367   -6.360708
     31          6           0        6.187049    0.324912   -4.983814
     32          1           0        5.026173    3.209094   -5.987337
     33          1           0        6.238463    2.151217   -6.754687
     34          1           0        4.519212    1.990119   -7.185558
     35          1           0        5.886297   -0.730065   -5.072452
     36          1           0        7.004935    0.516059   -5.685338
     37          1           0        6.554969    0.493576   -3.959923
 ---------------------------------------------------------------------
                    Distance matrix (angstroms):
                    1          2          3          4          5
     1  C    0.000000
     2  C    1.403956   0.000000
     3  C    1.427525   2.454644   0.000000
     4  O    1.347441   2.368670   2.415262   0.000000
     5  C    2.421462   1.387003   2.823498   3.638559   0.000000
     6  H    2.143049   1.089993   3.428537   2.573445   2.168140
     7  C    2.427776   2.787492   1.411050   3.672208   2.409313
     8  C    2.500353   3.792320   1.476377   2.837149   4.298997
     9  H    1.883035   3.188998   2.325623   1.048179   4.304154
    10  C    2.805563   2.419552   2.445370   4.152578   1.401418
    11  H    3.410242   2.150865   3.914594   4.517200   1.091175
    12  H    3.424285   3.875954   2.171966   4.575486   3.385262
    13  C    3.823042   4.990735   2.537407   4.275869   5.213237
    14  O    2.775001   4.178326   2.371460   2.457392   5.011541
    15  H    3.895097   3.406553   3.428832   5.242007   2.166112
    16  C    4.956044   6.220031   3.800368   5.141601   6.549678
    17  H    4.150428   5.102372   2.733939   4.879929   5.029500
    18  C    6.296350   7.500011   5.048257   6.559163   7.681680
    19  H    5.021870   6.378428   4.102368   4.915451   6.921702
    20  C    6.824825   7.874468   5.454326   7.323594   7.809703
    21  C    7.399110   8.674963   6.252331   7.472601   8.969666
    22  H    6.305015   7.225753   4.890398   6.977938   7.013736
    23  C    8.196855   9.226307   6.819342   8.691899   9.102780
    24  H    7.349081   8.689991   6.351538   7.228158   9.145912
    25  C    8.688584   9.927563   7.482180   8.822584  10.127246
    26  C    9.084941  10.217499   7.769457   9.411714  10.227785
    27  H    8.712113   9.631797   7.301024   9.333131   9.358569
    28  H    9.524867  10.805330   8.380414   9.549031  11.079988
    29  N   10.421790  11.530755   9.090358  10.767421  11.486734
    30  C   11.019577  12.019387   9.633406  11.512628  11.813742
    31  C   11.410927  12.590906  10.136798  11.625630  12.651391
    32  H   10.770459  11.728402   9.383861  11.308471  11.480175
    33  H   12.102039  13.111035  10.720366  12.572138  12.906321
    34  H   10.842100  11.775220   9.434709  11.419354  11.487369
    35  H   11.340139  12.543983  10.102541  11.499785  12.658777
    36  H   12.398574  13.547072  11.097180  12.659098  13.545866
    37  H   11.440015  12.666163  10.218640  11.562617  12.811052
                    6          7          8          9         10
     6  H    0.000000
     7  C    3.877058   0.000000
     8  C    4.642039   2.544430   0.000000
     9  H    3.572174   3.727246   2.160612   0.000000
    10  C    3.418366   1.386546   3.815041   4.522240   0.000000
    11  H    2.504878   3.396165   5.389977   5.281506   2.160455
    12  H    4.965671   1.088836   2.788332   4.446401   2.127677
    13  C    5.932969   2.998179   1.438865   3.557065   4.384582
    14  O    4.796699   3.678117   1.285011   1.464371   4.816512
    15  H    4.322182   2.150842   4.693397   5.591182   1.089612
    16  C    7.095974   4.367283   2.456401   4.248510   5.753183
    17  H    6.133078   2.639436   2.177037   4.325807   3.968549
    18  C    8.425010   5.362798   3.814621   5.675867   6.726926
    19  H    7.137452   4.951815   2.633558   3.920167   6.313171
    20  C    8.881478   5.404784   4.490951   6.552184   6.674910
    21  C    9.539515   6.704554   4.901813   6.506610   8.080759
    22  H    8.272087   4.611518   4.181559   6.325177   5.802908
    23  C   10.243226   6.694237   5.862331   7.902739   7.914931
    24  H    9.469087   7.011875   4.913411   6.212339   8.395818
    25  C   10.827015   7.793891   6.189474   7.868441   9.145060
    26  C   11.189445   7.828929   6.638644   8.530838   9.110655
    27  H   10.682401   6.975230   6.509689   8.615124   8.089768
    28  H   11.665147   8.781098   7.029438   8.558258  10.145237
    29  N   12.516050   9.079304   7.988024   9.887595  10.325363
    30  C   13.049613   9.416466   8.687467  10.703128  10.562591
    31  C   13.535773  10.258671   8.928112  10.688332  11.547788
    32  H   12.765907   9.110246   8.507240  10.536281  10.217684
    33  H   14.138955  10.509949   9.752908  11.745762  11.650859
    34  H   12.822879   9.112067   8.582875  10.655442  10.200661
    35  H   13.462511  10.292755   8.856858  10.545829  11.597486
    36  H   14.511882  11.141471   9.930757  11.735804  12.398269
    37  H   13.577387  10.445118   8.949958  10.598446  11.764215
                   11         12         13         14         15
    11  H    0.000000
    12  H    4.278833   0.000000
    13  C    6.280666   2.677154   0.000000
    14  O    6.077299   4.056247   2.369600   0.000000
    15  H    2.491031   2.445109   5.026518   5.785063   0.000000
    16  C    7.625369   3.985992   1.370884   2.822683   6.377373
    17  H    6.035467   1.962864   1.088120   3.327584   4.407366
    18  C    8.729300   4.744880   2.511295   4.247231   7.189349
    19  H    8.011403   4.769044   2.103742   2.462383   7.056905
    20  C    8.791557   4.563346   3.057188   5.215754   6.929568
    21  C   10.033711   6.139691   3.759719   5.042319   8.582580
    22  H    7.949108   3.678451   2.787845   5.123595   5.963018
    23  C   10.056128   5.788536   4.430999   6.539508   8.070454
    24  H   10.228755   6.596276   4.020406   4.773751   9.008845
    25  C   11.170714   7.111702   4.950481   6.404805   9.542421
    26  C   11.221323   6.998985   5.262989   7.095708   9.351097
    27  H   10.248734   5.983762   5.080121   7.315314   8.101106
    28  H   12.136366   8.141999   5.874513   7.098739  10.579888
    29  N   12.457999   8.200454   6.601091   8.451198  10.492555
    30  C   12.721083   8.446961   7.258515   9.313195  10.582428
    31  C   13.652825   9.437492   7.605681   9.227306  11.782957
    32  H   12.365808   8.131198   7.094094   9.186905  10.203679
    33  H   13.809945   9.537469   8.328541  10.341605  11.654637
    34  H   12.357979   8.107818   7.145265   9.300186  10.153077
    35  H   13.671351   9.515138   7.580430   9.086182  11.878147
    36  H   14.525662  10.274998   8.579798  10.278281  12.569073
    37  H   13.835554   9.681310   7.692136   9.141639  12.064862
                   16         17         18         19         20
    16  C    0.000000
    17  H    2.132066   0.000000
    18  C    1.429419   2.788005   0.000000
    19  H    1.095386   3.077640   2.147090   0.000000
    20  C    2.512713   2.793901   1.417144   3.455718   0.000000
    21  C    2.455762   4.182146   1.415660   2.613854   2.410872
    22  H    2.769432   2.162504   2.176725   3.842408   1.090708
    23  C    3.768110   4.128729   2.442393   4.586713   1.375801
    24  H    2.650530   4.674404   2.159355   2.336178   3.400198
    25  C    3.734768   5.182524   2.447420   3.989766   2.790473
    26  C    4.289086   5.198881   2.861079   4.841663   2.439646
    27  H    4.634220   4.570799   3.414356   5.538778   2.123642
    28  H    4.585769   6.198019   3.420953   4.640512   3.877398
    29  N    5.646897   6.471491   4.218922   6.173975   3.680277
    30  C    6.508844   6.920490   5.104160   7.193480   4.204356
    31  C    6.498254   7.624246   5.115539   6.826598   4.882560
    32  H    6.455837   6.687175   5.112913   7.201300   4.088339
    33  H    7.531665   8.011472   6.113259   8.162728   5.280955
    34  H    6.513891   6.708932   5.156223   7.279220   4.134892
    35  H    6.417289   7.680095   5.096701   6.653267   5.053531
    36  H    7.521823   8.522451   6.118268   7.895245   5.743492
    37  H    6.520676   7.810986   5.205911   6.735409   5.145892
                   21         22         23         24         25
    21  C    0.000000
    22  H    3.409582   0.000000
    23  C    2.782204   2.120988   0.000000
    24  H    1.090973   4.315261   3.873082   0.000000
    25  C    1.377884   3.881022   2.433994   2.135095   0.000000
    26  C    2.433290   3.415679   1.427087   3.418024   1.422178
    27  H    3.868898   2.412240   1.086889   4.959709   3.429077
    28  H    2.130385   4.967989   3.429244   2.440355   1.087152
    29  N    3.676456   4.546441   2.427580   4.556045   2.424115
    30  C    4.870048   4.811043   2.828601   5.842201   3.756146
    31  C    4.215160   5.842755   3.764843   4.841952   2.837514
    32  H    5.062729   4.555408   2.784334   6.071142   4.096544
    33  H    5.740062   5.904649   3.906290   6.644263   4.513599
    34  H    5.102023   4.604444   2.832810   6.112754   4.127532
    35  H    4.075387   6.055415   4.090167   4.567042   2.776050
    36  H    5.288428   6.631801   4.514130   5.934890   3.912882
    37  H    4.181020   6.144502   4.156862   4.669098   2.866938
                   26         27         28         29         30
    26  C    0.000000
    27  H    2.187119   0.000000
    28  H    2.181616   4.345772   0.000000
    29  N    1.357884   2.689998   2.684630   0.000000
    30  C    2.437240   2.486648   4.133874   1.454601   0.000000
    31  C    2.443601   4.141430   2.494529   1.456262   2.513366
    32  H    2.749175   2.248746   4.599241   2.115916   1.101034
    33  H    3.333019   3.566514   4.674356   2.089902   1.093873
    34  H    2.781001   2.301855   4.627636   2.116954   1.100133
    35  H    2.741595   4.600789   2.255030   2.114863   3.261891
    36  H    3.334452   4.672661   3.576637   2.088450   2.540292
    37  H    2.804401   4.645461   2.319589   2.120459   3.229803
                   31         32         33         34         35
    31  C    0.000000
    32  H    3.266986   0.000000
    33  H    2.544410   1.782576   0.000000
    34  H    3.225255   1.782875   1.779726   0.000000
    35  H    1.100584   4.134465   3.354955   3.705879   0.000000
    36  H    1.094354   3.355464   2.098744   3.256122   1.783201
    37  H    1.100984   3.717750   3.264760   4.097398   1.783855
                   36         37
    36  H    0.000000
    37  H    1.783264   0.000000
 Symmetry turned off by external request.
 Stoichiometry    C17H17NO2
 Framework group  C1[X(C17H17NO2)]
 Deg. of freedom   105
 Full point group                 C1      NOp   1
 Rotational constants (GHZ):      1.0904252      0.1072611      0.0979094
 Leave Link  202 at Wed Nov  8 18:01:13 2017, MaxMem=  3758096384 cpu:         0.0
 (Enter /share/apps/gaussian/g09_D01/g09/l301.exe)
 Standard basis: 6-311++G(d,p) (5D, 7F)
 Ernie: Thresh=  0.10000D-02 Tol=  0.10000D-05 Strict=F.
   559 basis functions,   873 primitive gaussians,   579 cartesian basis functions
    71 alpha electrons       71 beta electrons
       nuclear repulsion energy      1358.4109602487 Hartrees.
 IExCor= 4639 DFT=T Ex+Corr=wB97XD ExCW=0 ScaHFX=  1.000000
 ScaDFX=  1.000000  1.000000  1.000000  1.000000 ScalE2=  1.000000  1.000000
 IRadAn=      0 IRanWt=     -1 IRanGd=            0 ICorTp=0 IEmpDi=121
  HFx wShort=  0.000000 wLong=  0.200000 cFull=  0.222036 cShort=  0.000000 cLong=  0.777964
  DFx wShort=  0.000000 wLong=  0.200000 cFull=  0.000000 cShort=  0.000000 cLong=  1.000000
 NAtoms=   37 NActive=   37 NUniq=   37 SFac= 1.00D+00 NAtFMM=   60 NAOKFM=F Big=F
 Integral buffers will be    131072 words long.
 Raffenetti 1 integral format.
 Two-electron integral symmetry is turned off.
 R6Disp:  Grimme-D2 Dispersion energy=       -0.0228555456 Hartrees.
 Nuclear repulsion after empirical dispersion term =     1358.3881047032 Hartrees.
 Leave Link  301 at Wed Nov  8 18:01:13 2017, MaxMem=  3758096384 cpu:         0.1
 (Enter /share/apps/gaussian/g09_D01/g09/l302.exe)
 NPDir=0 NMtPBC=     1 NCelOv=     1 NCel=       1 NClECP=     1 NCelD=      1
         NCelK=      1 NCelE2=     1 NClLst=     1 CellRange=     0.0.
 One-electron integrals computed using PRISM.
 NBasis=   559 RedAO= T EigKep=  1.16D-06  NBF=   559
 NBsUse=   553 1.00D-06 EigRej=  5.34D-07 NBFU=   553
 Precomputing XC quadrature grid using
 IXCGrd= 4 IRadAn=           0 IRanWt=          -1 IRanGd=           0 AccXCQ= 0.00D+00.
 Generated NRdTot=       0 NPtTot=           0 NUsed=           0 NTot=          32
 NSgBfM=   560   560   562   565   565 MxSgAt=    37 MxSgA2=    37.
 Leave Link  302 at Wed Nov  8 18:01:14 2017, MaxMem=  3758096384 cpu:         3.2
 (Enter /share/apps/gaussian/g09_D01/g09/l308.exe)
 Leave Link  308 at Wed Nov  8 18:01:14 2017, MaxMem=  3758096384 cpu:         0.3
 (Enter /share/apps/gaussian/g09_D01/g09/l303.exe)
 DipDrv:  MaxL=1.
 Leave Link  303 at Wed Nov  8 18:01:14 2017, MaxMem=  3758096384 cpu:         0.2
 (Enter /share/apps/gaussian/g09_D01/g09/l401.exe)
 ExpMin= 3.60D-02 ExpMax= 8.59D+03 ExpMxC= 1.30D+03 IAcc=3 IRadAn=         5 AccDes= 0.00D+00
 Harris functional with IExCor= 4639 and IRadAn=       5 diagonalized for initial guess.
 HarFok:  IExCor= 4639 AccDes= 0.00D+00 IRadAn=         5 IDoV= 1 UseB2=F ITyADJ=14
 ICtDFT=  3500011 ScaDFX=  1.000000  1.000000  1.000000  1.000000
 FoFCou: FMM=F IPFlag=           0 FMFlag=      100000 FMFlg1=           0
         NFxFlg=           0 DoJE=T BraDBF=F KetDBF=T FulRan=T
         wScrn=  0.000000 ICntrl=     500 IOpCl=  0 I1Cent=   200000004 NGrid=           0
         NMat0=    1 NMatS0=      1 NMatT0=    0 NMatD0=    1 NMtDS0=    0 NMtDT0=    0
 Symmetry not used in FoFCou.
 Harris En= -825.474436398835    
 JPrj=0 DoOrth=F DoCkMO=F.
 Leave Link  401 at Wed Nov  8 18:01:24 2017, MaxMem=  3758096384 cpu:        38.0
 (Enter /share/apps/gaussian/g09_D01/g09/l502.exe)
 Closed shell SCF:
 Using DIIS extrapolation, IDIIS=  1040.
 Two-electron integral symmetry not used.
 IVT=     1031295 IEndB=     1031295 NGot=  3758096384 MDV=  3757417550
 LenX=  3757417550 LenY=  3757081730
 Requested convergence on RMS density matrix=1.00D-08 within 128 cycles.
 Requested convergence on MAX density matrix=1.00D-06.
 Requested convergence on             energy=1.00D-06.
 No special actions if energy rises.
 Fock matrices will be formed incrementally for  20 cycles.

 Cycle   1  Pass 1  IDiag  1:
 FoFJK:  IHMeth= 1 ICntrl=       0 DoSepK=T KAlg= 0 I1Cent=   0 FoldK=F
 IRaf=         1 NMat=   1 IRICut=       1 DoRegI=T DoRafI=F ISym2E= 0.
 FoFCou: FMM=F IPFlag=           0 FMFlag=      100000 FMFlg1=           0
         NFxFlg=           0 DoJE=T BraDBF=F KetDBF=F FulRan=T
         wScrn=  0.000000 ICntrl=     500 IOpCl=  0 I1Cent=           0 NGrid=           0
         NMat0=    1 NMatS0=      1 NMatT0=    0 NMatD0=    1 NMtDS0=    0 NMtDT0=    0
 Symmetry not used in FoFCou.
 E= -862.876317191294    
 DIIS: error= 5.79D-02 at cycle   1 NSaved=   1.
 NSaved= 1 IEnMin= 1 EnMin= -862.876317191294     IErMin= 1 ErrMin= 5.79D-02
 ErrMax= 5.79D-02  0.00D+00 EMaxC= 1.00D-01 BMatC= 1.87D+00 BMatP= 1.87D+00
 IDIUse=3 WtCom= 4.21D-01 WtEn= 5.79D-01
 Coeff-Com:  0.100D+01
 Coeff-En:   0.100D+01
 Coeff:      0.100D+01
 Gap=     0.280 Goal=   None    Shift=    0.000
 GapD=    0.280 DampG=1.000 DampE=0.500 DampFc=0.5000 IDamp=-1.
 Damping current iteration by 5.00D-01
 RMSDP=2.62D-02 MaxDP=3.00D+00              OVMax= 1.99D-01

 Cycle   2  Pass 1  IDiag  1:
 RMSU=  5.50D-03    CP:  8.54D-01
 E= -863.003518056151     Delta-E=       -0.127200864857 Rises=F Damp=T
 DIIS: error= 2.68D-02 at cycle   2 NSaved=   2.
 NSaved= 2 IEnMin= 2 EnMin= -863.003518056151     IErMin= 2 ErrMin= 2.68D-02
 ErrMax= 2.68D-02  0.00D+00 EMaxC= 1.00D-01 BMatC= 3.94D-01 BMatP= 1.87D+00
 IDIUse=3 WtCom= 7.32D-01 WtEn= 2.68D-01
 Coeff-Com: -0.579D+00 0.158D+01
 Coeff-En:   0.000D+00 0.100D+01
 Coeff:     -0.424D+00 0.142D+01
 Gap=     0.275 Goal=   None    Shift=    0.000
 RMSDP=1.47D-02 MaxDP=1.58D+00 DE=-1.27D-01 OVMax= 2.24D-01

 Cycle   3  Pass 1  IDiag  1:
 RMSU=  5.36D-03    CP:  6.88D-01  1.41D+00
 E= -863.048912281816     Delta-E=       -0.045394225664 Rises=F Damp=F
 DIIS: error= 2.40D-02 at cycle   3 NSaved=   3.
 NSaved= 3 IEnMin= 3 EnMin= -863.048912281816     IErMin= 3 ErrMin= 2.40D-02
 ErrMax= 2.40D-02  0.00D+00 EMaxC= 1.00D-01 BMatC= 1.31D-01 BMatP= 3.94D-01
 IDIUse=3 WtCom= 7.60D-01 WtEn= 2.40D-01
 Coeff-Com: -0.377D+00 0.809D+00 0.567D+00
 Coeff-En:   0.000D+00 0.252D+00 0.748D+00
 Coeff:     -0.286D+00 0.676D+00 0.611D+00
 Gap=     0.271 Goal=   None    Shift=    0.000
 RMSDP=4.77D-03 MaxDP=3.63D-01 DE=-4.54D-02 OVMax= 1.10D-01

 Cycle   4  Pass 1  IDiag  1:
 RMSU=  1.79D-03    CP:  6.50D-01  1.56D+00  4.30D-01
 E= -863.152348070049     Delta-E=       -0.103435788233 Rises=F Damp=F
 DIIS: error= 5.27D-03 at cycle   4 NSaved=   4.
 NSaved= 4 IEnMin= 4 EnMin= -863.152348070049     IErMin= 4 ErrMin= 5.27D-03
 ErrMax= 5.27D-03  0.00D+00 EMaxC= 1.00D-01 BMatC= 1.21D-02 BMatP= 1.31D-01
 IDIUse=3 WtCom= 9.47D-01 WtEn= 5.27D-02
 Coeff-Com: -0.142D+00 0.307D+00 0.348D+00 0.487D+00
 Coeff-En:   0.000D+00 0.000D+00 0.178D-01 0.982D+00
 Coeff:     -0.135D+00 0.291D+00 0.331D+00 0.513D+00
 Gap=     0.239 Goal=   None    Shift=    0.000
 RMSDP=1.29D-03 MaxDP=1.22D-01 DE=-1.03D-01 OVMax= 2.51D-02

 Cycle   5  Pass 1  IDiag  1:
 RMSU=  4.78D-04    CP:  6.61D-01  1.60D+00  5.58D-01  7.59D-01
 E= -863.162204405107     Delta-E=       -0.009856335058 Rises=F Damp=F
 DIIS: error= 7.43D-04 at cycle   5 NSaved=   5.
 NSaved= 5 IEnMin= 5 EnMin= -863.162204405107     IErMin= 5 ErrMin= 7.43D-04
 ErrMax= 7.43D-04  0.00D+00 EMaxC= 1.00D-01 BMatC= 1.77D-04 BMatP= 1.21D-02
 IDIUse=3 WtCom= 9.93D-01 WtEn= 7.43D-03
 Coeff-Com:  0.236D-01-0.505D-01 0.457D-02 0.154D+00 0.868D+00
 Coeff-En:   0.000D+00 0.000D+00 0.000D+00 0.000D+00 0.100D+01
 Coeff:      0.234D-01-0.501D-01 0.454D-02 0.153D+00 0.869D+00
 Gap=     0.239 Goal=   None    Shift=    0.000
 RMSDP=4.14D-04 MaxDP=3.29D-02 DE=-9.86D-03 OVMax= 9.09D-03

 Cycle   6  Pass 1  IDiag  1:
 RMSU=  2.55D-04    CP:  6.58D-01  1.59D+00  5.54D-01  8.80D-01  1.03D+00
 E= -863.162454976712     Delta-E=       -0.000250571605 Rises=F Damp=F
 DIIS: error= 5.71D-04 at cycle   6 NSaved=   6.
 NSaved= 6 IEnMin= 6 EnMin= -863.162454976712     IErMin= 6 ErrMin= 5.71D-04
 ErrMax= 5.71D-04  0.00D+00 EMaxC= 1.00D-01 BMatC= 5.91D-05 BMatP= 1.77D-04
 IDIUse=3 WtCom= 9.94D-01 WtEn= 5.71D-03
 Coeff-Com:  0.287D-01-0.618D-01-0.425D-01 0.156D-02 0.442D+00 0.632D+00
 Coeff-En:   0.000D+00 0.000D+00 0.000D+00 0.000D+00 0.000D+00 0.100D+01
 Coeff:      0.286D-01-0.614D-01-0.423D-01 0.155D-02 0.440D+00 0.634D+00
 Gap=     0.241 Goal=   None    Shift=    0.000
 RMSDP=1.02D-04 MaxDP=8.14D-03 DE=-2.51D-04 OVMax= 4.69D-03

 Cycle   7  Pass 1  IDiag  1:
 RMSU=  6.70D-05    CP:  6.58D-01  1.60D+00  5.52D-01  8.99D-01  1.16D+00
                    CP:  1.04D+00
 E= -863.162529897591     Delta-E=       -0.000074920879 Rises=F Damp=F
 DIIS: error= 1.50D-04 at cycle   7 NSaved=   7.
 NSaved= 7 IEnMin= 7 EnMin= -863.162529897591     IErMin= 7 ErrMin= 1.50D-04
 ErrMax= 1.50D-04  0.00D+00 EMaxC= 1.00D-01 BMatC= 4.93D-06 BMatP= 5.91D-05
 IDIUse=3 WtCom= 9.98D-01 WtEn= 1.50D-03
 Coeff-Com:  0.217D-02-0.462D-02-0.827D-02-0.200D-01-0.341D-01 0.176D+00
 Coeff-Com:  0.888D+00
 Coeff-En:   0.000D+00 0.000D+00 0.000D+00 0.000D+00 0.000D+00 0.000D+00
 Coeff-En:   0.100D+01
 Coeff:      0.216D-02-0.461D-02-0.826D-02-0.200D-01-0.341D-01 0.176D+00
 Coeff:      0.889D+00
 Gap=     0.241 Goal=   None    Shift=    0.000
 RMSDP=5.47D-05 MaxDP=4.12D-03 DE=-7.49D-05 OVMax= 2.75D-03

 Cycle   8  Pass 1  IDiag  1:
 RMSU=  3.52D-05    CP:  6.58D-01  1.60D+00  5.49D-01  9.11D-01  1.19D+00
                    CP:  1.15D+00  1.06D+00
 E= -863.162542663313     Delta-E=       -0.000012765721 Rises=F Damp=F
 DIIS: error= 7.89D-05 at cycle   8 NSaved=   8.
 NSaved= 8 IEnMin= 8 EnMin= -863.162542663313     IErMin= 8 ErrMin= 7.89D-05
 ErrMax= 7.89D-05  0.00D+00 EMaxC= 1.00D-01 BMatC= 1.28D-06 BMatP= 4.93D-06
 IDIUse=1 WtCom= 1.00D+00 WtEn= 0.00D+00
 Coeff-Com: -0.328D-02 0.707D-02 0.239D-02-0.114D-01-0.952D-01-0.141D-01
 Coeff-Com:  0.412D+00 0.702D+00
 Coeff:     -0.328D-02 0.707D-02 0.239D-02-0.114D-01-0.952D-01-0.141D-01
 Coeff:      0.412D+00 0.702D+00
 Gap=     0.241 Goal=   None    Shift=    0.000
 RMSDP=2.56D-05 MaxDP=2.89D-03 DE=-1.28D-05 OVMax= 1.45D-03

 Cycle   9  Pass 1  IDiag  1:
 RMSU=  1.25D-05    CP:  6.58D-01  1.60D+00  5.48D-01  9.15D-01  1.22D+00
                    CP:  1.18D+00  1.20D+00  1.12D+00
 E= -863.162545799760     Delta-E=       -0.000003136447 Rises=F Damp=F
 DIIS: error= 2.81D-05 at cycle   9 NSaved=   9.
 NSaved= 9 IEnMin= 9 EnMin= -863.162545799760     IErMin= 9 ErrMin= 2.81D-05
 ErrMax= 2.81D-05  0.00D+00 EMaxC= 1.00D-01 BMatC= 1.50D-07 BMatP= 1.28D-06
 IDIUse=1 WtCom= 1.00D+00 WtEn= 0.00D+00
 Coeff-Com: -0.130D-02 0.277D-02 0.273D-02 0.143D-02-0.193D-01-0.366D-01
 Coeff-Com: -0.864D-01 0.147D+00 0.989D+00
 Coeff:     -0.130D-02 0.277D-02 0.273D-02 0.143D-02-0.193D-01-0.366D-01
 Coeff:     -0.864D-01 0.147D+00 0.989D+00
 Gap=     0.241 Goal=   None    Shift=    0.000
 RMSDP=1.43D-05 MaxDP=1.15D-03 DE=-3.14D-06 OVMax= 7.88D-04

 Cycle  10  Pass 1  IDiag  1:
 RMSU=  8.83D-06    CP:  6.58D-01  1.60D+00  5.48D-01  9.16D-01  1.22D+00
                    CP:  1.20D+00  1.28D+00  1.25D+00  1.16D+00
 E= -863.162546429345     Delta-E=       -0.000000629586 Rises=F Damp=F
 DIIS: error= 1.13D-05 at cycle  10 NSaved=  10.
 NSaved=10 IEnMin=10 EnMin= -863.162546429345     IErMin=10 ErrMin= 1.13D-05
 ErrMax= 1.13D-05  0.00D+00 EMaxC= 1.00D-01 BMatC= 2.11D-08 BMatP= 1.50D-07
 IDIUse=1 WtCom= 1.00D+00 WtEn= 0.00D+00
 Coeff-Com:  0.217D-03-0.469D-03 0.331D-03 0.223D-02 0.808D-02-0.728D-02
 Coeff-Com: -0.846D-01-0.519D-01 0.286D+00 0.847D+00
 Coeff:      0.217D-03-0.469D-03 0.331D-03 0.223D-02 0.808D-02-0.728D-02
 Coeff:     -0.846D-01-0.519D-01 0.286D+00 0.847D+00
 Gap=     0.241 Goal=   None    Shift=    0.000
 RMSDP=5.03D-06 MaxDP=4.31D-04 DE=-6.30D-07 OVMax= 2.66D-04

 Cycle  11  Pass 1  IDiag  1:
 RMSU=  1.79D-06    CP:  6.58D-01  1.60D+00  5.48D-01  9.16D-01  1.23D+00
                    CP:  1.20D+00  1.30D+00  1.30D+00  1.30D+00  1.13D+00
 E= -863.162546502621     Delta-E=       -0.000000073275 Rises=F Damp=F
 DIIS: error= 4.25D-06 at cycle  11 NSaved=  11.
 NSaved=11 IEnMin=11 EnMin= -863.162546502621     IErMin=11 ErrMin= 4.25D-06
 ErrMax= 4.25D-06  0.00D+00 EMaxC= 1.00D-01 BMatC= 4.94D-09 BMatP= 2.11D-08
 IDIUse=1 WtCom= 1.00D+00 WtEn= 0.00D+00
 Coeff-Com:  0.271D-03-0.578D-03-0.281D-03 0.758D-03 0.575D-02 0.296D-02
 Coeff-Com: -0.122D-01-0.370D-01-0.867D-01 0.287D+00 0.840D+00
 Coeff:      0.271D-03-0.578D-03-0.281D-03 0.758D-03 0.575D-02 0.296D-02
 Coeff:     -0.122D-01-0.370D-01-0.867D-01 0.287D+00 0.840D+00
 Gap=     0.241 Goal=   None    Shift=    0.000
 RMSDP=1.99D-06 MaxDP=9.14D-05 DE=-7.33D-08 OVMax= 8.01D-05

 Cycle  12  Pass 1  IDiag  1:
 RMSU=  9.67D-07    CP:  6.58D-01  1.60D+00  5.47D-01  9.16D-01  1.23D+00
                    CP:  1.20D+00  1.31D+00  1.31D+00  1.35D+00  1.21D+00
                    CP:  1.31D+00
 E= -863.162546514832     Delta-E=       -0.000000012211 Rises=F Damp=F
 DIIS: error= 2.47D-06 at cycle  12 NSaved=  12.
 NSaved=12 IEnMin=12 EnMin= -863.162546514832     IErMin=12 ErrMin= 2.47D-06
 ErrMax= 2.47D-06  0.00D+00 EMaxC= 1.00D-01 BMatC= 7.69D-10 BMatP= 4.94D-09
 IDIUse=1 WtCom= 1.00D+00 WtEn= 0.00D+00
 Coeff-Com:  0.682D-04-0.143D-03-0.145D-03 0.255D-05 0.981D-03 0.177D-02
 Coeff-Com:  0.962D-02-0.450D-02-0.784D-01-0.344D-01 0.297D+00 0.808D+00
 Coeff:      0.682D-04-0.143D-03-0.145D-03 0.255D-05 0.981D-03 0.177D-02
 Coeff:      0.962D-02-0.450D-02-0.784D-01-0.344D-01 0.297D+00 0.808D+00
 Gap=     0.241 Goal=   None    Shift=    0.000
 RMSDP=1.10D-06 MaxDP=8.23D-05 DE=-1.22D-08 OVMax= 2.84D-05

 Cycle  13  Pass 1  IDiag  1:
 RMSU=  4.26D-07    CP:  6.58D-01  1.60D+00  5.47D-01  9.16D-01  1.23D+00
                    CP:  1.20D+00  1.31D+00  1.31D+00  1.34D+00  1.27D+00
                    CP:  1.47D+00  1.15D+00
 E= -863.162546516632     Delta-E=       -0.000000001801 Rises=F Damp=F
 DIIS: error= 8.23D-07 at cycle  13 NSaved=  13.
 NSaved=13 IEnMin=13 EnMin= -863.162546516632     IErMin=13 ErrMin= 8.23D-07
 ErrMax= 8.23D-07  0.00D+00 EMaxC= 1.00D-01 BMatC= 1.96D-10 BMatP= 7.69D-10
 IDIUse=1 WtCom= 1.00D+00 WtEn= 0.00D+00
 Coeff-Com: -0.148D-04 0.321D-04-0.217D-04-0.140D-03-0.580D-03 0.187D-03
 Coeff-Com:  0.721D-02 0.415D-02-0.218D-01-0.670D-01-0.104D-01 0.394D+00
 Coeff-Com:  0.695D+00
 Coeff:     -0.148D-04 0.321D-04-0.217D-04-0.140D-03-0.580D-03 0.187D-03
 Coeff:      0.721D-02 0.415D-02-0.218D-01-0.670D-01-0.104D-01 0.394D+00
 Coeff:      0.695D+00
 Gap=     0.241 Goal=   None    Shift=    0.000
 RMSDP=3.40D-07 MaxDP=1.97D-05 DE=-1.80D-09 OVMax= 8.94D-06

 Cycle  14  Pass 1  IDiag  1:
 RMSU=  1.70D-07    CP:  6.58D-01  1.60D+00  5.47D-01  9.16D-01  1.23D+00
                    CP:  1.20D+00  1.31D+00  1.31D+00  1.35D+00  1.27D+00
                    CP:  1.52D+00  1.27D+00  9.47D-01
 E= -863.162546516924     Delta-E=       -0.000000000291 Rises=F Damp=F
 DIIS: error= 3.55D-07 at cycle  14 NSaved=  14.
 NSaved=14 IEnMin=14 EnMin= -863.162546516924     IErMin=14 ErrMin= 3.55D-07
 ErrMax= 3.55D-07  0.00D+00 EMaxC= 1.00D-01 BMatC= 1.13D-11 BMatP= 1.96D-10
 IDIUse=1 WtCom= 1.00D+00 WtEn= 0.00D+00
 Coeff-Com: -0.105D-04 0.222D-04 0.105D-04-0.431D-04-0.253D-03-0.204D-03
 Coeff-Com:  0.412D-03 0.973D-03 0.597D-02-0.954D-02-0.425D-01-0.833D-02
 Coeff-Com:  0.118D+00 0.935D+00
 Coeff:     -0.105D-04 0.222D-04 0.105D-04-0.431D-04-0.253D-03-0.204D-03
 Coeff:      0.412D-03 0.973D-03 0.597D-02-0.954D-02-0.425D-01-0.833D-02
 Coeff:      0.118D+00 0.935D+00
 Gap=     0.241 Goal=   None    Shift=    0.000
 RMSDP=1.46D-07 MaxDP=1.14D-05 DE=-2.91D-10 OVMax= 5.17D-06

 Cycle  15  Pass 1  IDiag  1:
 RMSU=  4.89D-08    CP:  6.58D-01  1.60D+00  5.47D-01  9.16D-01  1.23D+00
                    CP:  1.20D+00  1.31D+00  1.31D+00  1.35D+00  1.27D+00
                    CP:  1.52D+00  1.33D+00  1.02D+00  1.27D+00
 E= -863.162546517031     Delta-E=       -0.000000000107 Rises=F Damp=F
 DIIS: error= 1.34D-07 at cycle  15 NSaved=  15.
 NSaved=15 IEnMin=15 EnMin= -863.162546517031     IErMin=15 ErrMin= 1.34D-07
 ErrMax= 1.34D-07  0.00D+00 EMaxC= 1.00D-01 BMatC= 2.21D-12 BMatP= 1.13D-11
 IDIUse=1 WtCom= 1.00D+00 WtEn= 0.00D+00
 Coeff-Com: -0.213D-05 0.442D-05 0.646D-05 0.200D-05-0.652D-05-0.907D-04
 Coeff-Com: -0.691D-03-0.358D-03 0.448D-02 0.550D-02-0.125D-01-0.460D-01
 Coeff-Com: -0.642D-01 0.263D+00 0.851D+00
 Coeff:     -0.213D-05 0.442D-05 0.646D-05 0.200D-05-0.652D-05-0.907D-04
 Coeff:     -0.691D-03-0.358D-03 0.448D-02 0.550D-02-0.125D-01-0.460D-01
 Coeff:     -0.642D-01 0.263D+00 0.851D+00
 Gap=     0.241 Goal=   None    Shift=    0.000
 RMSDP=5.11D-08 MaxDP=3.06D-06 DE=-1.07D-10 OVMax= 2.27D-06

 Cycle  16  Pass 1  IDiag  1:
 RMSU=  1.99D-08    CP:  6.58D-01  1.60D+00  5.47D-01  9.16D-01  1.23D+00
                    CP:  1.20D+00  1.31D+00  1.31D+00  1.35D+00  1.27D+00
                    CP:  1.52D+00  1.35D+00  1.07D+00  1.40D+00  1.11D+00
 E= -863.162546517024     Delta-E=        0.000000000006 Rises=F Damp=F
 DIIS: error= 5.50D-08 at cycle  16 NSaved=  16.
 NSaved=16 IEnMin=15 EnMin= -863.162546517031     IErMin=16 ErrMin= 5.50D-08
 ErrMax= 5.50D-08  0.00D+00 EMaxC= 1.00D-01 BMatC= 3.80D-13 BMatP= 2.21D-12
 IDIUse=1 WtCom= 1.00D+00 WtEn= 0.00D+00
 Coeff-Com:  0.102D-05-0.216D-05-0.518D-06 0.745D-05 0.424D-04 0.122D-04
 Coeff-Com: -0.146D-03-0.276D-03-0.341D-03 0.273D-02 0.472D-02-0.227D-02
 Coeff-Com: -0.391D-01-0.140D+00 0.161D+00 0.101D+01
 Coeff:      0.102D-05-0.216D-05-0.518D-06 0.745D-05 0.424D-04 0.122D-04
 Coeff:     -0.146D-03-0.276D-03-0.341D-03 0.273D-02 0.472D-02-0.227D-02
 Coeff:     -0.391D-01-0.140D+00 0.161D+00 0.101D+01
 Gap=     0.241 Goal=   None    Shift=    0.000
 RMSDP=2.27D-08 MaxDP=1.18D-06 DE= 6.37D-12 OVMax= 1.17D-06

 Cycle  17  Pass 1  IDiag  1:
 RMSU=  7.39D-09    CP:  6.58D-01  1.60D+00  5.47D-01  9.16D-01  1.23D+00
                    CP:  1.20D+00  1.31D+00  1.31D+00  1.35D+00  1.27D+00
                    CP:  1.52D+00  1.35D+00  1.07D+00  1.48D+00  1.24D+00
                    CP:  1.26D+00
 E= -863.162546517036     Delta-E=       -0.000000000012 Rises=F Damp=F
 DIIS: error= 1.73D-08 at cycle  17 NSaved=  17.
 NSaved=17 IEnMin=17 EnMin= -863.162546517036     IErMin=17 ErrMin= 1.73D-08
 ErrMax= 1.73D-08  0.00D+00 EMaxC= 1.00D-01 BMatC= 4.02D-14 BMatP= 3.80D-13
 IDIUse=1 WtCom= 1.00D+00 WtEn= 0.00D+00
 Coeff-Com:  0.346D-06-0.723D-06-0.624D-06 0.153D-05 0.979D-05 0.110D-04
 Coeff-Com:  0.490D-04-0.220D-04-0.523D-03 0.466D-04 0.189D-02 0.570D-02
 Coeff-Com: -0.804D-03-0.531D-01-0.585D-01 0.188D+00 0.917D+00
 Coeff:      0.346D-06-0.723D-06-0.624D-06 0.153D-05 0.979D-05 0.110D-04
 Coeff:      0.490D-04-0.220D-04-0.523D-03 0.466D-04 0.189D-02 0.570D-02
 Coeff:     -0.804D-03-0.531D-01-0.585D-01 0.188D+00 0.917D+00
 Gap=     0.241 Goal=   None    Shift=    0.000
 RMSDP=8.72D-09 MaxDP=7.73D-07 DE=-1.18D-11 OVMax= 3.37D-07

 SCF Done:  E(RwB97XD) =  -863.162546517     A.U. after   17 cycles
            NFock= 17  Conv=0.87D-08     -V/T= 2.0047
 KE= 8.591566899995D+02 PE=-4.725819895643D+03 EE= 1.645112554424D+03
 Leave Link  502 at Wed Nov  8 18:10:46 2017, MaxMem=  3758096384 cpu:      2248.8
 (Enter /share/apps/gaussian/g09_D01/g09/l801.exe)
 DoSCS=F DFT=T ScalE2(SS,OS)=  1.000000  1.000000
 ExpMin= 3.60D-02 ExpMax= 8.59D+03 ExpMxC= 1.30D+03 IAcc=3 IRadAn=         5 AccDes= 0.00D+00
 HarFok:  IExCor=  205 AccDes= 0.00D+00 IRadAn=         5 IDoV=-2 UseB2=F ITyADJ=14
 ICtDFT= 12500011 ScaDFX=  1.000000  1.000000  1.000000  1.000000
 Largest valence mixing into a core orbital is  5.71D-05
 Largest core mixing into a valence orbital is  1.62D-05
 Range of M.O.s used for correlation:    21   553
 NBasis=   559 NAE=    71 NBE=    71 NFC=    20 NFV=     0
 NROrb=    533 NOA=    51 NOB=    51 NVA=   482 NVB=   482

 **** Warning!!: The largest alpha MO coefficient is  0.13546089D+03

 Leave Link  801 at Wed Nov  8 18:10:47 2017, MaxMem=  3758096384 cpu:         1.3
 (Enter /share/apps/gaussian/g09_D01/g09/l914.exe)
 RHF ground state
 MDV=  3758096384 DFT=T DoStab=F Mixed=T DoRPA=T DoScal=F NonHer=T
 Would need an additional         69835500000 words for in-memory AO integral storage.
 Making orbital integer symmetry assigments:
     8 initial guesses have been made.
 Convergence on wavefunction:    0.001000000000000
 Davidson Disk Diagonalization:  ConvIn= 1.00D-03 SkipCon=T Conv= 1.00D-03.
 Max sub-space:   200 roots to seek:     8 dimension of matrix:        49164
 Iteration     1 Dimension     8 NMult     0 NNew      8
 CISAX will form     8 AO SS matrices at one time.
 NMat=     8 NSing=     8 JSym2X= 0.
 FoFJK:  IHMeth= 1 ICntrl=       0 DoSepK=T KAlg= 0 I1Cent=   0 FoldK=F
 IRaf=         1 NMat=  16 IRICut=       1 DoRegI=T DoRafI=F ISym2E= 0.
 FoFCou: FMM=F IPFlag=           0 FMFlag=      100000 FMFlg1=           0
         NFxFlg=           0 DoJE=F BraDBF=F KetDBF=F FulRan=T
         wScrn=  0.000000 ICntrl=     500 IOpCl=  0 I1Cent=           0 NGrid=           0
         NMat0=    8 NMatS0=      8 NMatT0=    0 NMatD0=    8 NMtDS0=    0 NMtDT0=    0
 Symmetry not used in FoFCou.
 New state      2 was old state      7
 Excitation Energies [eV] at current iteration:
 Root      1 :     3.907926608957996
 Root      2 :     4.288547830961170
 Root      3 :     4.569679226594861
 Root      4 :     5.555723996832556
 Root      5 :     5.684061884399680
 Root      6 :     5.785866508736192
 Root      7 :     5.981455550857495
 Root      8 :     6.255680120099292
 Iteration     2 Dimension    12 NMult     8 NNew      4
 CISAX will form     4 AO SS matrices at one time.
 NMat=     4 NSing=     4 JSym2X= 0.
 Root      1 not converged, maximum delta is    0.091706410704021
 Root      2 not converged, maximum delta is    0.110359245493852
 Excitation Energies [eV] at current iteration:
 Root      1 :     3.397793735722674   Change is   -0.510132873235322
 Root      2 :     3.843914915217004   Change is   -0.444632915744166
 Iteration     3 Dimension    16 NMult    12 NNew      4
 CISAX will form     4 AO SS matrices at one time.
 NMat=     4 NSing=     4 JSym2X= 0.
 Root      1 not converged, maximum delta is    0.021455318863649
 Root      2 not converged, maximum delta is    0.017798726406346
 Excitation Energies [eV] at current iteration:
 Root      1 :     3.353662209276356   Change is   -0.044131526446318
 Root      2 :     3.811476551937562   Change is   -0.032438363279442
 Iteration     4 Dimension    20 NMult    16 NNew      4
 CISAX will form     4 AO SS matrices at one time.
 NMat=     4 NSing=     4 JSym2X= 0.
 Root      1 not converged, maximum delta is    0.008263731612577
 Root      2 not converged, maximum delta is    0.006176472198269
 Excitation Energies [eV] at current iteration:
 Root      1 :     3.347115851790365   Change is   -0.006546357485992
 Root      2 :     3.808933334503256   Change is   -0.002543217434305
 Iteration     5 Dimension    24 NMult    20 NNew      4
 CISAX will form     4 AO SS matrices at one time.
 NMat=     4 NSing=     4 JSym2X= 0.
 Root      1 not converged, maximum delta is    0.003057030067287
 Root      2 not converged, maximum delta is    0.001660078323842
 Excitation Energies [eV] at current iteration:
 Root      1 :     3.346184109984991   Change is   -0.000931741805373
 Root      2 :     3.808742822586693   Change is   -0.000190511916563
 Iteration     6 Dimension    28 NMult    24 NNew      4
 CISAX will form     4 AO SS matrices at one time.
 NMat=     4 NSing=     4 JSym2X= 0.
 Root      1 not converged, maximum delta is    0.002072568559237
 Root      2 has converged.
 Excitation Energies [eV] at current iteration:
 Root      1 :     3.346037579380261   Change is   -0.000146530604730
 Root      2 :     3.808721632436180   Change is   -0.000021190150514
 Iteration     7 Dimension    30 NMult    28 NNew      2
 CISAX will form     2 AO SS matrices at one time.
 NMat=     2 NSing=     2 JSym2X= 0.
 Root      1 has converged.
 Root      2 has converged.
 Excitation Energies [eV] at current iteration:
 Root      1 :     3.346013150879684   Change is   -0.000024428500578
 Root      2 :     3.808721462011505   Change is   -0.000000170424675
 Convergence achieved on expansion vectors.
 ***********************************************************************
 Excited states from <AA,BB:AA,BB> singles matrix:
 ***********************************************************************
 
 1PDM for each excited state written to RWF  633
 Ground to excited state transition densities written to RWF  633
 Ground to excited state transition electric dipole moments (Au):
       state          X           Y           Z        Dip. S.      Osc.
         1        -3.5778      0.3318      1.3595     14.7586      1.2098
         2         0.1885     -0.0019     -0.0558      0.0386      0.0036
 Ground to excited state transition velocity dipole moments (Au):
       state          X           Y           Z        Dip. S.      Osc.
         1         0.4342     -0.0384     -0.1676      0.2181      1.1822
         2        -0.0263     -0.0015      0.0069      0.0007      0.0035
 Ground to excited state transition magnetic dipole moments (Au):
       state          X           Y           Z
         1        -0.5050     -2.1503     -0.7806
         2         0.0183      0.3648     -0.3521
 Ground to excited state transition velocity quadrupole moments (Au):
       state          XX          YY          ZZ          XY          XZ          YZ
         1        -0.0604     -0.2211      2.0391      1.3658     -2.7507     -0.2423
         2         0.0562      0.0248     -0.1172     -0.0765      0.1386      0.0178
 <0|del|b> * <b|rxdel|0> + <0|del|b> * <b|delr+rdel|0>
 Rotatory Strengths (R) in cgs (10**-40 erg-esu-cm/Gauss)
       state          XX          YY          ZZ    R(velocity)    E-M Angle
         1      -348.2771    101.3177    213.0672    -11.2974       90.31
         2        -8.3507     -7.2287     -1.8792     -5.8195      104.49
 1/2[<0|r|b>*<b|rxdel|0> + (<0|rxdel|b>*<b|r|0>)*]
 Rotatory Strengths (R) in cgs (10**-40 erg-esu-cm/Gauss)
       state          XX          YY          ZZ     R(length)
         1     -1277.6313    504.5252    750.4460     -7.5534
         2        -2.4341      0.5012    -13.8994     -5.2774
  1/2[<0|del|b>*<b|r|0> + (<0|r|b>*<b|del|0>)*] (Au)
       state          X           Y           Z        Dip. S.   Osc.(frdel)
         1        -1.5534     -0.0127     -0.2278      1.7939      1.1959
         2        -0.0050      0.0000     -0.0004      0.0053      0.0036

 Excitation energies and oscillator strengths:
 
 Excited state symmetry could not be determined.
 Excited State   1:      Singlet-?Sym    3.3460 eV  370.54 nm  f=1.2098  <S**2>=0.000
      70 -> 72         0.13936
      70 -> 74         0.12144
      71 -> 72         0.65962
 This state for optimization and/or second-order correction.
 Total Energy, E(TD-HF/TD-KS) =  -863.039582791    
 Copying the excited state density for this state as the 1-particle RhoCI density.
 
 Excited state symmetry could not be determined.
 Excited State   2:      Singlet-?Sym    3.8087 eV  325.53 nm  f=0.0036  <S**2>=0.000
      68 -> 72         0.66395
      68 -> 74         0.14055
 SavETr:  write IOETrn=   770 NScale= 10 NData=  16 NLR=1 NState=    2 LETran=      46.
 Leave Link  914 at Wed Nov  8 18:26:21 2017, MaxMem=  3758096384 cpu:      3736.8
 (Enter /share/apps/gaussian/g09_D01/g09/l601.exe)
 Copying SCF densities to generalized density rwf, IOpCl= 0 IROHF=0.

 **********************************************************************

            Population analysis using the SCF density.

 **********************************************************************

 Alpha  occ. eigenvalues --  -19.24247 -19.23379 -14.47977 -10.38265 -10.35619
 Alpha  occ. eigenvalues --  -10.35419 -10.33771 -10.33755 -10.31809 -10.30946
 Alpha  occ. eigenvalues --  -10.30835 -10.30162 -10.30142 -10.30073 -10.29842
 Alpha  occ. eigenvalues --  -10.29822 -10.29749 -10.29038 -10.28435 -10.28175
 Alpha  occ. eigenvalues --   -1.14935  -1.11100  -1.08217  -0.97225  -0.95647
 Alpha  occ. eigenvalues --   -0.91073  -0.87403  -0.87200  -0.84906  -0.84299
 Alpha  occ. eigenvalues --   -0.83581  -0.79489  -0.74739  -0.72270  -0.71546
 Alpha  occ. eigenvalues --   -0.69185  -0.67978  -0.64675  -0.63469  -0.61394
 Alpha  occ. eigenvalues --   -0.59780  -0.58993  -0.57923  -0.57831  -0.55779
 Alpha  occ. eigenvalues --   -0.55442  -0.54274  -0.52793  -0.52626  -0.51610
 Alpha  occ. eigenvalues --   -0.51517  -0.51252  -0.51038  -0.50312  -0.48741
 Alpha  occ. eigenvalues --   -0.48290  -0.47342  -0.46748  -0.46241  -0.46066
 Alpha  occ. eigenvalues --   -0.45352  -0.42853  -0.42172  -0.41915  -0.41401
 Alpha  occ. eigenvalues --   -0.35234  -0.35071  -0.34211  -0.33593  -0.29522
 Alpha  occ. eigenvalues --   -0.27103
 Alpha virt. eigenvalues --   -0.03030   0.02540   0.03205   0.03798   0.04301
 Alpha virt. eigenvalues --    0.04381   0.04877   0.05649   0.06177   0.06319
 Alpha virt. eigenvalues --    0.06806   0.06973   0.07800   0.07996   0.08059
 Alpha virt. eigenvalues --    0.08621   0.09242   0.09355   0.10472   0.10629
 Alpha virt. eigenvalues --    0.10931   0.11289   0.11998   0.12344   0.13062
 Alpha virt. eigenvalues --    0.13192   0.13434   0.13736   0.14253   0.14658
 Alpha virt. eigenvalues --    0.15223   0.15421   0.15795   0.15941   0.16056
 Alpha virt. eigenvalues --    0.16153   0.16535   0.16777   0.17193   0.17312
 Alpha virt. eigenvalues --    0.17522   0.17691   0.18346   0.18525   0.18952
 Alpha virt. eigenvalues --    0.19483   0.19497   0.19959   0.20121   0.20447
 Alpha virt. eigenvalues --    0.20682   0.20924   0.21278   0.21680   0.21912
 Alpha virt. eigenvalues --    0.22077   0.22372   0.22417   0.22889   0.23165
 Alpha virt. eigenvalues --    0.23476   0.23598   0.23965   0.24131   0.24810
 Alpha virt. eigenvalues --    0.24978   0.25409   0.25529   0.25862   0.26317
 Alpha virt. eigenvalues --    0.26517   0.26699   0.26930   0.27558   0.28045
 Alpha virt. eigenvalues --    0.28186   0.28619   0.29146   0.29402   0.29928
 Alpha virt. eigenvalues --    0.30270   0.30467   0.30577   0.30771   0.31107
 Alpha virt. eigenvalues --    0.31512   0.31751   0.32250   0.32628   0.33297
 Alpha virt. eigenvalues --    0.33609   0.33840   0.34285   0.34465   0.34689
 Alpha virt. eigenvalues --    0.35465   0.35712   0.35952   0.36774   0.37059
 Alpha virt. eigenvalues --    0.37338   0.37757   0.37804   0.38149   0.38555
 Alpha virt. eigenvalues --    0.39026   0.39257   0.39598   0.40268   0.40620
 Alpha virt. eigenvalues --    0.40864   0.41589   0.41741   0.42659   0.42846
 Alpha virt. eigenvalues --    0.43746   0.44017   0.44268   0.44954   0.46041
 Alpha virt. eigenvalues --    0.46475   0.47240   0.48318   0.49290   0.49461
 Alpha virt. eigenvalues --    0.49903   0.50504   0.50866   0.52121   0.52818
 Alpha virt. eigenvalues --    0.54368   0.54510   0.55468   0.56905   0.58483
 Alpha virt. eigenvalues --    0.59974   0.60697   0.61164   0.61510   0.61797
 Alpha virt. eigenvalues --    0.61968   0.62607   0.63044   0.63511   0.64088
 Alpha virt. eigenvalues --    0.64149   0.64637   0.65451   0.66309   0.66437
 Alpha virt. eigenvalues --    0.67048   0.67260   0.67409   0.68123   0.69104
 Alpha virt. eigenvalues --    0.69497   0.69915   0.71296   0.71472   0.71565
 Alpha virt. eigenvalues --    0.71919   0.72622   0.73437   0.73534   0.74276
 Alpha virt. eigenvalues --    0.74823   0.75580   0.75900   0.76103   0.76630
 Alpha virt. eigenvalues --    0.77368   0.78040   0.78480   0.78716   0.79289
 Alpha virt. eigenvalues --    0.79722   0.80440   0.80718   0.82322   0.83117
 Alpha virt. eigenvalues --    0.83534   0.84665   0.85183   0.85692   0.86590
 Alpha virt. eigenvalues --    0.87620   0.89153   0.89673   0.90820   0.91559
 Alpha virt. eigenvalues --    0.91921   0.94006   0.94318   0.94688   0.95319
 Alpha virt. eigenvalues --    0.95729   0.96541   0.96956   0.96998   0.97861
 Alpha virt. eigenvalues --    0.98660   0.99223   0.99414   1.00645   1.01430
 Alpha virt. eigenvalues --    1.02345   1.03345   1.03872   1.04399   1.05091
 Alpha virt. eigenvalues --    1.05686   1.06390   1.07299   1.07601   1.08521
 Alpha virt. eigenvalues --    1.08889   1.09704   1.10078   1.10634   1.12029
 Alpha virt. eigenvalues --    1.13332   1.13900   1.14616   1.15030   1.15310
 Alpha virt. eigenvalues --    1.16769   1.17747   1.18784   1.19681   1.20270
 Alpha virt. eigenvalues --    1.20618   1.21028   1.21613   1.22093   1.23430
 Alpha virt. eigenvalues --    1.25575   1.30733   1.31823   1.32246   1.34406
 Alpha virt. eigenvalues --    1.35112   1.36339   1.38236   1.39897   1.40228
 Alpha virt. eigenvalues --    1.41979   1.47779   1.48311   1.49498   1.51221
 Alpha virt. eigenvalues --    1.51608   1.52795   1.53737   1.55788   1.56238
 Alpha virt. eigenvalues --    1.57097   1.57686   1.58684   1.59666   1.60589
 Alpha virt. eigenvalues --    1.61628   1.61935   1.62528   1.62801   1.62885
 Alpha virt. eigenvalues --    1.63008   1.64283   1.64710   1.64914   1.65240
 Alpha virt. eigenvalues --    1.65708   1.66761   1.68021   1.68991   1.69291
 Alpha virt. eigenvalues --    1.70089   1.73236   1.75018   1.75182   1.75241
 Alpha virt. eigenvalues --    1.77398   1.78371   1.79200   1.79720   1.80538
 Alpha virt. eigenvalues --    1.80734   1.81306   1.82337   1.82675   1.83733
 Alpha virt. eigenvalues --    1.84654   1.84721   1.86602   1.87829   1.88726
 Alpha virt. eigenvalues --    1.90201   1.91068   1.93216   1.93918   1.95452
 Alpha virt. eigenvalues --    1.96861   1.97547   1.97877   2.00317   2.00619
 Alpha virt. eigenvalues --    2.00759   2.01616   2.01704   2.03403   2.03634
 Alpha virt. eigenvalues --    2.04663   2.04718   2.05505   2.06271   2.07040
 Alpha virt. eigenvalues --    2.08137   2.08999   2.11422   2.11659   2.12733
 Alpha virt. eigenvalues --    2.14240   2.14471   2.15536   2.17118   2.17452
 Alpha virt. eigenvalues --    2.17983   2.20027   2.20558   2.22913   2.24754
 Alpha virt. eigenvalues --    2.25007   2.25739   2.28617   2.31505   2.33592
 Alpha virt. eigenvalues --    2.35631   2.37055   2.37847   2.39865   2.41535
 Alpha virt. eigenvalues --    2.42650   2.42910   2.45311   2.46889   2.48032
 Alpha virt. eigenvalues --    2.49969   2.52582   2.54746   2.55142   2.55175
 Alpha virt. eigenvalues --    2.55448   2.56757   2.56939   2.57433   2.60524
 Alpha virt. eigenvalues --    2.62751   2.63535   2.67639   2.68108   2.69863
 Alpha virt. eigenvalues --    2.70236   2.72612   2.73806   2.74375   2.76566
 Alpha virt. eigenvalues --    2.77592   2.78204   2.78471   2.79699   2.80671
 Alpha virt. eigenvalues --    2.81226   2.81832   2.82375   2.83656   2.83752
 Alpha virt. eigenvalues --    2.84481   2.85348   2.85804   2.86339   2.86694
 Alpha virt. eigenvalues --    2.88362   2.89928   2.90273   2.91108   2.92020
 Alpha virt. eigenvalues --    2.92465   2.93589   2.94439   2.95465   2.96234
 Alpha virt. eigenvalues --    2.98000   2.98625   3.01013   3.01645   3.02652
 Alpha virt. eigenvalues --    3.03635   3.04602   3.06527   3.07191   3.08827
 Alpha virt. eigenvalues --    3.14655   3.17757   3.18750   3.19673   3.21112
 Alpha virt. eigenvalues --    3.21998   3.24167   3.26798   3.28690   3.30600
 Alpha virt. eigenvalues --    3.31145   3.33975   3.34539   3.38022   3.38283
 Alpha virt. eigenvalues --    3.41810   3.45417   3.46440   3.47404   3.50047
 Alpha virt. eigenvalues --    3.57024   3.59853   3.60817   3.62383   3.62927
 Alpha virt. eigenvalues --    3.64122   3.66110   3.68101   3.73440   3.76417
 Alpha virt. eigenvalues --    3.77442   3.77876   3.78320   3.78701   3.86045
 Alpha virt. eigenvalues --    3.88658   3.89124   3.92930   4.02075   4.05047
 Alpha virt. eigenvalues --    4.07790   4.09578   4.12496   4.13805   4.16229
 Alpha virt. eigenvalues --    4.26413   4.27720   4.29392   4.31108   4.37818
 Alpha virt. eigenvalues --    4.53116   4.76957   4.92507   4.93723   4.99952
 Alpha virt. eigenvalues --    5.15100   5.17681   5.18461   5.37990   5.65068
 Alpha virt. eigenvalues --    5.84426   5.96301  23.71289  23.79597  23.93928
 Alpha virt. eigenvalues --   24.01890  24.03307  24.03470  24.04783  24.07705
 Alpha virt. eigenvalues --   24.08182  24.08656  24.13601  24.14553  24.22758
 Alpha virt. eigenvalues --   24.25184  24.27970  24.30757  24.31400  35.74009
 Alpha virt. eigenvalues --   50.13862  50.17973
          Condensed to atoms (all electrons):
               1          2          3          4          5          6
     1  C   17.790962  -1.587602   2.407778   0.329190  -0.337694  -0.172057
     2  C   -1.587602   9.827539  -2.027250  -0.348795   0.650747   0.586285
     3  C    2.407778  -2.027250  22.757123   0.047507   0.332402  -0.081733
     4  O    0.329190  -0.348795   0.047507   8.162736   0.008349  -0.023215
     5  C   -0.337694   0.650747   0.332402   0.008349   7.068633  -0.016046
     6  H   -0.172057   0.586285  -0.081733  -0.023215  -0.016046   0.456326
     7  C   -3.817307   2.526870  -1.429609  -0.039626   1.539912   0.033964
     8  C   -4.735648  -1.673473  -1.110488  -0.040119  -1.567535  -0.010855
     9  H    0.005839   0.025677  -0.084423   0.219394   0.002296   0.001152
    10  C    0.534611  -0.835167  -2.458615   0.004627  -0.619445  -0.006726
    11  H    0.010813  -0.074763   0.090485   0.000801   0.429705  -0.011134
    12  H   -0.008650   0.089741  -0.006556  -0.001915   0.054002   0.000266
    13  C   -3.321965  -0.391873  -8.392176  -0.036349  -0.750465   0.002489
    14  O   -0.011669  -0.094240  -0.020574   0.024363  -0.019371   0.000893
    15  H    0.042351   0.005753   0.032001   0.000254  -0.096828   0.001126
    16  C   -1.246935  -0.151850  -4.877946   0.045311  -0.270812   0.002223
    17  H   -0.003517  -0.043757  -0.037712  -0.001782  -0.012087   0.000136
    18  C    0.060770   0.007327   0.557617  -0.000451   0.033201  -0.000733
    19  H   -0.067417   0.002196  -0.181855  -0.000695  -0.003982  -0.000118
    20  C   -0.019369   0.041029  -0.909361   0.001601  -0.025019   0.000328
    21  C   -0.053410  -0.020502  -0.194248  -0.001228  -0.002015  -0.000009
    22  H    0.010324   0.003573  -0.005632   0.000248  -0.001702   0.000004
    23  C    0.017062   0.006992   0.032222   0.000214  -0.000088   0.000000
    24  H    0.007472   0.000266   0.025293   0.000017   0.000133   0.000010
    25  C   -0.027507  -0.004332  -0.164495  -0.000261  -0.000150  -0.000011
    26  C    0.001726   0.000856  -0.079188  -0.000033  -0.000555   0.000006
    27  H   -0.000476  -0.000185   0.005105  -0.000004   0.000208  -0.000001
    28  H   -0.000448  -0.000014  -0.002201   0.000001   0.000006  -0.000001
    29  N    0.000010   0.000000   0.000431   0.000000   0.000001   0.000000
    30  C    0.000064  -0.000001   0.002073   0.000000   0.000007   0.000000
    31  C   -0.000022  -0.000002  -0.000894   0.000000   0.000000   0.000000
    32  H   -0.000004   0.000001  -0.000215   0.000000  -0.000001   0.000000
    33  H    0.000003   0.000000   0.000121   0.000000   0.000000   0.000000
    34  H   -0.000002   0.000001  -0.000193   0.000000  -0.000003   0.000000
    35  H    0.000006   0.000000   0.000042   0.000000   0.000000   0.000000
    36  H   -0.000003   0.000000  -0.000063   0.000000   0.000000   0.000000
    37  H    0.000008   0.000000   0.000094   0.000000   0.000000   0.000000
               7          8          9         10         11         12
     1  C   -3.817307  -4.735648   0.005839   0.534611   0.010813  -0.008650
     2  C    2.526870  -1.673473   0.025677  -0.835167  -0.074763   0.089741
     3  C   -1.429609  -1.110488  -0.084423  -2.458615   0.090485  -0.006556
     4  O   -0.039626  -0.040119   0.219394   0.004627   0.000801  -0.001915
     5  C    1.539912  -1.567535   0.002296  -0.619445   0.429705   0.054002
     6  H    0.033964  -0.010855   0.001152  -0.006726  -0.011134   0.000266
     7  C   17.838662  -1.636782   0.041844  -3.327277  -0.028411   0.847600
     8  C   -1.636782  19.130762   0.064047   1.402102  -0.012468  -0.021648
     9  H    0.041844   0.064047   0.272827   0.004262  -0.000108   0.001044
    10  C   -3.327277   1.402102   0.004262   9.932306  -0.066378  -0.290749
    11  H   -0.028411  -0.012468  -0.000108  -0.066378   0.478441   0.002550
    12  H    0.847600  -0.021648   0.001044  -0.290749   0.002550   0.588840
    13  C   -3.021998   0.834455  -0.014183   1.064331  -0.010790  -0.176714
    14  O   -0.246929   0.872124   0.087052   0.009060  -0.000224  -0.006166
    15  H   -0.132685   0.016943   0.000283   0.429294  -0.011422  -0.022181
    16  C   -1.764123  -4.464598  -0.035567   0.642761  -0.003435  -0.141774
    17  H   -0.108487  -0.059334   0.002252   0.032469  -0.000992  -0.027494
    18  C    0.134372   1.754475  -0.000186  -0.113990   0.000498   0.016076
    19  H    0.025614   0.009500  -0.000513   0.011431  -0.000027   0.000941
    20  C   -0.179814  -1.679436  -0.008304   0.058542  -0.000391  -0.014176
    21  C    0.011431  -0.381613   0.001904   0.044441   0.000006  -0.006990
    22  H   -0.029376  -0.048033  -0.000382  -0.002935  -0.000020  -0.008385
    23  C    0.014377   0.269983   0.000202  -0.021537   0.000017   0.015986
    24  H   -0.004589   0.030939   0.000144  -0.000857   0.000001   0.000115
    25  C    0.029325  -0.417181  -0.000609   0.011343   0.000000  -0.003906
    26  C   -0.005897  -0.272443  -0.000596   0.001400  -0.000007   0.000919
    27  H    0.002552   0.016702   0.000031  -0.000547   0.000004   0.000226
    28  H    0.000652   0.001308   0.000004   0.000004   0.000000   0.000020
    29  N   -0.000022   0.002729   0.000002  -0.000004   0.000000   0.000038
    30  C   -0.000441   0.006626   0.000003  -0.000176   0.000000   0.000075
    31  C    0.000089  -0.002537  -0.000006   0.000020   0.000000  -0.000020
    32  H    0.000051  -0.000667  -0.000001   0.000034   0.000000   0.000012
    33  H   -0.000026   0.000471   0.000000  -0.000010   0.000000   0.000004
    34  H   -0.000027  -0.000825  -0.000001   0.000014   0.000000  -0.000007
    35  H   -0.000003  -0.000045   0.000000   0.000001   0.000000   0.000002
    36  H    0.000011  -0.000284   0.000000   0.000003   0.000000  -0.000004
    37  H   -0.000021   0.000227   0.000000  -0.000003   0.000000   0.000001
              13         14         15         16         17         18
     1  C   -3.321965  -0.011669   0.042351  -1.246935  -0.003517   0.060770
     2  C   -0.391873  -0.094240   0.005753  -0.151850  -0.043757   0.007327
     3  C   -8.392176  -0.020574   0.032001  -4.877946  -0.037712   0.557617
     4  O   -0.036349   0.024363   0.000254   0.045311  -0.001782  -0.000451
     5  C   -0.750465  -0.019371  -0.096828  -0.270812  -0.012087   0.033201
     6  H    0.002489   0.000893   0.001126   0.002223   0.000136  -0.000733
     7  C   -3.021998  -0.246929  -0.132685  -1.764123  -0.108487   0.134372
     8  C    0.834455   0.872124   0.016943  -4.464598  -0.059334   1.754475
     9  H   -0.014183   0.087052   0.000283  -0.035567   0.002252  -0.000186
    10  C    1.064331   0.009060   0.429294   0.642761   0.032469  -0.113990
    11  H   -0.010790  -0.000224  -0.011422  -0.003435  -0.000992   0.000498
    12  H   -0.176714  -0.006166  -0.022181  -0.141774  -0.027494   0.016076
    13  C   16.247250  -0.378641   0.016006   5.415920   0.768375  -1.052308
    14  O   -0.378641   8.112647   0.000861   0.003911   0.005022   0.020917
    15  H    0.016006   0.000861   0.483536   0.009756   0.004811  -0.002416
    16  C    5.415920   0.003911   0.009756  12.395772   0.073902  -1.697341
    17  H    0.768375   0.005022   0.004811   0.073902   0.860867   0.029704
    18  C   -1.052308   0.020917  -0.002416  -1.697341   0.029704  11.780606
    19  H    0.077217  -0.010972  -0.000143   0.416415   0.000323  -0.153625
    20  C   -0.802931   0.000064   0.000424   1.292684  -0.147020  -0.024686
    21  C    0.342091  -0.015582   0.000414  -0.245790   0.047489   0.193890
    22  H   -0.115494   0.001149   0.000120  -0.017275  -0.040295  -0.140060
    23  C   -0.659039  -0.000324  -0.000782  -0.378302  -0.180812  -1.009808
    24  H    0.032212   0.001109   0.000003   0.024608   0.003715  -0.073694
    25  C    0.500130  -0.001716   0.000044   0.837750   0.055320  -2.991645
    26  C   -0.419126  -0.000373  -0.000093  -0.074479  -0.060633  -2.095963
    27  H    0.044150   0.000025  -0.000021   0.015180   0.012428   0.150358
    28  H   -0.015149   0.000011  -0.000002  -0.000616  -0.000714  -0.024533
    29  N    0.004989  -0.000002   0.000000  -0.002707  -0.000836  -0.023774
    30  C    0.016425  -0.000001  -0.000002  -0.007428  -0.000319   0.014192
    31  C   -0.008705   0.000005   0.000000   0.021241   0.000195  -0.143788
    32  H   -0.001908   0.000000   0.000000  -0.001054  -0.000522  -0.013966
    33  H    0.001210   0.000000   0.000000  -0.001173   0.000010   0.007190
    34  H   -0.001516   0.000000   0.000001   0.000381  -0.000212  -0.007036
    35  H    0.000377  -0.000001   0.000000  -0.001606  -0.000058  -0.001976
    36  H   -0.000399   0.000000   0.000000   0.002496   0.000072  -0.006647
    37  H    0.000448  -0.000001   0.000000  -0.001263   0.000048   0.010428
              19         20         21         22         23         24
     1  C   -0.067417  -0.019369  -0.053410   0.010324   0.017062   0.007472
     2  C    0.002196   0.041029  -0.020502   0.003573   0.006992   0.000266
     3  C   -0.181855  -0.909361  -0.194248  -0.005632   0.032222   0.025293
     4  O   -0.000695   0.001601  -0.001228   0.000248   0.000214   0.000017
     5  C   -0.003982  -0.025019  -0.002015  -0.001702  -0.000088   0.000133
     6  H   -0.000118   0.000328  -0.000009   0.000004   0.000000   0.000010
     7  C    0.025614  -0.179814   0.011431  -0.029376   0.014377  -0.004589
     8  C    0.009500  -1.679436  -0.381613  -0.048033   0.269983   0.030939
     9  H   -0.000513  -0.008304   0.001904  -0.000382   0.000202   0.000144
    10  C    0.011431   0.058542   0.044441  -0.002935  -0.021537  -0.000857
    11  H   -0.000027  -0.000391   0.000006  -0.000020   0.000017   0.000001
    12  H    0.000941  -0.014176  -0.006990  -0.008385   0.015986   0.000115
    13  C    0.077217  -0.802931   0.342091  -0.115494  -0.659039   0.032212
    14  O   -0.010972   0.000064  -0.015582   0.001149  -0.000324   0.001109
    15  H   -0.000143   0.000424   0.000414   0.000120  -0.000782   0.000003
    16  C    0.416415   1.292684  -0.245790  -0.017275  -0.378302   0.024608
    17  H    0.000323  -0.147020   0.047489  -0.040295  -0.180812   0.003715
    18  C   -0.153625  -0.024686   0.193890  -0.140060  -1.009808  -0.073694
    19  H    0.465888   0.059400   0.041389   0.002122   0.011603  -0.008018
    20  C    0.059400  10.527805  -0.953956   0.428042   1.456879  -0.057489
    21  C    0.041389  -0.953956  10.534505   0.039748  -1.279012   0.280673
    22  H    0.002122   0.428042   0.039748   0.562258   0.071550  -0.004515
    23  C    0.011603   1.456879  -1.279012   0.071550   8.983103   0.008468
    24  H   -0.008018  -0.057489   0.280673  -0.004515   0.008468   0.491890
    25  C    0.033093  -1.374992   0.536578  -0.028284  -1.742387   0.003397
    26  C    0.021870  -1.096853  -2.568333   0.186071   0.586075   0.034905
    27  H   -0.000870   0.037720  -0.030062  -0.038731   0.354293   0.001658
    28  H    0.002236  -0.012318   0.032705   0.001310  -0.026331  -0.014059
    29  N   -0.000767  -0.029485   0.065436  -0.001200  -0.293431  -0.001088
    30  C   -0.000312   0.000418  -0.032534   0.002405   0.134747   0.000374
    31  C   -0.000517  -0.044042  -0.082074  -0.000106  -0.136821   0.002952
    32  H    0.000134  -0.013565  -0.006587   0.003213   0.029947  -0.000218
    33  H   -0.000042   0.003441   0.010930  -0.000328   0.024986  -0.000077
    34  H    0.000068  -0.007503  -0.002683   0.001422   0.019475  -0.000137
    35  H   -0.000030  -0.007576  -0.014579   0.000125  -0.016796   0.000710
    36  H    0.000006   0.005606  -0.017653  -0.000493   0.012010  -0.000074
    37  H   -0.000171  -0.001004   0.003765  -0.000186   0.002820   0.000690
              25         26         27         28         29         30
     1  C   -0.027507   0.001726  -0.000476  -0.000448   0.000010   0.000064
     2  C   -0.004332   0.000856  -0.000185  -0.000014   0.000000  -0.000001
     3  C   -0.164495  -0.079188   0.005105  -0.002201   0.000431   0.002073
     4  O   -0.000261  -0.000033  -0.000004   0.000001   0.000000   0.000000
     5  C   -0.000150  -0.000555   0.000208   0.000006   0.000001   0.000007
     6  H   -0.000011   0.000006  -0.000001  -0.000001   0.000000   0.000000
     7  C    0.029325  -0.005897   0.002552   0.000652  -0.000022  -0.000441
     8  C   -0.417181  -0.272443   0.016702   0.001308   0.002729   0.006626
     9  H   -0.000609  -0.000596   0.000031   0.000004   0.000002   0.000003
    10  C    0.011343   0.001400  -0.000547   0.000004  -0.000004  -0.000176
    11  H    0.000000  -0.000007   0.000004   0.000000   0.000000   0.000000
    12  H   -0.003906   0.000919   0.000226   0.000020   0.000038   0.000075
    13  C    0.500130  -0.419126   0.044150  -0.015149   0.004989   0.016425
    14  O   -0.001716  -0.000373   0.000025   0.000011  -0.000002  -0.000001
    15  H    0.000044  -0.000093  -0.000021  -0.000002   0.000000  -0.000002
    16  C    0.837750  -0.074479   0.015180  -0.000616  -0.002707  -0.007428
    17  H    0.055320  -0.060633   0.012428  -0.000714  -0.000836  -0.000319
    18  C   -2.991645  -2.095963   0.150358  -0.024533  -0.023774   0.014192
    19  H    0.033093   0.021870  -0.000870   0.002236  -0.000767  -0.000312
    20  C   -1.374992  -1.096853   0.037720  -0.012318  -0.029485   0.000418
    21  C    0.536578  -2.568333  -0.030062   0.032705   0.065436  -0.032534
    22  H   -0.028284   0.186071  -0.038731   0.001310  -0.001200   0.002405
    23  C   -1.742387   0.586075   0.354293  -0.026331  -0.293431   0.134747
    24  H    0.003397   0.034905   0.001658  -0.014059  -0.001088   0.000374
    25  C   10.459446   0.312778  -0.011959   0.492171  -0.257983  -0.184577
    26  C    0.312778  12.587653  -0.284261  -0.097650   0.244830  -0.224850
    27  H   -0.011959  -0.284261   0.538763   0.000350  -0.034829   0.019598
    28  H    0.492171  -0.097650   0.000350   0.509683  -0.032985  -0.005578
    29  N   -0.257983   0.244830  -0.034829  -0.032985   6.995817   0.302356
    30  C   -0.184577  -0.224850   0.019598  -0.005578   0.302356   5.241956
    31  C    0.218511  -0.119612  -0.005224   0.013502   0.310807  -0.117405
    32  H   -0.012693   0.023055  -0.016040  -0.000716  -0.051634   0.416675
    33  H    0.001523  -0.028941   0.008699   0.001472  -0.047171   0.402979
    34  H   -0.001803  -0.002313  -0.011470  -0.000140  -0.058148   0.417294
    35  H    0.017666   0.018109  -0.001296  -0.011838  -0.055561  -0.002571
    36  H    0.026298  -0.006150   0.002305   0.006068  -0.045702  -0.012453
    37  H    0.011456  -0.028687   0.000172  -0.007449  -0.056626   0.001764
              31         32         33         34         35         36
     1  C   -0.000022  -0.000004   0.000003  -0.000002   0.000006  -0.000003
     2  C   -0.000002   0.000001   0.000000   0.000001   0.000000   0.000000
     3  C   -0.000894  -0.000215   0.000121  -0.000193   0.000042  -0.000063
     4  O    0.000000   0.000000   0.000000   0.000000   0.000000   0.000000
     5  C    0.000000  -0.000001   0.000000  -0.000003   0.000000   0.000000
     6  H    0.000000   0.000000   0.000000   0.000000   0.000000   0.000000
     7  C    0.000089   0.000051  -0.000026  -0.000027  -0.000003   0.000011
     8  C   -0.002537  -0.000667   0.000471  -0.000825  -0.000045  -0.000284
     9  H   -0.000006  -0.000001   0.000000  -0.000001   0.000000   0.000000
    10  C    0.000020   0.000034  -0.000010   0.000014   0.000001   0.000003
    11  H    0.000000   0.000000   0.000000   0.000000   0.000000   0.000000
    12  H   -0.000020   0.000012   0.000004  -0.000007   0.000002  -0.000004
    13  C   -0.008705  -0.001908   0.001210  -0.001516   0.000377  -0.000399
    14  O    0.000005   0.000000   0.000000   0.000000  -0.000001   0.000000
    15  H    0.000000   0.000000   0.000000   0.000001   0.000000   0.000000
    16  C    0.021241  -0.001054  -0.001173   0.000381  -0.001606   0.002496
    17  H    0.000195  -0.000522   0.000010  -0.000212  -0.000058   0.000072
    18  C   -0.143788  -0.013966   0.007190  -0.007036  -0.001976  -0.006647
    19  H   -0.000517   0.000134  -0.000042   0.000068  -0.000030   0.000006
    20  C   -0.044042  -0.013565   0.003441  -0.007503  -0.007576   0.005606
    21  C   -0.082074  -0.006587   0.010930  -0.002683  -0.014579  -0.017653
    22  H   -0.000106   0.003213  -0.000328   0.001422   0.000125  -0.000493
    23  C   -0.136821   0.029947   0.024986   0.019475  -0.016796   0.012010
    24  H    0.002952  -0.000218  -0.000077  -0.000137   0.000710  -0.000074
    25  C    0.218511  -0.012693   0.001523  -0.001803   0.017666   0.026298
    26  C   -0.119612   0.023055  -0.028941  -0.002313   0.018109  -0.006150
    27  H   -0.005224  -0.016040   0.008699  -0.011470  -0.001296   0.002305
    28  H    0.013502  -0.000716   0.001472  -0.000140  -0.011838   0.006068
    29  N    0.310807  -0.051634  -0.047171  -0.058148  -0.055561  -0.045702
    30  C   -0.117405   0.416675   0.402979   0.417294  -0.002571  -0.012453
    31  C    5.260360  -0.003008  -0.015823   0.002881   0.425382   0.400876
    32  H   -0.003008   0.564346  -0.021742  -0.063145   0.002641  -0.002682
    33  H   -0.015823  -0.021742   0.508199  -0.022189  -0.002185   0.013992
    34  H    0.002881  -0.063145  -0.022189   0.558580  -0.002319  -0.001647
    35  H    0.425382   0.002641  -0.002185  -0.002319   0.561835  -0.019039
    36  H    0.400876  -0.002682   0.013992  -0.001647  -0.019039   0.507092
    37  H    0.413730  -0.002352  -0.001898   0.001780  -0.062383  -0.022207
              37
     1  C    0.000008
     2  C    0.000000
     3  C    0.000094
     4  O    0.000000
     5  C    0.000000
     6  H    0.000000
     7  C   -0.000021
     8  C    0.000227
     9  H    0.000000
    10  C   -0.000003
    11  H    0.000000
    12  H    0.000001
    13  C    0.000448
    14  O   -0.000001
    15  H    0.000000
    16  C   -0.001263
    17  H    0.000048
    18  C    0.010428
    19  H   -0.000171
    20  C   -0.001004
    21  C    0.003765
    22  H   -0.000186
    23  C    0.002820
    24  H    0.000690
    25  C    0.011456
    26  C   -0.028687
    27  H    0.000172
    28  H   -0.007449
    29  N   -0.056626
    30  C    0.001764
    31  C    0.413730
    32  H   -0.002352
    33  H   -0.001898
    34  H    0.001780
    35  H   -0.062383
    36  H   -0.022207
    37  H    0.553014
 Mulliken charges:
               1
     1  C    0.192712
     2  C   -0.521048
     3  C    1.775137
     4  O   -0.350141
     5  C   -0.395804
     6  H    0.237432
     7  C   -1.273875
     8  C   -0.277379
     9  H    0.414620
    10  C   -0.438640
    11  H    0.207247
    12  H    0.118879
    13  C    0.203656
    14  O   -0.332426
    15  H    0.222595
    16  C    0.185762
    17  H   -0.170553
    18  C    0.807006
    19  H    0.248628
    20  C   -0.504692
    21  C   -0.278533
    22  H    0.169751
    23  C   -0.307542
    24  H    0.213059
    25  C   -0.320339
    26  C   -0.553218
    27  H    0.225451
    28  H    0.191238
    29  N    0.066506
    30  C   -0.391384
    31  C   -0.389945
    32  H    0.172613
    33  H    0.156371
    34  H    0.181420
    35  H    0.172965
    36  H    0.158667
    37  H    0.183805
 Sum of Mulliken charges =   0.00000
 Mulliken charges with hydrogens summed into heavy atoms:
               1
     1  C    0.192712
     2  C   -0.283616
     3  C    1.775137
     4  O    0.064479
     5  C   -0.188556
     7  C   -1.154996
     8  C   -0.277379
    10  C   -0.216045
    13  C    0.033102
    14  O   -0.332426
    16  C    0.434390
    18  C    0.807006
    20  C   -0.334941
    21  C   -0.065474
    23  C   -0.082091
    25  C   -0.129100
    26  C   -0.553218
    29  N    0.066506
    30  C    0.119020
    31  C    0.125491
 Electronic spatial extent (au):  <R**2>=          16329.8371
 Charge=              0.0000 electrons
 Dipole moment (field-independent basis, Debye):
    X=              7.3881    Y=              1.5036    Z=             -6.0777  Tot=              9.6842
 Quadrupole moment (field-independent basis, Debye-Ang):
   XX=            -89.5237   YY=           -113.1121   ZZ=            -84.7654
   XY=             -0.6399   XZ=            -24.5171   YZ=            -17.1182
 Traceless Quadrupole moment (field-independent basis, Debye-Ang):
   XX=              6.2767   YY=            -17.3117   ZZ=             11.0350
   XY=             -0.6399   XZ=            -24.5171   YZ=            -17.1182
 Octapole moment (field-independent basis, Debye-Ang**2):
  XXX=            225.4874  YYY=           -518.3804  ZZZ=            909.4377  XYY=              9.4504
  XXY=           -112.9620  XXZ=            153.8401  XZZ=            182.3890  YZZ=            -71.4398
  YYZ=            322.2117  XYZ=            -13.6892
 Hexadecapole moment (field-independent basis, Debye-Ang**3):
 XXXX=          -9483.7894 YYYY=          -2390.2953 ZZZZ=          -7869.6338 XXXY=            611.7175
 XXXZ=            662.7986 YYYX=            786.5230 YYYZ=           1582.1254 ZZZX=            640.6084
 ZZZY=           1089.9183 XXYY=          -2083.4020 XXZZ=          -2224.0757 YYZZ=          -1618.8725
 XXYZ=            191.4976 YYXZ=            576.9297 ZZXY=            474.3390
 N-N= 1.358388104703D+03 E-N=-4.725819895809D+03  KE= 8.591566899995D+02
 Leave Link  601 at Wed Nov  8 18:26:21 2017, MaxMem=  3758096384 cpu:         0.3
 (Enter /share/apps/gaussian/g09_D01/g09/l9999.exe)
 1\1\GINC-NXN33\SP\RwB97XD TD-FC\6-311++G(d,p)\C17H17N1O2\BTX008\08-Nov
 -2017\0\\#p wb97xd/6-311++G** td=(nstates=2) nosymm\\Title\\0,1\C,0,-4
 .460431,1.697999,-1.116637\C,0,-5.713299,2.280435,-1.366002\C,0,-3.380
 024,1.901192,-2.027274\O,0,-4.303033,0.944233,-0.010897\C,0,-5.905928,
 3.076949,-2.485036\H,0,-6.521299,2.073365,-0.66433\C,0,-3.617051,2.723
 616,-3.149103\C,0,-2.088235,1.238428,-1.759477\H,0,-3.31167,0.613585,-
 0.091837\C,0,-4.852787,3.30849,-3.380165\H,0,-6.883564,3.522908,-2.674
 803\H,0,-2.816641,2.920673,-3.860494\C,0,-0.968168,1.412456,-2.645759\
 O,0,-1.99078,0.498466,-0.713431\H,0,-5.001607,3.946366,-4.250924\C,0,0
 .21471,0.745571,-2.457648\H,0,-1.074164,2.099815,-3.482603\C,0,1.41541
 ,0.871997,-3.222876\H,0,0.257579,0.050548,-1.612086\C,0,1.589403,1.806
 976,-4.273513\C,0,2.533855,0.067726,-2.896805\H,0,0.764905,2.460304,-4
 .561628\C,0,2.781614,1.929857,-4.949058\H,0,2.436477,-0.649787,-2.0807
 69\C,0,3.733941,0.167547,-3.566428\C,0,3.899567,1.104949,-4.623043\H,0
 ,2.857302,2.667212,-5.743983\H,0,4.562114,-0.469393,-3.265867\N,0,5.07
 3463,1.20934,-5.297521\C,0,5.218793,2.191367,-6.360708\C,0,6.187049,0.
 324912,-4.983814\H,0,5.026173,3.209094,-5.987337\H,0,6.238463,2.151217
 ,-6.754687\H,0,4.519212,1.990119,-7.185558\H,0,5.886297,-0.730065,-5.0
 72452\H,0,7.004935,0.516059,-5.685338\H,0,6.554969,0.493576,-3.959923\
 \Version=ES64L-G09RevD.01\HF=-863.1625465\RMSD=8.720e-09\PG=C01 [X(C17
 H17N1O2)]\\@


 AN AIRPLANE IS A COLLECTION OF SPARE PARTS
 FLYING IN CLOSE FORMATION.
 Job cpu time:       0 days  1 hours 40 minutes 30.1 seconds.
 File lengths (MBytes):  RWF=    296 Int=      0 D2E=      0 Chk=     34 Scr=      1
 Normal termination of Gaussian 09 at Wed Nov  8 18:26:21 2017.
