 Entering Gaussian System, Link 0=g09
 Input=2hc_1_rel-mega_dimer_0_mon-0.com
 Output=2hc_1_rel-mega_dimer_0_mon-0.out
 Initial command:
 /share/apps/gaussian/g09_D01/g09/l1.exe "/tmp/159434.1.all.q/Gau-35004.inp" -scrdir="/tmp/159434.1.all.q/"
 Entering Link 1 = /share/apps/gaussian/g09_D01/g09/l1.exe PID=     35008.
  
 Copyright (c) 1988,1990,1992,1993,1995,1998,2003,2009,2013,
            Gaussian, Inc.  All Rights Reserved.
  
 This is part of the Gaussian(R) 09 program.  It is based on
 the Gaussian(R) 03 system (copyright 2003, Gaussian, Inc.),
 the Gaussian(R) 98 system (copyright 1998, Gaussian, Inc.),
 the Gaussian(R) 94 system (copyright 1995, Gaussian, Inc.),
 the Gaussian 92(TM) system (copyright 1992, Gaussian, Inc.),
 the Gaussian 90(TM) system (copyright 1990, Gaussian, Inc.),
 the Gaussian 88(TM) system (copyright 1988, Gaussian, Inc.),
 the Gaussian 86(TM) system (copyright 1986, Carnegie Mellon
 University), and the Gaussian 82(TM) system (copyright 1983,
 Carnegie Mellon University). Gaussian is a federally registered
 trademark of Gaussian, Inc.
  
 This software contains proprietary and confidential information,
 including trade secrets, belonging to Gaussian, Inc.
  
 This software is provided under written license and may be
 used, copied, transmitted, or stored only in accord with that
 written license.
  
 The following legend is applicable only to US Government
 contracts under FAR:
  
                    RESTRICTED RIGHTS LEGEND
  
 Use, reproduction and disclosure by the US Government is
 subject to restrictions as set forth in subparagraphs (a)
 and (c) of the Commercial Computer Software - Restricted
 Rights clause in FAR 52.227-19.
  
 Gaussian, Inc.
 340 Quinnipiac St., Bldg. 40, Wallingford CT 06492
  
  
 ---------------------------------------------------------------
 Warning -- This program may not be used in any manner that
 competes with the business of Gaussian, Inc. or will provide
 assistance to any competitor of Gaussian, Inc.  The licensee
 of this program is prohibited from giving any competitor of
 Gaussian, Inc. access to this program.  By using this program,
 the user acknowledges that Gaussian, Inc. is engaged in the
 business of creating and licensing software in the field of
 computational chemistry and represents and warrants to the
 licensee that it is not a competitor of Gaussian, Inc. and that
 it will not use this program in any manner prohibited above.
 ---------------------------------------------------------------
  

 Cite this work as:
 Gaussian 09, Revision D.01,
 M. J. Frisch, G. W. Trucks, H. B. Schlegel, G. E. Scuseria, 
 M. A. Robb, J. R. Cheeseman, G. Scalmani, V. Barone, B. Mennucci, 
 G. A. Petersson, H. Nakatsuji, M. Caricato, X. Li, H. P. Hratchian, 
 A. F. Izmaylov, J. Bloino, G. Zheng, J. L. Sonnenberg, M. Hada, 
 M. Ehara, K. Toyota, R. Fukuda, J. Hasegawa, M. Ishida, T. Nakajima, 
 Y. Honda, O. Kitao, H. Nakai, T. Vreven, J. A. Montgomery, Jr., 
 J. E. Peralta, F. Ogliaro, M. Bearpark, J. J. Heyd, E. Brothers, 
 K. N. Kudin, V. N. Staroverov, T. Keith, R. Kobayashi, J. Normand, 
 K. Raghavachari, A. Rendell, J. C. Burant, S. S. Iyengar, J. Tomasi, 
 M. Cossi, N. Rega, J. M. Millam, M. Klene, J. E. Knox, J. B. Cross, 
 V. Bakken, C. Adamo, J. Jaramillo, R. Gomperts, R. E. Stratmann, 
 O. Yazyev, A. J. Austin, R. Cammi, C. Pomelli, J. W. Ochterski, 
 R. L. Martin, K. Morokuma, V. G. Zakrzewski, G. A. Voth, 
 P. Salvador, J. J. Dannenberg, S. Dapprich, A. D. Daniels, 
 O. Farkas, J. B. Foresman, J. V. Ortiz, J. Cioslowski, 
 and D. J. Fox, Gaussian, Inc., Wallingford CT, 2013.
 
 ******************************************
 Gaussian 09:  ES64L-G09RevD.01 24-Apr-2013
                 1-Nov-2017 
 ******************************************
 %chk=2hc_1_rel-mega_dimer_0.chk
 %nproc=4
 Will use up to    4 processors via shared memory.
 %mem=28GB
 ----------------------------------
 #p HF/STO-3G td=(nstates=2) nosymm
 ----------------------------------
 1/38=1/1;
 2/12=2,15=1,17=6,18=5,40=1/2;
 3/6=3,11=9,16=1,25=1,30=1/1,2,8,3;
 4//1;
 5/5=2,38=5/2;
 8/6=1,10=1,108=2/1;
 9/41=2,42=1,70=2/14;
 6/7=2,8=2,9=2,10=2/1;
 99/5=1,9=1/99;
 Leave Link    1 at Wed Nov  1 19:18:17 2017, MaxMem=  3758096384 cpu:         0.2
 (Enter /share/apps/gaussian/g09_D01/g09/l101.exe)
 -----
 Title
 -----
 Symbolic Z-matrix:
 Charge =  0 Multiplicity = 1
 C                    -0.0456   -3.21264  -0.67304 
 C                    -1.16356  -4.03755  -0.99906 
 H                    -0.12129  -2.47529   0.12188 
 C                     1.14661  -3.33552  -1.34859 
 C                    -0.99793  -4.97495  -2.05567 
 N                    -2.33745  -3.93316  -0.32458 
 C                     1.3206   -4.2705   -2.39922 
 H                     1.97111  -2.6822   -1.06047 
 C                     0.20216  -5.07477  -2.7253 
 H                    -1.8261   -5.61189  -2.35623 
 C                    -3.45104  -4.81759  -0.63829 
 C                    -2.48278  -2.95113   0.73861 
 C                     2.5213   -4.39693  -3.16445 
 H                     0.29953  -5.79229  -3.54133 
 H                    -3.15029  -5.87257  -0.54965 
 H                    -4.26893  -4.62644   0.06324 
 H                    -3.81896  -4.64893  -1.66218 
 H                    -2.29016  -1.93341   0.36524 
 H                    -3.50245  -2.99128   1.13259 
 H                    -1.7832   -3.15238   1.56346 
 C                     3.70418  -3.73004  -2.97634 
 H                     2.47843  -5.09195  -4.01001 
 C                     4.82425  -3.90407  -3.86262 
 H                     3.81017  -3.04269  -2.1395 
 C                     6.11603  -3.24131  -3.59483 
 O                     4.72679  -4.64403  -4.90867 
 C                     7.19644  -3.4445   -4.50546 
 C                     6.35306  -2.41888  -2.473 
 H                     6.04768  -4.52891  -5.53026 
 C                     8.44931  -2.86207  -4.2561 
 O                     7.03904  -4.19827  -5.6112 
 C                     7.5888   -1.83401  -2.24194 
 H                     5.55265  -2.22183  -1.76161 
 C                     8.64194  -2.06555  -3.13706 
 H                     9.25731  -3.06914  -4.95777 
 H                     7.73762  -1.19613  -1.37118 
 H                     9.61957  -1.61959  -2.9473 
 
 NAtoms=     37 NQM=       37 NQMF=       0 NMMI=      0 NMMIF=      0
                NMic=       0 NMicF=      0.
                    Isotopes and Nuclear Properties:
 (Nuclear quadrupole moments (NQMom) in fm**2, nuclear magnetic moments (NMagM)
  in nuclear magnetons)

  Atom         1           2           3           4           5           6           7           8           9          10
 IAtWgt=          12          12           1          12          12          14          12           1          12           1
 AtmWgt=  12.0000000  12.0000000   1.0078250  12.0000000  12.0000000  14.0030740  12.0000000   1.0078250  12.0000000   1.0078250
 NucSpn=           0           0           1           0           0           2           0           1           0           1
 AtZEff=   0.0000000   0.0000000   0.0000000   0.0000000   0.0000000   0.0000000   0.0000000   0.0000000   0.0000000   0.0000000
 NQMom=    0.0000000   0.0000000   0.0000000   0.0000000   0.0000000   2.0440000   0.0000000   0.0000000   0.0000000   0.0000000
 NMagM=    0.0000000   0.0000000   2.7928460   0.0000000   0.0000000   0.4037610   0.0000000   2.7928460   0.0000000   2.7928460
 AtZNuc=   6.0000000   6.0000000   1.0000000   6.0000000   6.0000000   7.0000000   6.0000000   1.0000000   6.0000000   1.0000000

  Atom        11          12          13          14          15          16          17          18          19          20
 IAtWgt=          12          12          12           1           1           1           1           1           1           1
 AtmWgt=  12.0000000  12.0000000  12.0000000   1.0078250   1.0078250   1.0078250   1.0078250   1.0078250   1.0078250   1.0078250
 NucSpn=           0           0           0           1           1           1           1           1           1           1
 AtZEff=   0.0000000   0.0000000   0.0000000   0.0000000   0.0000000   0.0000000   0.0000000   0.0000000   0.0000000   0.0000000
 NQMom=    0.0000000   0.0000000   0.0000000   0.0000000   0.0000000   0.0000000   0.0000000   0.0000000   0.0000000   0.0000000
 NMagM=    0.0000000   0.0000000   0.0000000   2.7928460   2.7928460   2.7928460   2.7928460   2.7928460   2.7928460   2.7928460
 AtZNuc=   6.0000000   6.0000000   6.0000000   1.0000000   1.0000000   1.0000000   1.0000000   1.0000000   1.0000000   1.0000000

  Atom        21          22          23          24          25          26          27          28          29          30
 IAtWgt=          12           1          12           1          12          16          12          12           1          12
 AtmWgt=  12.0000000   1.0078250  12.0000000   1.0078250  12.0000000  15.9949146  12.0000000  12.0000000   1.0078250  12.0000000
 NucSpn=           0           1           0           1           0           0           0           0           1           0
 AtZEff=   0.0000000   0.0000000   0.0000000   0.0000000   0.0000000   0.0000000   0.0000000   0.0000000   0.0000000   0.0000000
 NQMom=    0.0000000   0.0000000   0.0000000   0.0000000   0.0000000   0.0000000   0.0000000   0.0000000   0.0000000   0.0000000
 NMagM=    0.0000000   2.7928460   0.0000000   2.7928460   0.0000000   0.0000000   0.0000000   0.0000000   2.7928460   0.0000000
 AtZNuc=   6.0000000   1.0000000   6.0000000   1.0000000   6.0000000   8.0000000   6.0000000   6.0000000   1.0000000   6.0000000

  Atom        31          32          33          34          35          36          37
 IAtWgt=          16          12           1          12           1           1           1
 AtmWgt=  15.9949146  12.0000000   1.0078250  12.0000000   1.0078250   1.0078250   1.0078250
 NucSpn=           0           0           1           0           1           1           1
 AtZEff=   0.0000000   0.0000000   0.0000000   0.0000000   0.0000000   0.0000000   0.0000000
 NQMom=    0.0000000   0.0000000   0.0000000   0.0000000   0.0000000   0.0000000   0.0000000
 NMagM=    0.0000000   0.0000000   2.7928460   0.0000000   2.7928460   2.7928460   2.7928460
 AtZNuc=   8.0000000   6.0000000   1.0000000   6.0000000   1.0000000   1.0000000   1.0000000
 Leave Link  101 at Wed Nov  1 19:18:17 2017, MaxMem=  3758096384 cpu:         0.4
 (Enter /share/apps/gaussian/g09_D01/g09/l202.exe)
                          Input orientation:                          
 ---------------------------------------------------------------------
 Center     Atomic      Atomic             Coordinates (Angstroms)
 Number     Number       Type             X           Y           Z
 ---------------------------------------------------------------------
      1          6           0       -0.045604   -3.212643   -0.673042
      2          6           0       -1.163557   -4.037551   -0.999057
      3          1           0       -0.121291   -2.475288    0.121883
      4          6           0        1.146608   -3.335524   -1.348586
      5          6           0       -0.997931   -4.974953   -2.055672
      6          7           0       -2.337452   -3.933160   -0.324579
      7          6           0        1.320601   -4.270503   -2.399224
      8          1           0        1.971105   -2.682196   -1.060472
      9          6           0        0.202155   -5.074774   -2.725295
     10          1           0       -1.826104   -5.611893   -2.356233
     11          6           0       -3.451039   -4.817588   -0.638286
     12          6           0       -2.482782   -2.951131    0.738607
     13          6           0        2.521300   -4.396929   -3.164451
     14          1           0        0.299534   -5.792287   -3.541330
     15          1           0       -3.150286   -5.872565   -0.549647
     16          1           0       -4.268925   -4.626441    0.063239
     17          1           0       -3.818958   -4.648925   -1.662177
     18          1           0       -2.290162   -1.933406    0.365237
     19          1           0       -3.502453   -2.991283    1.132588
     20          1           0       -1.783201   -3.152381    1.563457
     21          6           0        3.704177   -3.730044   -2.976341
     22          1           0        2.478430   -5.091951   -4.010014
     23          6           0        4.824246   -3.904072   -3.862622
     24          1           0        3.810173   -3.042685   -2.139497
     25          6           0        6.116034   -3.241308   -3.594826
     26          8           0        4.726790   -4.644034   -4.908669
     27          6           0        7.196441   -3.444502   -4.505463
     28          6           0        6.353060   -2.418884   -2.472996
     29          1           0        6.047681   -4.528914   -5.530262
     30          6           0        8.449310   -2.862065   -4.256098
     31          8           0        7.039043   -4.198267   -5.611204
     32          6           0        7.588797   -1.834009   -2.241935
     33          1           0        5.552651   -2.221827   -1.761605
     34          6           0        8.641937   -2.065551   -3.137064
     35          1           0        9.257308   -3.069135   -4.957770
     36          1           0        7.737617   -1.196134   -1.371176
     37          1           0        9.619574   -1.619592   -2.947297
 ---------------------------------------------------------------------
                    Distance matrix (angstroms):
                    1          2          3          4          5
     1  C    0.000000
     2  C    1.427087   0.000000
     3  H    1.086889   2.187119   0.000000
     4  C    1.375801   2.439646   2.123641   0.000000
     5  C    2.433994   1.422178   3.429077   2.790474   0.000000
     6  N    2.427579   1.357883   2.689998   3.680276   2.424115
     7  C    2.442394   2.861079   3.414356   1.417145   2.447421
     8  H    2.120988   3.415679   2.412239   1.090707   3.881022
     9  C    2.782204   2.433290   3.868897   2.410873   1.377884
    10  H    3.429244   2.181616   4.345772   3.877399   1.087152
    11  C    3.764843   2.443601   4.141431   4.882561   2.837514
    12  C    2.828600   2.437240   2.486647   4.204355   3.756146
    13  C    3.768109   4.289086   4.634219   2.512713   3.734768
    14  H    3.873081   3.418024   4.959708   3.400198   2.135095
    15  H    4.090166   2.741594   4.600788   5.053531   2.776049
    16  H    4.514131   3.334453   4.672662   5.743493   3.912882
    17  H    4.156861   2.804400   4.645461   5.145892   2.866937
    18  H    2.784333   2.749175   2.248746   4.088339   4.096544
    19  H    3.906290   3.333020   3.566515   5.280956   4.513599
    20  H    2.832808   2.781000   2.301855   4.134890   4.127531
    21  C    4.430998   5.262988   5.080119   3.057187   4.950480
    22  H    4.586712   4.841662   5.538777   3.455718   3.989765
    23  C    5.862332   6.638645   6.509688   4.490951   6.189475
    24  H    4.128728   5.198880   4.570797   2.793899   5.182524
    25  C    6.819342   7.769457   7.301023   5.454325   7.482180
    26  O    6.539508   7.095708   7.315313   5.215754   6.404805
    27  C    8.196855   9.084941   8.712113   6.824824   8.688584
    28  C    6.694235   7.828928   6.975228   5.404782   7.793890
    29  H    7.902739   8.530839   8.615123   6.552184   7.868442
    30  C    9.226308  10.217499   9.631797   7.874468   9.927564
    31  O    8.691900   9.411715   9.333131   7.323594   8.822585
    32  C    7.914931   9.110655   8.089767   6.674910   9.145060
    33  H    5.788536   6.998984   5.983760   4.563345   7.111702
    34  C    9.102779  10.227784   9.358567   7.809702  10.127245
    35  H   10.243225  11.189444  10.682399   8.881477  10.827014
    36  H    8.070454   9.351097   8.101105   6.929567   9.542421
    37  H   10.056128  11.221323  10.248733   8.791556  11.170714
                    6          7          8          9         10
     6  N    0.000000
     7  C    4.218922   0.000000
     8  H    4.546440   2.176725   0.000000
     9  C    3.676455   1.415661   3.409582   0.000000
    10  H    2.684630   3.420954   4.967989   2.130385   0.000000
    11  C    1.456263   5.115540   5.842755   4.215160   2.494529
    12  C    1.454602   5.104160   4.811042   4.870048   4.133874
    13  C    5.646895   1.429417   2.769432   2.455762   4.585769
    14  H    4.556044   2.159354   4.315260   1.090972   2.440355
    15  H    2.114863   5.096702   6.055414   4.075387   2.255030
    16  H    2.088451   6.118269   6.631801   5.288429   3.576637
    17  H    2.120459   5.205911   6.144502   4.181019   2.319588
    18  H    2.115916   5.112913   4.555407   5.062729   4.599241
    19  H    2.089903   6.113260   5.904649   5.740062   4.674357
    20  H    2.116953   5.156222   4.604443   5.102022   4.627635
    21  C    6.601089   2.511293   2.787845   3.759718   5.874513
    22  H    6.173973   2.147089   3.842408   2.613853   4.640511
    23  C    7.988023   3.814621   4.181559   4.901814   7.029439
    24  H    6.471489   2.788004   2.162503   4.182145   6.198018
    25  C    9.090358   5.048256   4.890398   6.252331   8.380414
    26  O    8.451197   4.247230   5.123595   5.042319   7.098739
    27  C   10.421789   6.296349   6.305015   7.399110   9.524867
    28  C    9.079302   5.362796   4.611517   6.704554   8.781097
    29  H    9.887594   5.675867   6.325177   6.506610   8.558259
    30  C   11.530755   7.500011   7.225754   8.674964  10.805331
    31  O   10.767420   6.559162   6.977939   7.472601   9.549032
    32  C   10.325362   6.726925   5.802908   8.080760  10.145237
    33  H    8.200453   4.744879   3.678451   6.139692   8.141999
    34  C   11.486732   7.681678   7.013735   8.969665  11.079987
    35  H   12.516048   8.425008   8.272086   9.539514  11.665146
    36  H   10.492554   7.189348   5.963018   8.582580  10.579888
    37  H   12.457998   8.729299   7.949108  10.033711  12.136366
                   11         12         13         14         15
    11  C    0.000000
    12  C    2.513368   0.000000
    13  C    6.498253   6.508842   0.000000
    14  H    4.841952   5.842201   2.650529   0.000000
    15  H    1.100584   3.261892   6.417288   4.567042   0.000000
    16  H    1.094355   2.540294   7.521823   5.934891   1.783201
    17  H    1.100983   3.229804   6.520675   4.669097   1.783855
    18  H    3.266986   1.101032   6.455835   6.071141   4.134465
    19  H    2.544411   1.093875   7.531665   6.644264   3.354955
    20  H    3.225255   1.100133   6.513888   6.112752   3.705878
    21  C    7.605680   7.258513   1.370883   4.020405   7.580429
    22  H    6.826597   7.193479   1.095386   2.336177   6.653265
    23  C    8.928113   8.687466   2.456402   4.913411   8.856858
    24  H    7.624245   6.920488   2.132065   4.674402   7.680093
    25  C   10.136798   9.633404   3.800368   6.351537  10.102540
    26  O    9.227306   9.313194   2.822684   4.773751   9.086181
    27  C   11.410927  11.019575   4.956044   7.349080  11.340138
    28  C   10.258669   9.416463   4.367283   7.011873  10.292753
    29  H   10.688332  10.703126   4.248511   6.212339  10.545830
    30  C   12.590907  12.019386   6.220032   8.689991  12.543983
    31  O   11.625631  11.512628   5.141602   7.228157  11.499785
    32  C   11.547788  10.562589   5.753184   8.395817  11.597486
    33  H    9.437492   8.446960   3.985992   6.596275   9.515138
    34  C   12.651390  11.813740   6.549677   9.145911  12.658776
    35  H   13.535772  13.049611   7.095973   9.469085  13.462509
    36  H   11.782957  10.582427   6.377373   9.008844  11.878146
    37  H   13.652825  12.721081   7.625369  10.228754  13.671351
                   16         17         18         19         20
    16  H    0.000000
    17  H    1.783266   0.000000
    18  H    3.355465   3.717750   0.000000
    19  H    2.098744   3.264761   1.782577   0.000000
    20  H    3.256122   4.097397   1.782874   1.779727   0.000000
    21  C    8.579798   7.692134   7.094093   8.328540   7.145263
    22  H    7.895245   6.735407   7.201298   8.162728   7.279218
    23  C    9.930758   8.949958   8.507239   9.752908   8.582874
    24  H    8.522450   7.810985   6.687173   8.011472   6.708929
    25  C   11.097180  10.218639   9.383860  10.720366   9.434707
    26  O   10.278281   9.141638   9.186904  10.341606   9.300184
    27  C   12.398574  11.440014  10.770458  12.102039  10.842098
    28  C   11.141470  10.445117   9.110244  10.509948   9.112064
    29  H   11.735805  10.598446  10.536280  11.745763  10.655440
    30  C   13.547073  12.666163  11.728402  13.111036  11.775219
    31  O   12.659099  11.562616  11.308471  12.572139  11.419353
    32  C   12.398269  11.764215  10.217684  11.650859  10.200660
    33  H   10.274998   9.681309   8.131197   9.537469   8.107817
    34  C   13.545865  12.811051  11.480173  12.906321  11.487367
    35  H   14.511882  13.577386  12.765906  14.138954  12.822877
    36  H   12.569073  12.064861  10.203678  11.654637  10.153076
    37  H   14.525663  13.835553  12.365807  13.809945  12.357978
                   21         22         23         24         25
    21  C    0.000000
    22  H    2.103741   0.000000
    23  C    1.438866   2.633559   0.000000
    24  H    1.088120   3.077639   2.177037   0.000000
    25  C    2.537408   4.102368   1.476376   2.733940   0.000000
    26  O    2.369601   2.462384   1.285012   3.327585   2.371460
    27  C    3.823043   5.021871   2.500352   4.150429   1.427525
    28  C    2.998179   4.951815   2.544428   2.639436   1.411051
    29  H    3.557066   3.920168   2.160612   4.325807   2.325621
    30  C    4.990737   6.378429   3.792320   5.102374   2.454645
    31  O    4.275870   4.915452   2.837149   4.879930   2.415263
    32  C    4.384584   6.313172   3.815040   3.968550   2.445370
    33  H    2.677155   4.769045   2.788332   1.962865   2.171967
    34  C    5.213237   6.921702   4.298995   5.029500   2.823497
    35  H    5.932969   7.137451   4.642037   6.133078   3.428536
    36  H    5.026519   7.056905   4.693396   4.407367   3.428832
    37  H    6.280667   8.011403   5.389976   6.035468   3.914594
                   26         27         28         29         30
    26  O    0.000000
    27  C    2.775001   0.000000
    28  C    3.678118   2.427778   0.000000
    29  H    1.464371   1.883033   3.727245   0.000000
    30  C    4.178327   1.403957   2.787495   3.188997   0.000000
    31  O    2.457392   1.347442   3.672210   1.048178   2.368671
    32  C    4.816513   2.805564   1.386547   4.522239   2.419553
    33  H    4.056248   3.424286   1.088836   4.446401   3.875956
    34  C    5.011540   2.421462   2.409313   4.304151   1.387003
    35  H    4.796698   2.143048   3.877059   3.572171   1.089992
    36  H    5.785063   3.895098   2.150842   5.591181   3.406554
    37  H    6.077299   3.410242   3.396166   5.281504   2.150864
                   31         32         33         34         35
    31  O    0.000000
    32  C    4.152580   0.000000
    33  H    4.575488   2.127677   0.000000
    34  C    3.638560   1.401418   3.385262   0.000000
    35  H    2.573444   3.418366   4.965671   2.168140   0.000000
    36  H    5.242008   1.089611   2.445109   2.166112   4.322181
    37  H    4.517201   2.160455   4.278833   1.091176   2.504878
                   36         37
    36  H    0.000000
    37  H    2.491031   0.000000
 Symmetry turned off by external request.
 Stoichiometry    C17H17NO2
 Framework group  C1[X(C17H17NO2)]
 Deg. of freedom   105
 Full point group                 C1      NOp   1
 Rotational constants (GHZ):      1.0904249      0.1072611      0.0979095
 Leave Link  202 at Wed Nov  1 19:18:17 2017, MaxMem=  3758096384 cpu:         0.2
 (Enter /share/apps/gaussian/g09_D01/g09/l301.exe)
 Standard basis: STO-3G (5D, 7F)
 Ernie: Thresh=  0.10000D-02 Tol=  0.10000D-05 Strict=F.
   117 basis functions,   351 primitive gaussians,   117 cartesian basis functions
    71 alpha electrons       71 beta electrons
       nuclear repulsion energy      1358.4109231705 Hartrees.
 IExCor=    0 DFT=F Ex=HF Corr=None ExCW=0 ScaHFX=  1.000000
 ScaDFX=  1.000000  1.000000  1.000000  1.000000 ScalE2=  1.000000  1.000000
 IRadAn=      0 IRanWt=     -1 IRanGd=            0 ICorTp=0 IEmpDi=  4
 NAtoms=   37 NActive=   37 NUniq=   37 SFac= 1.00D+00 NAtFMM=   60 NAOKFM=F Big=F
 Integral buffers will be    131072 words long.
 Raffenetti 1 integral format.
 Two-electron integral symmetry is turned off.
 Leave Link  301 at Wed Nov  1 19:18:18 2017, MaxMem=  3758096384 cpu:         0.2
 (Enter /share/apps/gaussian/g09_D01/g09/l302.exe)
 NPDir=0 NMtPBC=     1 NCelOv=     1 NCel=       1 NClECP=     1 NCelD=      1
         NCelK=      1 NCelE2=     1 NClLst=     1 CellRange=     0.0.
 One-electron integrals computed using PRISM.
 NBasis=   117 RedAO= T EigKep=  1.75D-01  NBF=   117
 NBsUse=   117 1.00D-06 EigRej= -1.00D+00 NBFU=   117
 Leave Link  302 at Wed Nov  1 19:18:19 2017, MaxMem=  3758096384 cpu:         2.4
 (Enter /share/apps/gaussian/g09_D01/g09/l308.exe)
 Leave Link  308 at Wed Nov  1 19:18:19 2017, MaxMem=  3758096384 cpu:         0.4
 (Enter /share/apps/gaussian/g09_D01/g09/l303.exe)
 DipDrv:  MaxL=1.
 Leave Link  303 at Wed Nov  1 19:18:19 2017, MaxMem=  3758096384 cpu:         0.5
 (Enter /share/apps/gaussian/g09_D01/g09/l401.exe)
 ExpMin= 1.69D-01 ExpMax= 1.31D+02 ExpMxC= 1.31D+02 IAcc=1 IRadAn=         1 AccDes= 0.00D+00
 Harris functional with IExCor=  205 and IRadAn=       1 diagonalized for initial guess.
 HarFok:  IExCor=  205 AccDes= 0.00D+00 IRadAn=         1 IDoV= 1 UseB2=F ITyADJ=14
 ICtDFT=  3500011 ScaDFX=  1.000000  1.000000  1.000000  1.000000
 FoFCou: FMM=F IPFlag=           0 FMFlag=      100000 FMFlg1=           0
         NFxFlg=           0 DoJE=T BraDBF=F KetDBF=T FulRan=T
         wScrn=  0.000000 ICntrl=     500 IOpCl=  0 I1Cent=   200000004 NGrid=           0
         NMat0=    1 NMatS0=      1 NMatT0=    0 NMatD0=    1 NMtDS0=    0 NMtDT0=    0
 Symmetry not used in FoFCou.
 Harris En= -848.038312225910    
 JPrj=0 DoOrth=F DoCkMO=F.
 Leave Link  401 at Wed Nov  1 19:18:22 2017, MaxMem=  3758096384 cpu:         5.4
 (Enter /share/apps/gaussian/g09_D01/g09/l502.exe)
 Closed shell SCF:
 Using DIIS extrapolation, IDIIS=  1040.
 Two-electron integral symmetry not used.
 Keep R1 ints in memory in canonical form, NReq=24801506.
 IVT=       61095 IEndB=       61095 NGot=  3758096384 MDV=  3734206134
 LenX=  3734206134 LenY=  3734192004
 Requested convergence on RMS density matrix=1.00D-08 within 128 cycles.
 Requested convergence on MAX density matrix=1.00D-06.
 Requested convergence on             energy=1.00D-06.
 No special actions if energy rises.
 FoFCou: FMM=F IPFlag=           0 FMFlag=           0 FMFlg1=           0
         NFxFlg=           0 DoJE=F BraDBF=F KetDBF=F FulRan=T
         wScrn=  0.000000 ICntrl=     600 IOpCl=  0 I1Cent=           0 NGrid=           0
         NMat0=    1 NMatS0=   6903 NMatT0=    0 NMatD0=    1 NMtDS0=    0 NMtDT0=    0
 Symmetry not used in FoFCou.

 Cycle   1  Pass 1  IDiag  1:
 E= -846.821200056152    
 DIIS: error= 4.66D-02 at cycle   1 NSaved=   1.
 NSaved= 1 IEnMin= 1 EnMin= -846.821200056152     IErMin= 1 ErrMin= 4.66D-02
 ErrMax= 4.66D-02  0.00D+00 EMaxC= 1.00D-01 BMatC= 3.31D-01 BMatP= 3.31D-01
 IDIUse=3 WtCom= 5.34D-01 WtEn= 4.66D-01
 Coeff-Com:  0.100D+01
 Coeff-En:   0.100D+01
 Coeff:      0.100D+01
 Gap=     0.375 Goal=   None    Shift=    0.000
 GapD=    0.375 DampG=1.000 DampE=0.500 DampFc=0.5000 IDamp=-1.
 Damping current iteration by 5.00D-01
 RMSDP=6.60D-03 MaxDP=1.21D-01              OVMax= 0.00D+00

 Cycle   2  Pass 1  IDiag  1:
 E= -846.969081751455     Delta-E=       -0.147881695302 Rises=F Damp=T
 DIIS: error= 2.51D-02 at cycle   2 NSaved=   2.
 NSaved= 2 IEnMin= 2 EnMin= -846.969081751455     IErMin= 2 ErrMin= 2.51D-02
 ErrMax= 2.51D-02  0.00D+00 EMaxC= 1.00D-01 BMatC= 7.98D-02 BMatP= 3.31D-01
 IDIUse=3 WtCom= 7.49D-01 WtEn= 2.51D-01
 Coeff-Com: -0.794D+00 0.179D+01
 Coeff-En:   0.000D+00 0.100D+01
 Coeff:     -0.594D+00 0.159D+01
 Gap=     0.346 Goal=   None    Shift=    0.000
 RMSDP=2.99D-03 MaxDP=4.10D-02 DE=-1.48D-01 OVMax= 0.00D+00

 Cycle   3  Pass 1  IDiag  1:
 E= -847.120232121489     Delta-E=       -0.151150370034 Rises=F Damp=F
 DIIS: error= 5.41D-03 at cycle   3 NSaved=   3.
 NSaved= 3 IEnMin= 3 EnMin= -847.120232121489     IErMin= 3 ErrMin= 5.41D-03
 ErrMax= 5.41D-03  0.00D+00 EMaxC= 1.00D-01 BMatC= 1.40D-03 BMatP= 7.98D-02
 IDIUse=3 WtCom= 9.46D-01 WtEn= 5.41D-02
 Coeff-Com: -0.105D+00 0.169D+00 0.935D+00
 Coeff-En:   0.000D+00 0.000D+00 0.100D+01
 Coeff:     -0.989D-01 0.160D+00 0.939D+00
 Gap=     0.349 Goal=   None    Shift=    0.000
 RMSDP=7.69D-04 MaxDP=1.08D-02 DE=-1.51D-01 OVMax= 0.00D+00

 Cycle   4  Pass 1  IDiag  1:
 E= -847.124134909742     Delta-E=       -0.003902788253 Rises=F Damp=F
 DIIS: error= 2.02D-03 at cycle   4 NSaved=   4.
 NSaved= 4 IEnMin= 4 EnMin= -847.124134909742     IErMin= 4 ErrMin= 2.02D-03
 ErrMax= 2.02D-03  0.00D+00 EMaxC= 1.00D-01 BMatC= 3.00D-04 BMatP= 1.40D-03
 IDIUse=3 WtCom= 9.80D-01 WtEn= 2.02D-02
 Coeff-Com:  0.533D-01-0.117D+00 0.682D-01 0.995D+00
 Coeff-En:   0.000D+00 0.000D+00 0.000D+00 0.100D+01
 Coeff:      0.522D-01-0.114D+00 0.668D-01 0.995D+00
 Gap=     0.351 Goal=   None    Shift=    0.000
 RMSDP=3.41D-04 MaxDP=4.98D-03 DE=-3.90D-03 OVMax= 0.00D+00

 Cycle   5  Pass 1  IDiag  1:
 E= -847.125010159987     Delta-E=       -0.000875250245 Rises=F Damp=F
 DIIS: error= 7.59D-04 at cycle   5 NSaved=   5.
 NSaved= 5 IEnMin= 5 EnMin= -847.125010159987     IErMin= 5 ErrMin= 7.59D-04
 ErrMax= 7.59D-04  0.00D+00 EMaxC= 1.00D-01 BMatC= 5.41D-05 BMatP= 3.00D-04
 IDIUse=3 WtCom= 9.92D-01 WtEn= 7.59D-03
 Coeff-Com:  0.357D-01-0.625D-01-0.196D+00 0.409D-01 0.118D+01
 Coeff-En:   0.000D+00 0.000D+00 0.000D+00 0.000D+00 0.100D+01
 Coeff:      0.354D-01-0.621D-01-0.194D+00 0.406D-01 0.118D+01
 Gap=     0.354 Goal=   None    Shift=    0.000
 RMSDP=2.36D-04 MaxDP=3.57D-03 DE=-8.75D-04 OVMax= 0.00D+00

 Cycle   6  Pass 1  IDiag  1:
 E= -847.125230324628     Delta-E=       -0.000220164641 Rises=F Damp=F
 DIIS: error= 1.78D-04 at cycle   6 NSaved=   6.
 NSaved= 6 IEnMin= 6 EnMin= -847.125230324628     IErMin= 6 ErrMin= 1.78D-04
 ErrMax= 1.78D-04  0.00D+00 EMaxC= 1.00D-01 BMatC= 3.70D-06 BMatP= 5.41D-05
 IDIUse=3 WtCom= 9.98D-01 WtEn= 1.78D-03
 Coeff-Com: -0.795D-03 0.287D-02-0.982D-02-0.687D-01 0.104D+00 0.972D+00
 Coeff-En:   0.000D+00 0.000D+00 0.000D+00 0.000D+00 0.000D+00 0.100D+01
 Coeff:     -0.794D-03 0.287D-02-0.981D-02-0.686D-01 0.104D+00 0.972D+00
 Gap=     0.354 Goal=   None    Shift=    0.000
 RMSDP=4.33D-05 MaxDP=8.06D-04 DE=-2.20D-04 OVMax= 0.00D+00

 Cycle   7  Pass 1  IDiag  1:
 E= -847.125241910359     Delta-E=       -0.000011585731 Rises=F Damp=F
 DIIS: error= 1.32D-04 at cycle   7 NSaved=   7.
 NSaved= 7 IEnMin= 7 EnMin= -847.125241910359     IErMin= 7 ErrMin= 1.32D-04
 ErrMax= 1.32D-04  0.00D+00 EMaxC= 1.00D-01 BMatC= 8.85D-07 BMatP= 3.70D-06
 IDIUse=3 WtCom= 9.99D-01 WtEn= 1.32D-03
 Coeff-Com: -0.435D-02 0.745D-02 0.304D-01-0.670D-02-0.172D+00 0.345D-01
 Coeff-Com:  0.111D+01
 Coeff-En:   0.000D+00 0.000D+00 0.000D+00 0.000D+00 0.000D+00 0.000D+00
 Coeff-En:   0.100D+01
 Coeff:     -0.434D-02 0.744D-02 0.304D-01-0.669D-02-0.172D+00 0.344D-01
 Coeff:      0.111D+01
 Gap=     0.354 Goal=   None    Shift=    0.000
 RMSDP=2.35D-05 MaxDP=6.26D-04 DE=-1.16D-05 OVMax= 0.00D+00

 Cycle   8  Pass 1  IDiag  1:
 E= -847.125245240101     Delta-E=       -0.000003329742 Rises=F Damp=F
 DIIS: error= 3.90D-05 at cycle   8 NSaved=   8.
 NSaved= 8 IEnMin= 8 EnMin= -847.125245240101     IErMin= 8 ErrMin= 3.90D-05
 ErrMax= 3.90D-05  0.00D+00 EMaxC= 1.00D-01 BMatC= 2.45D-07 BMatP= 8.85D-07
 IDIUse=1 WtCom= 1.00D+00 WtEn= 0.00D+00
 Coeff-Com: -0.200D-03-0.587D-04 0.792D-02 0.140D-01-0.587D-01-0.196D+00
 Coeff-Com:  0.147D+00 0.109D+01
 Coeff:     -0.200D-03-0.587D-04 0.792D-02 0.140D-01-0.587D-01-0.196D+00
 Coeff:      0.147D+00 0.109D+01
 Gap=     0.354 Goal=   None    Shift=    0.000
 RMSDP=1.43D-05 MaxDP=3.57D-04 DE=-3.33D-06 OVMax= 0.00D+00

 Cycle   9  Pass 1  IDiag  1:
 E= -847.125246151403     Delta-E=       -0.000000911302 Rises=F Damp=F
 DIIS: error= 2.78D-05 at cycle   9 NSaved=   9.
 NSaved= 9 IEnMin= 9 EnMin= -847.125246151403     IErMin= 9 ErrMin= 2.78D-05
 ErrMax= 2.78D-05  0.00D+00 EMaxC= 1.00D-01 BMatC= 2.95D-08 BMatP= 2.45D-07
 IDIUse=1 WtCom= 1.00D+00 WtEn= 0.00D+00
 Coeff-Com:  0.108D-02-0.188D-02-0.664D-02 0.305D-02 0.380D-01 0.345D-02
 Coeff-Com: -0.246D+00-0.424D-01 0.125D+01
 Coeff:      0.108D-02-0.188D-02-0.664D-02 0.305D-02 0.380D-01 0.345D-02
 Coeff:     -0.246D+00-0.424D-01 0.125D+01
 Gap=     0.354 Goal=   None    Shift=    0.000
 RMSDP=6.28D-06 MaxDP=1.72D-04 DE=-9.11D-07 OVMax= 0.00D+00

 Cycle  10  Pass 1  IDiag  1:
 E= -847.125246305747     Delta-E=       -0.000000154344 Rises=F Damp=F
 DIIS: error= 5.77D-06 at cycle  10 NSaved=  10.
 NSaved=10 IEnMin=10 EnMin= -847.125246305747     IErMin=10 ErrMin= 5.77D-06
 ErrMax= 5.77D-06  0.00D+00 EMaxC= 1.00D-01 BMatC= 3.62D-09 BMatP= 2.95D-08
 IDIUse=1 WtCom= 1.00D+00 WtEn= 0.00D+00
 Coeff-Com:  0.146D-03-0.220D-03-0.144D-02-0.236D-04 0.890D-02 0.147D-01
 Coeff-Com: -0.435D-01-0.127D+00 0.176D+00 0.972D+00
 Coeff:      0.146D-03-0.220D-03-0.144D-02-0.236D-04 0.890D-02 0.147D-01
 Coeff:     -0.435D-01-0.127D+00 0.176D+00 0.972D+00
 Gap=     0.354 Goal=   None    Shift=    0.000
 RMSDP=1.65D-06 MaxDP=3.32D-05 DE=-1.54D-07 OVMax= 0.00D+00

 Cycle  11  Pass 1  IDiag  1:
 E= -847.125246317328     Delta-E=       -0.000000011581 Rises=F Damp=F
 DIIS: error= 3.01D-06 at cycle  11 NSaved=  11.
 NSaved=11 IEnMin=11 EnMin= -847.125246317328     IErMin=11 ErrMin= 3.01D-06
 ErrMax= 3.01D-06  0.00D+00 EMaxC= 1.00D-01 BMatC= 4.07D-10 BMatP= 3.62D-09
 IDIUse=1 WtCom= 1.00D+00 WtEn= 0.00D+00
 Coeff-Com: -0.156D-03 0.267D-03 0.984D-03-0.238D-03-0.620D-02-0.216D-03
 Coeff-Com:  0.394D-01 0.402D-02-0.177D+00-0.831D-02 0.115D+01
 Coeff:     -0.156D-03 0.267D-03 0.984D-03-0.238D-03-0.620D-02-0.216D-03
 Coeff:      0.394D-01 0.402D-02-0.177D+00-0.831D-02 0.115D+01
 Gap=     0.354 Goal=   None    Shift=    0.000
 RMSDP=5.04D-07 MaxDP=7.95D-06 DE=-1.16D-08 OVMax= 0.00D+00

 Cycle  12  Pass 1  IDiag  1:
 E= -847.125246318702     Delta-E=       -0.000000001375 Rises=F Damp=F
 DIIS: error= 6.89D-07 at cycle  12 NSaved=  12.
 NSaved=12 IEnMin=12 EnMin= -847.125246318702     IErMin=12 ErrMin= 6.89D-07
 ErrMax= 6.89D-07  0.00D+00 EMaxC= 1.00D-01 BMatC= 4.28D-11 BMatP= 4.07D-10
 IDIUse=1 WtCom= 1.00D+00 WtEn= 0.00D+00
 Coeff-Com: -0.401D-05 0.344D-05 0.130D-03 0.283D-04-0.828D-03-0.104D-02
 Coeff-Com:  0.205D-02 0.127D-01-0.939D-02-0.772D-01-0.188D+00 0.126D+01
 Coeff:     -0.401D-05 0.344D-05 0.130D-03 0.283D-04-0.828D-03-0.104D-02
 Coeff:      0.205D-02 0.127D-01-0.939D-02-0.772D-01-0.188D+00 0.126D+01
 Gap=     0.354 Goal=   None    Shift=    0.000
 RMSDP=1.95D-07 MaxDP=3.29D-06 DE=-1.37D-09 OVMax= 0.00D+00

 Cycle  13  Pass 1  IDiag  1:
 E= -847.125246318881     Delta-E=       -0.000000000178 Rises=F Damp=F
 DIIS: error= 3.54D-07 at cycle  13 NSaved=  13.
 NSaved=13 IEnMin=13 EnMin= -847.125246318881     IErMin=13 ErrMin= 3.54D-07
 ErrMax= 3.54D-07  0.00D+00 EMaxC= 1.00D-01 BMatC= 6.14D-12 BMatP= 4.28D-11
 IDIUse=1 WtCom= 1.00D+00 WtEn= 0.00D+00
 Coeff-Com:  0.143D-04-0.250D-04-0.713D-04 0.102D-04 0.511D-03 0.149D-03
 Coeff-Com: -0.361D-02-0.682D-03 0.134D-01 0.139D-01-0.130D+00 0.353D-02
 Coeff-Com:  0.110D+01
 Coeff:      0.143D-04-0.250D-04-0.713D-04 0.102D-04 0.511D-03 0.149D-03
 Coeff:     -0.361D-02-0.682D-03 0.134D-01 0.139D-01-0.130D+00 0.353D-02
 Coeff:      0.110D+01
 Gap=     0.354 Goal=   None    Shift=    0.000
 RMSDP=6.19D-08 MaxDP=1.27D-06 DE=-1.78D-10 OVMax= 0.00D+00

 Cycle  14  Pass 1  IDiag  1:
 E= -847.125246318902     Delta-E=       -0.000000000021 Rises=F Damp=F
 DIIS: error= 8.50D-08 at cycle  14 NSaved=  14.
 NSaved=14 IEnMin=14 EnMin= -847.125246318902     IErMin=14 ErrMin= 8.50D-08
 ErrMax= 8.50D-08  0.00D+00 EMaxC= 1.00D-01 BMatC= 9.63D-13 BMatP= 6.14D-12
 IDIUse=1 WtCom= 1.00D+00 WtEn= 0.00D+00
 Coeff-Com:  0.533D-06-0.521D-06-0.143D-04-0.130D-04 0.117D-03 0.190D-03
 Coeff-Com: -0.224D-03-0.181D-02 0.817D-04 0.168D-01 0.328D-01-0.208D+00
 Coeff-Com: -0.989D-01 0.126D+01
 Coeff:      0.533D-06-0.521D-06-0.143D-04-0.130D-04 0.117D-03 0.190D-03
 Coeff:     -0.224D-03-0.181D-02 0.817D-04 0.168D-01 0.328D-01-0.208D+00
 Coeff:     -0.989D-01 0.126D+01
 Gap=     0.354 Goal=   None    Shift=    0.000
 RMSDP=2.92D-08 MaxDP=4.74D-07 DE=-2.14D-11 OVMax= 0.00D+00

 Cycle  15  Pass 1  IDiag  1:
 E= -847.125246318896     Delta-E=        0.000000000006 Rises=F Damp=F
 DIIS: error= 3.98D-08 at cycle  15 NSaved=  15.
 NSaved=15 IEnMin=14 EnMin= -847.125246318902     IErMin=15 ErrMin= 3.98D-08
 ErrMax= 3.98D-08  0.00D+00 EMaxC= 1.00D-01 BMatC= 8.20D-14 BMatP= 9.63D-13
 IDIUse=1 WtCom= 1.00D+00 WtEn= 0.00D+00
 Coeff-Com: -0.107D-05 0.176D-05 0.776D-05-0.654D-06-0.530D-04-0.335D-04
 Coeff-Com:  0.356D-03 0.215D-03-0.169D-02-0.152D-02 0.112D-01 0.103D-01
 Coeff-Com: -0.106D+00-0.588D-01 0.115D+01
 Coeff:     -0.107D-05 0.176D-05 0.776D-05-0.654D-06-0.530D-04-0.335D-04
 Coeff:      0.356D-03 0.215D-03-0.169D-02-0.152D-02 0.112D-01 0.103D-01
 Coeff:     -0.106D+00-0.588D-01 0.115D+01
 Gap=     0.354 Goal=   None    Shift=    0.000
 RMSDP=8.34D-09 MaxDP=1.40D-07 DE= 6.37D-12 OVMax= 0.00D+00

 SCF Done:  E(RHF) =  -847.125246319     A.U. after   15 cycles
            NFock= 15  Conv=0.83D-08     -V/T= 2.0090
 KE= 8.395922373013D+02 PE=-4.697748814133D+03 EE= 1.652620407342D+03
 Leave Link  502 at Wed Nov  1 19:18:36 2017, MaxMem=  3758096384 cpu:        26.9
 (Enter /share/apps/gaussian/g09_D01/g09/l801.exe)
 ExpMin= 1.69D-01 ExpMax= 1.31D+02 ExpMxC= 1.31D+02 IAcc=3 IRadAn=         5 AccDes= 0.00D+00
 HarFok:  IExCor=  205 AccDes= 0.00D+00 IRadAn=         5 IDoV=-2 UseB2=F ITyADJ=14
 ICtDFT= 12500011 ScaDFX=  1.000000  1.000000  1.000000  1.000000
 Largest valence mixing into a core orbital is  1.87D-04
 Largest core mixing into a valence orbital is  3.36D-04
 Range of M.O.s used for correlation:    21   117
 NBasis=   117 NAE=    71 NBE=    71 NFC=    20 NFV=     0
 NROrb=     97 NOA=    51 NOB=    51 NVA=    46 NVB=    46
 Leave Link  801 at Wed Nov  1 19:18:39 2017, MaxMem=  3758096384 cpu:         5.0
 (Enter /share/apps/gaussian/g09_D01/g09/l914.exe)
 RHF ground state
 MDV=  3758096384 DFT=F DoStab=F Mixed=F DoRPA=T DoScal=F NonHer=T
 Keep R1, R2, and R3 ints in memory in canonical form, NReq=72310121.
 FoFCou: FMM=F IPFlag=           0 FMFlag=           0 FMFlg1=           0
         NFxFlg=           0 DoJE=F BraDBF=F KetDBF=F FulRan=T
         wScrn=  0.000000 ICntrl=     600 IOpCl=  0 I1Cent=           0 NGrid=           0
         NMat0=    1 NMatS0=   6903 NMatT0=    0 NMatD0=    1 NMtDS0=    0 NMtDT0=    0
 Symmetry not used in FoFCou.
 Making orbital integer symmetry assigments:
     8 initial guesses have been made.
 Convergence on wavefunction:    0.001000000000000
 Davidson Disk Diagonalization:  ConvIn= 1.00D-03 SkipCon=T Conv= 1.00D-03.
 Max sub-space:   200 roots to seek:     8 dimension of matrix:         4692
 Iteration     1 Dimension     8 NMult     0 NNew      8
 CISAX will form     8 AO SS matrices at one time.
 NMat=     8 NSing=     8 JSym2X= 0.
 New state      2 was old state      6
 Excitation Energies [eV] at current iteration:
 Root      1 :     5.796145579035242
 Root      2 :     6.139101702907509
 Root      3 :     6.531553048440802
 Root      4 :     8.380835298288243
 Root      5 :     8.805003771125383
 Root      6 :     8.851296815590487
 Root      7 :     9.152948110674846
 Root      8 :     9.215326603520346
 Iteration     2 Dimension    12 NMult     8 NNew      4
 CISAX will form     4 AO SS matrices at one time.
 NMat=     4 NSing=     4 JSym2X= 0.
 New state      1 was old state      2
 Root      1 not converged, maximum delta is    0.211847960148779
 New state      2 was old state      1
 Root      2 not converged, maximum delta is    0.081340039440841
 Excitation Energies [eV] at current iteration:
 Root      1 :     3.991981122661618   Change is   -2.147120580245891
 Root      2 :     5.171161715661432   Change is   -0.624983863373810
 Iteration     3 Dimension    16 NMult    12 NNew      4
 CISAX will form     4 AO SS matrices at one time.
 NMat=     4 NSing=     4 JSym2X= 0.
 Root      1 not converged, maximum delta is    0.048202903936791
 Root      2 not converged, maximum delta is    0.039308302487221
 Excitation Energies [eV] at current iteration:
 Root      1 :     3.822702507649578   Change is   -0.169278615012040
 Root      2 :     5.094674512833244   Change is   -0.076487202828189
 Iteration     4 Dimension    20 NMult    16 NNew      4
 CISAX will form     4 AO SS matrices at one time.
 NMat=     4 NSing=     4 JSym2X= 0.
 Root      1 not converged, maximum delta is    0.008382309408687
 Root      2 not converged, maximum delta is    0.019202557251153
 Excitation Energies [eV] at current iteration:
 Root      1 :     3.809842213896639   Change is   -0.012860293752939
 Root      2 :     5.077097133262948   Change is   -0.017577379570295
 Iteration     5 Dimension    24 NMult    20 NNew      4
 CISAX will form     4 AO SS matrices at one time.
 NMat=     4 NSing=     4 JSym2X= 0.
 Root      1 not converged, maximum delta is    0.002674549407458
 Root      2 not converged, maximum delta is    0.013015890677798
 Excitation Energies [eV] at current iteration:
 Root      1 :     3.808212521789637   Change is   -0.001629692107002
 Root      2 :     5.073108894518445   Change is   -0.003988238744503
 Iteration     6 Dimension    28 NMult    24 NNew      4
 CISAX will form     4 AO SS matrices at one time.
 NMat=     4 NSing=     4 JSym2X= 0.
 Root      1 not converged, maximum delta is    0.001056298123317
 Root      2 not converged, maximum delta is    0.008648685979615
 Excitation Energies [eV] at current iteration:
 Root      1 :     3.807941607122844   Change is   -0.000270914666793
 Root      2 :     5.071951068397079   Change is   -0.001157826121365
 Iteration     7 Dimension    32 NMult    28 NNew      4
 CISAX will form     4 AO SS matrices at one time.
 NMat=     4 NSing=     4 JSym2X= 0.
 Root      1 has converged.
 Root      2 not converged, maximum delta is    0.004703041849160
 Excitation Energies [eV] at current iteration:
 Root      1 :     3.807909204863318   Change is   -0.000032402259526
 Root      2 :     5.071648764233754   Change is   -0.000302304163326
 Iteration     8 Dimension    34 NMult    32 NNew      2
 CISAX will form     2 AO SS matrices at one time.
 NMat=     2 NSing=     2 JSym2X= 0.
 Root      1 has converged.
 Root      2 not converged, maximum delta is    0.001786433172936
 Excitation Energies [eV] at current iteration:
 Root      1 :     3.807909188430146   Change is   -0.000000016433172
 Root      2 :     5.071589186141638   Change is   -0.000059578092116
 Iteration     9 Dimension    36 NMult    34 NNew      2
 CISAX will form     2 AO SS matrices at one time.
 NMat=     2 NSing=     2 JSym2X= 0.
 Root      1 has converged.
 Root      2 has converged.
 Excitation Energies [eV] at current iteration:
 Root      1 :     3.807909176391640   Change is   -0.000000012038506
 Root      2 :     5.071576835956797   Change is   -0.000012350184841
 Convergence achieved on expansion vectors.
 ***********************************************************************
 Excited states from <AA,BB:AA,BB> singles matrix:
 ***********************************************************************
 
 1PDM for each excited state written to RWF  633
 Ground to excited state transition densities written to RWF  633
 Ground to excited state transition electric dipole moments (Au):
       state          X           Y           Z        Dip. S.      Osc.
         1         0.0441      0.0071     -0.0174      0.0023      0.0002
         2        -3.3089     -0.2720      1.3083     12.7346      1.5823
 Ground to excited state transition velocity dipole moments (Au):
       state          X           Y           Z        Dip. S.      Osc.
         1        -0.0029     -0.0030      0.0036      0.0000      0.0001
         2         0.3800      0.0341     -0.1437      0.1662      0.5945
 Ground to excited state transition magnetic dipole moments (Au):
       state          X           Y           Z
         1        -0.0075      0.3853      0.5749
         2         1.3313     -1.4879      3.2522
 Ground to excited state transition velocity quadrupole moments (Au):
       state          XX          YY          ZZ          XY          XZ          YZ
         1        -0.0107      0.0539     -0.0626     -0.0155      0.0355      0.0020
         2         3.4624     -0.5221      1.2364     -2.4258     -2.2427      0.8500
 <0|del|b> * <b|rxdel|0> + <0|del|b> * <b|delr+rdel|0>
 Rotatory Strengths (R) in cgs (10**-40 erg-esu-cm/Gauss)
       state          XX          YY          ZZ    R(velocity)    E-M Angle
         1         2.4977      5.4804     -3.1261      1.6173       75.55
         2      -176.4764     24.0901    105.4194    -15.6556       90.46
 1/2[<0|r|b>*<b|rxdel|0> + (<0|rxdel|b>*<b|r|0>)*]
 Rotatory Strengths (R) in cgs (10**-40 erg-esu-cm/Gauss)
       state          XX          YY          ZZ     R(length)
         1         0.2353     -1.9336      7.0900      1.7972
         2      3115.1532   -286.1627  -3008.9101    -59.9732
  1/2[<0|del|b>*<b|r|0> + (<0|r|b>*<b|del|0>)*] (Au)
       state          X           Y           Z        Dip. S.   Osc.(frdel)
         1        -0.0001      0.0000     -0.0001      0.0002      0.0001
         2        -1.2573     -0.0093     -0.1881      1.4547      0.9698

 Excitation energies and oscillator strengths:
 
 Excited state symmetry could not be determined.
 Excited State   1:      Singlet-?Sym    3.8079 eV  325.60 nm  f=0.0002  <S**2>=0.000
      63 -> 72         0.14594
      67 -> 72         0.58087
      67 -> 73        -0.19273
      67 -> 76        -0.17599
      67 -> 77        -0.16946
 This state for optimization and/or second-order correction.
 Total Energy, E(TD-HF/TD-KS) =  -846.985308225    
 Copying the excited state density for this state as the 1-particle RhoCI density.
 
 Excited state symmetry could not be determined.
 Excited State   2:      Singlet-?Sym    5.0716 eV  244.47 nm  f=1.5823  <S**2>=0.000
      66 -> 72         0.15058
      70 -> 73         0.10561
      71 -> 72         0.64158
      71 -> 73         0.16755
 SavETr:  write IOETrn=   770 NScale= 10 NData=  16 NLR=1 NState=    2 LETran=      46.
 Leave Link  914 at Wed Nov  1 19:18:53 2017, MaxMem=  3758096384 cpu:        29.0
 (Enter /share/apps/gaussian/g09_D01/g09/l601.exe)
 Copying SCF densities to generalized density rwf, IOpCl= 0 IROHF=0.

 **********************************************************************

            Population analysis using the SCF density.

 **********************************************************************

 Alpha  occ. eigenvalues --  -20.23957 -20.22941 -15.37561 -11.12448 -11.10560
 Alpha  occ. eigenvalues --  -11.10505 -11.10471 -11.08696 -11.05806 -11.04498
 Alpha  occ. eigenvalues --  -11.04414 -11.03505 -11.03461 -11.02882 -11.02025
 Alpha  occ. eigenvalues --  -11.01931 -11.01571 -11.01325 -11.00815 -11.00494
 Alpha  occ. eigenvalues --   -1.31288  -1.26644  -1.21908  -1.09512  -1.07698
 Alpha  occ. eigenvalues --   -1.02164  -0.97444  -0.97212  -0.94392  -0.94017
 Alpha  occ. eigenvalues --   -0.92920  -0.87346  -0.81642  -0.78470  -0.77467
 Alpha  occ. eigenvalues --   -0.74500  -0.72717  -0.68432  -0.67034  -0.64445
 Alpha  occ. eigenvalues --   -0.61894  -0.61790  -0.60967  -0.60150  -0.58389
 Alpha  occ. eigenvalues --   -0.56849  -0.55417  -0.54717  -0.54666  -0.54051
 Alpha  occ. eigenvalues --   -0.52325  -0.51169  -0.50761  -0.50600  -0.49964
 Alpha  occ. eigenvalues --   -0.47955  -0.47107  -0.46646  -0.45711  -0.44661
 Alpha  occ. eigenvalues --   -0.44319  -0.42063  -0.39910  -0.39085  -0.38707
 Alpha  occ. eigenvalues --   -0.30471  -0.29847  -0.29647  -0.27326  -0.21778
 Alpha  occ. eigenvalues --   -0.19732
 Alpha virt. eigenvalues --    0.15663   0.23864   0.26956   0.29128   0.32302
 Alpha virt. eigenvalues --    0.41135   0.51268   0.53205   0.53548   0.56115
 Alpha virt. eigenvalues --    0.57272   0.58087   0.59598   0.62550   0.63120
 Alpha virt. eigenvalues --    0.64758   0.65915   0.66610   0.66928   0.67962
 Alpha virt. eigenvalues --    0.69372   0.69777   0.70210   0.70360   0.71647
 Alpha virt. eigenvalues --    0.72453   0.73626   0.74886   0.74945   0.76628
 Alpha virt. eigenvalues --    0.78194   0.82227   0.84332   0.86475   0.89246
 Alpha virt. eigenvalues --    0.89862   0.91206   0.92654   0.93724   0.95031
 Alpha virt. eigenvalues --    0.98999   1.03614   1.10059   1.11695   1.14447
 Alpha virt. eigenvalues --    1.15667
          Condensed to atoms (all electrons):
               1          2          3          4          5          6
     1  C    4.822824   0.483667   0.395850   0.524826  -0.027989  -0.027804
     2  C    0.483667   4.662212  -0.024434  -0.027782   0.486862   0.409877
     3  H    0.395850  -0.024434   0.605200  -0.026671   0.001147  -0.002091
     4  C    0.524826  -0.027782  -0.026671   4.755478  -0.010030   0.000539
     5  C   -0.027989   0.486862   0.001147  -0.010030   4.822892  -0.028107
     6  N   -0.027804   0.409877  -0.002091   0.000539  -0.028107   6.364933
     7  C   -0.029050  -0.009305   0.001347   0.488604  -0.028865   0.000019
     8  H   -0.026799   0.001382  -0.004591   0.391879   0.000029  -0.000009
     9  C   -0.010486  -0.028113   0.000041  -0.033321   0.522120   0.000548
    10  H    0.001155  -0.024609  -0.000032   0.000036   0.395572  -0.002158
    11  C    0.000991  -0.035488   0.000010  -0.000010  -0.006142   0.347919
    12  C   -0.006360  -0.036060  -0.002168   0.000037   0.001014   0.348407
    13  C    0.000811   0.000015  -0.000016  -0.025977   0.000902   0.000000
    14  H    0.000034   0.001367   0.000002   0.001343  -0.025822  -0.000009
    15  H    0.000018  -0.002089   0.000000   0.000000  -0.000467  -0.022357
    16  H   -0.000022   0.001574  -0.000001   0.000000   0.000105  -0.019127
    17  H    0.000004  -0.001361   0.000000   0.000000  -0.000321  -0.022871
    18  H   -0.000590  -0.001939  -0.001419   0.000020   0.000015  -0.022392
    19  H    0.000109   0.001588   0.000058  -0.000001  -0.000022  -0.019013
    20  H   -0.000316  -0.001608  -0.001230   0.000016   0.000009  -0.022991
    21  C    0.000020   0.000000   0.000000  -0.004118  -0.000007   0.000000
    22  H   -0.000018  -0.000001   0.000000   0.001208   0.000038   0.000000
    23  C    0.000000   0.000000   0.000000   0.000009   0.000000   0.000000
    24  H   -0.000004   0.000000   0.000002  -0.000782   0.000000   0.000000
    25  C    0.000000   0.000000   0.000000   0.000000   0.000000   0.000000
    26  O    0.000000   0.000000   0.000000   0.000000   0.000000   0.000000
    27  C    0.000000   0.000000   0.000000   0.000000   0.000000   0.000000
    28  C    0.000000   0.000000   0.000000   0.000000   0.000000   0.000000
    29  H    0.000000   0.000000   0.000000   0.000000   0.000000   0.000000
    30  C    0.000000   0.000000   0.000000   0.000000   0.000000   0.000000
    31  O    0.000000   0.000000   0.000000   0.000000   0.000000   0.000000
    32  C    0.000000   0.000000   0.000000   0.000000   0.000000   0.000000
    33  H    0.000000   0.000000   0.000000   0.000000   0.000000   0.000000
    34  C    0.000000   0.000000   0.000000   0.000000   0.000000   0.000000
    35  H    0.000000   0.000000   0.000000   0.000000   0.000000   0.000000
    36  H    0.000000   0.000000   0.000000   0.000000   0.000000   0.000000
    37  H    0.000000   0.000000   0.000000   0.000000   0.000000   0.000000
               7          8          9         10         11         12
     1  C   -0.029050  -0.026799  -0.010486   0.001155   0.000991  -0.006360
     2  C   -0.009305   0.001382  -0.028113  -0.024609  -0.035488  -0.036060
     3  H    0.001347  -0.004591   0.000041  -0.000032   0.000010  -0.002168
     4  C    0.488604   0.391879  -0.033321   0.000036  -0.000010   0.000037
     5  C   -0.028865   0.000029   0.522120   0.395572  -0.006142   0.001014
     6  N    0.000019  -0.000009   0.000548  -0.002158   0.347919   0.348407
     7  C    4.790586  -0.023990   0.492220   0.001332   0.000000   0.000000
     8  H   -0.023990   0.600141   0.001336   0.000002   0.000000   0.000000
     9  C    0.492220   0.001336   4.760438  -0.026126   0.000035  -0.000010
    10  H    0.001332   0.000002  -0.026126   0.604345  -0.002028   0.000011
    11  C    0.000000   0.000000   0.000035  -0.002028   4.649152  -0.032303
    12  C    0.000000   0.000000  -0.000010   0.000011  -0.032303   4.649771
    13  C    0.435478  -0.002883  -0.032000  -0.000017   0.000000   0.000000
    14  H   -0.025375  -0.000034   0.391875  -0.004277   0.000000   0.000000
    15  H   -0.000001   0.000000   0.000020  -0.001412   0.380906   0.001177
    16  H    0.000000   0.000000   0.000000   0.000055   0.384398  -0.006225
    17  H   -0.000001   0.000000   0.000013  -0.001114   0.380397   0.001099
    18  H   -0.000001   0.000001   0.000000   0.000000   0.001179   0.380937
    19  H    0.000000   0.000000   0.000000  -0.000001  -0.006182   0.384413
    20  H   -0.000001   0.000001   0.000000   0.000000   0.001097   0.380512
    21  C   -0.024947  -0.000828   0.000762   0.000000   0.000000   0.000000
    22  H   -0.026441   0.000008  -0.004881  -0.000002   0.000000   0.000000
    23  C    0.000808  -0.000002  -0.000007   0.000000   0.000000   0.000000
    24  H   -0.003124  -0.000621   0.000006   0.000000   0.000000   0.000000
    25  C   -0.000005   0.000001   0.000000   0.000000   0.000000   0.000000
    26  O    0.000002   0.000000   0.000000   0.000000   0.000000   0.000000
    27  C    0.000000   0.000000   0.000000   0.000000   0.000000   0.000000
    28  C    0.000000   0.000000   0.000000   0.000000   0.000000   0.000000
    29  H    0.000000   0.000000   0.000000   0.000000   0.000000   0.000000
    30  C    0.000000   0.000000   0.000000   0.000000   0.000000   0.000000
    31  O    0.000000   0.000000   0.000000   0.000000   0.000000   0.000000
    32  C    0.000000   0.000000   0.000000   0.000000   0.000000   0.000000
    33  H    0.000002  -0.000006   0.000000   0.000000   0.000000   0.000000
    34  C    0.000000   0.000000   0.000000   0.000000   0.000000   0.000000
    35  H    0.000000   0.000000   0.000000   0.000000   0.000000   0.000000
    36  H    0.000000   0.000000   0.000000   0.000000   0.000000   0.000000
    37  H    0.000000   0.000000   0.000000   0.000000   0.000000   0.000000
              13         14         15         16         17         18
     1  C    0.000811   0.000034   0.000018  -0.000022   0.000004  -0.000590
     2  C    0.000015   0.001367  -0.002089   0.001574  -0.001361  -0.001939
     3  H   -0.000016   0.000002   0.000000  -0.000001   0.000000  -0.001419
     4  C   -0.025977   0.001343   0.000000   0.000000   0.000000   0.000020
     5  C    0.000902  -0.025822  -0.000467   0.000105  -0.000321   0.000015
     6  N    0.000000  -0.000009  -0.022357  -0.019127  -0.022871  -0.022392
     7  C    0.435478  -0.025375  -0.000001   0.000000  -0.000001  -0.000001
     8  H   -0.002883  -0.000034   0.000000   0.000000   0.000000   0.000001
     9  C   -0.032000   0.391875   0.000020   0.000000   0.000013   0.000000
    10  H   -0.000017  -0.004277  -0.001412   0.000055  -0.001114   0.000000
    11  C    0.000000   0.000000   0.380906   0.384398   0.380397   0.001179
    12  C    0.000000   0.000000   0.001177  -0.006225   0.001099   0.380937
    13  C    4.745399  -0.004236   0.000000   0.000000   0.000000   0.000000
    14  H   -0.004236   0.599791   0.000001   0.000000   0.000001   0.000000
    15  H    0.000000   0.000001   0.618689  -0.020071  -0.025269  -0.000056
    16  H    0.000000   0.000000  -0.020071   0.605349  -0.020798   0.000086
    17  H    0.000000   0.000001  -0.025269  -0.020798   0.621144   0.000034
    18  H    0.000000   0.000000  -0.000056   0.000086   0.000034   0.619375
    19  H    0.000000   0.000000   0.000090  -0.000570   0.000129  -0.020188
    20  H    0.000000   0.000000   0.000035   0.000135  -0.000061  -0.025355
    21  C    0.561603   0.000028   0.000000   0.000000   0.000000   0.000000
    22  H    0.388305   0.000512   0.000000   0.000000   0.000000   0.000000
    23  C   -0.027237  -0.000001   0.000000   0.000000   0.000000   0.000000
    24  H   -0.025980   0.000000   0.000000   0.000000   0.000000   0.000000
    25  C    0.000720   0.000000   0.000000   0.000000   0.000000   0.000000
    26  O   -0.002934   0.000000   0.000000   0.000000   0.000000   0.000000
    27  C   -0.000007   0.000000   0.000000   0.000000   0.000000   0.000000
    28  C    0.000026   0.000000   0.000000   0.000000   0.000000   0.000000
    29  H    0.000009   0.000000   0.000000   0.000000   0.000000   0.000000
    30  C    0.000000   0.000000   0.000000   0.000000   0.000000   0.000000
    31  O    0.000000   0.000000   0.000000   0.000000   0.000000   0.000000
    32  C    0.000000   0.000000   0.000000   0.000000   0.000000   0.000000
    33  H    0.000004   0.000000   0.000000   0.000000   0.000000   0.000000
    34  C    0.000000   0.000000   0.000000   0.000000   0.000000   0.000000
    35  H    0.000000   0.000000   0.000000   0.000000   0.000000   0.000000
    36  H    0.000000   0.000000   0.000000   0.000000   0.000000   0.000000
    37  H    0.000000   0.000000   0.000000   0.000000   0.000000   0.000000
              19         20         21         22         23         24
     1  C    0.000109  -0.000316   0.000020  -0.000018   0.000000  -0.000004
     2  C    0.001588  -0.001608   0.000000  -0.000001   0.000000   0.000000
     3  H    0.000058  -0.001230   0.000000   0.000000   0.000000   0.000002
     4  C   -0.000001   0.000016  -0.004118   0.001208   0.000009  -0.000782
     5  C   -0.000022   0.000009  -0.000007   0.000038   0.000000   0.000000
     6  N   -0.019013  -0.022991   0.000000   0.000000   0.000000   0.000000
     7  C    0.000000  -0.000001  -0.024947  -0.026441   0.000808  -0.003124
     8  H    0.000000   0.000001  -0.000828   0.000008  -0.000002  -0.000621
     9  C    0.000000   0.000000   0.000762  -0.004881  -0.000007   0.000006
    10  H   -0.000001   0.000000   0.000000  -0.000002   0.000000   0.000000
    11  C   -0.006182   0.001097   0.000000   0.000000   0.000000   0.000000
    12  C    0.384413   0.380512   0.000000   0.000000   0.000000   0.000000
    13  C    0.000000   0.000000   0.561603   0.388305  -0.027237  -0.025980
    14  H    0.000000   0.000000   0.000028   0.000512  -0.000001   0.000000
    15  H    0.000090   0.000035   0.000000   0.000000   0.000000   0.000000
    16  H   -0.000570   0.000135   0.000000   0.000000   0.000000   0.000000
    17  H    0.000129  -0.000061   0.000000   0.000000   0.000000   0.000000
    18  H   -0.020188  -0.025355   0.000000   0.000000   0.000000   0.000000
    19  H    0.605586  -0.020897   0.000000   0.000000   0.000000   0.000000
    20  H   -0.020897   0.622036   0.000000   0.000000   0.000000   0.000000
    21  C    0.000000   0.000000   4.858396  -0.027793   0.416178   0.393058
    22  H    0.000000   0.000000  -0.027793   0.590035  -0.004992   0.001898
    23  C    0.000000   0.000000   0.416178  -0.004992   4.721265  -0.024497
    24  H    0.000000   0.000000   0.393058   0.001898  -0.024497   0.606347
    25  C    0.000000   0.000000  -0.032235   0.000045   0.406355  -0.002258
    26  O    0.000000   0.000000  -0.025115   0.001358   0.388577   0.000541
    27  C    0.000000   0.000000   0.000660  -0.000001  -0.027855   0.000019
    28  C    0.000000   0.000000  -0.003830  -0.000002  -0.022987  -0.002340
    29  H    0.000000   0.000000   0.000474  -0.000006  -0.011468  -0.000014
    30  C    0.000000   0.000000  -0.000007   0.000000   0.000725   0.000000
    31  O    0.000000   0.000000  -0.000018   0.000000  -0.000827   0.000001
    32  C    0.000000   0.000000   0.000018   0.000000   0.000705   0.000017
    33  H    0.000000   0.000000  -0.001823  -0.000001  -0.002851  -0.001638
    34  C    0.000000   0.000000   0.000000   0.000000   0.000016   0.000000
    35  H    0.000000   0.000000   0.000000   0.000000  -0.000017   0.000000
    36  H    0.000000   0.000000   0.000001   0.000000  -0.000013   0.000002
    37  H    0.000000   0.000000   0.000000   0.000000   0.000000   0.000000
              25         26         27         28         29         30
     1  C    0.000000   0.000000   0.000000   0.000000   0.000000   0.000000
     2  C    0.000000   0.000000   0.000000   0.000000   0.000000   0.000000
     3  H    0.000000   0.000000   0.000000   0.000000   0.000000   0.000000
     4  C    0.000000   0.000000   0.000000   0.000000   0.000000   0.000000
     5  C    0.000000   0.000000   0.000000   0.000000   0.000000   0.000000
     6  N    0.000000   0.000000   0.000000   0.000000   0.000000   0.000000
     7  C   -0.000005   0.000002   0.000000   0.000000   0.000000   0.000000
     8  H    0.000001   0.000000   0.000000   0.000000   0.000000   0.000000
     9  C    0.000000   0.000000   0.000000   0.000000   0.000000   0.000000
    10  H    0.000000   0.000000   0.000000   0.000000   0.000000   0.000000
    11  C    0.000000   0.000000   0.000000   0.000000   0.000000   0.000000
    12  C    0.000000   0.000000   0.000000   0.000000   0.000000   0.000000
    13  C    0.000720  -0.002934  -0.000007   0.000026   0.000009   0.000000
    14  H    0.000000   0.000000   0.000000   0.000000   0.000000   0.000000
    15  H    0.000000   0.000000   0.000000   0.000000   0.000000   0.000000
    16  H    0.000000   0.000000   0.000000   0.000000   0.000000   0.000000
    17  H    0.000000   0.000000   0.000000   0.000000   0.000000   0.000000
    18  H    0.000000   0.000000   0.000000   0.000000   0.000000   0.000000
    19  H    0.000000   0.000000   0.000000   0.000000   0.000000   0.000000
    20  H    0.000000   0.000000   0.000000   0.000000   0.000000   0.000000
    21  C   -0.032235  -0.025115   0.000660  -0.003830   0.000474  -0.000007
    22  H    0.000045   0.001358  -0.000001  -0.000002  -0.000006   0.000000
    23  C    0.406355   0.388577  -0.027855  -0.022987  -0.011468   0.000725
    24  H   -0.002258   0.000541   0.000019  -0.002340  -0.000014   0.000000
    25  C    4.884031  -0.024791   0.476675   0.493385  -0.011760  -0.030396
    26  O   -0.024791   7.911022  -0.000607   0.000253   0.050666  -0.000026
    27  C    0.476675  -0.000607   4.738640  -0.029888  -0.041130   0.483847
    28  C    0.493385   0.000253  -0.029888   4.762241   0.000114  -0.010351
    29  H   -0.011760   0.050666  -0.041130   0.000114   0.511899   0.002578
    30  C   -0.030396  -0.000026   0.483847  -0.010351   0.002578   4.821182
    31  O   -0.019011  -0.015941   0.309727   0.000275   0.236603  -0.024847
    32  C   -0.028556  -0.000001  -0.010383   0.517899  -0.000002  -0.030785
    33  H   -0.024509   0.000004   0.001249   0.391757  -0.000004   0.000018
    34  C   -0.009274   0.000000  -0.028311  -0.031464  -0.000052   0.517487
    35  H    0.001229   0.000000  -0.026535   0.000032   0.000030   0.392819
    36  H    0.001276   0.000000   0.000031  -0.025716   0.000000   0.001323
    37  H    0.000012   0.000000   0.001370   0.001409   0.000001  -0.025146
              31         32         33         34         35         36
     1  C    0.000000   0.000000   0.000000   0.000000   0.000000   0.000000
     2  C    0.000000   0.000000   0.000000   0.000000   0.000000   0.000000
     3  H    0.000000   0.000000   0.000000   0.000000   0.000000   0.000000
     4  C    0.000000   0.000000   0.000000   0.000000   0.000000   0.000000
     5  C    0.000000   0.000000   0.000000   0.000000   0.000000   0.000000
     6  N    0.000000   0.000000   0.000000   0.000000   0.000000   0.000000
     7  C    0.000000   0.000000   0.000002   0.000000   0.000000   0.000000
     8  H    0.000000   0.000000  -0.000006   0.000000   0.000000   0.000000
     9  C    0.000000   0.000000   0.000000   0.000000   0.000000   0.000000
    10  H    0.000000   0.000000   0.000000   0.000000   0.000000   0.000000
    11  C    0.000000   0.000000   0.000000   0.000000   0.000000   0.000000
    12  C    0.000000   0.000000   0.000000   0.000000   0.000000   0.000000
    13  C    0.000000   0.000000   0.000004   0.000000   0.000000   0.000000
    14  H    0.000000   0.000000   0.000000   0.000000   0.000000   0.000000
    15  H    0.000000   0.000000   0.000000   0.000000   0.000000   0.000000
    16  H    0.000000   0.000000   0.000000   0.000000   0.000000   0.000000
    17  H    0.000000   0.000000   0.000000   0.000000   0.000000   0.000000
    18  H    0.000000   0.000000   0.000000   0.000000   0.000000   0.000000
    19  H    0.000000   0.000000   0.000000   0.000000   0.000000   0.000000
    20  H    0.000000   0.000000   0.000000   0.000000   0.000000   0.000000
    21  C   -0.000018   0.000018  -0.001823   0.000000   0.000000   0.000001
    22  H    0.000000   0.000000  -0.000001   0.000000   0.000000   0.000000
    23  C   -0.000827   0.000705  -0.002851   0.000016  -0.000017  -0.000013
    24  H    0.000001   0.000017  -0.001638   0.000000   0.000000   0.000002
    25  C   -0.019011  -0.028556  -0.024509  -0.009274   0.001229   0.001276
    26  O   -0.015941  -0.000001   0.000004   0.000000   0.000000   0.000000
    27  C    0.309727  -0.010383   0.001249  -0.028311  -0.026535   0.000031
    28  C    0.000275   0.517899   0.391757  -0.031464   0.000032  -0.025716
    29  H    0.236603  -0.000002  -0.000004  -0.000052   0.000030   0.000000
    30  C   -0.024847  -0.030785   0.000018   0.517487   0.392819   0.001323
    31  O    7.846301   0.000009  -0.000005   0.000312  -0.000874   0.000000
    32  C    0.000009   4.803004  -0.026782   0.494666   0.001308   0.394945
    33  H   -0.000005  -0.026782   0.606782   0.001489   0.000002  -0.004055
    34  C    0.000312   0.494666   0.001489   4.751165  -0.023510  -0.025215
    35  H   -0.000874   0.001308   0.000002  -0.023510   0.591952  -0.000029
    36  H    0.000000   0.394945  -0.004055  -0.025215  -0.000029   0.605500
    37  H   -0.000005  -0.025062  -0.000035   0.391652  -0.003567  -0.003444
              37
     1  C    0.000000
     2  C    0.000000
     3  H    0.000000
     4  C    0.000000
     5  C    0.000000
     6  N    0.000000
     7  C    0.000000
     8  H    0.000000
     9  C    0.000000
    10  H    0.000000
    11  C    0.000000
    12  C    0.000000
    13  C    0.000000
    14  H    0.000000
    15  H    0.000000
    16  H    0.000000
    17  H    0.000000
    18  H    0.000000
    19  H    0.000000
    20  H    0.000000
    21  C    0.000000
    22  H    0.000000
    23  C    0.000000
    24  H    0.000000
    25  C    0.000012
    26  O    0.000000
    27  C    0.001370
    28  C    0.001409
    29  H    0.000001
    30  C   -0.025146
    31  O   -0.000005
    32  C   -0.025062
    33  H   -0.000035
    34  C    0.391652
    35  H   -0.003567
    36  H   -0.003444
    37  H    0.597874
 Mulliken charges:
               1
     1  C   -0.100873
     2  C    0.144245
     3  H    0.058997
     4  C   -0.035303
     5  C   -0.102931
     6  N   -0.283312
     7  C   -0.039291
     8  H    0.064982
     9  C   -0.034469
    10  H    0.059270
    11  C   -0.063930
    12  C   -0.064252
    13  C   -0.011984
    14  H    0.064801
    15  H    0.070787
    16  H    0.075114
    17  H    0.068974
    18  H    0.070294
    19  H    0.074900
    20  H    0.068618
    21  C   -0.110475
    22  H    0.080730
    23  C    0.188116
    24  H    0.059368
    25  C   -0.080933
    26  O   -0.283008
    27  C    0.152496
    28  C   -0.040813
    29  H    0.262063
    30  C   -0.098420
    31  O   -0.331702
    32  C   -0.091000
    33  H    0.060401
    34  C   -0.038958
    35  H    0.067161
    36  H    0.055395
    37  H    0.064941
 Sum of Mulliken charges =   0.00000
 Mulliken charges with hydrogens summed into heavy atoms:
               1
     1  C   -0.041876
     2  C    0.144245
     4  C    0.029679
     5  C   -0.043661
     6  N   -0.283312
     7  C   -0.039291
     9  C    0.030332
    11  C    0.150944
    12  C    0.149561
    13  C    0.068746
    21  C   -0.051107
    23  C    0.188116
    25  C   -0.080933
    26  O   -0.283008
    27  C    0.152496
    28  C    0.019588
    30  C   -0.031259
    31  O   -0.069639
    32  C   -0.035605
    34  C    0.025983
 Electronic spatial extent (au):  <R**2>=          24557.1695
 Charge=              0.0000 electrons
 Dipole moment (field-independent basis, Debye):
    X=             -5.8558    Y=              0.7423    Z=              4.2415  Tot=              7.2685
 Quadrupole moment (field-independent basis, Debye-Ang):
   XX=           -128.4925   YY=           -113.3590   ZZ=           -134.1530
   XY=             29.4086   XZ=             27.5274   YZ=            -16.8205
 Traceless Quadrupole moment (field-independent basis, Debye-Ang):
   XX=             -3.1576   YY=             11.9758   ZZ=             -8.8182
   XY=             29.4086   XZ=             27.5274   YZ=            -16.8205
 Octapole moment (field-independent basis, Debye-Ang**2):
  XXX=          -1117.9038  YYY=           1208.2555  ZZZ=            960.0954  XYY=           -447.5155
  XXY=            513.3057  XXZ=            459.2484  XZZ=           -486.9523  YZZ=            505.5727
  YYZ=            335.2075  XYZ=           -130.0913
 Hexadecapole moment (field-independent basis, Debye-Ang**3):
 XXXX=         -16513.4175 YYYY=          -9449.1669 ZZZZ=          -6822.6485 XXXY=           3831.3492
 XXXZ=           5210.9712 YYYX=           3319.4313 YYYZ=          -3241.3676 ZZZX=           5059.7587
 ZZZY=          -3674.1907 XXYY=          -4755.7619 XXZZ=          -4816.5215 YYZZ=          -3016.9242
 XXYZ=          -1881.8012 YYXZ=           1935.7920 ZZXY=           1700.3051
 N-N= 1.358410923170D+03 E-N=-4.697748814239D+03  KE= 8.395922373013D+02
 Leave Link  601 at Wed Nov  1 19:18:54 2017, MaxMem=  3758096384 cpu:         0.4
 (Enter /share/apps/gaussian/g09_D01/g09/l9999.exe)
 1\1\GINC-SM7\SP\RTD-FC\STO-3G\C17H17N1O2\BTX008\01-Nov-2017\0\\#p HF/S
 TO-3G td=(nstates=2) nosymm\\Title\\0,1\C,0,-0.045604,-3.212643,-0.673
 042\C,0,-1.163557,-4.037551,-0.999057\H,0,-0.121291,-2.475288,0.121883
 \C,0,1.146608,-3.335524,-1.348586\C,0,-0.997931,-4.974953,-2.055672\N,
 0,-2.337452,-3.93316,-0.324579\C,0,1.320601,-4.270503,-2.399224\H,0,1.
 971105,-2.682196,-1.060472\C,0,0.202155,-5.074774,-2.725295\H,0,-1.826
 104,-5.611893,-2.356233\C,0,-3.451039,-4.817588,-0.638286\C,0,-2.48278
 2,-2.951131,0.738607\C,0,2.5213,-4.396929,-3.164451\H,0,0.299534,-5.79
 2287,-3.54133\H,0,-3.150286,-5.872565,-0.549647\H,0,-4.268925,-4.62644
 1,0.063239\H,0,-3.818958,-4.648925,-1.662177\H,0,-2.290162,-1.933406,0
 .365237\H,0,-3.502453,-2.991283,1.132588\H,0,-1.783201,-3.152381,1.563
 457\C,0,3.704177,-3.730044,-2.976341\H,0,2.47843,-5.091951,-4.010014\C
 ,0,4.824246,-3.904072,-3.862622\H,0,3.810173,-3.042685,-2.139497\C,0,6
 .116034,-3.241308,-3.594826\O,0,4.72679,-4.644034,-4.908669\C,0,7.1964
 41,-3.444502,-4.505463\C,0,6.35306,-2.418884,-2.472996\H,0,6.047681,-4
 .528914,-5.530262\C,0,8.44931,-2.862065,-4.256098\O,0,7.039043,-4.1982
 67,-5.611204\C,0,7.588797,-1.834009,-2.241935\H,0,5.552651,-2.221827,-
 1.761605\C,0,8.641937,-2.065551,-3.137064\H,0,9.257308,-3.069135,-4.95
 777\H,0,7.737617,-1.196134,-1.371176\H,0,9.619574,-1.619592,-2.947297\
 \Version=ES64L-G09RevD.01\HF=-847.1252463\RMSD=8.341e-09\PG=C01 [X(C17
 H17N1O2)]\\@


 I think that all right-thinking people in this
 country are sick and tired of being told that
 ordinary, decent people are fed up in this country
 with being sick and tired.  I'm certainly not!
 But I'm sick and tired of being told that I am!
                               -- Monty Python
 Job cpu time:       0 days  0 hours  1 minutes 12.4 seconds.
 File lengths (MBytes):  RWF=     27 Int=      0 D2E=      0 Chk=      9 Scr=      1
 Normal termination of Gaussian 09 at Wed Nov  1 19:18:54 2017.
