 Entering Gaussian System, Link 0=g09
 Input=2hc_1_rel-mega_dimer_0_mon-1.com
 Output=2hc_1_rel-mega_dimer_0_mon-1.out
 Initial command:
 /share/apps/gaussian/g09_D01/g09/l1.exe "/tmp/159434.1.all.q/Gau-42606.inp" -scrdir="/tmp/159434.1.all.q/"
 Entering Link 1 = /share/apps/gaussian/g09_D01/g09/l1.exe PID=     42607.
  
 Copyright (c) 1988,1990,1992,1993,1995,1998,2003,2009,2013,
            Gaussian, Inc.  All Rights Reserved.
  
 This is part of the Gaussian(R) 09 program.  It is based on
 the Gaussian(R) 03 system (copyright 2003, Gaussian, Inc.),
 the Gaussian(R) 98 system (copyright 1998, Gaussian, Inc.),
 the Gaussian(R) 94 system (copyright 1995, Gaussian, Inc.),
 the Gaussian 92(TM) system (copyright 1992, Gaussian, Inc.),
 the Gaussian 90(TM) system (copyright 1990, Gaussian, Inc.),
 the Gaussian 88(TM) system (copyright 1988, Gaussian, Inc.),
 the Gaussian 86(TM) system (copyright 1986, Carnegie Mellon
 University), and the Gaussian 82(TM) system (copyright 1983,
 Carnegie Mellon University). Gaussian is a federally registered
 trademark of Gaussian, Inc.
  
 This software contains proprietary and confidential information,
 including trade secrets, belonging to Gaussian, Inc.
  
 This software is provided under written license and may be
 used, copied, transmitted, or stored only in accord with that
 written license.
  
 The following legend is applicable only to US Government
 contracts under FAR:
  
                    RESTRICTED RIGHTS LEGEND
  
 Use, reproduction and disclosure by the US Government is
 subject to restrictions as set forth in subparagraphs (a)
 and (c) of the Commercial Computer Software - Restricted
 Rights clause in FAR 52.227-19.
  
 Gaussian, Inc.
 340 Quinnipiac St., Bldg. 40, Wallingford CT 06492
  
  
 ---------------------------------------------------------------
 Warning -- This program may not be used in any manner that
 competes with the business of Gaussian, Inc. or will provide
 assistance to any competitor of Gaussian, Inc.  The licensee
 of this program is prohibited from giving any competitor of
 Gaussian, Inc. access to this program.  By using this program,
 the user acknowledges that Gaussian, Inc. is engaged in the
 business of creating and licensing software in the field of
 computational chemistry and represents and warrants to the
 licensee that it is not a competitor of Gaussian, Inc. and that
 it will not use this program in any manner prohibited above.
 ---------------------------------------------------------------
  

 Cite this work as:
 Gaussian 09, Revision D.01,
 M. J. Frisch, G. W. Trucks, H. B. Schlegel, G. E. Scuseria, 
 M. A. Robb, J. R. Cheeseman, G. Scalmani, V. Barone, B. Mennucci, 
 G. A. Petersson, H. Nakatsuji, M. Caricato, X. Li, H. P. Hratchian, 
 A. F. Izmaylov, J. Bloino, G. Zheng, J. L. Sonnenberg, M. Hada, 
 M. Ehara, K. Toyota, R. Fukuda, J. Hasegawa, M. Ishida, T. Nakajima, 
 Y. Honda, O. Kitao, H. Nakai, T. Vreven, J. A. Montgomery, Jr., 
 J. E. Peralta, F. Ogliaro, M. Bearpark, J. J. Heyd, E. Brothers, 
 K. N. Kudin, V. N. Staroverov, T. Keith, R. Kobayashi, J. Normand, 
 K. Raghavachari, A. Rendell, J. C. Burant, S. S. Iyengar, J. Tomasi, 
 M. Cossi, N. Rega, J. M. Millam, M. Klene, J. E. Knox, J. B. Cross, 
 V. Bakken, C. Adamo, J. Jaramillo, R. Gomperts, R. E. Stratmann, 
 O. Yazyev, A. J. Austin, R. Cammi, C. Pomelli, J. W. Ochterski, 
 R. L. Martin, K. Morokuma, V. G. Zakrzewski, G. A. Voth, 
 P. Salvador, J. J. Dannenberg, S. Dapprich, A. D. Daniels, 
 O. Farkas, J. B. Foresman, J. V. Ortiz, J. Cioslowski, 
 and D. J. Fox, Gaussian, Inc., Wallingford CT, 2013.
 
 ******************************************
 Gaussian 09:  ES64L-G09RevD.01 24-Apr-2013
                 1-Nov-2017 
 ******************************************
 %chk=2hc_1_rel-mega_dimer_0.chk
 %nproc=4
 Will use up to    4 processors via shared memory.
 %mem=28GB
 ----------------------------------
 #p HF/STO-3G td=(nstates=2) nosymm
 ----------------------------------
 1/38=1/1;
 2/12=2,15=1,17=6,18=5,40=1/2;
 3/6=3,11=9,16=1,25=1,30=1/1,2,8,3;
 4//1;
 5/5=2,38=5/2;
 8/6=1,10=1,108=2/1;
 9/41=2,42=1,70=2/14;
 6/7=2,8=2,9=2,10=2/1;
 99/5=1,9=1/99;
 Leave Link    1 at Wed Nov  1 19:18:54 2017, MaxMem=  3758096384 cpu:         0.2
 (Enter /share/apps/gaussian/g09_D01/g09/l101.exe)
 -----
 Title
 -----
 Symbolic Z-matrix:
 Charge =  0 Multiplicity = 1
 C                    -2.78161  -1.92986   4.94906 
 C                    -3.89957  -1.10495   4.62304 
 H                    -2.8573   -2.66721   5.74398 
 C                    -1.5894   -1.80698   4.27351 
 C                    -3.73394  -0.16755   3.56643 
 N                    -5.07346  -1.20934   5.29752 
 C                    -1.41541  -0.872     3.22288 
 H                    -0.76491  -2.4603    4.56163 
 C                    -2.53385  -0.06773   2.89681 
 H                    -4.56211   0.46939   3.26587 
 C                    -5.21879  -2.19137   6.36071 
 C                    -6.18705  -0.32491   4.98381 
 C                    -0.21471  -0.74557   2.45765 
 H                    -2.43648   0.64979   2.08077 
 H                    -5.02617  -3.20909   5.98734 
 H                    -6.23846  -2.15122   6.75469 
 H                    -4.51921  -1.99012   7.18556 
 H                    -7.00493  -0.51606   5.68534 
 H                    -6.55497  -0.49358   3.95992 
 H                    -5.8863    0.73007   5.07245 
 C                     0.96817  -1.41246   2.64576 
 H                    -0.25758  -0.05055   1.61209 
 C                     2.08824  -1.23843   1.75948 
 H                     1.07416  -2.09981   3.4826 
 C                     3.38002  -1.90119   2.02727 
 O                     1.99078  -0.49847   0.71343 
 C                     4.46043  -1.698     1.11664 
 C                     3.61705  -2.72362   3.1491 
 H                     3.31167  -0.61359   0.09184 
 O                     4.30303  -0.94423   0.0109 
 C                     5.7133   -2.28044   1.366 
 C                     4.85279  -3.30849   3.38016 
 H                     2.81664  -2.92067   3.86049 
 C                     5.90593  -3.07695   2.48504 
 H                     6.5213   -2.07337   0.66433 
 H                     5.00161  -3.94637   4.25093 
 H                     6.88356  -3.52291   2.6748 
 
 NAtoms=     37 NQM=       37 NQMF=       0 NMMI=      0 NMMIF=      0
                NMic=       0 NMicF=      0.
                    Isotopes and Nuclear Properties:
 (Nuclear quadrupole moments (NQMom) in fm**2, nuclear magnetic moments (NMagM)
  in nuclear magnetons)

  Atom         1           2           3           4           5           6           7           8           9          10
 IAtWgt=          12          12           1          12          12          14          12           1          12           1
 AtmWgt=  12.0000000  12.0000000   1.0078250  12.0000000  12.0000000  14.0030740  12.0000000   1.0078250  12.0000000   1.0078250
 NucSpn=           0           0           1           0           0           2           0           1           0           1
 AtZEff=   0.0000000   0.0000000   0.0000000   0.0000000   0.0000000   0.0000000   0.0000000   0.0000000   0.0000000   0.0000000
 NQMom=    0.0000000   0.0000000   0.0000000   0.0000000   0.0000000   2.0440000   0.0000000   0.0000000   0.0000000   0.0000000
 NMagM=    0.0000000   0.0000000   2.7928460   0.0000000   0.0000000   0.4037610   0.0000000   2.7928460   0.0000000   2.7928460
 AtZNuc=   6.0000000   6.0000000   1.0000000   6.0000000   6.0000000   7.0000000   6.0000000   1.0000000   6.0000000   1.0000000

  Atom        11          12          13          14          15          16          17          18          19          20
 IAtWgt=          12          12          12           1           1           1           1           1           1           1
 AtmWgt=  12.0000000  12.0000000  12.0000000   1.0078250   1.0078250   1.0078250   1.0078250   1.0078250   1.0078250   1.0078250
 NucSpn=           0           0           0           1           1           1           1           1           1           1
 AtZEff=   0.0000000   0.0000000   0.0000000   0.0000000   0.0000000   0.0000000   0.0000000   0.0000000   0.0000000   0.0000000
 NQMom=    0.0000000   0.0000000   0.0000000   0.0000000   0.0000000   0.0000000   0.0000000   0.0000000   0.0000000   0.0000000
 NMagM=    0.0000000   0.0000000   0.0000000   2.7928460   2.7928460   2.7928460   2.7928460   2.7928460   2.7928460   2.7928460
 AtZNuc=   6.0000000   6.0000000   6.0000000   1.0000000   1.0000000   1.0000000   1.0000000   1.0000000   1.0000000   1.0000000

  Atom        21          22          23          24          25          26          27          28          29          30
 IAtWgt=          12           1          12           1          12          16          12          12           1          16
 AtmWgt=  12.0000000   1.0078250  12.0000000   1.0078250  12.0000000  15.9949146  12.0000000  12.0000000   1.0078250  15.9949146
 NucSpn=           0           1           0           1           0           0           0           0           1           0
 AtZEff=   0.0000000   0.0000000   0.0000000   0.0000000   0.0000000   0.0000000   0.0000000   0.0000000   0.0000000   0.0000000
 NQMom=    0.0000000   0.0000000   0.0000000   0.0000000   0.0000000   0.0000000   0.0000000   0.0000000   0.0000000   0.0000000
 NMagM=    0.0000000   2.7928460   0.0000000   2.7928460   0.0000000   0.0000000   0.0000000   0.0000000   2.7928460   0.0000000
 AtZNuc=   6.0000000   1.0000000   6.0000000   1.0000000   6.0000000   8.0000000   6.0000000   6.0000000   1.0000000   8.0000000

  Atom        31          32          33          34          35          36          37
 IAtWgt=          12          12           1          12           1           1           1
 AtmWgt=  12.0000000  12.0000000   1.0078250  12.0000000   1.0078250   1.0078250   1.0078250
 NucSpn=           0           0           1           0           1           1           1
 AtZEff=   0.0000000   0.0000000   0.0000000   0.0000000   0.0000000   0.0000000   0.0000000
 NQMom=    0.0000000   0.0000000   0.0000000   0.0000000   0.0000000   0.0000000   0.0000000
 NMagM=    0.0000000   0.0000000   2.7928460   0.0000000   2.7928460   2.7928460   2.7928460
 AtZNuc=   6.0000000   6.0000000   1.0000000   6.0000000   1.0000000   1.0000000   1.0000000
 Leave Link  101 at Wed Nov  1 19:18:54 2017, MaxMem=  3758096384 cpu:         0.4
 (Enter /share/apps/gaussian/g09_D01/g09/l202.exe)
                          Input orientation:                          
 ---------------------------------------------------------------------
 Center     Atomic      Atomic             Coordinates (Angstroms)
 Number     Number       Type             X           Y           Z
 ---------------------------------------------------------------------
      1          6           0       -2.781614   -1.929857    4.949057
      2          6           0       -3.899567   -1.104949    4.623044
      3          1           0       -2.857302   -2.667213    5.743983
      4          6           0       -1.589403   -1.806976    4.273514
      5          6           0       -3.733940   -0.167547    3.566427
      6          7           0       -5.073462   -1.209339    5.297522
      7          6           0       -1.415409   -0.871998    3.222876
      8          1           0       -0.764905   -2.460304    4.561627
      9          6           0       -2.533855   -0.067726    2.896805
     10          1           0       -4.562114    0.469394    3.265867
     11          6           0       -5.218792   -2.191368    6.360707
     12          6           0       -6.187049   -0.324912    4.983813
     13          6           0       -0.214710   -0.745572    2.457648
     14          1           0       -2.436476    0.649787    2.080770
     15          1           0       -5.026172   -3.209094    5.987337
     16          1           0       -6.238463   -2.151217    6.754688
     17          1           0       -4.519211   -1.990120    7.185557
     18          1           0       -7.004935   -0.516059    5.685339
     19          1           0       -6.554969   -0.493575    3.959922
     20          1           0       -5.886296    0.730066    5.072453
     21          6           0        0.968167   -1.412456    2.645758
     22          1           0       -0.257580   -0.050548    1.612086
     23          6           0        2.088236   -1.238428    1.759478
     24          1           0        1.074163   -2.099815    3.482603
     25          6           0        3.380024   -1.901192    2.027274
     26          8           0        1.990780   -0.498466    0.713431
     27          6           0        4.460431   -1.697998    1.116638
     28          6           0        3.617050   -2.723616    3.149104
     29          1           0        3.311671   -0.613585    0.091837
     30          8           0        4.303032   -0.944233    0.010896
     31          6           0        5.713299   -2.280435    1.366002
     32          6           0        4.852786   -3.308490    3.380164
     33          1           0        2.816640   -2.920673    3.860494
     34          6           0        5.905928   -3.076949    2.485036
     35          1           0        6.521299   -2.073366    0.664330
     36          1           0        5.001608   -3.946366    4.250925
     37          1           0        6.883564   -3.522908    2.674804
 ---------------------------------------------------------------------
                    Distance matrix (angstroms):
                    1          2          3          4          5
     1  C    0.000000
     2  C    1.427087   0.000000
     3  H    1.086890   2.187119   0.000000
     4  C    1.375800   2.439646   2.123642   0.000000
     5  C    2.433994   1.422179   3.429078   2.790473   0.000000
     6  N    2.427579   1.357883   2.689998   3.680276   2.424116
     7  C    2.442393   2.861080   3.414357   1.417144   2.447420
     8  H    2.120988   3.415679   2.412240   1.090708   3.881021
     9  C    2.782203   2.433290   3.868898   2.410873   1.377883
    10  H    3.429244   2.181617   4.345773   3.877399   1.087153
    11  C    2.828600   2.437239   2.486647   4.204354   3.756147
    12  C    3.764843   2.443601   4.141431   4.882559   2.837515
    13  C    3.768109   4.289086   4.634220   2.512713   3.734767
    14  H    3.873081   3.418024   4.959709   3.400198   2.135094
    15  H    2.784334   2.749174   2.248745   4.088338   4.096545
    16  H    3.906291   3.333019   3.566515   5.280955   4.513601
    17  H    2.832809   2.781000   2.301854   4.134889   4.127533
    18  H    4.514131   3.334452   4.672661   5.743492   3.912883
    19  H    4.156862   2.804402   4.645462   5.145892   2.866939
    20  H    4.090167   2.741595   4.600789   5.053531   2.776051
    21  C    4.430998   5.262989   5.080121   3.057188   4.950479
    22  H    4.586712   4.841663   5.538778   3.455719   3.989764
    23  C    5.862331   6.638645   6.509689   4.490952   6.189474
    24  H    4.128727   5.198880   4.570798   2.793900   5.182523
    25  C    6.819342   7.769458   7.301024   5.454326   7.482179
    26  O    6.539507   7.095709   7.315314   5.215755   6.404804
    27  C    8.196854   9.084941   8.712113   6.824825   8.688582
    28  C    6.694235   7.828928   6.975228   5.404783   7.793889
    29  H    7.902739   8.530840   8.615125   6.552185   7.868441
    30  O    8.691898   9.411714   9.333131   7.323594   8.822582
    31  C    9.226307  10.217499   9.631797   7.874468   9.927562
    32  C    7.914930   9.110655   8.089767   6.674910   9.145058
    33  H    5.788535   6.998984   5.983761   4.563345   7.111700
    34  C    9.102780  10.227785   9.358569   7.809704  10.127245
    35  H   10.243226  11.189446  10.682401   8.881478  10.827014
    36  H    8.070455   9.351098   8.101106   6.929569   9.542422
    37  H   10.056128  11.221323  10.248734   8.791557  11.170713
                    6          7          8          9         10
     6  N    0.000000
     7  C    4.218922   0.000000
     8  H    4.546440   2.176724   0.000000
     9  C    3.676456   1.415661   3.409581   0.000000
    10  H    2.684631   3.420955   4.967990   2.130385   0.000000
    11  C    1.454601   5.104159   4.811042   4.870047   4.133874
    12  C    1.456262   5.115540   5.842755   4.215160   2.494529
    13  C    5.646896   1.429418   2.769431   2.455762   4.585769
    14  H    4.556044   2.159355   4.315260   1.090972   2.440355
    15  H    2.115916   5.112912   4.555407   5.062729   4.599242
    16  H    2.089903   6.113260   5.904650   5.740062   4.674358
    17  H    2.116953   5.156222   4.604443   5.102022   4.627636
    18  H    2.088451   6.118269   6.631802   5.288429   3.576638
    19  H    2.120461   5.205912   6.144503   4.181019   2.319589
    20  H    2.114863   5.096702   6.055415   4.075387   2.255030
    21  C    6.601090   2.511293   2.787845   3.759718   5.874513
    22  H    6.173974   2.147089   3.842407   2.613853   4.640511
    23  C    7.988024   3.814621   4.181559   4.901814   7.029439
    24  H    6.471489   2.788003   2.162502   4.182145   6.198018
    25  C    9.090358   5.048255   4.890398   6.252331   8.380414
    26  O    8.451198   4.247230   5.123595   5.042319   7.098739
    27  C   10.421789   6.296349   6.305014   7.399109   9.524867
    28  C    9.079302   5.362795   4.611516   6.704554   8.781097
    29  H    9.887595   5.675867   6.325177   6.506611   8.558259
    30  O   10.767420   6.559162   6.977937   7.472601   9.549031
    31  C   11.530755   7.500010   7.225752   8.674963  10.805330
    32  C   10.325362   6.726924   5.802907   8.080758  10.145236
    33  H    8.200453   4.744878   3.678450   6.139691   8.141999
    34  C   11.486734   7.681679   7.013736   8.969666  11.079989
    35  H   12.516049   8.425009   8.272086   9.539515  11.665148
    36  H   10.492555   7.189348   5.963018   8.582581  10.579889
    37  H   12.457998   8.729299   7.949107  10.033711  12.136366
                   11         12         13         14         15
    11  C    0.000000
    12  C    2.513368   0.000000
    13  C    6.508843   6.498253   0.000000
    14  H    5.842200   4.841952   2.650530   0.000000
    15  H    1.101033   3.266987   6.455835   6.071141   0.000000
    16  H    1.093875   2.544412   7.531666   6.644264   1.782577
    17  H    1.100133   3.225256   6.513889   6.112753   1.782874
    18  H    2.540293   1.094355   7.521823   5.934891   3.355465
    19  H    3.229805   1.100984   6.520676   4.669098   3.717751
    20  H    3.261892   1.100585   6.417289   4.567042   4.134466
    21  C    7.258513   7.605680   1.370882   4.020404   7.094093
    22  H    7.193479   6.826597   1.095386   2.336177   7.201299
    23  C    8.687466   8.928112   2.456402   4.913411   8.507239
    24  H    6.920487   7.624245   2.132065   4.674402   6.687173
    25  C    9.633404  10.136798   3.800367   6.351537   9.383860
    26  O    9.313193   9.227306   2.822683   4.773751   9.186904
    27  C   11.019575  11.410926   4.956043   7.349080  10.770458
    28  C    9.416464  10.258669   4.367282   7.011873   9.110244
    29  H   10.703127  10.688332   4.248511   6.212339  10.536281
    30  O   11.512627  11.625630   5.141600   7.228156  11.308470
    31  C   12.019385  12.590906   6.220031   8.689990  11.728401
    32  C   10.562589  11.547787   5.753182   8.395816  10.217683
    33  H    8.446959   9.437491   3.985991   6.596274   8.131196
    34  C   11.813741  12.651391   6.549678   9.145911  11.480174
    35  H   13.049612  13.535772   7.095974   9.469086  12.765906
    36  H   10.582428  11.782958   6.377374   9.008845  10.203679
    37  H   12.721081  13.652825   7.625369  10.228754  12.365806
                   16         17         18         19         20
    16  H    0.000000
    17  H    1.779727   0.000000
    18  H    2.098744   3.256122   0.000000
    19  H    3.264762   4.097399   1.783266   0.000000
    20  H    3.354956   3.705879   1.783202   1.783857   0.000000
    21  C    8.328541   7.145263   8.579798   7.692135   7.580430
    22  H    8.162728   7.279218   7.895245   6.735408   6.653265
    23  C    9.752908   8.582874   9.930758   8.949958   8.856858
    24  H    8.011472   6.708929   8.522450   7.810986   7.680094
    25  C   10.720366   9.434707  11.097180  10.218640  10.102540
    26  O   10.341606   9.300184  10.278281   9.141638   9.086181
    27  C   12.102039  10.842098  12.398574  11.440015  11.340138
    28  C   10.509948   9.112064  11.141470  10.445117  10.292754
    29  H   11.745763  10.655441  11.735806  10.598447  10.545830
    30  O   12.572138  11.419353  12.659098  11.562616  11.499784
    31  C   13.111035  11.775218  13.547072  12.666163  12.543983
    32  C   11.650858  10.200659  12.398268  11.764214  11.597485
    33  H    9.537469   8.107816  10.274997   9.681309   9.515137
    34  C   12.906322  11.487368  13.545866  12.811052  12.658777
    35  H   14.138955  12.822878  14.511883  13.577387  13.462511
    36  H   11.654638  10.153076  12.569074  12.064863  11.878147
    37  H   13.809945  12.357978  14.525662  13.835554  13.671351
                   21         22         23         24         25
    21  C    0.000000
    22  H    2.103741   0.000000
    23  C    1.438865   2.633560   0.000000
    24  H    1.088121   3.077640   2.177037   0.000000
    25  C    2.537408   4.102368   1.476376   2.733940   0.000000
    26  O    2.369600   2.462384   1.285012   3.327585   2.371460
    27  C    3.823042   5.021871   2.500351   4.150429   1.427524
    28  C    2.998179   4.951815   2.544428   2.639436   1.411051
    29  H    3.557066   3.920168   2.160613   4.325808   2.325623
    30  O    4.275869   4.915452   2.837148   4.879930   2.415263
    31  C    4.990735   6.378428   3.792319   5.102373   2.454644
    32  C    4.384582   6.313171   3.815038   3.968549   2.445368
    33  H    2.677154   4.769044   2.788331   1.962864   2.171967
    34  C    5.213238   6.921703   4.298996   5.029501   2.823498
    35  H    5.932970   7.137453   4.642038   6.133079   3.428537
    36  H    5.026520   7.056906   4.693397   4.407368   3.428833
    37  H    6.280667   8.011404   5.389976   6.035468   3.914595
                   26         27         28         29         30
    26  O    0.000000
    27  C    2.775001   0.000000
    28  C    3.678118   2.427777   0.000000
    29  H    1.464372   1.883034   3.727247   0.000000
    30  O    2.457391   1.347443   3.672210   1.048178   0.000000
    31  C    4.178326   1.403956   2.787494   3.188997   2.368671
    32  C    4.816511   2.805562   1.386546   4.522239   4.152578
    33  H    4.056247   3.424285   1.088836   4.446402   4.575487
    34  C    5.011541   2.421462   2.409314   4.304153   3.638560
    35  H    4.796699   2.143049   3.877059   3.572173   2.573446
    36  H    5.785064   3.895098   2.150844   5.591183   5.242009
    37  H    6.077299   3.410242   3.396166   5.281505   4.517202
                   31         32         33         34         35
    31  C    0.000000
    32  C    2.419551   0.000000
    33  H    3.875955   2.127677   0.000000
    34  C    1.387003   1.401418   3.385263   0.000000
    35  H    1.089993   3.418365   4.965671   2.168140   0.000000
    36  H    3.406554   1.089614   2.445111   2.166113   4.322182
    37  H    2.150865   2.160455   4.278834   1.091175   2.504878
                   36         37
    36  H    0.000000
    37  H    2.491030   0.000000
 Symmetry turned off by external request.
 Stoichiometry    C17H17NO2
 Framework group  C1[X(C17H17NO2)]
 Deg. of freedom   105
 Full point group                 C1      NOp   1
 Rotational constants (GHZ):      1.0904251      0.1072611      0.0979095
 Leave Link  202 at Wed Nov  1 19:18:54 2017, MaxMem=  3758096384 cpu:         0.2
 (Enter /share/apps/gaussian/g09_D01/g09/l301.exe)
 Standard basis: STO-3G (5D, 7F)
 Ernie: Thresh=  0.10000D-02 Tol=  0.10000D-05 Strict=F.
   117 basis functions,   351 primitive gaussians,   117 cartesian basis functions
    71 alpha electrons       71 beta electrons
       nuclear repulsion energy      1358.4109805671 Hartrees.
 IExCor=    0 DFT=F Ex=HF Corr=None ExCW=0 ScaHFX=  1.000000
 ScaDFX=  1.000000  1.000000  1.000000  1.000000 ScalE2=  1.000000  1.000000
 IRadAn=      0 IRanWt=     -1 IRanGd=            0 ICorTp=0 IEmpDi=  4
 NAtoms=   37 NActive=   37 NUniq=   37 SFac= 1.00D+00 NAtFMM=   60 NAOKFM=F Big=F
 Integral buffers will be    131072 words long.
 Raffenetti 1 integral format.
 Two-electron integral symmetry is turned off.
 Leave Link  301 at Wed Nov  1 19:18:55 2017, MaxMem=  3758096384 cpu:         0.2
 (Enter /share/apps/gaussian/g09_D01/g09/l302.exe)
 NPDir=0 NMtPBC=     1 NCelOv=     1 NCel=       1 NClECP=     1 NCelD=      1
         NCelK=      1 NCelE2=     1 NClLst=     1 CellRange=     0.0.
 One-electron integrals computed using PRISM.
 NBasis=   117 RedAO= T EigKep=  1.75D-01  NBF=   117
 NBsUse=   117 1.00D-06 EigRej= -1.00D+00 NBFU=   117
 Leave Link  302 at Wed Nov  1 19:18:56 2017, MaxMem=  3758096384 cpu:         2.4
 (Enter /share/apps/gaussian/g09_D01/g09/l308.exe)
 Leave Link  308 at Wed Nov  1 19:18:56 2017, MaxMem=  3758096384 cpu:         0.4
 (Enter /share/apps/gaussian/g09_D01/g09/l303.exe)
 DipDrv:  MaxL=1.
 Leave Link  303 at Wed Nov  1 19:18:56 2017, MaxMem=  3758096384 cpu:         0.5
 (Enter /share/apps/gaussian/g09_D01/g09/l401.exe)
 ExpMin= 1.69D-01 ExpMax= 1.31D+02 ExpMxC= 1.31D+02 IAcc=1 IRadAn=         1 AccDes= 0.00D+00
 Harris functional with IExCor=  205 and IRadAn=       1 diagonalized for initial guess.
 HarFok:  IExCor=  205 AccDes= 0.00D+00 IRadAn=         1 IDoV= 1 UseB2=F ITyADJ=14
 ICtDFT=  3500011 ScaDFX=  1.000000  1.000000  1.000000  1.000000
 FoFCou: FMM=F IPFlag=           0 FMFlag=      100000 FMFlg1=           0
         NFxFlg=           0 DoJE=T BraDBF=F KetDBF=T FulRan=T
         wScrn=  0.000000 ICntrl=     500 IOpCl=  0 I1Cent=   200000004 NGrid=           0
         NMat0=    1 NMatS0=      1 NMatT0=    0 NMatD0=    1 NMtDS0=    0 NMtDT0=    0
 Symmetry not used in FoFCou.
 Harris En= -848.038312237735    
 JPrj=0 DoOrth=F DoCkMO=F.
 Leave Link  401 at Wed Nov  1 19:18:59 2017, MaxMem=  3758096384 cpu:         5.6
 (Enter /share/apps/gaussian/g09_D01/g09/l502.exe)
 Closed shell SCF:
 Using DIIS extrapolation, IDIIS=  1040.
 Two-electron integral symmetry not used.
 Keep R1 ints in memory in canonical form, NReq=24801506.
 IVT=       61095 IEndB=       61095 NGot=  3758096384 MDV=  3734206134
 LenX=  3734206134 LenY=  3734192004
 Requested convergence on RMS density matrix=1.00D-08 within 128 cycles.
 Requested convergence on MAX density matrix=1.00D-06.
 Requested convergence on             energy=1.00D-06.
 No special actions if energy rises.
 FoFCou: FMM=F IPFlag=           0 FMFlag=           0 FMFlg1=           0
         NFxFlg=           0 DoJE=F BraDBF=F KetDBF=F FulRan=T
         wScrn=  0.000000 ICntrl=     600 IOpCl=  0 I1Cent=           0 NGrid=           0
         NMat0=    1 NMatS0=   6903 NMatT0=    0 NMatD0=    1 NMtDS0=    0 NMtDT0=    0
 Symmetry not used in FoFCou.

 Cycle   1  Pass 1  IDiag  1:
 E= -846.821199681388    
 DIIS: error= 4.66D-02 at cycle   1 NSaved=   1.
 NSaved= 1 IEnMin= 1 EnMin= -846.821199681388     IErMin= 1 ErrMin= 4.66D-02
 ErrMax= 4.66D-02  0.00D+00 EMaxC= 1.00D-01 BMatC= 3.31D-01 BMatP= 3.31D-01
 IDIUse=3 WtCom= 5.34D-01 WtEn= 4.66D-01
 Coeff-Com:  0.100D+01
 Coeff-En:   0.100D+01
 Coeff:      0.100D+01
 Gap=     0.375 Goal=   None    Shift=    0.000
 GapD=    0.375 DampG=1.000 DampE=0.500 DampFc=0.5000 IDamp=-1.
 Damping current iteration by 5.00D-01
 RMSDP=6.60D-03 MaxDP=1.21D-01              OVMax= 0.00D+00

 Cycle   2  Pass 1  IDiag  1:
 E= -846.969081544435     Delta-E=       -0.147881863048 Rises=F Damp=T
 DIIS: error= 2.51D-02 at cycle   2 NSaved=   2.
 NSaved= 2 IEnMin= 2 EnMin= -846.969081544435     IErMin= 2 ErrMin= 2.51D-02
 ErrMax= 2.51D-02  0.00D+00 EMaxC= 1.00D-01 BMatC= 7.98D-02 BMatP= 3.31D-01
 IDIUse=3 WtCom= 7.49D-01 WtEn= 2.51D-01
 Coeff-Com: -0.794D+00 0.179D+01
 Coeff-En:   0.000D+00 0.100D+01
 Coeff:     -0.594D+00 0.159D+01
 Gap=     0.346 Goal=   None    Shift=    0.000
 RMSDP=2.99D-03 MaxDP=4.10D-02 DE=-1.48D-01 OVMax= 0.00D+00

 Cycle   3  Pass 1  IDiag  1:
 E= -847.120232076852     Delta-E=       -0.151150532417 Rises=F Damp=F
 DIIS: error= 5.41D-03 at cycle   3 NSaved=   3.
 NSaved= 3 IEnMin= 3 EnMin= -847.120232076852     IErMin= 3 ErrMin= 5.41D-03
 ErrMax= 5.41D-03  0.00D+00 EMaxC= 1.00D-01 BMatC= 1.40D-03 BMatP= 7.98D-02
 IDIUse=3 WtCom= 9.46D-01 WtEn= 5.41D-02
 Coeff-Com: -0.105D+00 0.169D+00 0.935D+00
 Coeff-En:   0.000D+00 0.000D+00 0.100D+01
 Coeff:     -0.989D-01 0.160D+00 0.939D+00
 Gap=     0.349 Goal=   None    Shift=    0.000
 RMSDP=7.69D-04 MaxDP=1.08D-02 DE=-1.51D-01 OVMax= 0.00D+00

 Cycle   4  Pass 1  IDiag  1:
 E= -847.124134872687     Delta-E=       -0.003902795835 Rises=F Damp=F
 DIIS: error= 2.02D-03 at cycle   4 NSaved=   4.
 NSaved= 4 IEnMin= 4 EnMin= -847.124134872687     IErMin= 4 ErrMin= 2.02D-03
 ErrMax= 2.02D-03  0.00D+00 EMaxC= 1.00D-01 BMatC= 3.00D-04 BMatP= 1.40D-03
 IDIUse=3 WtCom= 9.80D-01 WtEn= 2.02D-02
 Coeff-Com:  0.533D-01-0.117D+00 0.682D-01 0.995D+00
 Coeff-En:   0.000D+00 0.000D+00 0.000D+00 0.100D+01
 Coeff:      0.522D-01-0.114D+00 0.668D-01 0.995D+00
 Gap=     0.351 Goal=   None    Shift=    0.000
 RMSDP=3.41D-04 MaxDP=4.98D-03 DE=-3.90D-03 OVMax= 0.00D+00

 Cycle   5  Pass 1  IDiag  1:
 E= -847.125010124153     Delta-E=       -0.000875251466 Rises=F Damp=F
 DIIS: error= 7.59D-04 at cycle   5 NSaved=   5.
 NSaved= 5 IEnMin= 5 EnMin= -847.125010124153     IErMin= 5 ErrMin= 7.59D-04
 ErrMax= 7.59D-04  0.00D+00 EMaxC= 1.00D-01 BMatC= 5.41D-05 BMatP= 3.00D-04
 IDIUse=3 WtCom= 9.92D-01 WtEn= 7.59D-03
 Coeff-Com:  0.357D-01-0.625D-01-0.196D+00 0.409D-01 0.118D+01
 Coeff-En:   0.000D+00 0.000D+00 0.000D+00 0.000D+00 0.100D+01
 Coeff:      0.354D-01-0.621D-01-0.194D+00 0.406D-01 0.118D+01
 Gap=     0.354 Goal=   None    Shift=    0.000
 RMSDP=2.36D-04 MaxDP=3.57D-03 DE=-8.75D-04 OVMax= 0.00D+00

 Cycle   6  Pass 1  IDiag  1:
 E= -847.125230289089     Delta-E=       -0.000220164937 Rises=F Damp=F
 DIIS: error= 1.78D-04 at cycle   6 NSaved=   6.
 NSaved= 6 IEnMin= 6 EnMin= -847.125230289089     IErMin= 6 ErrMin= 1.78D-04
 ErrMax= 1.78D-04  0.00D+00 EMaxC= 1.00D-01 BMatC= 3.70D-06 BMatP= 5.41D-05
 IDIUse=3 WtCom= 9.98D-01 WtEn= 1.78D-03
 Coeff-Com: -0.795D-03 0.287D-02-0.982D-02-0.687D-01 0.104D+00 0.972D+00
 Coeff-En:   0.000D+00 0.000D+00 0.000D+00 0.000D+00 0.000D+00 0.100D+01
 Coeff:     -0.794D-03 0.287D-02-0.981D-02-0.686D-01 0.104D+00 0.972D+00
 Gap=     0.354 Goal=   None    Shift=    0.000
 RMSDP=4.33D-05 MaxDP=8.06D-04 DE=-2.20D-04 OVMax= 0.00D+00

 Cycle   7  Pass 1  IDiag  1:
 E= -847.125241874855     Delta-E=       -0.000011585765 Rises=F Damp=F
 DIIS: error= 1.32D-04 at cycle   7 NSaved=   7.
 NSaved= 7 IEnMin= 7 EnMin= -847.125241874855     IErMin= 7 ErrMin= 1.32D-04
 ErrMax= 1.32D-04  0.00D+00 EMaxC= 1.00D-01 BMatC= 8.85D-07 BMatP= 3.70D-06
 IDIUse=3 WtCom= 9.99D-01 WtEn= 1.32D-03
 Coeff-Com: -0.435D-02 0.745D-02 0.304D-01-0.670D-02-0.172D+00 0.345D-01
 Coeff-Com:  0.111D+01
 Coeff-En:   0.000D+00 0.000D+00 0.000D+00 0.000D+00 0.000D+00 0.000D+00
 Coeff-En:   0.100D+01
 Coeff:     -0.434D-02 0.744D-02 0.304D-01-0.669D-02-0.172D+00 0.344D-01
 Coeff:      0.111D+01
 Gap=     0.354 Goal=   None    Shift=    0.000
 RMSDP=2.35D-05 MaxDP=6.26D-04 DE=-1.16D-05 OVMax= 0.00D+00

 Cycle   8  Pass 1  IDiag  1:
 E= -847.125245204587     Delta-E=       -0.000003329733 Rises=F Damp=F
 DIIS: error= 3.90D-05 at cycle   8 NSaved=   8.
 NSaved= 8 IEnMin= 8 EnMin= -847.125245204587     IErMin= 8 ErrMin= 3.90D-05
 ErrMax= 3.90D-05  0.00D+00 EMaxC= 1.00D-01 BMatC= 2.45D-07 BMatP= 8.85D-07
 IDIUse=1 WtCom= 1.00D+00 WtEn= 0.00D+00
 Coeff-Com: -0.200D-03-0.587D-04 0.792D-02 0.140D-01-0.587D-01-0.196D+00
 Coeff-Com:  0.147D+00 0.109D+01
 Coeff:     -0.200D-03-0.587D-04 0.792D-02 0.140D-01-0.587D-01-0.196D+00
 Coeff:      0.147D+00 0.109D+01
 Gap=     0.354 Goal=   None    Shift=    0.000
 RMSDP=1.43D-05 MaxDP=3.57D-04 DE=-3.33D-06 OVMax= 0.00D+00

 Cycle   9  Pass 1  IDiag  1:
 E= -847.125246115867     Delta-E=       -0.000000911279 Rises=F Damp=F
 DIIS: error= 2.78D-05 at cycle   9 NSaved=   9.
 NSaved= 9 IEnMin= 9 EnMin= -847.125246115867     IErMin= 9 ErrMin= 2.78D-05
 ErrMax= 2.78D-05  0.00D+00 EMaxC= 1.00D-01 BMatC= 2.95D-08 BMatP= 2.45D-07
 IDIUse=1 WtCom= 1.00D+00 WtEn= 0.00D+00
 Coeff-Com:  0.108D-02-0.188D-02-0.664D-02 0.305D-02 0.380D-01 0.345D-02
 Coeff-Com: -0.246D+00-0.424D-01 0.125D+01
 Coeff:      0.108D-02-0.188D-02-0.664D-02 0.305D-02 0.380D-01 0.345D-02
 Coeff:     -0.246D+00-0.424D-01 0.125D+01
 Gap=     0.354 Goal=   None    Shift=    0.000
 RMSDP=6.28D-06 MaxDP=1.72D-04 DE=-9.11D-07 OVMax= 0.00D+00

 Cycle  10  Pass 1  IDiag  1:
 E= -847.125246270232     Delta-E=       -0.000000154365 Rises=F Damp=F
 DIIS: error= 5.76D-06 at cycle  10 NSaved=  10.
 NSaved=10 IEnMin=10 EnMin= -847.125246270232     IErMin=10 ErrMin= 5.76D-06
 ErrMax= 5.76D-06  0.00D+00 EMaxC= 1.00D-01 BMatC= 3.62D-09 BMatP= 2.95D-08
 IDIUse=1 WtCom= 1.00D+00 WtEn= 0.00D+00
 Coeff-Com:  0.146D-03-0.220D-03-0.144D-02-0.236D-04 0.890D-02 0.147D-01
 Coeff-Com: -0.435D-01-0.127D+00 0.176D+00 0.972D+00
 Coeff:      0.146D-03-0.220D-03-0.144D-02-0.236D-04 0.890D-02 0.147D-01
 Coeff:     -0.435D-01-0.127D+00 0.176D+00 0.972D+00
 Gap=     0.354 Goal=   None    Shift=    0.000
 RMSDP=1.65D-06 MaxDP=3.32D-05 DE=-1.54D-07 OVMax= 0.00D+00

 Cycle  11  Pass 1  IDiag  1:
 E= -847.125246281805     Delta-E=       -0.000000011573 Rises=F Damp=F
 DIIS: error= 3.01D-06 at cycle  11 NSaved=  11.
 NSaved=11 IEnMin=11 EnMin= -847.125246281805     IErMin=11 ErrMin= 3.01D-06
 ErrMax= 3.01D-06  0.00D+00 EMaxC= 1.00D-01 BMatC= 4.07D-10 BMatP= 3.62D-09
 IDIUse=1 WtCom= 1.00D+00 WtEn= 0.00D+00
 Coeff-Com: -0.156D-03 0.267D-03 0.984D-03-0.238D-03-0.620D-02-0.216D-03
 Coeff-Com:  0.394D-01 0.402D-02-0.177D+00-0.831D-02 0.115D+01
 Coeff:     -0.156D-03 0.267D-03 0.984D-03-0.238D-03-0.620D-02-0.216D-03
 Coeff:      0.394D-01 0.402D-02-0.177D+00-0.831D-02 0.115D+01
 Gap=     0.354 Goal=   None    Shift=    0.000
 RMSDP=5.04D-07 MaxDP=7.95D-06 DE=-1.16D-08 OVMax= 0.00D+00

 Cycle  12  Pass 1  IDiag  1:
 E= -847.125246283182     Delta-E=       -0.000000001377 Rises=F Damp=F
 DIIS: error= 6.89D-07 at cycle  12 NSaved=  12.
 NSaved=12 IEnMin=12 EnMin= -847.125246283182     IErMin=12 ErrMin= 6.89D-07
 ErrMax= 6.89D-07  0.00D+00 EMaxC= 1.00D-01 BMatC= 4.28D-11 BMatP= 4.07D-10
 IDIUse=1 WtCom= 1.00D+00 WtEn= 0.00D+00
 Coeff-Com: -0.401D-05 0.344D-05 0.130D-03 0.283D-04-0.828D-03-0.104D-02
 Coeff-Com:  0.205D-02 0.127D-01-0.939D-02-0.772D-01-0.188D+00 0.126D+01
 Coeff:     -0.401D-05 0.344D-05 0.130D-03 0.283D-04-0.828D-03-0.104D-02
 Coeff:      0.205D-02 0.127D-01-0.939D-02-0.772D-01-0.188D+00 0.126D+01
 Gap=     0.354 Goal=   None    Shift=    0.000
 RMSDP=1.95D-07 MaxDP=3.29D-06 DE=-1.38D-09 OVMax= 0.00D+00

 Cycle  13  Pass 1  IDiag  1:
 E= -847.125246283360     Delta-E=       -0.000000000177 Rises=F Damp=F
 DIIS: error= 3.54D-07 at cycle  13 NSaved=  13.
 NSaved=13 IEnMin=13 EnMin= -847.125246283360     IErMin=13 ErrMin= 3.54D-07
 ErrMax= 3.54D-07  0.00D+00 EMaxC= 1.00D-01 BMatC= 6.14D-12 BMatP= 4.28D-11
 IDIUse=1 WtCom= 1.00D+00 WtEn= 0.00D+00
 Coeff-Com:  0.143D-04-0.250D-04-0.713D-04 0.102D-04 0.511D-03 0.149D-03
 Coeff-Com: -0.361D-02-0.682D-03 0.134D-01 0.139D-01-0.130D+00 0.353D-02
 Coeff-Com:  0.110D+01
 Coeff:      0.143D-04-0.250D-04-0.713D-04 0.102D-04 0.511D-03 0.149D-03
 Coeff:     -0.361D-02-0.682D-03 0.134D-01 0.139D-01-0.130D+00 0.353D-02
 Coeff:      0.110D+01
 Gap=     0.354 Goal=   None    Shift=    0.000
 RMSDP=6.19D-08 MaxDP=1.27D-06 DE=-1.77D-10 OVMax= 0.00D+00

 Cycle  14  Pass 1  IDiag  1:
 E= -847.125246283369     Delta-E=       -0.000000000010 Rises=F Damp=F
 DIIS: error= 8.50D-08 at cycle  14 NSaved=  14.
 NSaved=14 IEnMin=14 EnMin= -847.125246283369     IErMin=14 ErrMin= 8.50D-08
 ErrMax= 8.50D-08  0.00D+00 EMaxC= 1.00D-01 BMatC= 9.63D-13 BMatP= 6.14D-12
 IDIUse=1 WtCom= 1.00D+00 WtEn= 0.00D+00
 Coeff-Com:  0.533D-06-0.521D-06-0.143D-04-0.130D-04 0.117D-03 0.190D-03
 Coeff-Com: -0.224D-03-0.181D-02 0.817D-04 0.168D-01 0.328D-01-0.208D+00
 Coeff-Com: -0.989D-01 0.126D+01
 Coeff:      0.533D-06-0.521D-06-0.143D-04-0.130D-04 0.117D-03 0.190D-03
 Coeff:     -0.224D-03-0.181D-02 0.817D-04 0.168D-01 0.328D-01-0.208D+00
 Coeff:     -0.989D-01 0.126D+01
 Gap=     0.354 Goal=   None    Shift=    0.000
 RMSDP=2.92D-08 MaxDP=4.74D-07 DE=-9.55D-12 OVMax= 0.00D+00

 Cycle  15  Pass 1  IDiag  1:
 E= -847.125246283385     Delta-E=       -0.000000000016 Rises=F Damp=F
 DIIS: error= 3.98D-08 at cycle  15 NSaved=  15.
 NSaved=15 IEnMin=15 EnMin= -847.125246283385     IErMin=15 ErrMin= 3.98D-08
 ErrMax= 3.98D-08  0.00D+00 EMaxC= 1.00D-01 BMatC= 8.20D-14 BMatP= 9.63D-13
 IDIUse=1 WtCom= 1.00D+00 WtEn= 0.00D+00
 Coeff-Com: -0.107D-05 0.176D-05 0.776D-05-0.654D-06-0.530D-04-0.335D-04
 Coeff-Com:  0.356D-03 0.215D-03-0.169D-02-0.152D-02 0.112D-01 0.103D-01
 Coeff-Com: -0.106D+00-0.588D-01 0.115D+01
 Coeff:     -0.107D-05 0.176D-05 0.776D-05-0.654D-06-0.530D-04-0.335D-04
 Coeff:      0.356D-03 0.215D-03-0.169D-02-0.152D-02 0.112D-01 0.103D-01
 Coeff:     -0.106D+00-0.588D-01 0.115D+01
 Gap=     0.354 Goal=   None    Shift=    0.000
 RMSDP=8.34D-09 MaxDP=1.40D-07 DE=-1.59D-11 OVMax= 0.00D+00

 SCF Done:  E(RHF) =  -847.125246283     A.U. after   15 cycles
            NFock= 15  Conv=0.83D-08     -V/T= 2.0090
 KE= 8.395922369748D+02 PE=-4.697748932637D+03 EE= 1.652620468812D+03
 Leave Link  502 at Wed Nov  1 19:19:14 2017, MaxMem=  3758096384 cpu:        27.6
 (Enter /share/apps/gaussian/g09_D01/g09/l801.exe)
 ExpMin= 1.69D-01 ExpMax= 1.31D+02 ExpMxC= 1.31D+02 IAcc=3 IRadAn=         5 AccDes= 0.00D+00
 HarFok:  IExCor=  205 AccDes= 0.00D+00 IRadAn=         5 IDoV=-2 UseB2=F ITyADJ=14
 ICtDFT= 12500011 ScaDFX=  1.000000  1.000000  1.000000  1.000000
 Largest valence mixing into a core orbital is  1.87D-04
 Largest core mixing into a valence orbital is  3.36D-04
 Range of M.O.s used for correlation:    21   117
 NBasis=   117 NAE=    71 NBE=    71 NFC=    20 NFV=     0
 NROrb=     97 NOA=    51 NOB=    51 NVA=    46 NVB=    46
 Leave Link  801 at Wed Nov  1 19:19:16 2017, MaxMem=  3758096384 cpu:         5.0
 (Enter /share/apps/gaussian/g09_D01/g09/l914.exe)
 RHF ground state
 MDV=  3758096384 DFT=F DoStab=F Mixed=F DoRPA=T DoScal=F NonHer=T
 Keep R1, R2, and R3 ints in memory in canonical form, NReq=72310121.
 FoFCou: FMM=F IPFlag=           0 FMFlag=           0 FMFlg1=           0
         NFxFlg=           0 DoJE=F BraDBF=F KetDBF=F FulRan=T
         wScrn=  0.000000 ICntrl=     600 IOpCl=  0 I1Cent=           0 NGrid=           0
         NMat0=    1 NMatS0=   6903 NMatT0=    0 NMatD0=    1 NMtDS0=    0 NMtDT0=    0
 Symmetry not used in FoFCou.
 Making orbital integer symmetry assigments:
     8 initial guesses have been made.
 Convergence on wavefunction:    0.001000000000000
 Davidson Disk Diagonalization:  ConvIn= 1.00D-03 SkipCon=T Conv= 1.00D-03.
 Max sub-space:   200 roots to seek:     8 dimension of matrix:         4692
 Iteration     1 Dimension     8 NMult     0 NNew      8
 CISAX will form     8 AO SS matrices at one time.
 NMat=     8 NSing=     8 JSym2X= 0.
 New state      2 was old state      6
 Excitation Energies [eV] at current iteration:
 Root      1 :     5.796145128762139
 Root      2 :     6.139098765239965
 Root      3 :     6.531556166513433
 Root      4 :     8.380837931610451
 Root      5 :     8.805013586524320
 Root      6 :     8.851293601694380
 Root      7 :     9.152952495301776
 Root      8 :     9.215324875761148
 Iteration     2 Dimension    12 NMult     8 NNew      4
 CISAX will form     4 AO SS matrices at one time.
 NMat=     4 NSing=     4 JSym2X= 0.
 New state      1 was old state      2
 Root      1 not converged, maximum delta is    0.211847868332423
 New state      2 was old state      1
 Root      2 not converged, maximum delta is    0.081340245228989
 Excitation Energies [eV] at current iteration:
 Root      1 :     3.991976584026379   Change is   -2.147122181213585
 Root      2 :     5.171159938275750   Change is   -0.624985190486390
 Iteration     3 Dimension    16 NMult    12 NNew      4
 CISAX will form     4 AO SS matrices at one time.
 NMat=     4 NSing=     4 JSym2X= 0.
 Root      1 not converged, maximum delta is    0.048202860973792
 Root      2 not converged, maximum delta is    0.039308365861880
 Excitation Energies [eV] at current iteration:
 Root      1 :     3.822698120038446   Change is   -0.169278463987933
 Root      2 :     5.094672529256210   Change is   -0.076487409019540
 Iteration     4 Dimension    20 NMult    16 NNew      4
 CISAX will form     4 AO SS matrices at one time.
 NMat=     4 NSing=     4 JSym2X= 0.
 Root      1 not converged, maximum delta is    0.008382316521647
 Root      2 not converged, maximum delta is    0.019202632598542
 Excitation Energies [eV] at current iteration:
 Root      1 :     3.809837850676054   Change is   -0.012860269362392
 Root      2 :     5.077095164817385   Change is   -0.017577364438826
 Iteration     5 Dimension    24 NMult    20 NNew      4
 CISAX will form     4 AO SS matrices at one time.
 NMat=     4 NSing=     4 JSym2X= 0.
 Root      1 not converged, maximum delta is    0.002674591938415
 Root      2 not converged, maximum delta is    0.013015711886062
 Excitation Energies [eV] at current iteration:
 Root      1 :     3.808208158293645   Change is   -0.001629692382409
 Root      2 :     5.073106973177232   Change is   -0.003988191640152
 Iteration     6 Dimension    28 NMult    24 NNew      4
 CISAX will form     4 AO SS matrices at one time.
 NMat=     4 NSing=     4 JSym2X= 0.
 Root      1 not converged, maximum delta is    0.001056302165332
 Root      2 not converged, maximum delta is    0.008648536915391
 Excitation Energies [eV] at current iteration:
 Root      1 :     3.807937243189709   Change is   -0.000270915103936
 Root      2 :     5.071949164116276   Change is   -0.001157809060957
 Iteration     7 Dimension    32 NMult    28 NNew      4
 CISAX will form     4 AO SS matrices at one time.
 NMat=     4 NSing=     4 JSym2X= 0.
 Root      1 has converged.
 Root      2 not converged, maximum delta is    0.004702972677751
 Excitation Energies [eV] at current iteration:
 Root      1 :     3.807904840969798   Change is   -0.000032402219912
 Root      2 :     5.071646863751751   Change is   -0.000302300364524
 Iteration     8 Dimension    34 NMult    32 NNew      2
 CISAX will form     2 AO SS matrices at one time.
 NMat=     2 NSing=     2 JSym2X= 0.
 Root      1 has converged.
 Root      2 not converged, maximum delta is    0.001786407925474
 Excitation Energies [eV] at current iteration:
 Root      1 :     3.807904824527734   Change is   -0.000000016442064
 Root      2 :     5.071587286414957   Change is   -0.000059577336795
 Iteration     9 Dimension    36 NMult    34 NNew      2
 CISAX will form     2 AO SS matrices at one time.
 NMat=     2 NSing=     2 JSym2X= 0.
 Root      1 has converged.
 Root      2 has converged.
 Excitation Energies [eV] at current iteration:
 Root      1 :     3.807904812375939   Change is   -0.000000012151795
 Root      2 :     5.071574935213241   Change is   -0.000012351201716
 Convergence achieved on expansion vectors.
 ***********************************************************************
 Excited states from <AA,BB:AA,BB> singles matrix:
 ***********************************************************************
 
 1PDM for each excited state written to RWF  633
 Ground to excited state transition densities written to RWF  633
 Ground to excited state transition electric dipole moments (Au):
       state          X           Y           Z        Dip. S.      Osc.
         1        -0.0441      0.0071      0.0174      0.0023      0.0002
         2        -3.3089      0.2720      1.3083     12.7346      1.5823
 Ground to excited state transition velocity dipole moments (Au):
       state          X           Y           Z        Dip. S.      Osc.
         1         0.0029     -0.0030     -0.0036      0.0000      0.0001
         2         0.3800     -0.0341     -0.1437      0.1662      0.5945
 Ground to excited state transition magnetic dipole moments (Au):
       state          X           Y           Z
         1         0.0598     -0.3731      0.6189
         2         0.4281      1.8060      0.6169
 Ground to excited state transition velocity quadrupole moments (Au):
       state          XX          YY          ZZ          XY          XZ          YZ
         1        -0.0196      0.0045     -0.0148     -0.0284      0.0144      0.0055
         2        -0.4668      0.1412     -1.8178     -1.0904      2.5375      0.1843
 <0|del|b> * <b|rxdel|0> + <0|del|b> * <b|delr+rdel|0>
 Rotatory Strengths (R) in cgs (10**-40 erg-esu-cm/Gauss)
       state          XX          YY          ZZ    R(velocity)    E-M Angle
         1        -2.4981     -5.4806      3.1260     -1.6176      103.78
         2       176.4770    -24.0894   -105.4178     15.6566       89.11
 1/2[<0|r|b>*<b|rxdel|0> + (<0|rxdel|b>*<b|r|0>)*]
 Rotatory Strengths (R) in cgs (10**-40 erg-esu-cm/Gauss)
       state          XX          YY          ZZ     R(length)
         1         1.8665      1.8719     -7.6329     -1.2982
         2      1001.8082   -347.3382   -570.7359     27.9114
  1/2[<0|del|b>*<b|r|0> + (<0|r|b>*<b|del|0>)*] (Au)
       state          X           Y           Z        Dip. S.   Osc.(frdel)
         1        -0.0001      0.0000     -0.0001      0.0002      0.0001
         2        -1.2573     -0.0093     -0.1881      1.4547      0.9698

 Excitation energies and oscillator strengths:
 
 Excited state symmetry could not be determined.
 Excited State   1:      Singlet-?Sym    3.8079 eV  325.60 nm  f=0.0002  <S**2>=0.000
      63 -> 72         0.14594
      67 -> 72         0.58087
      67 -> 73        -0.19273
      67 -> 76        -0.17599
      67 -> 77        -0.16946
 This state for optimization and/or second-order correction.
 Total Energy, E(TD-HF/TD-KS) =  -846.985308350    
 Copying the excited state density for this state as the 1-particle RhoCI density.
 
 Excited state symmetry could not be determined.
 Excited State   2:      Singlet-?Sym    5.0716 eV  244.47 nm  f=1.5823  <S**2>=0.000
      66 -> 72        -0.15058
      70 -> 73         0.10560
      71 -> 72         0.64158
      71 -> 73         0.16755
 SavETr:  write IOETrn=   770 NScale= 10 NData=  16 NLR=1 NState=    2 LETran=      46.
 Leave Link  914 at Wed Nov  1 19:19:31 2017, MaxMem=  3758096384 cpu:        29.0
 (Enter /share/apps/gaussian/g09_D01/g09/l601.exe)
 Copying SCF densities to generalized density rwf, IOpCl= 0 IROHF=0.

 **********************************************************************

            Population analysis using the SCF density.

 **********************************************************************

 Alpha  occ. eigenvalues --  -20.23957 -20.22941 -15.37562 -11.12448 -11.10560
 Alpha  occ. eigenvalues --  -11.10505 -11.10471 -11.08696 -11.05806 -11.04498
 Alpha  occ. eigenvalues --  -11.04414 -11.03505 -11.03461 -11.02882 -11.02025
 Alpha  occ. eigenvalues --  -11.01931 -11.01571 -11.01325 -11.00815 -11.00494
 Alpha  occ. eigenvalues --   -1.31288  -1.26644  -1.21908  -1.09512  -1.07698
 Alpha  occ. eigenvalues --   -1.02164  -0.97444  -0.97212  -0.94392  -0.94017
 Alpha  occ. eigenvalues --   -0.92920  -0.87346  -0.81642  -0.78470  -0.77467
 Alpha  occ. eigenvalues --   -0.74500  -0.72717  -0.68432  -0.67034  -0.64445
 Alpha  occ. eigenvalues --   -0.61894  -0.61790  -0.60967  -0.60150  -0.58389
 Alpha  occ. eigenvalues --   -0.56849  -0.55417  -0.54717  -0.54666  -0.54051
 Alpha  occ. eigenvalues --   -0.52325  -0.51169  -0.50761  -0.50600  -0.49964
 Alpha  occ. eigenvalues --   -0.47955  -0.47107  -0.46646  -0.45711  -0.44661
 Alpha  occ. eigenvalues --   -0.44319  -0.42063  -0.39910  -0.39085  -0.38707
 Alpha  occ. eigenvalues --   -0.30471  -0.29847  -0.29647  -0.27326  -0.21778
 Alpha  occ. eigenvalues --   -0.19732
 Alpha virt. eigenvalues --    0.15663   0.23863   0.26956   0.29128   0.32302
 Alpha virt. eigenvalues --    0.41135   0.51268   0.53205   0.53548   0.56115
 Alpha virt. eigenvalues --    0.57272   0.58087   0.59598   0.62550   0.63120
 Alpha virt. eigenvalues --    0.64758   0.65915   0.66610   0.66928   0.67962
 Alpha virt. eigenvalues --    0.69372   0.69777   0.70210   0.70360   0.71647
 Alpha virt. eigenvalues --    0.72453   0.73626   0.74886   0.74945   0.76628
 Alpha virt. eigenvalues --    0.78194   0.82227   0.84332   0.86475   0.89246
 Alpha virt. eigenvalues --    0.89862   0.91206   0.92654   0.93724   0.95031
 Alpha virt. eigenvalues --    0.98999   1.03614   1.10059   1.11695   1.14447
 Alpha virt. eigenvalues --    1.15667
          Condensed to atoms (all electrons):
               1          2          3          4          5          6
     1  C    4.822824   0.483668   0.395850   0.524826  -0.027989  -0.027804
     2  C    0.483668   4.662212  -0.024434  -0.027782   0.486861   0.409877
     3  H    0.395850  -0.024434   0.605201  -0.026671   0.001147  -0.002091
     4  C    0.524826  -0.027782  -0.026671   4.755477  -0.010030   0.000539
     5  C   -0.027989   0.486861   0.001147  -0.010030   4.822892  -0.028107
     6  N   -0.027804   0.409877  -0.002091   0.000539  -0.028107   6.364932
     7  C   -0.029050  -0.009305   0.001347   0.488605  -0.028865   0.000019
     8  H   -0.026799   0.001382  -0.004591   0.391879   0.000029  -0.000009
     9  C   -0.010486  -0.028113   0.000041  -0.033321   0.522121   0.000548
    10  H    0.001155  -0.024609  -0.000032   0.000036   0.395572  -0.002158
    11  C   -0.006360  -0.036060  -0.002168   0.000037   0.001014   0.348408
    12  C    0.000991  -0.035488   0.000010  -0.000010  -0.006142   0.347919
    13  C    0.000811   0.000015  -0.000016  -0.025976   0.000902   0.000000
    14  H    0.000034   0.001367   0.000002   0.001343  -0.025822  -0.000009
    15  H   -0.000590  -0.001939  -0.001419   0.000020   0.000015  -0.022392
    16  H    0.000109   0.001588   0.000058  -0.000001  -0.000022  -0.019013
    17  H   -0.000316  -0.001608  -0.001230   0.000016   0.000009  -0.022991
    18  H   -0.000022   0.001574  -0.000001   0.000000   0.000105  -0.019127
    19  H    0.000004  -0.001361   0.000000   0.000000  -0.000321  -0.022871
    20  H    0.000018  -0.002089   0.000000   0.000000  -0.000467  -0.022357
    21  C    0.000020   0.000000   0.000000  -0.004118  -0.000007   0.000000
    22  H   -0.000018  -0.000001   0.000000   0.001208   0.000038   0.000000
    23  C    0.000000   0.000000   0.000000   0.000009   0.000000   0.000000
    24  H   -0.000004   0.000000   0.000002  -0.000782   0.000000   0.000000
    25  C    0.000000   0.000000   0.000000   0.000000   0.000000   0.000000
    26  O    0.000000   0.000000   0.000000   0.000000   0.000000   0.000000
    27  C    0.000000   0.000000   0.000000   0.000000   0.000000   0.000000
    28  C    0.000000   0.000000   0.000000   0.000000   0.000000   0.000000
    29  H    0.000000   0.000000   0.000000   0.000000   0.000000   0.000000
    30  O    0.000000   0.000000   0.000000   0.000000   0.000000   0.000000
    31  C    0.000000   0.000000   0.000000   0.000000   0.000000   0.000000
    32  C    0.000000   0.000000   0.000000   0.000000   0.000000   0.000000
    33  H    0.000000   0.000000   0.000000   0.000000   0.000000   0.000000
    34  C    0.000000   0.000000   0.000000   0.000000   0.000000   0.000000
    35  H    0.000000   0.000000   0.000000   0.000000   0.000000   0.000000
    36  H    0.000000   0.000000   0.000000   0.000000   0.000000   0.000000
    37  H    0.000000   0.000000   0.000000   0.000000   0.000000   0.000000
               7          8          9         10         11         12
     1  C   -0.029050  -0.026799  -0.010486   0.001155  -0.006360   0.000991
     2  C   -0.009305   0.001382  -0.028113  -0.024609  -0.036060  -0.035488
     3  H    0.001347  -0.004591   0.000041  -0.000032  -0.002168   0.000010
     4  C    0.488605   0.391879  -0.033321   0.000036   0.000037  -0.000010
     5  C   -0.028865   0.000029   0.522121   0.395572   0.001014  -0.006142
     6  N    0.000019  -0.000009   0.000548  -0.002158   0.348408   0.347919
     7  C    4.790586  -0.023990   0.492220   0.001332   0.000000   0.000000
     8  H   -0.023990   0.600141   0.001336   0.000002   0.000000   0.000000
     9  C    0.492220   0.001336   4.760438  -0.026126  -0.000010   0.000035
    10  H    0.001332   0.000002  -0.026126   0.604346   0.000011  -0.002028
    11  C    0.000000   0.000000  -0.000010   0.000011   4.649771  -0.032303
    12  C    0.000000   0.000000   0.000035  -0.002028  -0.032303   4.649152
    13  C    0.435478  -0.002883  -0.032000  -0.000017   0.000000   0.000000
    14  H   -0.025375  -0.000034   0.391875  -0.004277   0.000000   0.000000
    15  H   -0.000001   0.000001   0.000000   0.000000   0.380937   0.001179
    16  H    0.000000   0.000000   0.000000  -0.000001   0.384413  -0.006182
    17  H   -0.000001   0.000001   0.000000   0.000000   0.380513   0.001097
    18  H    0.000000   0.000000   0.000000   0.000055  -0.006225   0.384398
    19  H   -0.000001   0.000000   0.000013  -0.001114   0.001099   0.380397
    20  H   -0.000001   0.000000   0.000020  -0.001412   0.001177   0.380906
    21  C   -0.024947  -0.000828   0.000762   0.000000   0.000000   0.000000
    22  H   -0.026441   0.000008  -0.004881  -0.000002   0.000000   0.000000
    23  C    0.000808  -0.000002  -0.000007   0.000000   0.000000   0.000000
    24  H   -0.003124  -0.000621   0.000006   0.000000   0.000000   0.000000
    25  C   -0.000005   0.000001   0.000000   0.000000   0.000000   0.000000
    26  O    0.000002   0.000000   0.000000   0.000000   0.000000   0.000000
    27  C    0.000000   0.000000   0.000000   0.000000   0.000000   0.000000
    28  C    0.000000   0.000000   0.000000   0.000000   0.000000   0.000000
    29  H    0.000000   0.000000   0.000000   0.000000   0.000000   0.000000
    30  O    0.000000   0.000000   0.000000   0.000000   0.000000   0.000000
    31  C    0.000000   0.000000   0.000000   0.000000   0.000000   0.000000
    32  C    0.000000   0.000000   0.000000   0.000000   0.000000   0.000000
    33  H    0.000002  -0.000006   0.000000   0.000000   0.000000   0.000000
    34  C    0.000000   0.000000   0.000000   0.000000   0.000000   0.000000
    35  H    0.000000   0.000000   0.000000   0.000000   0.000000   0.000000
    36  H    0.000000   0.000000   0.000000   0.000000   0.000000   0.000000
    37  H    0.000000   0.000000   0.000000   0.000000   0.000000   0.000000
              13         14         15         16         17         18
     1  C    0.000811   0.000034  -0.000590   0.000109  -0.000316  -0.000022
     2  C    0.000015   0.001367  -0.001939   0.001588  -0.001608   0.001574
     3  H   -0.000016   0.000002  -0.001419   0.000058  -0.001230  -0.000001
     4  C   -0.025976   0.001343   0.000020  -0.000001   0.000016   0.000000
     5  C    0.000902  -0.025822   0.000015  -0.000022   0.000009   0.000105
     6  N    0.000000  -0.000009  -0.022392  -0.019013  -0.022991  -0.019127
     7  C    0.435478  -0.025375  -0.000001   0.000000  -0.000001   0.000000
     8  H   -0.002883  -0.000034   0.000001   0.000000   0.000001   0.000000
     9  C   -0.032000   0.391875   0.000000   0.000000   0.000000   0.000000
    10  H   -0.000017  -0.004277   0.000000  -0.000001   0.000000   0.000055
    11  C    0.000000   0.000000   0.380937   0.384413   0.380513  -0.006225
    12  C    0.000000   0.000000   0.001179  -0.006182   0.001097   0.384398
    13  C    4.745399  -0.004236   0.000000   0.000000   0.000000   0.000000
    14  H   -0.004236   0.599791   0.000000   0.000000   0.000000   0.000000
    15  H    0.000000   0.000000   0.619375  -0.020188  -0.025355   0.000086
    16  H    0.000000   0.000000  -0.020188   0.605586  -0.020897  -0.000570
    17  H    0.000000   0.000000  -0.025355  -0.020897   0.622036   0.000135
    18  H    0.000000   0.000000   0.000086  -0.000570   0.000135   0.605349
    19  H    0.000000   0.000001   0.000034   0.000129  -0.000061  -0.020798
    20  H    0.000000   0.000001  -0.000056   0.000090   0.000035  -0.020071
    21  C    0.561603   0.000028   0.000000   0.000000   0.000000   0.000000
    22  H    0.388305   0.000512   0.000000   0.000000   0.000000   0.000000
    23  C   -0.027237  -0.000001   0.000000   0.000000   0.000000   0.000000
    24  H   -0.025980   0.000000   0.000000   0.000000   0.000000   0.000000
    25  C    0.000720   0.000000   0.000000   0.000000   0.000000   0.000000
    26  O   -0.002934   0.000000   0.000000   0.000000   0.000000   0.000000
    27  C   -0.000007   0.000000   0.000000   0.000000   0.000000   0.000000
    28  C    0.000026   0.000000   0.000000   0.000000   0.000000   0.000000
    29  H    0.000009   0.000000   0.000000   0.000000   0.000000   0.000000
    30  O    0.000000   0.000000   0.000000   0.000000   0.000000   0.000000
    31  C    0.000000   0.000000   0.000000   0.000000   0.000000   0.000000
    32  C    0.000000   0.000000   0.000000   0.000000   0.000000   0.000000
    33  H    0.000004   0.000000   0.000000   0.000000   0.000000   0.000000
    34  C    0.000000   0.000000   0.000000   0.000000   0.000000   0.000000
    35  H    0.000000   0.000000   0.000000   0.000000   0.000000   0.000000
    36  H    0.000000   0.000000   0.000000   0.000000   0.000000   0.000000
    37  H    0.000000   0.000000   0.000000   0.000000   0.000000   0.000000
              19         20         21         22         23         24
     1  C    0.000004   0.000018   0.000020  -0.000018   0.000000  -0.000004
     2  C   -0.001361  -0.002089   0.000000  -0.000001   0.000000   0.000000
     3  H    0.000000   0.000000   0.000000   0.000000   0.000000   0.000002
     4  C    0.000000   0.000000  -0.004118   0.001208   0.000009  -0.000782
     5  C   -0.000321  -0.000467  -0.000007   0.000038   0.000000   0.000000
     6  N   -0.022871  -0.022357   0.000000   0.000000   0.000000   0.000000
     7  C   -0.000001  -0.000001  -0.024947  -0.026441   0.000808  -0.003124
     8  H    0.000000   0.000000  -0.000828   0.000008  -0.000002  -0.000621
     9  C    0.000013   0.000020   0.000762  -0.004881  -0.000007   0.000006
    10  H   -0.001114  -0.001412   0.000000  -0.000002   0.000000   0.000000
    11  C    0.001099   0.001177   0.000000   0.000000   0.000000   0.000000
    12  C    0.380397   0.380906   0.000000   0.000000   0.000000   0.000000
    13  C    0.000000   0.000000   0.561603   0.388305  -0.027237  -0.025980
    14  H    0.000001   0.000001   0.000028   0.000512  -0.000001   0.000000
    15  H    0.000034  -0.000056   0.000000   0.000000   0.000000   0.000000
    16  H    0.000129   0.000090   0.000000   0.000000   0.000000   0.000000
    17  H   -0.000061   0.000035   0.000000   0.000000   0.000000   0.000000
    18  H   -0.020798  -0.020071   0.000000   0.000000   0.000000   0.000000
    19  H    0.621144  -0.025269   0.000000   0.000000   0.000000   0.000000
    20  H   -0.025269   0.618689   0.000000   0.000000   0.000000   0.000000
    21  C    0.000000   0.000000   4.858396  -0.027793   0.416178   0.393058
    22  H    0.000000   0.000000  -0.027793   0.590035  -0.004992   0.001898
    23  C    0.000000   0.000000   0.416178  -0.004992   4.721264  -0.024497
    24  H    0.000000   0.000000   0.393058   0.001898  -0.024497   0.606347
    25  C    0.000000   0.000000  -0.032235   0.000045   0.406355  -0.002258
    26  O    0.000000   0.000000  -0.025115   0.001358   0.388577   0.000541
    27  C    0.000000   0.000000   0.000660  -0.000001  -0.027855   0.000019
    28  C    0.000000   0.000000  -0.003830  -0.000002  -0.022987  -0.002340
    29  H    0.000000   0.000000   0.000474  -0.000006  -0.011468  -0.000014
    30  O    0.000000   0.000000  -0.000018   0.000000  -0.000827   0.000001
    31  C    0.000000   0.000000  -0.000007   0.000000   0.000725   0.000000
    32  C    0.000000   0.000000   0.000018   0.000000   0.000705   0.000017
    33  H    0.000000   0.000000  -0.001823  -0.000001  -0.002851  -0.001638
    34  C    0.000000   0.000000   0.000000   0.000000   0.000016   0.000000
    35  H    0.000000   0.000000   0.000000   0.000000  -0.000017   0.000000
    36  H    0.000000   0.000000   0.000001   0.000000  -0.000013   0.000002
    37  H    0.000000   0.000000   0.000000   0.000000   0.000000   0.000000
              25         26         27         28         29         30
     1  C    0.000000   0.000000   0.000000   0.000000   0.000000   0.000000
     2  C    0.000000   0.000000   0.000000   0.000000   0.000000   0.000000
     3  H    0.000000   0.000000   0.000000   0.000000   0.000000   0.000000
     4  C    0.000000   0.000000   0.000000   0.000000   0.000000   0.000000
     5  C    0.000000   0.000000   0.000000   0.000000   0.000000   0.000000
     6  N    0.000000   0.000000   0.000000   0.000000   0.000000   0.000000
     7  C   -0.000005   0.000002   0.000000   0.000000   0.000000   0.000000
     8  H    0.000001   0.000000   0.000000   0.000000   0.000000   0.000000
     9  C    0.000000   0.000000   0.000000   0.000000   0.000000   0.000000
    10  H    0.000000   0.000000   0.000000   0.000000   0.000000   0.000000
    11  C    0.000000   0.000000   0.000000   0.000000   0.000000   0.000000
    12  C    0.000000   0.000000   0.000000   0.000000   0.000000   0.000000
    13  C    0.000720  -0.002934  -0.000007   0.000026   0.000009   0.000000
    14  H    0.000000   0.000000   0.000000   0.000000   0.000000   0.000000
    15  H    0.000000   0.000000   0.000000   0.000000   0.000000   0.000000
    16  H    0.000000   0.000000   0.000000   0.000000   0.000000   0.000000
    17  H    0.000000   0.000000   0.000000   0.000000   0.000000   0.000000
    18  H    0.000000   0.000000   0.000000   0.000000   0.000000   0.000000
    19  H    0.000000   0.000000   0.000000   0.000000   0.000000   0.000000
    20  H    0.000000   0.000000   0.000000   0.000000   0.000000   0.000000
    21  C   -0.032235  -0.025115   0.000660  -0.003830   0.000474  -0.000018
    22  H    0.000045   0.001358  -0.000001  -0.000002  -0.000006   0.000000
    23  C    0.406355   0.388577  -0.027855  -0.022987  -0.011468  -0.000827
    24  H   -0.002258   0.000541   0.000019  -0.002340  -0.000014   0.000001
    25  C    4.884031  -0.024791   0.476676   0.493385  -0.011760  -0.019011
    26  O   -0.024791   7.911022  -0.000607   0.000253   0.050666  -0.015941
    27  C    0.476676  -0.000607   4.738640  -0.029888  -0.041129   0.309727
    28  C    0.493385   0.000253  -0.029888   4.762241   0.000114   0.000275
    29  H   -0.011760   0.050666  -0.041129   0.000114   0.511899   0.236604
    30  O   -0.019011  -0.015941   0.309727   0.000275   0.236604   7.846301
    31  C   -0.030396  -0.000026   0.483848  -0.010351   0.002578  -0.024847
    32  C   -0.028556  -0.000001  -0.010383   0.517899  -0.000002   0.000009
    33  H   -0.024509   0.000004   0.001249   0.391757  -0.000004  -0.000005
    34  C   -0.009274   0.000000  -0.028311  -0.031464  -0.000052   0.000312
    35  H    0.001229   0.000000  -0.026535   0.000032   0.000030  -0.000874
    36  H    0.001276   0.000000   0.000031  -0.025716   0.000000   0.000000
    37  H    0.000012   0.000000   0.001370   0.001409   0.000001  -0.000005
              31         32         33         34         35         36
     1  C    0.000000   0.000000   0.000000   0.000000   0.000000   0.000000
     2  C    0.000000   0.000000   0.000000   0.000000   0.000000   0.000000
     3  H    0.000000   0.000000   0.000000   0.000000   0.000000   0.000000
     4  C    0.000000   0.000000   0.000000   0.000000   0.000000   0.000000
     5  C    0.000000   0.000000   0.000000   0.000000   0.000000   0.000000
     6  N    0.000000   0.000000   0.000000   0.000000   0.000000   0.000000
     7  C    0.000000   0.000000   0.000002   0.000000   0.000000   0.000000
     8  H    0.000000   0.000000  -0.000006   0.000000   0.000000   0.000000
     9  C    0.000000   0.000000   0.000000   0.000000   0.000000   0.000000
    10  H    0.000000   0.000000   0.000000   0.000000   0.000000   0.000000
    11  C    0.000000   0.000000   0.000000   0.000000   0.000000   0.000000
    12  C    0.000000   0.000000   0.000000   0.000000   0.000000   0.000000
    13  C    0.000000   0.000000   0.000004   0.000000   0.000000   0.000000
    14  H    0.000000   0.000000   0.000000   0.000000   0.000000   0.000000
    15  H    0.000000   0.000000   0.000000   0.000000   0.000000   0.000000
    16  H    0.000000   0.000000   0.000000   0.000000   0.000000   0.000000
    17  H    0.000000   0.000000   0.000000   0.000000   0.000000   0.000000
    18  H    0.000000   0.000000   0.000000   0.000000   0.000000   0.000000
    19  H    0.000000   0.000000   0.000000   0.000000   0.000000   0.000000
    20  H    0.000000   0.000000   0.000000   0.000000   0.000000   0.000000
    21  C   -0.000007   0.000018  -0.001823   0.000000   0.000000   0.000001
    22  H    0.000000   0.000000  -0.000001   0.000000   0.000000   0.000000
    23  C    0.000725   0.000705  -0.002851   0.000016  -0.000017  -0.000013
    24  H    0.000000   0.000017  -0.001638   0.000000   0.000000   0.000002
    25  C   -0.030396  -0.028556  -0.024509  -0.009274   0.001229   0.001276
    26  O   -0.000026  -0.000001   0.000004   0.000000   0.000000   0.000000
    27  C    0.483848  -0.010383   0.001249  -0.028311  -0.026535   0.000031
    28  C   -0.010351   0.517899   0.391757  -0.031464   0.000032  -0.025716
    29  H    0.002578  -0.000002  -0.000004  -0.000052   0.000030   0.000000
    30  O   -0.024847   0.000009  -0.000005   0.000312  -0.000874   0.000000
    31  C    4.821181  -0.030785   0.000018   0.517486   0.392819   0.001323
    32  C   -0.030785   4.803004  -0.026782   0.494666   0.001308   0.394945
    33  H    0.000018  -0.026782   0.606782   0.001489   0.000002  -0.004055
    34  C    0.517486   0.494666   0.001489   4.751165  -0.023510  -0.025215
    35  H    0.392819   0.001308   0.000002  -0.023510   0.591953  -0.000029
    36  H    0.001323   0.394945  -0.004055  -0.025215  -0.000029   0.605501
    37  H   -0.025146  -0.025062  -0.000035   0.391652  -0.003567  -0.003444
              37
     1  C    0.000000
     2  C    0.000000
     3  H    0.000000
     4  C    0.000000
     5  C    0.000000
     6  N    0.000000
     7  C    0.000000
     8  H    0.000000
     9  C    0.000000
    10  H    0.000000
    11  C    0.000000
    12  C    0.000000
    13  C    0.000000
    14  H    0.000000
    15  H    0.000000
    16  H    0.000000
    17  H    0.000000
    18  H    0.000000
    19  H    0.000000
    20  H    0.000000
    21  C    0.000000
    22  H    0.000000
    23  C    0.000000
    24  H    0.000000
    25  C    0.000012
    26  O    0.000000
    27  C    0.001370
    28  C    0.001409
    29  H    0.000001
    30  O   -0.000005
    31  C   -0.025146
    32  C   -0.025062
    33  H   -0.000035
    34  C    0.391652
    35  H   -0.003567
    36  H   -0.003444
    37  H    0.597873
 Mulliken charges:
               1
     1  C   -0.100873
     2  C    0.144245
     3  H    0.058996
     4  C   -0.035303
     5  C   -0.102931
     6  N   -0.283312
     7  C   -0.039291
     8  H    0.064982
     9  C   -0.034469
    10  H    0.059270
    11  C   -0.064252
    12  C   -0.063930
    13  C   -0.011984
    14  H    0.064801
    15  H    0.070294
    16  H    0.074900
    17  H    0.068618
    18  H    0.075113
    19  H    0.068974
    20  H    0.070786
    21  C   -0.110475
    22  H    0.080730
    23  C    0.188116
    24  H    0.059368
    25  C   -0.080933
    26  O   -0.283008
    27  C    0.152496
    28  C   -0.040814
    29  H    0.262063
    30  O   -0.331702
    31  C   -0.098419
    32  C   -0.091000
    33  H    0.060401
    34  C   -0.038958
    35  H    0.067160
    36  H    0.055395
    37  H    0.064941
 Sum of Mulliken charges =   0.00000
 Mulliken charges with hydrogens summed into heavy atoms:
               1
     1  C   -0.041877
     2  C    0.144245
     4  C    0.029679
     5  C   -0.043661
     6  N   -0.283312
     7  C   -0.039291
     9  C    0.030332
    11  C    0.149561
    12  C    0.150945
    13  C    0.068747
    21  C   -0.051107
    23  C    0.188116
    25  C   -0.080933
    26  O   -0.283008
    27  C    0.152496
    28  C    0.019588
    30  O   -0.069639
    31  C   -0.031259
    32  C   -0.035605
    34  C    0.025983
 Electronic spatial extent (au):  <R**2>=          16330.7528
 Charge=              0.0000 electrons
 Dipole moment (field-independent basis, Debye):
    X=             -5.8558    Y=             -0.7423    Z=              4.2415  Tot=              7.2685
 Quadrupole moment (field-independent basis, Debye-Ang):
   XX=            -96.4492   YY=           -105.7244   ZZ=            -86.4610
   XY=              2.7358   XZ=            -16.9993   YZ=             -9.1646
 Traceless Quadrupole moment (field-independent basis, Debye-Ang):
   XX=             -0.2377   YY=             -9.5128   ZZ=              9.7505
   XY=              2.7358   XZ=            -16.9993   YZ=             -9.1646
 Octapole moment (field-independent basis, Debye-Ang**2):
  XXX=           -194.7388  YYY=            481.6986  ZZZ=           -900.3760  XYY=            -10.6434
  XXY=            138.0527  XXZ=           -201.8789  XZZ=           -125.9610  YZZ=            104.7233
  YYZ=           -320.0170  XYZ=             17.5690
 Hexadecapole moment (field-independent basis, Debye-Ang**3):
 XXXX=          -9570.4681 YYYY=          -2178.4292 ZZZZ=          -7658.6015 XXXY=            738.0899
 XXXZ=            877.9240 YYYX=            729.8819 YYYZ=           1535.7612 ZZZX=            879.7745
 ZZZY=           1240.3109 XXYY=          -2024.7663 XXZZ=          -2377.5434 YYZZ=          -1621.4266
 XXYZ=            321.6540 YYXZ=            515.2388 ZZXY=            410.6509
 N-N= 1.358410980567D+03 E-N=-4.697748932744D+03  KE= 8.395922369748D+02
 Leave Link  601 at Wed Nov  1 19:19:31 2017, MaxMem=  3758096384 cpu:         0.4
 (Enter /share/apps/gaussian/g09_D01/g09/l9999.exe)
 1\1\GINC-SM7\SP\RTD-FC\STO-3G\C17H17N1O2\BTX008\01-Nov-2017\0\\#p HF/S
 TO-3G td=(nstates=2) nosymm\\Title\\0,1\C,0,-2.781614,-1.929857,4.9490
 57\C,0,-3.899567,-1.104949,4.623044\H,0,-2.857302,-2.667213,5.743983\C
 ,0,-1.589403,-1.806976,4.273514\C,0,-3.73394,-0.167547,3.566427\N,0,-5
 .073462,-1.209339,5.297522\C,0,-1.415409,-0.871998,3.222876\H,0,-0.764
 905,-2.460304,4.561627\C,0,-2.533855,-0.067726,2.896805\H,0,-4.562114,
 0.469394,3.265867\C,0,-5.218792,-2.191368,6.360707\C,0,-6.187049,-0.32
 4912,4.983813\C,0,-0.21471,-0.745572,2.457648\H,0,-2.436476,0.649787,2
 .08077\H,0,-5.026172,-3.209094,5.987337\H,0,-6.238463,-2.151217,6.7546
 88\H,0,-4.519211,-1.99012,7.185557\H,0,-7.004935,-0.516059,5.685339\H,
 0,-6.554969,-0.493575,3.959922\H,0,-5.886296,0.730066,5.072453\C,0,0.9
 68167,-1.412456,2.645758\H,0,-0.25758,-0.050548,1.612086\C,0,2.088236,
 -1.238428,1.759478\H,0,1.074163,-2.099815,3.482603\C,0,3.380024,-1.901
 192,2.027274\O,0,1.99078,-0.498466,0.713431\C,0,4.460431,-1.697998,1.1
 16638\C,0,3.61705,-2.723616,3.149104\H,0,3.311671,-0.613585,0.091837\O
 ,0,4.303032,-0.944233,0.010896\C,0,5.713299,-2.280435,1.366002\C,0,4.8
 52786,-3.30849,3.380164\H,0,2.81664,-2.920673,3.860494\C,0,5.905928,-3
 .076949,2.485036\H,0,6.521299,-2.073366,0.66433\H,0,5.001608,-3.946366
 ,4.250925\H,0,6.883564,-3.522908,2.674804\\Version=ES64L-G09RevD.01\HF
 =-847.1252463\RMSD=8.341e-09\PG=C01 [X(C17H17N1O2)]\\@


 WHEN YOU REACH FOR THE STARS, YOU MAY NOT QUITE GET ONE,
 BUT YOU WON'T COME UP WITH A HANDFUL OF MUD, EITHER.

                                         -- LEO BURNETT (AD AGENCY HEAD)
 Job cpu time:       0 days  0 hours  1 minutes 13.4 seconds.
 File lengths (MBytes):  RWF=     27 Int=      0 D2E=      0 Chk=      9 Scr=      1
 Normal termination of Gaussian 09 at Wed Nov  1 19:19:31 2017.
