 Entering Gaussian System, Link 0=g09
 Input=2hc_1_rel-mega_dimer_0.com
 Output=2hc_1_rel-mega_dimer_0.out
 Initial command:
 /share/apps/gaussian/g09_D01/g09/l1.exe "/tmp/159434.1.all.q/Gau-57392.inp" -scrdir="/tmp/159434.1.all.q/"
 Entering Link 1 = /share/apps/gaussian/g09_D01/g09/l1.exe PID=     57393.
  
 Copyright (c) 1988,1990,1992,1993,1995,1998,2003,2009,2013,
            Gaussian, Inc.  All Rights Reserved.
  
 This is part of the Gaussian(R) 09 program.  It is based on
 the Gaussian(R) 03 system (copyright 2003, Gaussian, Inc.),
 the Gaussian(R) 98 system (copyright 1998, Gaussian, Inc.),
 the Gaussian(R) 94 system (copyright 1995, Gaussian, Inc.),
 the Gaussian 92(TM) system (copyright 1992, Gaussian, Inc.),
 the Gaussian 90(TM) system (copyright 1990, Gaussian, Inc.),
 the Gaussian 88(TM) system (copyright 1988, Gaussian, Inc.),
 the Gaussian 86(TM) system (copyright 1986, Carnegie Mellon
 University), and the Gaussian 82(TM) system (copyright 1983,
 Carnegie Mellon University). Gaussian is a federally registered
 trademark of Gaussian, Inc.
  
 This software contains proprietary and confidential information,
 including trade secrets, belonging to Gaussian, Inc.
  
 This software is provided under written license and may be
 used, copied, transmitted, or stored only in accord with that
 written license.
  
 The following legend is applicable only to US Government
 contracts under FAR:
  
                    RESTRICTED RIGHTS LEGEND
  
 Use, reproduction and disclosure by the US Government is
 subject to restrictions as set forth in subparagraphs (a)
 and (c) of the Commercial Computer Software - Restricted
 Rights clause in FAR 52.227-19.
  
 Gaussian, Inc.
 340 Quinnipiac St., Bldg. 40, Wallingford CT 06492
  
  
 ---------------------------------------------------------------
 Warning -- This program may not be used in any manner that
 competes with the business of Gaussian, Inc. or will provide
 assistance to any competitor of Gaussian, Inc.  The licensee
 of this program is prohibited from giving any competitor of
 Gaussian, Inc. access to this program.  By using this program,
 the user acknowledges that Gaussian, Inc. is engaged in the
 business of creating and licensing software in the field of
 computational chemistry and represents and warrants to the
 licensee that it is not a competitor of Gaussian, Inc. and that
 it will not use this program in any manner prohibited above.
 ---------------------------------------------------------------
  

 Cite this work as:
 Gaussian 09, Revision D.01,
 M. J. Frisch, G. W. Trucks, H. B. Schlegel, G. E. Scuseria, 
 M. A. Robb, J. R. Cheeseman, G. Scalmani, V. Barone, B. Mennucci, 
 G. A. Petersson, H. Nakatsuji, M. Caricato, X. Li, H. P. Hratchian, 
 A. F. Izmaylov, J. Bloino, G. Zheng, J. L. Sonnenberg, M. Hada, 
 M. Ehara, K. Toyota, R. Fukuda, J. Hasegawa, M. Ishida, T. Nakajima, 
 Y. Honda, O. Kitao, H. Nakai, T. Vreven, J. A. Montgomery, Jr., 
 J. E. Peralta, F. Ogliaro, M. Bearpark, J. J. Heyd, E. Brothers, 
 K. N. Kudin, V. N. Staroverov, T. Keith, R. Kobayashi, J. Normand, 
 K. Raghavachari, A. Rendell, J. C. Burant, S. S. Iyengar, J. Tomasi, 
 M. Cossi, N. Rega, J. M. Millam, M. Klene, J. E. Knox, J. B. Cross, 
 V. Bakken, C. Adamo, J. Jaramillo, R. Gomperts, R. E. Stratmann, 
 O. Yazyev, A. J. Austin, R. Cammi, C. Pomelli, J. W. Ochterski, 
 R. L. Martin, K. Morokuma, V. G. Zakrzewski, G. A. Voth, 
 P. Salvador, J. J. Dannenberg, S. Dapprich, A. D. Daniels, 
 O. Farkas, J. B. Foresman, J. V. Ortiz, J. Cioslowski, 
 and D. J. Fox, Gaussian, Inc., Wallingford CT, 2013.
 
 ******************************************
 Gaussian 09:  ES64L-G09RevD.01 24-Apr-2013
                 1-Nov-2017 
 ******************************************
 %chk=2hc_1_rel-mega_dimer_0.chk
 %nproc=4
 Will use up to    4 processors via shared memory.
 %mem=28GB
 ----------------------------------
 #p HF/STO-3G td=(nstates=2) nosymm
 ----------------------------------
 1/38=1/1;
 2/12=2,15=1,17=6,18=5,40=1/2;
 3/6=3,11=9,16=1,25=1,30=1/1,2,8,3;
 4//1;
 5/5=2,38=5/2;
 8/6=1,10=1,108=2/1;
 9/41=2,42=1,70=2/14;
 6/7=2,8=2,9=2,10=2/1;
 99/5=1,9=1/99;
 Leave Link    1 at Wed Nov  1 19:15:13 2017, MaxMem=  3758096384 cpu:         0.7
 (Enter /share/apps/gaussian/g09_D01/g09/l101.exe)
 -----
 Title
 -----
 Symbolic Z-matrix:
 Charge =  0 Multiplicity = 1
 C                    -0.0456   -3.21264  -0.67304 
 C                    -1.16356  -4.03755  -0.99906 
 H                    -0.12129  -2.47529   0.12188 
 C                     1.14661  -3.33552  -1.34859 
 C                    -0.99793  -4.97495  -2.05567 
 N                    -2.33745  -3.93316  -0.32458 
 C                     1.3206   -4.2705   -2.39922 
 H                     1.97111  -2.6822   -1.06047 
 C                     0.20216  -5.07477  -2.7253 
 H                    -1.8261   -5.61189  -2.35623 
 C                    -3.45104  -4.81759  -0.63829 
 C                    -2.48278  -2.95113   0.73861 
 C                     2.5213   -4.39693  -3.16445 
 H                     0.29953  -5.79229  -3.54133 
 H                    -3.15029  -5.87257  -0.54965 
 H                    -4.26893  -4.62644   0.06324 
 H                    -3.81896  -4.64893  -1.66218 
 H                    -2.29016  -1.93341   0.36524 
 H                    -3.50245  -2.99128   1.13259 
 H                    -1.7832   -3.15238   1.56346 
 C                     3.70418  -3.73004  -2.97634 
 H                     2.47843  -5.09195  -4.01001 
 C                     4.82425  -3.90407  -3.86262 
 H                     3.81017  -3.04269  -2.1395 
 C                     6.11603  -3.24131  -3.59483 
 O                     4.72679  -4.64403  -4.90867 
 C                     7.19644  -3.4445   -4.50546 
 C                     6.35306  -2.41888  -2.473 
 H                     6.04768  -4.52891  -5.53026 
 C                     8.44931  -2.86207  -4.2561 
 O                     7.03904  -4.19827  -5.6112 
 C                     7.5888   -1.83401  -2.24194 
 H                     5.55265  -2.22183  -1.76161 
 C                     8.64194  -2.06555  -3.13706 
 H                     9.25731  -3.06914  -4.95777 
 H                     7.73762  -1.19613  -1.37118 
 H                     9.61957  -1.61959  -2.9473 
 C                    -2.78161  -1.92986   4.94906 
 C                    -3.89957  -1.10495   4.62304 
 H                    -2.8573   -2.66721   5.74398 
 C                    -1.5894   -1.80698   4.27351 
 C                    -3.73394  -0.16755   3.56643 
 N                    -5.07346  -1.20934   5.29752 
 C                    -1.41541  -0.872     3.22288 
 H                    -0.76491  -2.4603    4.56163 
 C                    -2.53385  -0.06773   2.89681 
 H                    -4.56211   0.46939   3.26587 
 C                    -5.21879  -2.19137   6.36071 
 C                    -6.18705  -0.32491   4.98381 
 C                    -0.21471  -0.74557   2.45765 
 H                    -2.43648   0.64979   2.08077 
 H                    -5.02617  -3.20909   5.98734 
 H                    -6.23846  -2.15122   6.75469 
 H                    -4.51921  -1.99012   7.18556 
 H                    -7.00493  -0.51606   5.68534 
 H                    -6.55497  -0.49358   3.95992 
 H                    -5.8863    0.73007   5.07245 
 C                     0.96817  -1.41246   2.64576 
 H                    -0.25758  -0.05055   1.61209 
 C                     2.08824  -1.23843   1.75948 
 H                     1.07416  -2.09981   3.4826 
 C                     3.38002  -1.90119   2.02727 
 O                     1.99078  -0.49847   0.71343 
 C                     4.46043  -1.698     1.11664 
 C                     3.61705  -2.72362   3.1491 
 H                     3.31167  -0.61359   0.09184 
 O                     4.30303  -0.94423   0.0109 
 C                     5.7133   -2.28044   1.366 
 C                     4.85279  -3.30849   3.38016 
 H                     2.81664  -2.92067   3.86049 
 C                     5.90593  -3.07695   2.48504 
 H                     6.5213   -2.07337   0.66433 
 H                     5.00161  -3.94637   4.25093 
 H                     6.88356  -3.52291   2.6748 
 
 NAtoms=     74 NQM=       74 NQMF=       0 NMMI=      0 NMMIF=      0
                NMic=       0 NMicF=      0.
                    Isotopes and Nuclear Properties:
 (Nuclear quadrupole moments (NQMom) in fm**2, nuclear magnetic moments (NMagM)
  in nuclear magnetons)

  Atom         1           2           3           4           5           6           7           8           9          10
 IAtWgt=          12          12           1          12          12          14          12           1          12           1
 AtmWgt=  12.0000000  12.0000000   1.0078250  12.0000000  12.0000000  14.0030740  12.0000000   1.0078250  12.0000000   1.0078250
 NucSpn=           0           0           1           0           0           2           0           1           0           1
 AtZEff=   0.0000000   0.0000000   0.0000000   0.0000000   0.0000000   0.0000000   0.0000000   0.0000000   0.0000000   0.0000000
 NQMom=    0.0000000   0.0000000   0.0000000   0.0000000   0.0000000   2.0440000   0.0000000   0.0000000   0.0000000   0.0000000
 NMagM=    0.0000000   0.0000000   2.7928460   0.0000000   0.0000000   0.4037610   0.0000000   2.7928460   0.0000000   2.7928460
 AtZNuc=   6.0000000   6.0000000   1.0000000   6.0000000   6.0000000   7.0000000   6.0000000   1.0000000   6.0000000   1.0000000

  Atom        11          12          13          14          15          16          17          18          19          20
 IAtWgt=          12          12          12           1           1           1           1           1           1           1
 AtmWgt=  12.0000000  12.0000000  12.0000000   1.0078250   1.0078250   1.0078250   1.0078250   1.0078250   1.0078250   1.0078250
 NucSpn=           0           0           0           1           1           1           1           1           1           1
 AtZEff=   0.0000000   0.0000000   0.0000000   0.0000000   0.0000000   0.0000000   0.0000000   0.0000000   0.0000000   0.0000000
 NQMom=    0.0000000   0.0000000   0.0000000   0.0000000   0.0000000   0.0000000   0.0000000   0.0000000   0.0000000   0.0000000
 NMagM=    0.0000000   0.0000000   0.0000000   2.7928460   2.7928460   2.7928460   2.7928460   2.7928460   2.7928460   2.7928460
 AtZNuc=   6.0000000   6.0000000   6.0000000   1.0000000   1.0000000   1.0000000   1.0000000   1.0000000   1.0000000   1.0000000

  Atom        21          22          23          24          25          26          27          28          29          30
 IAtWgt=          12           1          12           1          12          16          12          12           1          12
 AtmWgt=  12.0000000   1.0078250  12.0000000   1.0078250  12.0000000  15.9949146  12.0000000  12.0000000   1.0078250  12.0000000
 NucSpn=           0           1           0           1           0           0           0           0           1           0
 AtZEff=   0.0000000   0.0000000   0.0000000   0.0000000   0.0000000   0.0000000   0.0000000   0.0000000   0.0000000   0.0000000
 NQMom=    0.0000000   0.0000000   0.0000000   0.0000000   0.0000000   0.0000000   0.0000000   0.0000000   0.0000000   0.0000000
 NMagM=    0.0000000   2.7928460   0.0000000   2.7928460   0.0000000   0.0000000   0.0000000   0.0000000   2.7928460   0.0000000
 AtZNuc=   6.0000000   1.0000000   6.0000000   1.0000000   6.0000000   8.0000000   6.0000000   6.0000000   1.0000000   6.0000000

  Atom        31          32          33          34          35          36          37          38          39          40
 IAtWgt=          16          12           1          12           1           1           1          12          12           1
 AtmWgt=  15.9949146  12.0000000   1.0078250  12.0000000   1.0078250   1.0078250   1.0078250  12.0000000  12.0000000   1.0078250
 NucSpn=           0           0           1           0           1           1           1           0           0           1
 AtZEff=   0.0000000   0.0000000   0.0000000   0.0000000   0.0000000   0.0000000   0.0000000   0.0000000   0.0000000   0.0000000
 NQMom=    0.0000000   0.0000000   0.0000000   0.0000000   0.0000000   0.0000000   0.0000000   0.0000000   0.0000000   0.0000000
 NMagM=    0.0000000   0.0000000   2.7928460   0.0000000   2.7928460   2.7928460   2.7928460   0.0000000   0.0000000   2.7928460
 AtZNuc=   8.0000000   6.0000000   1.0000000   6.0000000   1.0000000   1.0000000   1.0000000   6.0000000   6.0000000   1.0000000

  Atom        41          42          43          44          45          46          47          48          49          50
 IAtWgt=          12          12          14          12           1          12           1          12          12          12
 AtmWgt=  12.0000000  12.0000000  14.0030740  12.0000000   1.0078250  12.0000000   1.0078250  12.0000000  12.0000000  12.0000000
 NucSpn=           0           0           2           0           1           0           1           0           0           0
 AtZEff=   0.0000000   0.0000000   0.0000000   0.0000000   0.0000000   0.0000000   0.0000000   0.0000000   0.0000000   0.0000000
 NQMom=    0.0000000   0.0000000   2.0440000   0.0000000   0.0000000   0.0000000   0.0000000   0.0000000   0.0000000   0.0000000
 NMagM=    0.0000000   0.0000000   0.4037610   0.0000000   2.7928460   0.0000000   2.7928460   0.0000000   0.0000000   0.0000000
 AtZNuc=   6.0000000   6.0000000   7.0000000   6.0000000   1.0000000   6.0000000   1.0000000   6.0000000   6.0000000   6.0000000

  Atom        51          52          53          54          55          56          57          58          59          60
 IAtWgt=           1           1           1           1           1           1           1          12           1          12
 AtmWgt=   1.0078250   1.0078250   1.0078250   1.0078250   1.0078250   1.0078250   1.0078250  12.0000000   1.0078250  12.0000000
 NucSpn=           1           1           1           1           1           1           1           0           1           0
 AtZEff=   0.0000000   0.0000000   0.0000000   0.0000000   0.0000000   0.0000000   0.0000000   0.0000000   0.0000000   0.0000000
 NQMom=    0.0000000   0.0000000   0.0000000   0.0000000   0.0000000   0.0000000   0.0000000   0.0000000   0.0000000   0.0000000
 NMagM=    2.7928460   2.7928460   2.7928460   2.7928460   2.7928460   2.7928460   2.7928460   0.0000000   2.7928460   0.0000000
 AtZNuc=   1.0000000   1.0000000   1.0000000   1.0000000   1.0000000   1.0000000   1.0000000   6.0000000   1.0000000   6.0000000

  Atom        61          62          63          64          65          66          67          68          69          70
 IAtWgt=           1          12          16          12          12           1          16          12          12           1
 AtmWgt=   1.0078250  12.0000000  15.9949146  12.0000000  12.0000000   1.0078250  15.9949146  12.0000000  12.0000000   1.0078250
 NucSpn=           1           0           0           0           0           1           0           0           0           1
 AtZEff=   0.0000000   0.0000000   0.0000000   0.0000000   0.0000000   0.0000000   0.0000000   0.0000000   0.0000000   0.0000000
 NQMom=    0.0000000   0.0000000   0.0000000   0.0000000   0.0000000   0.0000000   0.0000000   0.0000000   0.0000000   0.0000000
 NMagM=    2.7928460   0.0000000   0.0000000   0.0000000   0.0000000   2.7928460   0.0000000   0.0000000   0.0000000   2.7928460
 AtZNuc=   1.0000000   6.0000000   8.0000000   6.0000000   6.0000000   1.0000000   8.0000000   6.0000000   6.0000000   1.0000000

  Atom        71          72          73          74
 IAtWgt=          12           1           1           1
 AtmWgt=  12.0000000   1.0078250   1.0078250   1.0078250
 NucSpn=           0           1           1           1
 AtZEff=   0.0000000   0.0000000   0.0000000   0.0000000
 NQMom=    0.0000000   0.0000000   0.0000000   0.0000000
 NMagM=    0.0000000   2.7928460   2.7928460   2.7928460
 AtZNuc=   6.0000000   1.0000000   1.0000000   1.0000000
 Leave Link  101 at Wed Nov  1 19:15:14 2017, MaxMem=  3758096384 cpu:         0.6
 (Enter /share/apps/gaussian/g09_D01/g09/l202.exe)
 Symmetry turned off by external request.
 Stoichiometry    C34H34N2O4
 Framework group  C1[X(C34H34N2O4)]
 Deg. of freedom   216
 Full point group                 C1      NOp   1
                          Input orientation:                          
 ---------------------------------------------------------------------
 Center     Atomic      Atomic             Coordinates (Angstroms)
 Number     Number       Type             X           Y           Z
 ---------------------------------------------------------------------
      1          6           0       -0.045604   -3.212643   -0.673042
      2          6           0       -1.163557   -4.037551   -0.999057
      3          1           0       -0.121291   -2.475288    0.121883
      4          6           0        1.146608   -3.335524   -1.348586
      5          6           0       -0.997931   -4.974953   -2.055672
      6          7           0       -2.337452   -3.933160   -0.324579
      7          6           0        1.320601   -4.270503   -2.399224
      8          1           0        1.971105   -2.682196   -1.060472
      9          6           0        0.202155   -5.074774   -2.725295
     10          1           0       -1.826104   -5.611893   -2.356233
     11          6           0       -3.451039   -4.817588   -0.638286
     12          6           0       -2.482782   -2.951131    0.738607
     13          6           0        2.521300   -4.396929   -3.164451
     14          1           0        0.299534   -5.792287   -3.541330
     15          1           0       -3.150286   -5.872565   -0.549647
     16          1           0       -4.268925   -4.626441    0.063239
     17          1           0       -3.818958   -4.648925   -1.662177
     18          1           0       -2.290162   -1.933406    0.365237
     19          1           0       -3.502453   -2.991283    1.132588
     20          1           0       -1.783201   -3.152381    1.563457
     21          6           0        3.704177   -3.730044   -2.976341
     22          1           0        2.478430   -5.091951   -4.010014
     23          6           0        4.824246   -3.904072   -3.862622
     24          1           0        3.810173   -3.042685   -2.139497
     25          6           0        6.116034   -3.241308   -3.594826
     26          8           0        4.726790   -4.644034   -4.908669
     27          6           0        7.196441   -3.444502   -4.505463
     28          6           0        6.353060   -2.418884   -2.472996
     29          1           0        6.047681   -4.528914   -5.530262
     30          6           0        8.449310   -2.862065   -4.256098
     31          8           0        7.039043   -4.198267   -5.611204
     32          6           0        7.588797   -1.834009   -2.241935
     33          1           0        5.552651   -2.221827   -1.761605
     34          6           0        8.641937   -2.065551   -3.137064
     35          1           0        9.257308   -3.069135   -4.957770
     36          1           0        7.737617   -1.196134   -1.371176
     37          1           0        9.619574   -1.619592   -2.947297
     38          6           0       -2.781614   -1.929857    4.949057
     39          6           0       -3.899567   -1.104949    4.623044
     40          1           0       -2.857302   -2.667213    5.743983
     41          6           0       -1.589403   -1.806976    4.273514
     42          6           0       -3.733940   -0.167547    3.566427
     43          7           0       -5.073462   -1.209339    5.297522
     44          6           0       -1.415409   -0.871998    3.222876
     45          1           0       -0.764905   -2.460304    4.561627
     46          6           0       -2.533855   -0.067726    2.896805
     47          1           0       -4.562114    0.469394    3.265867
     48          6           0       -5.218792   -2.191368    6.360707
     49          6           0       -6.187049   -0.324912    4.983813
     50          6           0       -0.214710   -0.745572    2.457648
     51          1           0       -2.436476    0.649787    2.080770
     52          1           0       -5.026172   -3.209094    5.987337
     53          1           0       -6.238463   -2.151217    6.754688
     54          1           0       -4.519211   -1.990120    7.185557
     55          1           0       -7.004935   -0.516059    5.685339
     56          1           0       -6.554969   -0.493575    3.959922
     57          1           0       -5.886296    0.730066    5.072453
     58          6           0        0.968167   -1.412456    2.645758
     59          1           0       -0.257580   -0.050548    1.612086
     60          6           0        2.088236   -1.238428    1.759478
     61          1           0        1.074163   -2.099815    3.482603
     62          6           0        3.380024   -1.901192    2.027274
     63          8           0        1.990780   -0.498466    0.713431
     64          6           0        4.460431   -1.697998    1.116638
     65          6           0        3.617050   -2.723616    3.149104
     66          1           0        3.311671   -0.613585    0.091837
     67          8           0        4.303032   -0.944233    0.010896
     68          6           0        5.713299   -2.280435    1.366002
     69          6           0        4.852786   -3.308490    3.380164
     70          1           0        2.816640   -2.920673    3.860494
     71          6           0        5.905928   -3.076949    2.485036
     72          1           0        6.521299   -2.073366    0.664330
     73          1           0        5.001608   -3.946366    4.250925
     74          1           0        6.883564   -3.522908    2.674804
 ---------------------------------------------------------------------
 Rotational constants (GHZ):      0.1540977      0.0376133      0.0321352
 Leave Link  202 at Wed Nov  1 19:15:14 2017, MaxMem=  3758096384 cpu:         0.2
 (Enter /share/apps/gaussian/g09_D01/g09/l301.exe)
 Standard basis: STO-3G (5D, 7F)
 Ernie: Thresh=  0.10000D-02 Tol=  0.10000D-05 Strict=F.
   234 basis functions,   702 primitive gaussians,   234 cartesian basis functions
   142 alpha electrons      142 beta electrons
       nuclear repulsion energy      4167.9772730071 Hartrees.
 IExCor=    0 DFT=F Ex=HF Corr=None ExCW=0 ScaHFX=  1.000000
 ScaDFX=  1.000000  1.000000  1.000000  1.000000 ScalE2=  1.000000  1.000000
 IRadAn=      0 IRanWt=     -1 IRanGd=            0 ICorTp=0 IEmpDi=  4
 NAtoms=   74 NActive=   74 NUniq=   74 SFac= 1.00D+00 NAtFMM=   60 NAOKFM=T Big=T
 Integral buffers will be    131072 words long.
 Raffenetti 1 integral format.
 Two-electron integral symmetry is turned off.
 Leave Link  301 at Wed Nov  1 19:15:14 2017, MaxMem=  3758096384 cpu:         0.3
 (Enter /share/apps/gaussian/g09_D01/g09/l302.exe)
 NPDir=0 NMtPBC=     1 NCelOv=     1 NCel=       1 NClECP=     1 NCelD=      1
         NCelK=      1 NCelE2=     1 NClLst=     1 CellRange=     0.0.
 One-electron integrals computed using PRISM.
 NBasis=   234 RedAO= T EigKep=  1.75D-01  NBF=   234
 NBsUse=   234 1.00D-06 EigRej= -1.00D+00 NBFU=   234
 Leave Link  302 at Wed Nov  1 19:15:17 2017, MaxMem=  3758096384 cpu:         4.7
 (Enter /share/apps/gaussian/g09_D01/g09/l308.exe)
 Leave Link  308 at Wed Nov  1 19:15:17 2017, MaxMem=  3758096384 cpu:         0.5
 (Enter /share/apps/gaussian/g09_D01/g09/l303.exe)
 DipDrv:  MaxL=1.
 Leave Link  303 at Wed Nov  1 19:15:18 2017, MaxMem=  3758096384 cpu:         0.6
 (Enter /share/apps/gaussian/g09_D01/g09/l401.exe)
 ExpMin= 1.69D-01 ExpMax= 1.31D+02 ExpMxC= 1.31D+02 IAcc=1 IRadAn=         1 AccDes= 0.00D+00
 Harris functional with IExCor=  205 and IRadAn=       1 diagonalized for initial guess.
 HarFok:  IExCor=  205 AccDes= 0.00D+00 IRadAn=         1 IDoV= 1 UseB2=F ITyADJ=14
 ICtDFT=  3500011 ScaDFX=  1.000000  1.000000  1.000000  1.000000
 FoFCou: FMM=F IPFlag=           0 FMFlag=      100000 FMFlg1=        2001
         NFxFlg=           0 DoJE=T BraDBF=F KetDBF=T FulRan=T
         wScrn=  0.000000 ICntrl=     500 IOpCl=  0 I1Cent=   200000004 NGrid=           0
         NMat0=    1 NMatS0=      1 NMatT0=    0 NMatD0=    1 NMtDS0=    0 NMtDT0=    0
 Symmetry not used in FoFCou.
 Harris En= -1696.07301827017    
 JPrj=0 DoOrth=F DoCkMO=F.
 Leave Link  401 at Wed Nov  1 19:15:25 2017, MaxMem=  3758096384 cpu:        13.9
 (Enter /share/apps/gaussian/g09_D01/g09/l502.exe)
 Closed shell SCF:
 Using DIIS extrapolation, IDIIS=  1040.
 Two-electron integral symmetry not used.
 Keep R1 ints in memory in canonical form, NReq=384675854.
 IVT=      185774 IEndB=      185774 NGot=  3758096384 MDV=  3379909351
 LenX=  3379909351 LenY=  3379854154
 Requested convergence on RMS density matrix=1.00D-08 within 128 cycles.
 Requested convergence on MAX density matrix=1.00D-06.
 Requested convergence on             energy=1.00D-06.
 No special actions if energy rises.
 FoFCou: FMM=F IPFlag=           0 FMFlag=           0 FMFlg1=           0
         NFxFlg=           0 DoJE=F BraDBF=F KetDBF=F FulRan=T
         wScrn=  0.000000 ICntrl=     600 IOpCl=  0 I1Cent=           0 NGrid=           0
         NMat0=    1 NMatS0=  27495 NMatT0=    0 NMatD0=    1 NMtDS0=    0 NMtDT0=    0
 Symmetry not used in FoFCou.

 Cycle   1  Pass 1  IDiag  1:
 E= -1693.64529352424    
 DIIS: error= 4.07D-02 at cycle   1 NSaved=   1.
 NSaved= 1 IEnMin= 1 EnMin= -1693.64529352424     IErMin= 1 ErrMin= 4.07D-02
 ErrMax= 4.07D-02  0.00D+00 EMaxC= 1.00D-01 BMatC= 6.58D-01 BMatP= 6.58D-01
 IDIUse=3 WtCom= 5.93D-01 WtEn= 4.07D-01
 Coeff-Com:  0.100D+01
 Coeff-En:   0.100D+01
 Coeff:      0.100D+01
 Gap=     0.349 Goal=   None    Shift=    0.000
 GapD=    0.349 DampG=1.000 DampE=0.500 DampFc=0.5000 IDamp=-1.
 Damping current iteration by 5.00D-01
 RMSDP=4.66D-03 MaxDP=1.22D-01              OVMax= 0.00D+00

 Cycle   2  Pass 1  IDiag  1:
 E= -1693.93849669025     Delta-E=       -0.293203166017 Rises=F Damp=T
 DIIS: error= 2.19D-02 at cycle   2 NSaved=   2.
 NSaved= 2 IEnMin= 2 EnMin= -1693.93849669025     IErMin= 2 ErrMin= 2.19D-02
 ErrMax= 2.19D-02  0.00D+00 EMaxC= 1.00D-01 BMatC= 1.59D-01 BMatP= 6.58D-01
 IDIUse=3 WtCom= 7.81D-01 WtEn= 2.19D-01
 Coeff-Com: -0.792D+00 0.179D+01
 Coeff-En:   0.000D+00 0.100D+01
 Coeff:     -0.618D+00 0.162D+01
 Gap=     0.323 Goal=   None    Shift=    0.000
 RMSDP=2.11D-03 MaxDP=4.08D-02 DE=-2.93D-01 OVMax= 0.00D+00

 Cycle   3  Pass 1  IDiag  1:
 E= -1694.23881006537     Delta-E=       -0.300313375123 Rises=F Damp=F
 DIIS: error= 5.46D-03 at cycle   3 NSaved=   3.
 NSaved= 3 IEnMin= 3 EnMin= -1694.23881006537     IErMin= 3 ErrMin= 5.46D-03
 ErrMax= 5.46D-03  0.00D+00 EMaxC= 1.00D-01 BMatC= 2.86D-03 BMatP= 1.59D-01
 IDIUse=3 WtCom= 9.45D-01 WtEn= 5.46D-02
 Coeff-Com: -0.111D+00 0.181D+00 0.930D+00
 Coeff-En:   0.000D+00 0.000D+00 0.100D+01
 Coeff:     -0.105D+00 0.171D+00 0.934D+00
 Gap=     0.330 Goal=   None    Shift=    0.000
 RMSDP=5.47D-04 MaxDP=1.11D-02 DE=-3.00D-01 OVMax= 0.00D+00

 Cycle   4  Pass 1  IDiag  1:
 E= -1694.24671448223     Delta-E=       -0.007904416853 Rises=F Damp=F
 DIIS: error= 1.62D-03 at cycle   4 NSaved=   4.
 NSaved= 4 IEnMin= 4 EnMin= -1694.24671448223     IErMin= 4 ErrMin= 1.62D-03
 ErrMax= 1.62D-03  0.00D+00 EMaxC= 1.00D-01 BMatC= 5.86D-04 BMatP= 2.86D-03
 IDIUse=3 WtCom= 9.84D-01 WtEn= 1.62D-02
 Coeff-Com:  0.536D-01-0.117D+00 0.566D-01 0.101D+01
 Coeff-En:   0.000D+00 0.000D+00 0.000D+00 0.100D+01
 Coeff:      0.527D-01-0.115D+00 0.556D-01 0.101D+01
 Gap=     0.334 Goal=   None    Shift=    0.000
 RMSDP=2.42D-04 MaxDP=5.11D-03 DE=-7.90D-03 OVMax= 0.00D+00

 Cycle   5  Pass 1  IDiag  1:
 E= -1694.24844549684     Delta-E=       -0.001731014610 Rises=F Damp=F
 DIIS: error= 7.27D-04 at cycle   5 NSaved=   5.
 NSaved= 5 IEnMin= 5 EnMin= -1694.24844549684     IErMin= 5 ErrMin= 7.27D-04
 ErrMax= 7.27D-04  0.00D+00 EMaxC= 1.00D-01 BMatC= 1.04D-04 BMatP= 5.86D-04
 IDIUse=3 WtCom= 9.93D-01 WtEn= 7.27D-03
 Coeff-Com:  0.374D-01-0.656D-01-0.194D+00 0.505D-01 0.117D+01
 Coeff-En:   0.000D+00 0.000D+00 0.000D+00 0.000D+00 0.100D+01
 Coeff:      0.371D-01-0.652D-01-0.192D+00 0.501D-01 0.117D+01
 Gap=     0.337 Goal=   None    Shift=    0.000
 RMSDP=1.63D-04 MaxDP=3.57D-03 DE=-1.73D-03 OVMax= 0.00D+00

 Cycle   6  Pass 1  IDiag  1:
 E= -1694.24886904108     Delta-E=       -0.000423544247 Rises=F Damp=F
 DIIS: error= 1.53D-04 at cycle   6 NSaved=   6.
 NSaved= 6 IEnMin= 6 EnMin= -1694.24886904108     IErMin= 6 ErrMin= 1.53D-04
 ErrMax= 1.53D-04  0.00D+00 EMaxC= 1.00D-01 BMatC= 7.29D-06 BMatP= 1.04D-04
 IDIUse=3 WtCom= 9.98D-01 WtEn= 1.53D-03
 Coeff-Com: -0.542D-03 0.241D-02-0.999D-02-0.678D-01 0.111D+00 0.965D+00
 Coeff-En:   0.000D+00 0.000D+00 0.000D+00 0.000D+00 0.000D+00 0.100D+01
 Coeff:     -0.541D-03 0.240D-02-0.997D-02-0.677D-01 0.111D+00 0.965D+00
 Gap=     0.338 Goal=   None    Shift=    0.000
 RMSDP=2.96D-05 MaxDP=8.20D-04 DE=-4.24D-04 OVMax= 0.00D+00

 Cycle   7  Pass 1  IDiag  1:
 E= -1694.24889124427     Delta-E=       -0.000022203190 Rises=F Damp=F
 DIIS: error= 1.03D-04 at cycle   7 NSaved=   7.
 NSaved= 7 IEnMin= 7 EnMin= -1694.24889124427     IErMin= 7 ErrMin= 1.03D-04
 ErrMax= 1.03D-04  0.00D+00 EMaxC= 1.00D-01 BMatC= 1.72D-06 BMatP= 7.29D-06
 IDIUse=3 WtCom= 9.99D-01 WtEn= 1.03D-03
 Coeff-Com: -0.480D-02 0.825D-02 0.312D-01-0.826D-02-0.176D+00 0.273D-01
 Coeff-Com:  0.112D+01
 Coeff-En:   0.000D+00 0.000D+00 0.000D+00 0.000D+00 0.000D+00 0.000D+00
 Coeff-En:   0.100D+01
 Coeff:     -0.480D-02 0.824D-02 0.312D-01-0.825D-02-0.176D+00 0.273D-01
 Coeff:      0.112D+01
 Gap=     0.338 Goal=   None    Shift=    0.000
 RMSDP=1.65D-05 MaxDP=6.42D-04 DE=-2.22D-05 OVMax= 0.00D+00

 Cycle   8  Pass 1  IDiag  1:
 E= -1694.24889778630     Delta-E=       -0.000006542028 Rises=F Damp=F
 DIIS: error= 3.45D-05 at cycle   8 NSaved=   8.
 NSaved= 8 IEnMin= 8 EnMin= -1694.24889778630     IErMin= 8 ErrMin= 3.45D-05
 ErrMax= 3.45D-05  0.00D+00 EMaxC= 1.00D-01 BMatC= 4.66D-07 BMatP= 1.72D-06
 IDIUse=1 WtCom= 1.00D+00 WtEn= 0.00D+00
 Coeff-Com: -0.331D-03 0.197D-03 0.771D-02 0.126D-01-0.583D-01-0.188D+00
 Coeff-Com:  0.146D+00 0.108D+01
 Coeff:     -0.331D-03 0.197D-03 0.771D-02 0.126D-01-0.583D-01-0.188D+00
 Coeff:      0.146D+00 0.108D+01
 Gap=     0.338 Goal=   None    Shift=    0.000
 RMSDP=9.77D-06 MaxDP=3.59D-04 DE=-6.54D-06 OVMax= 0.00D+00

 Cycle   9  Pass 1  IDiag  1:
 E= -1694.24889951618     Delta-E=       -0.000001729879 Rises=F Damp=F
 DIIS: error= 2.22D-05 at cycle   9 NSaved=   9.
 NSaved= 9 IEnMin= 9 EnMin= -1694.24889951618     IErMin= 9 ErrMin= 2.22D-05
 ErrMax= 2.22D-05  0.00D+00 EMaxC= 1.00D-01 BMatC= 5.76D-08 BMatP= 4.66D-07
 IDIUse=1 WtCom= 1.00D+00 WtEn= 0.00D+00
 Coeff-Com:  0.120D-02-0.209D-02-0.696D-02 0.345D-02 0.397D-01 0.344D-02
 Coeff-Com: -0.255D+00-0.367D-01 0.125D+01
 Coeff:      0.120D-02-0.209D-02-0.696D-02 0.345D-02 0.397D-01 0.344D-02
 Coeff:     -0.255D+00-0.367D-01 0.125D+01
 Gap=     0.338 Goal=   None    Shift=    0.000
 RMSDP=4.42D-06 MaxDP=1.76D-04 DE=-1.73D-06 OVMax= 0.00D+00

 Cycle  10  Pass 1  IDiag  1:
 E= -1694.24889981869     Delta-E=       -0.000000302504 Rises=F Damp=F
 DIIS: error= 5.05D-06 at cycle  10 NSaved=  10.
 NSaved=10 IEnMin=10 EnMin= -1694.24889981869     IErMin=10 ErrMin= 5.05D-06
 ErrMax= 5.05D-06  0.00D+00 EMaxC= 1.00D-01 BMatC= 6.98D-09 BMatP= 5.76D-08
 IDIUse=1 WtCom= 1.00D+00 WtEn= 0.00D+00
 Coeff-Com:  0.180D-03-0.282D-03-0.153D-02 0.194D-03 0.946D-02 0.141D-01
 Coeff-Com: -0.474D-01-0.122D+00 0.186D+00 0.961D+00
 Coeff:      0.180D-03-0.282D-03-0.153D-02 0.194D-03 0.946D-02 0.141D-01
 Coeff:     -0.474D-01-0.122D+00 0.186D+00 0.961D+00
 Gap=     0.338 Goal=   None    Shift=    0.000
 RMSDP=1.12D-06 MaxDP=3.30D-05 DE=-3.03D-07 OVMax= 0.00D+00

 Cycle  11  Pass 1  IDiag  1:
 E= -1694.24889984076     Delta-E=       -0.000000022076 Rises=F Damp=F
 DIIS: error= 2.96D-06 at cycle  11 NSaved=  11.
 NSaved=11 IEnMin=11 EnMin= -1694.24889984076     IErMin=11 ErrMin= 2.96D-06
 ErrMax= 2.96D-06  0.00D+00 EMaxC= 1.00D-01 BMatC= 7.75D-10 BMatP= 6.98D-09
 IDIUse=1 WtCom= 1.00D+00 WtEn= 0.00D+00
 Coeff-Com: -0.182D-03 0.313D-03 0.109D-02-0.304D-03-0.682D-02-0.538D-03
 Coeff-Com:  0.419D-01 0.706D-02-0.186D+00-0.398D-01 0.118D+01
 Coeff:     -0.182D-03 0.313D-03 0.109D-02-0.304D-03-0.682D-02-0.538D-03
 Coeff:      0.419D-01 0.706D-02-0.186D+00-0.398D-01 0.118D+01
 Gap=     0.338 Goal=   None    Shift=    0.000
 RMSDP=3.67D-07 MaxDP=8.46D-06 DE=-2.21D-08 OVMax= 0.00D+00

 Cycle  12  Pass 1  IDiag  1:
 E= -1694.24889984349     Delta-E=       -0.000000002725 Rises=F Damp=F
 DIIS: error= 6.50D-07 at cycle  12 NSaved=  12.
 NSaved=12 IEnMin=12 EnMin= -1694.24889984349     IErMin=12 ErrMin= 6.50D-07
 ErrMax= 6.50D-07  0.00D+00 EMaxC= 1.00D-01 BMatC= 7.88D-11 BMatP= 7.75D-10
 IDIUse=1 WtCom= 1.00D+00 WtEn= 0.00D+00
 Coeff-Com: -0.675D-05 0.866D-05 0.129D-03-0.263D-05-0.828D-03-0.815D-03
 Coeff-Com:  0.230D-02 0.113D-01-0.934D-02-0.691D-01-0.174D+00 0.124D+01
 Coeff:     -0.675D-05 0.866D-05 0.129D-03-0.263D-05-0.828D-03-0.815D-03
 Coeff:      0.230D-02 0.113D-01-0.934D-02-0.691D-01-0.174D+00 0.124D+01
 Gap=     0.338 Goal=   None    Shift=    0.000
 RMSDP=1.29D-07 MaxDP=3.15D-06 DE=-2.72D-09 OVMax= 0.00D+00

 Cycle  13  Pass 1  IDiag  1:
 E= -1694.24889984384     Delta-E=       -0.000000000357 Rises=F Damp=F
 DIIS: error= 3.38D-07 at cycle  13 NSaved=  13.
 NSaved=13 IEnMin=13 EnMin= -1694.24889984384     IErMin=13 ErrMin= 3.38D-07
 ErrMax= 3.38D-07  0.00D+00 EMaxC= 1.00D-01 BMatC= 1.14D-11 BMatP= 7.88D-11
 IDIUse=1 WtCom= 1.00D+00 WtEn= 0.00D+00
 Coeff-Com:  0.168D-04-0.292D-04-0.860D-04 0.154D-04 0.597D-03 0.185D-03
 Coeff-Com: -0.392D-02-0.128D-02 0.147D-01 0.183D-01-0.128D+00-0.355D-01
 Coeff-Com:  0.114D+01
 Coeff:      0.168D-04-0.292D-04-0.860D-04 0.154D-04 0.597D-03 0.185D-03
 Coeff:     -0.392D-02-0.128D-02 0.147D-01 0.183D-01-0.128D+00-0.355D-01
 Coeff:      0.114D+01
 Gap=     0.338 Goal=   None    Shift=    0.000
 RMSDP=4.38D-08 MaxDP=1.31D-06 DE=-3.57D-10 OVMax= 0.00D+00

 Cycle  14  Pass 1  IDiag  1:
 E= -1694.24889984386     Delta-E=       -0.000000000019 Rises=F Damp=F
 DIIS: error= 6.38D-08 at cycle  14 NSaved=  14.
 NSaved=14 IEnMin=14 EnMin= -1694.24889984386     IErMin=14 ErrMin= 6.38D-08
 ErrMax= 6.38D-08  0.00D+00 EMaxC= 1.00D-01 BMatC= 1.83D-12 BMatP= 1.14D-11
 IDIUse=1 WtCom= 1.00D+00 WtEn= 0.00D+00
 Coeff-Com:  0.129D-05-0.190D-05-0.163D-04-0.584D-05 0.133D-03 0.138D-03
 Coeff-Com: -0.345D-03-0.158D-02 0.602D-03 0.153D-01 0.270D-01-0.207D+00
 Coeff-Com: -0.489D-01 0.121D+01
 Coeff:      0.129D-05-0.190D-05-0.163D-04-0.584D-05 0.133D-03 0.138D-03
 Coeff:     -0.345D-03-0.158D-02 0.602D-03 0.153D-01 0.270D-01-0.207D+00
 Coeff:     -0.489D-01 0.121D+01
 Gap=     0.338 Goal=   None    Shift=    0.000
 RMSDP=1.95D-08 MaxDP=4.84D-07 DE=-1.91D-11 OVMax= 0.00D+00

 Cycle  15  Pass 1  IDiag  1:
 E= -1694.24889984384     Delta-E=        0.000000000021 Rises=F Damp=F
 DIIS: error= 3.37D-08 at cycle  15 NSaved=  15.
 NSaved=15 IEnMin=14 EnMin= -1694.24889984386     IErMin=15 ErrMin= 3.37D-08
 ErrMax= 3.37D-08  0.00D+00 EMaxC= 1.00D-01 BMatC= 1.71D-13 BMatP= 1.83D-12
 IDIUse=1 WtCom= 1.00D+00 WtEn= 0.00D+00
 Coeff-Com: -0.127D-05 0.215D-05 0.781D-05-0.197D-05-0.504D-04-0.253D-04
 Coeff-Com:  0.370D-03 0.103D-03-0.175D-02-0.598D-03 0.137D-01-0.453D-02
 Coeff-Com: -0.112D+00 0.395D-01 0.107D+01
 Coeff:     -0.127D-05 0.215D-05 0.781D-05-0.197D-05-0.504D-04-0.253D-04
 Coeff:      0.370D-03 0.103D-03-0.175D-02-0.598D-03 0.137D-01-0.453D-02
 Coeff:     -0.112D+00 0.395D-01 0.107D+01
 Gap=     0.338 Goal=   None    Shift=    0.000
 RMSDP=5.43D-09 MaxDP=1.40D-07 DE= 2.09D-11 OVMax= 0.00D+00

 SCF Done:  E(RHF) =  -1694.24889984     A.U. after   15 cycles
            NFock= 15  Conv=0.54D-08     -V/T= 2.0089
 KE= 1.679235888689D+03 PE=-1.229794924322D+04 EE= 4.756487181676D+03
 Leave Link  502 at Wed Nov  1 19:16:14 2017, MaxMem=  3758096384 cpu:        83.6
 (Enter /share/apps/gaussian/g09_D01/g09/l801.exe)
 ExpMin= 1.69D-01 ExpMax= 1.31D+02 ExpMxC= 1.31D+02 IAcc=3 IRadAn=         5 AccDes= 0.00D+00
 HarFok:  IExCor=  205 AccDes= 0.00D+00 IRadAn=         5 IDoV=-2 UseB2=F ITyADJ=14
 ICtDFT= 12500011 ScaDFX=  1.000000  1.000000  1.000000  1.000000
 Largest valence mixing into a core orbital is  1.81D-04
 Largest core mixing into a valence orbital is  3.36D-04
 Range of M.O.s used for correlation:    41   234
 NBasis=   234 NAE=   142 NBE=   142 NFC=    40 NFV=     0
 NROrb=    194 NOA=   102 NOB=   102 NVA=    92 NVB=    92
 Leave Link  801 at Wed Nov  1 19:16:19 2017, MaxMem=  3758096384 cpu:         9.9
 (Enter /share/apps/gaussian/g09_D01/g09/l914.exe)
 RHF ground state
 MDV=  3758096384 DFT=F DoStab=F Mixed=F DoRPA=T DoScal=F NonHer=T
 Keep R1, R2, and R3 ints in memory in canonical form, NReq=1140493990.
 FoFCou: FMM=F IPFlag=           0 FMFlag=           0 FMFlg1=           0
         NFxFlg=           0 DoJE=F BraDBF=F KetDBF=F FulRan=T
         wScrn=  0.000000 ICntrl=     600 IOpCl=  0 I1Cent=           0 NGrid=           0
         NMat0=    1 NMatS0=  27495 NMatT0=    0 NMatD0=    1 NMtDS0=    0 NMtDT0=    0
 Symmetry not used in FoFCou.
 Making orbital integer symmetry assigments:
     8 initial guesses have been made.
 Convergence on wavefunction:    0.001000000000000
 Davidson Disk Diagonalization:  ConvIn= 1.00D-03 SkipCon=T Conv= 1.00D-03.
 Max sub-space:   200 roots to seek:     8 dimension of matrix:        18768
 Iteration     1 Dimension     8 NMult     0 NNew      8
 CISAX will form     8 AO SS matrices at one time.
 NMat=     8 NSing=     8 JSym2X= 0.
 New state      1 was old state      4
 Excitation Energies [eV] at current iteration:
 Root      1 :     6.084948305866586
 Root      2 :     6.164727803522839
 Root      3 :     6.730249746229359
 Root      4 :     6.772412137098257
 Root      5 :     6.905576810760194
 Root      6 :     8.027608789711010
 Root      7 :     8.212336286582595
 Root      8 :     8.505188980047620
 Iteration     2 Dimension    12 NMult     8 NNew      4
 CISAX will form     4 AO SS matrices at one time.
 NMat=     4 NSing=     4 JSym2X= 0.
 Root      1 not converged, maximum delta is    0.111958846879521
 Root      2 not converged, maximum delta is    0.106595003976431
 Excitation Energies [eV] at current iteration:
 Root      1 :     5.162724045081745   Change is   -0.922224260784840
 Root      2 :     5.265750120493815   Change is   -0.898977683029025
 Iteration     3 Dimension    16 NMult    12 NNew      4
 CISAX will form     4 AO SS matrices at one time.
 NMat=     4 NSing=     4 JSym2X= 0.
 Root      1 not converged, maximum delta is    0.023858084218386
 Root      2 not converged, maximum delta is    0.020747108101892
 Excitation Energies [eV] at current iteration:
 Root      1 :     5.049551997261659   Change is   -0.113172047820086
 Root      2 :     5.147872146305817   Change is   -0.117877974187998
 Iteration     4 Dimension    20 NMult    16 NNew      4
 CISAX will form     4 AO SS matrices at one time.
 NMat=     4 NSing=     4 JSym2X= 0.
 Root      1 not converged, maximum delta is    0.019286491585891
 Root      2 not converged, maximum delta is    0.019183808939361
 Excitation Energies [eV] at current iteration:
 Root      1 :     5.021957228760703   Change is   -0.027594768500956
 Root      2 :     5.118070190877696   Change is   -0.029801955428121
 Iteration     5 Dimension    24 NMult    20 NNew      4
 CISAX will form     4 AO SS matrices at one time.
 NMat=     4 NSing=     4 JSym2X= 0.
 Root      1 not converged, maximum delta is    0.008771137570937
 Root      2 not converged, maximum delta is    0.010700930817402
 Excitation Energies [eV] at current iteration:
 Root      1 :     5.015337030146412   Change is   -0.006620198614291
 Root      2 :     5.109634246201556   Change is   -0.008435944676140
 Iteration     6 Dimension    28 NMult    24 NNew      4
 CISAX will form     4 AO SS matrices at one time.
 NMat=     4 NSing=     4 JSym2X= 0.
 New state      1 was old state      2
 Root      1 not converged, maximum delta is    0.500576934533138
 New state      2 was old state      1
 Root      2 not converged, maximum delta is    0.491492771611479
 Excitation Energies [eV] at current iteration:
 Root      1 :     4.547553865969046   Change is   -0.562080380232511
 Root      2 :     4.680561086562863   Change is   -0.334775943583550
 Iteration     7 Dimension    32 NMult    28 NNew      4
 CISAX will form     4 AO SS matrices at one time.
 NMat=     4 NSing=     4 JSym2X= 0.
 Root      1 not converged, maximum delta is    0.094094699335367
 Root      2 not converged, maximum delta is    0.099082283125007
 Excitation Energies [eV] at current iteration:
 Root      1 :     3.878575389934364   Change is   -0.668978476034682
 Root      2 :     3.931272795940361   Change is   -0.749288290622502
 Iteration     8 Dimension    36 NMult    32 NNew      4
 CISAX will form     4 AO SS matrices at one time.
 NMat=     4 NSing=     4 JSym2X= 0.
 Root      1 not converged, maximum delta is    0.017577239137169
 Root      2 not converged, maximum delta is    0.042466895000505
 Excitation Energies [eV] at current iteration:
 Root      1 :     3.815871826969005   Change is   -0.062703562965359
 Root      2 :     3.824399016263358   Change is   -0.106873779677002
 Iteration     9 Dimension    40 NMult    36 NNew      4
 CISAX will form     4 AO SS matrices at one time.
 NMat=     4 NSing=     4 JSym2X= 0.
 Root      1 not converged, maximum delta is    0.048068899240025
 Root      2 not converged, maximum delta is    0.046402096476898
 Excitation Energies [eV] at current iteration:
 Root      1 :     3.810562955984834   Change is   -0.005308870984172
 Root      2 :     3.814217514262421   Change is   -0.010181502000938
 Iteration    10 Dimension    44 NMult    40 NNew      4
 CISAX will form     4 AO SS matrices at one time.
 NMat=     4 NSing=     4 JSym2X= 0.
 Root      1 not converged, maximum delta is    0.003211174904785
 Root      2 not converged, maximum delta is    0.005347637309389
 Excitation Energies [eV] at current iteration:
 Root      1 :     3.809633733841487   Change is   -0.000929222143346
 Root      2 :     3.812730707196055   Change is   -0.001486807066366
 Iteration    11 Dimension    48 NMult    44 NNew      4
 CISAX will form     4 AO SS matrices at one time.
 NMat=     4 NSing=     4 JSym2X= 0.
 Root      1 not converged, maximum delta is    0.002330382866678
 Root      2 not converged, maximum delta is    0.002201744738638
 Excitation Energies [eV] at current iteration:
 Root      1 :     3.809454943045482   Change is   -0.000178790796005
 Root      2 :     3.812496754283007   Change is   -0.000233952913048
 Iteration    12 Dimension    52 NMult    48 NNew      4
 CISAX will form     4 AO SS matrices at one time.
 NMat=     4 NSing=     4 JSym2X= 0.
 Root      1 has converged.
 Root      2 has converged.
 Excitation Energies [eV] at current iteration:
 Root      1 :     3.809425951744499   Change is   -0.000028991300984
 Root      2 :     3.812474413339302   Change is   -0.000022340943705
 Convergence achieved on expansion vectors.
 ***********************************************************************
 Excited states from <AA,BB:AA,BB> singles matrix:
 ***********************************************************************
 
 1PDM for each excited state written to RWF  633
 Ground to excited state transition densities written to RWF  633
 Ground to excited state transition electric dipole moments (Au):
       state          X           Y           Z        Dip. S.      Osc.
         1        -0.0410     -0.0070      0.0169      0.0020      0.0002
         2        -0.0456      0.0096      0.0221      0.0027      0.0002
 Ground to excited state transition velocity dipole moments (Au):
       state          X           Y           Z        Dip. S.      Osc.
         1         0.0028      0.0030     -0.0036      0.0000      0.0001
         2         0.0030     -0.0033     -0.0040      0.0000      0.0002
 Ground to excited state transition magnetic dipole moments (Au):
       state          X           Y           Z
         1         0.0099     -0.3887     -0.5724
         2         0.0596     -0.3718      0.6230
 Ground to excited state transition velocity quadrupole moments (Au):
       state          XX          YY          ZZ          XY          XZ          YZ
         1         0.0096     -0.0537      0.0626      0.0156     -0.0365     -0.0017
         2        -0.0163      0.0078     -0.0133     -0.0300      0.0107      0.0084
 <0|del|b> * <b|rxdel|0> + <0|del|b> * <b|delr+rdel|0>
 Rotatory Strengths (R) in cgs (10**-40 erg-esu-cm/Gauss)
       state          XX          YY          ZZ    R(velocity)    E-M Angle
         1         2.3986      5.4330     -3.1695      1.5541       75.87
         2        -2.8772     -6.1601      3.3792     -1.8860      104.89
 1/2[<0|r|b>*<b|rxdel|0> + (<0|rxdel|b>*<b|r|0>)*]
 Rotatory Strengths (R) in cgs (10**-40 erg-esu-cm/Gauss)
       state          XX          YY          ZZ     R(length)
         1         0.2876     -1.9178      6.8403      1.7367
         2         1.9191      2.5329     -9.7288     -1.7590
  1/2[<0|del|b>*<b|r|0> + (<0|r|b>*<b|del|0>)*] (Au)
       state          X           Y           Z        Dip. S.   Osc.(frdel)
         1        -0.0001      0.0000     -0.0001      0.0002      0.0001
         2        -0.0001      0.0000     -0.0001      0.0003      0.0002

 Excitation energies and oscillator strengths:
 
 Excited state symmetry could not be determined.
 Excited State   1:      Singlet-?Sym    3.8094 eV  325.47 nm  f=0.0002  <S**2>=0.000
     128 ->144        -0.14274
     135 ->144         0.11726
     136 ->144        -0.56689
     136 ->146         0.19512
     136 ->152         0.16857
     136 ->154         0.16631
 This state for optimization and/or second-order correction.
 Total Energy, E(TD-HF/TD-KS) =  -1694.10890601    
 Copying the excited state density for this state as the 1-particle RhoCI density.
 
 Excited state symmetry could not be determined.
 Excited State   2:      Singlet-?Sym    3.8125 eV  325.21 nm  f=0.0002  <S**2>=0.000
     125 ->143         0.14380
     132 ->143         0.57798
     132 ->145        -0.19984
     132 ->151        -0.16889
     132 ->153        -0.17028
 SavETr:  write IOETrn=   770 NScale= 10 NData=  16 NLR=1 NState=    2 LETran=      46.
 Leave Link  914 at Wed Nov  1 19:18:15 2017, MaxMem=  3758096384 cpu:       227.7
 (Enter /share/apps/gaussian/g09_D01/g09/l601.exe)
 Copying SCF densities to generalized density rwf, IOpCl= 0 IROHF=0.

 **********************************************************************

            Population analysis using the SCF density.

 **********************************************************************

 Alpha  occ. eigenvalues --  -20.24835 -20.23803 -20.22972 -20.21971 -15.38348
 Alpha  occ. eigenvalues --  -15.36947 -11.13339 -11.11496 -11.11436 -11.11186
 Alpha  occ. eigenvalues --  -11.11145 -11.10179 -11.09903 -11.09813 -11.09355
 Alpha  occ. eigenvalues --  -11.07656 -11.06731 -11.05390 -11.05317 -11.04822
 Alpha  occ. eigenvalues --  -11.04114 -11.04007 -11.03801 -11.03678 -11.03637
 Alpha  occ. eigenvalues --  -11.02908 -11.02817 -11.02576 -11.02426 -11.02146
 Alpha  occ. eigenvalues --  -11.02081 -11.02027 -11.01404 -11.01273 -11.01206
 Alpha  occ. eigenvalues --  -11.01044 -11.00654 -11.00171 -10.99578 -10.99422
 Alpha  occ. eigenvalues --   -1.32204  -1.30376  -1.27566  -1.25735  -1.22690
 Alpha  occ. eigenvalues --   -1.21360  -1.10465  -1.08768  -1.08308  -1.06571
 Alpha  occ. eigenvalues --   -1.03113  -1.01319  -0.98227  -0.98021  -0.96654
 Alpha  occ. eigenvalues --   -0.96386  -0.95179  -0.94761  -0.93599  -0.93550
 Alpha  occ. eigenvalues --   -0.93448  -0.91805  -0.88157  -0.86654  -0.82410
 Alpha  occ. eigenvalues --   -0.80763  -0.79296  -0.78294  -0.77616  -0.76618
 Alpha  occ. eigenvalues --   -0.75182  -0.73553  -0.73463  -0.71868  -0.69301
 Alpha  occ. eigenvalues --   -0.67869  -0.67544  -0.66358  -0.65196  -0.63500
 Alpha  occ. eigenvalues --   -0.62558  -0.62503  -0.61782  -0.61341  -0.60984
 Alpha  occ. eigenvalues --   -0.60862  -0.60278  -0.59314  -0.59209  -0.57737
 Alpha  occ. eigenvalues --   -0.57549  -0.56239  -0.55820  -0.55517  -0.55392
 Alpha  occ. eigenvalues --   -0.54786  -0.54512  -0.54336  -0.54146  -0.53176
 Alpha  occ. eigenvalues --   -0.53037  -0.51934  -0.51620  -0.51405  -0.51101
 Alpha  occ. eigenvalues --   -0.50763  -0.50600  -0.50088  -0.49725  -0.49228
 Alpha  occ. eigenvalues --   -0.48585  -0.47911  -0.47347  -0.47235  -0.46574
 Alpha  occ. eigenvalues --   -0.46217  -0.45766  -0.45298  -0.45053  -0.44823
 Alpha  occ. eigenvalues --   -0.43629  -0.43376  -0.42943  -0.41329  -0.40655
 Alpha  occ. eigenvalues --   -0.39886  -0.39424  -0.38796  -0.38312  -0.37712
 Alpha  occ. eigenvalues --   -0.31358  -0.30715  -0.30589  -0.29672  -0.28925
 Alpha  occ. eigenvalues --   -0.28899  -0.27911  -0.26220  -0.22514  -0.20771
 Alpha  occ. eigenvalues --   -0.20608  -0.19000
 Alpha virt. eigenvalues --    0.14755   0.16558   0.23099   0.24828   0.26021
 Alpha virt. eigenvalues --    0.27675   0.28503   0.30276   0.31474   0.33163
 Alpha virt. eigenvalues --    0.40281   0.42058   0.50369   0.52084   0.52471
 Alpha virt. eigenvalues --    0.52827   0.54049   0.54264   0.55214   0.56480
 Alpha virt. eigenvalues --    0.56876   0.57286   0.57921   0.58912   0.59072
 Alpha virt. eigenvalues --    0.60403   0.61643   0.62317   0.63331   0.64023
 Alpha virt. eigenvalues --    0.64238   0.65194   0.65639   0.65935   0.66249
 Alpha virt. eigenvalues --    0.66727   0.67081   0.67223   0.67978   0.68684
 Alpha virt. eigenvalues --    0.68754   0.68997   0.69431   0.69652   0.69885
 Alpha virt. eigenvalues --    0.70446   0.70801   0.71022   0.71297   0.71702
 Alpha virt. eigenvalues --    0.72579   0.72945   0.73541   0.74194   0.74278
 Alpha virt. eigenvalues --    0.74887   0.75557   0.75777   0.76037   0.77366
 Alpha virt. eigenvalues --    0.77441   0.79037   0.81532   0.83172   0.83612
 Alpha virt. eigenvalues --    0.85239   0.85769   0.87463   0.88641   0.89023
 Alpha virt. eigenvalues --    0.90332   0.90643   0.90739   0.92050   0.92137
 Alpha virt. eigenvalues --    0.92866   0.93767   0.94215   0.94527   0.96063
 Alpha virt. eigenvalues --    0.98210   0.99955   1.02732   1.04523   1.09288
 Alpha virt. eigenvalues --    1.10920   1.10996   1.12685   1.13655   1.14952
 Alpha virt. eigenvalues --    1.15350   1.16707
          Condensed to atoms (all electrons):
 Mulliken charges:
               1
     1  C   -0.102582
     2  C    0.142049
     3  H    0.061390
     4  C   -0.036126
     5  C   -0.103847
     6  N   -0.284812
     7  C   -0.038249
     8  H    0.067926
     9  C   -0.035919
    10  H    0.057162
    11  C   -0.063746
    12  C   -0.063997
    13  C   -0.014361
    14  H    0.063346
    15  H    0.069770
    16  H    0.072995
    17  H    0.068208
    18  H    0.069416
    19  H    0.072607
    20  H    0.070380
    21  C   -0.109540
    22  H    0.078603
    23  C    0.188302
    24  H    0.066824
    25  C   -0.082253
    26  O   -0.285357
    27  C    0.151256
    28  C   -0.043003
    29  H    0.261089
    30  C   -0.100759
    31  O   -0.333877
    32  C   -0.091769
    33  H    0.078346
    34  C   -0.039785
    35  H    0.064386
    36  H    0.055936
    37  H    0.062574
    38  C   -0.101005
    39  C    0.144098
    40  H    0.060359
    41  C   -0.036855
    42  C   -0.103412
    43  N   -0.283111
    44  C   -0.040749
    45  H    0.065695
    46  C   -0.035765
    47  H    0.060375
    48  C   -0.064473
    49  C   -0.064132
    50  C   -0.015187
    51  H    0.065141
    52  H    0.069844
    53  H    0.075968
    54  H    0.069703
    55  H    0.076277
    56  H    0.068384
    57  H    0.071795
    58  C   -0.109937
    59  H    0.080773
    60  C    0.188404
    61  H    0.061085
    62  C   -0.080919
    63  O   -0.283414
    64  C    0.150226
    65  C   -0.040229
    66  H    0.262028
    67  O   -0.334439
    68  C   -0.098617
    69  C   -0.089378
    70  H    0.060555
    71  C   -0.037197
    72  H    0.070688
    73  H    0.057142
    74  H    0.067697
 Sum of Mulliken charges =   0.00000
 Mulliken charges with hydrogens summed into heavy atoms:
               1
     1  C   -0.041192
     2  C    0.142049
     4  C    0.031800
     5  C   -0.046685
     6  N   -0.284812
     7  C   -0.038249
     9  C    0.027427
    11  C    0.147227
    12  C    0.148405
    13  C    0.064242
    21  C   -0.042716
    23  C    0.188302
    25  C   -0.082253
    26  O   -0.285357
    27  C    0.151256
    28  C    0.035343
    30  C   -0.036372
    31  O   -0.072789
    32  C   -0.035833
    34  C    0.022790
    38  C   -0.040646
    39  C    0.144098
    41  C    0.028840
    42  C   -0.043038
    43  N   -0.283111
    44  C   -0.040749
    46  C    0.029376
    48  C    0.151042
    49  C    0.152325
    50  C    0.065586
    58  C   -0.048852
    60  C    0.188404
    62  C   -0.080919
    63  O   -0.283414
    64  C    0.150226
    65  C    0.020326
    67  O   -0.072412
    68  C   -0.027929
    69  C   -0.032235
    71  C    0.030499
 Electronic spatial extent (au):  <R**2>=          40889.3602
 Charge=              0.0000 electrons
 Dipole moment (field-independent basis, Debye):
    X=            -11.4731    Y=              0.1970    Z=              8.9333  Tot=             14.5422
 Quadrupole moment (field-independent basis, Debye-Ang):
   XX=           -225.1661   YY=           -220.5241   ZZ=           -220.8830
   XY=             31.4198   XZ=             12.0962   YZ=            -27.7679
 Traceless Quadrupole moment (field-independent basis, Debye-Ang):
   XX=             -2.9750   YY=              1.6670   ZZ=              1.3081
   XY=             31.4198   XZ=             12.0962   YZ=            -27.7679
 Octapole moment (field-independent basis, Debye-Ang**2):
  XXX=          -1326.5990  YYY=           1698.7383  ZZZ=             73.5966  XYY=           -456.4841
  XXY=            655.2901  XXZ=            278.3023  XZZ=           -623.2524  YZZ=            614.1888
  YYZ=             23.3751  XYZ=           -120.0641
 Hexadecapole moment (field-independent basis, Debye-Ang**3):
 XXXX=         -26235.4876 YYYY=         -11677.1589 ZZZZ=         -14480.6021 XXXY=           4606.2504
 XXXZ=           6215.9627 YYYX=           4044.9117 YYYZ=          -1743.7306 ZZZX=           5970.9718
 ZZZY=          -2477.1123 XXYY=          -6801.4704 XXZZ=          -7234.4847 YYZZ=          -4659.6007
 XXYZ=          -1624.7960 YYXZ=           2481.3711 ZZXY=           2141.0481
 N-N= 4.167977273007D+03 E-N=-1.229794924294D+04  KE= 1.679235888689D+03
 Leave Link  601 at Wed Nov  1 19:18:16 2017, MaxMem=  3758096384 cpu:         0.7
 (Enter /share/apps/gaussian/g09_D01/g09/l9999.exe)
 1\1\GINC-SM7\SP\RTD-FC\STO-3G\C34H34N2O4\BTX008\01-Nov-2017\0\\#p HF/S
 TO-3G td=(nstates=2) nosymm\\Title\\0,1\C,0,-0.045604,-3.212643,-0.673
 042\C,0,-1.163557,-4.037551,-0.999057\H,0,-0.121291,-2.475288,0.121883
 \C,0,1.146608,-3.335524,-1.348586\C,0,-0.997931,-4.974953,-2.055672\N,
 0,-2.337452,-3.93316,-0.324579\C,0,1.320601,-4.270503,-2.399224\H,0,1.
 971105,-2.682196,-1.060472\C,0,0.202155,-5.074774,-2.725295\H,0,-1.826
 104,-5.611893,-2.356233\C,0,-3.451039,-4.817588,-0.638286\C,0,-2.48278
 2,-2.951131,0.738607\C,0,2.5213,-4.396929,-3.164451\H,0,0.299534,-5.79
 2287,-3.54133\H,0,-3.150286,-5.872565,-0.549647\H,0,-4.268925,-4.62644
 1,0.063239\H,0,-3.818958,-4.648925,-1.662177\H,0,-2.290162,-1.933406,0
 .365237\H,0,-3.502453,-2.991283,1.132588\H,0,-1.783201,-3.152381,1.563
 457\C,0,3.704177,-3.730044,-2.976341\H,0,2.47843,-5.091951,-4.010014\C
 ,0,4.824246,-3.904072,-3.862622\H,0,3.810173,-3.042685,-2.139497\C,0,6
 .116034,-3.241308,-3.594826\O,0,4.72679,-4.644034,-4.908669\C,0,7.1964
 41,-3.444502,-4.505463\C,0,6.35306,-2.418884,-2.472996\H,0,6.047681,-4
 .528914,-5.530262\C,0,8.44931,-2.862065,-4.256098\O,0,7.039043,-4.1982
 67,-5.611204\C,0,7.588797,-1.834009,-2.241935\H,0,5.552651,-2.221827,-
 1.761605\C,0,8.641937,-2.065551,-3.137064\H,0,9.257308,-3.069135,-4.95
 777\H,0,7.737617,-1.196134,-1.371176\H,0,9.619574,-1.619592,-2.947297\
 C,0,-2.781614,-1.929857,4.949057\C,0,-3.899567,-1.104949,4.623044\H,0,
 -2.857302,-2.667213,5.743983\C,0,-1.589403,-1.806976,4.273514\C,0,-3.7
 3394,-0.167547,3.566427\N,0,-5.073462,-1.209339,5.297522\C,0,-1.415409
 ,-0.871998,3.222876\H,0,-0.764905,-2.460304,4.561627\C,0,-2.533855,-0.
 067726,2.896805\H,0,-4.562114,0.469394,3.265867\C,0,-5.218792,-2.19136
 8,6.360707\C,0,-6.187049,-0.324912,4.983813\C,0,-0.21471,-0.745572,2.4
 57648\H,0,-2.436476,0.649787,2.08077\H,0,-5.026172,-3.209094,5.987337\
 H,0,-6.238463,-2.151217,6.754688\H,0,-4.519211,-1.99012,7.185557\H,0,-
 7.004935,-0.516059,5.685339\H,0,-6.554969,-0.493575,3.959922\H,0,-5.88
 6296,0.730066,5.072453\C,0,0.968167,-1.412456,2.645758\H,0,-0.25758,-0
 .050548,1.612086\C,0,2.088236,-1.238428,1.759478\H,0,1.074163,-2.09981
 5,3.482603\C,0,3.380024,-1.901192,2.027274\O,0,1.99078,-0.498466,0.713
 431\C,0,4.460431,-1.697998,1.116638\C,0,3.61705,-2.723616,3.149104\H,0
 ,3.311671,-0.613585,0.091837\O,0,4.303032,-0.944233,0.010896\C,0,5.713
 299,-2.280435,1.366002\C,0,4.852786,-3.30849,3.380164\H,0,2.81664,-2.9
 20673,3.860494\C,0,5.905928,-3.076949,2.485036\H,0,6.521299,-2.073366,
 0.66433\H,0,5.001608,-3.946366,4.250925\H,0,6.883564,-3.522908,2.67480
 4\\Version=ES64L-G09RevD.01\HF=-1694.2488998\RMSD=5.435e-09\PG=C01 [X(
 C34H34N2O4)]\\@


 THERE ONCE WAS A GIRL NAMED IRENE,
 WHO LIVED ON DISTILLED KEROSENE,
      BUT SHE STARTED ABSORBIN'
      A NEW HYDROCARBON,
 AND SINCE THEN HAS NEVER BENZENE.
 Job cpu time:       0 days  0 hours  5 minutes 45.5 seconds.
 File lengths (MBytes):  RWF=     97 Int=      0 D2E=      0 Chk=      9 Scr=      1
 Normal termination of Gaussian 09 at Wed Nov  1 19:18:17 2017.
