 Entering Gaussian System, Link 0=g09
 Input=1_optS1.com
 Output=1_optS1.out
 Initial command:
 /share/apps/gaussian/g09_D01/g09/l1.exe "/tmp/3820735.1.chemistry.q/Gau-23348.inp" -scrdir="/tmp/3820735.1.chemistry.q/"
 Entering Link 1 = /share/apps/gaussian/g09_D01/g09/l1.exe PID=     23349.
  
 Copyright (c) 1988,1990,1992,1993,1995,1998,2003,2009,2013,
            Gaussian, Inc.  All Rights Reserved.
  
 This is part of the Gaussian(R) 09 program.  It is based on
 the Gaussian(R) 03 system (copyright 2003, Gaussian, Inc.),
 the Gaussian(R) 98 system (copyright 1998, Gaussian, Inc.),
 the Gaussian(R) 94 system (copyright 1995, Gaussian, Inc.),
 the Gaussian 92(TM) system (copyright 1992, Gaussian, Inc.),
 the Gaussian 90(TM) system (copyright 1990, Gaussian, Inc.),
 the Gaussian 88(TM) system (copyright 1988, Gaussian, Inc.),
 the Gaussian 86(TM) system (copyright 1986, Carnegie Mellon
 University), and the Gaussian 82(TM) system (copyright 1983,
 Carnegie Mellon University). Gaussian is a federally registered
 trademark of Gaussian, Inc.
  
 This software contains proprietary and confidential information,
 including trade secrets, belonging to Gaussian, Inc.
  
 This software is provided under written license and may be
 used, copied, transmitted, or stored only in accord with that
 written license.
  
 The following legend is applicable only to US Government
 contracts under FAR:
  
                    RESTRICTED RIGHTS LEGEND
  
 Use, reproduction and disclosure by the US Government is
 subject to restrictions as set forth in subparagraphs (a)
 and (c) of the Commercial Computer Software - Restricted
 Rights clause in FAR 52.227-19.
  
 Gaussian, Inc.
 340 Quinnipiac St., Bldg. 40, Wallingford CT 06492
  
  
 ---------------------------------------------------------------
 Warning -- This program may not be used in any manner that
 competes with the business of Gaussian, Inc. or will provide
 assistance to any competitor of Gaussian, Inc.  The licensee
 of this program is prohibited from giving any competitor of
 Gaussian, Inc. access to this program.  By using this program,
 the user acknowledges that Gaussian, Inc. is engaged in the
 business of creating and licensing software in the field of
 computational chemistry and represents and warrants to the
 licensee that it is not a competitor of Gaussian, Inc. and that
 it will not use this program in any manner prohibited above.
 ---------------------------------------------------------------
  

 Cite this work as:
 Gaussian 09, Revision D.01,
 M. J. Frisch, G. W. Trucks, H. B. Schlegel, G. E. Scuseria, 
 M. A. Robb, J. R. Cheeseman, G. Scalmani, V. Barone, B. Mennucci, 
 G. A. Petersson, H. Nakatsuji, M. Caricato, X. Li, H. P. Hratchian, 
 A. F. Izmaylov, J. Bloino, G. Zheng, J. L. Sonnenberg, M. Hada, 
 M. Ehara, K. Toyota, R. Fukuda, J. Hasegawa, M. Ishida, T. Nakajima, 
 Y. Honda, O. Kitao, H. Nakai, T. Vreven, J. A. Montgomery, Jr., 
 J. E. Peralta, F. Ogliaro, M. Bearpark, J. J. Heyd, E. Brothers, 
 K. N. Kudin, V. N. Staroverov, T. Keith, R. Kobayashi, J. Normand, 
 K. Raghavachari, A. Rendell, J. C. Burant, S. S. Iyengar, J. Tomasi, 
 M. Cossi, N. Rega, J. M. Millam, M. Klene, J. E. Knox, J. B. Cross, 
 V. Bakken, C. Adamo, J. Jaramillo, R. Gomperts, R. E. Stratmann, 
 O. Yazyev, A. J. Austin, R. Cammi, C. Pomelli, J. W. Ochterski, 
 R. L. Martin, K. Morokuma, V. G. Zakrzewski, G. A. Voth, 
 P. Salvador, J. J. Dannenberg, S. Dapprich, A. D. Daniels, 
 O. Farkas, J. B. Foresman, J. V. Ortiz, J. Cioslowski, 
 and D. J. Fox, Gaussian, Inc., Wallingford CT, 2013.
 
 ******************************************
 Gaussian 09:  ES64L-G09RevD.01 24-Apr-2013
                19-Oct-2016 
 ******************************************
 %chk=1_optS1.chk
 %mem=4GB
 %nproc=2
 Will use up to    2 processors via shared memory.
 -----------------------------------------------------------
 # wb97xd 6-311++g** opt td=(nstates=1,root=1) geom=allcheck
 -----------------------------------------------------------
 1/14=-1,18=20,19=15,26=3,29=7,38=1/1,3;
 2/9=110,12=2,40=1/2;
 3/5=4,6=6,7=1111,11=9,14=-4,16=1,25=1,30=1,71=1,74=-58/1,2,8,3;
 4//1;
 5/5=2,38=5/2;
 8/6=1,10=2,107=1,108=1/1;
 9/8=1,15=2,41=1,42=1,70=2/14;
 10/5=4/2;
 6/7=2,8=2,9=2,10=2/1;
 7/12=6,13=5,14=1/1,2,3,16;
 1/14=-1,18=20,19=15,26=3/3(2);
 2/9=110/2;
 99//99;
 2/9=110/2;
 3/5=4,6=6,7=1111,11=9,14=-2,16=1,25=1,30=1,71=1,74=-58/1,2,8,3;
 4/5=5,16=3,69=1/1;
 5/5=2,38=5/2;
 8/6=1,10=2,107=1,108=1/1;
 9/8=1,15=2,41=1,42=1,49=4,70=2/14;
 10/5=4/2;
 7/12=6,13=5,14=1/1,2,3,16;
 1/14=-1,18=20,19=15,26=3/3(-8);
 2/9=110/2;
 6/7=2,8=2,9=2,10=2/1;
 99//99;
 Structure from the checkpoint file:  "1_optS1.chk"
 -----------
 Geom Opt s0
 -----------
 Charge =  0 Multiplicity = 1
 Redundant internal coordinates found in file.
 C,0,-0.0059439113,0.258601193,8.5983365048
 H,0,0.9441303681,0.7151942619,8.8749023099
 H,0,-0.7869011497,1.0280500315,8.6229367016
 C,0,1.2662814724,0.0252514757,6.4789946873
 H,0,1.2658114902,1.0930670574,6.2318738205
 N,0,0.1124453274,-0.3312120903,7.2812134413
 H,0,-0.2499135441,-0.5082633103,9.3395236612
 H,0,1.2557683798,-0.5442246528,5.5499283251
 H,0,2.1903545421,-0.2078518171,7.0155292961
 C,0,-0.9037713959,-1.0402615675,6.7638354454
 H,0,-0.7434676584,-1.429397574,5.7624194261
 C,0,-2.0926045968,-1.3235641285,7.3622119322
 C,0,-3.0516975706,-2.1326058255,6.6343401548
 H,0,-2.324737819,-0.9499620729,8.3473758524
 O,0,-2.7838062829,-2.5654683722,5.4989896194
 C,0,-4.3734293732,-2.4508644285,7.2351196725
 C,0,-5.2983160761,-3.2297571274,6.4989062503
 C,0,-4.7540232856,-2.012472747,8.5132076871
 O,0,-5.0366220604,-3.6972382069,5.2778318091
 C,0,-6.5481263608,-3.5368128253,7.0520638468
 C,0,-5.9864913466,-2.3181826115,9.0542864045
 H,0,-4.0684325367,-1.4163735457,9.1017825143
 H,0,-4.1256477295,-3.3910384226,5.0533908137
 H,0,-7.2307567054,-4.1346039021,6.4600054033
 C,0,-6.8856481798,-3.0871009178,8.3110895943
 H,0,-6.2518502396,-1.9657293523,10.0436065224
 H,0,-7.8575257578,-3.3337795214,8.7247443037
 Recover connectivity data from disk.

 GradGradGradGradGradGradGradGradGradGradGradGradGradGradGradGradGradGrad
 Berny optimization.
 Initialization pass.
                           ----------------------------
                           !    Initial Parameters    !
                           ! (Angstroms and Degrees)  !
 --------------------------                            --------------------------
 ! Name  Definition              Value          Derivative Info.                !
 --------------------------------------------------------------------------------
 ! R1    R(1,2)                  1.0898         estimate D2E/DX2                !
 ! R2    R(1,3)                  1.0966         estimate D2E/DX2                !
 ! R3    R(1,6)                  1.448          estimate D2E/DX2                !
 ! R4    R(1,7)                  1.0941         estimate D2E/DX2                !
 ! R5    R(4,5)                  1.096          estimate D2E/DX2                !
 ! R6    R(4,6)                  1.4498         estimate D2E/DX2                !
 ! R7    R(4,8)                  1.0898         estimate D2E/DX2                !
 ! R8    R(4,9)                  1.0937         estimate D2E/DX2                !
 ! R9    R(6,10)                 1.3428         estimate D2E/DX2                !
 ! R10   R(10,11)                1.0863         estimate D2E/DX2                !
 ! R11   R(10,12)                1.3607         estimate D2E/DX2                !
 ! R12   R(12,13)                1.4506         estimate D2E/DX2                !
 ! R13   R(12,14)                1.0789         estimate D2E/DX2                !
 ! R14   R(13,15)                1.2442         estimate D2E/DX2                !
 ! R15   R(13,16)                1.4863         estimate D2E/DX2                !
 ! R16   R(16,17)                1.4157         estimate D2E/DX2                !
 ! R17   R(16,18)                1.4038         estimate D2E/DX2                !
 ! R18   R(17,19)                1.3334         estimate D2E/DX2                !
 ! R19   R(17,20)                1.4008         estimate D2E/DX2                !
 ! R20   R(18,21)                1.3803         estimate D2E/DX2                !
 ! R21   R(18,22)                1.0825         estimate D2E/DX2                !
 ! R22   R(19,23)                0.9869         estimate D2E/DX2                !
 ! R23   R(20,24)                1.0835         estimate D2E/DX2                !
 ! R24   R(20,25)                1.3789         estimate D2E/DX2                !
 ! R25   R(21,25)                1.3972         estimate D2E/DX2                !
 ! R26   R(21,26)                1.0832         estimate D2E/DX2                !
 ! R27   R(25,27)                1.0847         estimate D2E/DX2                !
 ! A1    A(2,1,3)              108.7349         estimate D2E/DX2                !
 ! A2    A(2,1,6)              109.2826         estimate D2E/DX2                !
 ! A3    A(2,1,7)              108.4307         estimate D2E/DX2                !
 ! A4    A(3,1,6)              111.3731         estimate D2E/DX2                !
 ! A5    A(3,1,7)              108.5309         estimate D2E/DX2                !
 ! A6    A(6,1,7)              110.4233         estimate D2E/DX2                !
 ! A7    A(5,4,6)              111.3432         estimate D2E/DX2                !
 ! A8    A(5,4,8)              108.4749         estimate D2E/DX2                !
 ! A9    A(5,4,9)              108.5796         estimate D2E/DX2                !
 ! A10   A(6,4,8)              109.6073         estimate D2E/DX2                !
 ! A11   A(6,4,9)              110.4006         estimate D2E/DX2                !
 ! A12   A(8,4,9)              108.3616         estimate D2E/DX2                !
 ! A13   A(1,6,4)              117.9196         estimate D2E/DX2                !
 ! A14   A(1,6,10)             120.2438         estimate D2E/DX2                !
 ! A15   A(4,6,10)             121.26           estimate D2E/DX2                !
 ! A16   A(6,10,11)            115.6378         estimate D2E/DX2                !
 ! A17   A(6,10,12)            126.9902         estimate D2E/DX2                !
 ! A18   A(11,10,12)           117.3704         estimate D2E/DX2                !
 ! A19   A(10,12,13)           118.2363         estimate D2E/DX2                !
 ! A20   A(10,12,14)           121.1592         estimate D2E/DX2                !
 ! A21   A(13,12,14)           120.6013         estimate D2E/DX2                !
 ! A22   A(12,13,15)           120.633          estimate D2E/DX2                !
 ! A23   A(12,13,16)           120.302          estimate D2E/DX2                !
 ! A24   A(15,13,16)           119.0645         estimate D2E/DX2                !
 ! A25   A(13,16,17)           119.2471         estimate D2E/DX2                !
 ! A26   A(13,16,18)           122.8364         estimate D2E/DX2                !
 ! A27   A(17,16,18)           117.9165         estimate D2E/DX2                !
 ! A28   A(16,17,19)           122.7449         estimate D2E/DX2                !
 ! A29   A(16,17,20)           119.877          estimate D2E/DX2                !
 ! A30   A(19,17,20)           117.3781         estimate D2E/DX2                !
 ! A31   A(16,18,21)           121.9939         estimate D2E/DX2                !
 ! A32   A(16,18,22)           119.6897         estimate D2E/DX2                !
 ! A33   A(21,18,22)           118.3164         estimate D2E/DX2                !
 ! A34   A(17,19,23)           106.2981         estimate D2E/DX2                !
 ! A35   A(17,20,24)           117.8583         estimate D2E/DX2                !
 ! A36   A(17,20,25)           120.4949         estimate D2E/DX2                !
 ! A37   A(24,20,25)           121.6468         estimate D2E/DX2                !
 ! A38   A(18,21,25)           119.2098         estimate D2E/DX2                !
 ! A39   A(18,21,26)           120.3107         estimate D2E/DX2                !
 ! A40   A(25,21,26)           120.4795         estimate D2E/DX2                !
 ! A41   A(20,25,21)           120.5079         estimate D2E/DX2                !
 ! A42   A(20,25,27)           119.5623         estimate D2E/DX2                !
 ! A43   A(21,25,27)           119.9298         estimate D2E/DX2                !
 ! D1    D(2,1,6,4)            -13.4849         estimate D2E/DX2                !
 ! D2    D(2,1,6,10)           175.1118         estimate D2E/DX2                !
 ! D3    D(3,1,6,4)            106.669          estimate D2E/DX2                !
 ! D4    D(3,1,6,10)           -64.7343         estimate D2E/DX2                !
 ! D5    D(7,1,6,4)           -132.6736         estimate D2E/DX2                !
 ! D6    D(7,1,6,10)            55.9231         estimate D2E/DX2                !
 ! D7    D(5,4,6,1)            -63.8899         estimate D2E/DX2                !
 ! D8    D(5,4,6,10)           107.4215         estimate D2E/DX2                !
 ! D9    D(8,4,6,1)            176.0861         estimate D2E/DX2                !
 ! D10   D(8,4,6,10)           -12.6025         estimate D2E/DX2                !
 ! D11   D(9,4,6,1)             56.7938         estimate D2E/DX2                !
 ! D12   D(9,4,6,10)          -131.8948         estimate D2E/DX2                !
 ! D13   D(1,6,10,11)          178.648          estimate D2E/DX2                !
 ! D14   D(1,6,10,12)           -1.8191         estimate D2E/DX2                !
 ! D15   D(4,6,10,11)            7.5365         estimate D2E/DX2                !
 ! D16   D(4,6,10,12)         -172.9306         estimate D2E/DX2                !
 ! D17   D(6,10,12,13)        -178.8301         estimate D2E/DX2                !
 ! D18   D(6,10,12,14)           1.815          estimate D2E/DX2                !
 ! D19   D(11,10,12,13)          0.6957         estimate D2E/DX2                !
 ! D20   D(11,10,12,14)       -178.6592         estimate D2E/DX2                !
 ! D21   D(10,12,13,15)          0.7511         estimate D2E/DX2                !
 ! D22   D(10,12,13,16)       -178.9787         estimate D2E/DX2                !
 ! D23   D(14,12,13,15)       -179.8903         estimate D2E/DX2                !
 ! D24   D(14,12,13,16)          0.3799         estimate D2E/DX2                !
 ! D25   D(12,13,16,17)        179.2973         estimate D2E/DX2                !
 ! D26   D(12,13,16,18)         -0.7586         estimate D2E/DX2                !
 ! D27   D(15,13,16,17)         -0.4368         estimate D2E/DX2                !
 ! D28   D(15,13,16,18)        179.5073         estimate D2E/DX2                !
 ! D29   D(13,16,17,19)          0.0215         estimate D2E/DX2                !
 ! D30   D(13,16,17,20)       -179.9582         estimate D2E/DX2                !
 ! D31   D(18,16,17,19)       -179.9253         estimate D2E/DX2                !
 ! D32   D(18,16,17,20)          0.095          estimate D2E/DX2                !
 ! D33   D(13,16,18,21)        179.9907         estimate D2E/DX2                !
 ! D34   D(13,16,18,22)         -0.0379         estimate D2E/DX2                !
 ! D35   D(17,16,18,21)         -0.0645         estimate D2E/DX2                !
 ! D36   D(17,16,18,22)        179.9069         estimate D2E/DX2                !
 ! D37   D(16,17,19,23)          0.2018         estimate D2E/DX2                !
 ! D38   D(20,17,19,23)       -179.818          estimate D2E/DX2                !
 ! D39   D(16,17,20,24)        179.9736         estimate D2E/DX2                !
 ! D40   D(16,17,20,25)         -0.0695         estimate D2E/DX2                !
 ! D41   D(19,17,20,24)         -0.0071         estimate D2E/DX2                !
 ! D42   D(19,17,20,25)        179.9497         estimate D2E/DX2                !
 ! D43   D(16,18,21,25)          0.0065         estimate D2E/DX2                !
 ! D44   D(16,18,21,26)        179.9847         estimate D2E/DX2                !
 ! D45   D(22,18,21,25)       -179.9653         estimate D2E/DX2                !
 ! D46   D(22,18,21,26)          0.0129         estimate D2E/DX2                !
 ! D47   D(17,20,25,21)          0.0099         estimate D2E/DX2                !
 ! D48   D(17,20,25,27)        179.9995         estimate D2E/DX2                !
 ! D49   D(24,20,25,21)        179.965          estimate D2E/DX2                !
 ! D50   D(24,20,25,27)         -0.0453         estimate D2E/DX2                !
 ! D51   D(18,21,25,20)          0.022          estimate D2E/DX2                !
 ! D52   D(18,21,25,27)       -179.9676         estimate D2E/DX2                !
 ! D53   D(26,21,25,20)       -179.9561         estimate D2E/DX2                !
 ! D54   D(26,21,25,27)          0.0543         estimate D2E/DX2                !
 --------------------------------------------------------------------------------
 Trust Radius=3.00D-01 FncErr=1.00D-07 GrdErr=1.00D-06
 Number of steps in this run=    134 maximum allowed number of steps=    162.
 GradGradGradGradGradGradGradGradGradGradGradGradGradGradGradGradGradGrad

                          Input orientation:                          
 ---------------------------------------------------------------------
 Center     Atomic      Atomic             Coordinates (Angstroms)
 Number     Number       Type             X           Y           Z
 ---------------------------------------------------------------------
      1          6           0       -0.005944    0.258601    8.598337
      2          1           0        0.944130    0.715194    8.874902
      3          1           0       -0.786901    1.028050    8.622937
      4          6           0        1.266281    0.025251    6.478995
      5          1           0        1.265811    1.093067    6.231874
      6          7           0        0.112445   -0.331212    7.281213
      7          1           0       -0.249914   -0.508263    9.339524
      8          1           0        1.255768   -0.544225    5.549928
      9          1           0        2.190355   -0.207852    7.015529
     10          6           0       -0.903771   -1.040262    6.763835
     11          1           0       -0.743468   -1.429398    5.762419
     12          6           0       -2.092605   -1.323564    7.362212
     13          6           0       -3.051698   -2.132606    6.634340
     14          1           0       -2.324738   -0.949962    8.347376
     15          8           0       -2.783806   -2.565468    5.498990
     16          6           0       -4.373429   -2.450864    7.235120
     17          6           0       -5.298316   -3.229757    6.498906
     18          6           0       -4.754023   -2.012473    8.513208
     19          8           0       -5.036622   -3.697238    5.277832
     20          6           0       -6.548126   -3.536813    7.052064
     21          6           0       -5.986491   -2.318183    9.054286
     22          1           0       -4.068433   -1.416374    9.101783
     23          1           0       -4.125648   -3.391038    5.053391
     24          1           0       -7.230757   -4.134604    6.460005
     25          6           0       -6.885648   -3.087101    8.311090
     26          1           0       -6.251850   -1.965729   10.043607
     27          1           0       -7.857526   -3.333780    8.724744
 ---------------------------------------------------------------------
                    Distance matrix (angstroms):
                    1          2          3          4          5
     1  C    0.000000
     2  H    1.089774   0.000000
     3  H    1.096609   1.777030   0.000000
     4  C    2.482865   2.513996   3.133313   0.000000
     5  H    2.813155   2.689213   3.151990   1.096038   0.000000
     6  N    1.448002   2.080027   2.111075   1.449813   2.111857
     7  H    1.094057   1.771571   1.778233   3.281175   3.810403
     8  H    3.395473   3.569132   4.010976   1.089760   1.773661
     9  H    2.747105   2.421230   3.602119   1.093672   1.778000
    10  C    2.420441   3.309527   2.783492   2.434252   3.088877
    11  H    3.381672   4.139422   3.771405   2.582359   3.258898
    12  C    2.895756   3.958096   2.970585   3.725787   4.289141
    13  C    4.341862   5.394138   4.367329   4.829640   5.404427
    14  H    2.626863   3.706282   2.520597   4.163809   4.641267
    15  O    5.029696   6.004752   5.163337   4.906674   5.506488
    16  C    5.317377   6.402285   5.185756   6.205579   6.735502
    17  C    6.677234   7.757328   6.556927   7.327306   7.864216
    18  C    5.263961   6.327712   4.999488   6.673411   7.147536
    19  O    7.209864   8.256990   7.181797   7.417972   7.973574
    20  C    7.719863   8.805465   7.516471   8.607072   9.119546
    21  C    6.527990   7.567501   6.198312   8.045280   8.496972
    22  H    4.422987   5.451683   4.119824   6.116901   6.556510
    23  H    6.546638   7.560936   6.589175   6.540358   7.110827
    24  H    8.721848   9.807194   8.535487   9.460677   9.978590
    25  C    7.655492   8.722429   7.363860   8.916124   9.393787
    26  H    6.785853   7.767584   6.391141   8.555277   8.966648
    27  H    8.635306   9.689473   8.308409   9.978494  10.442541
                    6          7          8          9         10
     6  N    0.000000
     7  H    2.097449   0.000000
     8  H    2.085644   4.077917   0.000000
     9  H    2.098455   3.383209   1.770476   0.000000
    10  C    1.342806   2.710115   2.526507   3.214012   0.000000
    11  H    2.060421   3.726628   2.196731   3.416105   1.086259
    12  C    2.419415   2.823117   3.886302   4.439453   1.360749
    13  C    3.698008   4.219775   4.717326   5.597240   2.413208
    14  H    2.731193   2.341869   4.561837   4.765564   2.129530
    15  O    4.068967   5.040080   4.517320   5.709687   2.731414
    16  C    4.961665   5.020518   6.177622   6.939927   3.774975
    17  C    6.187884   6.400157   7.146234   8.091909   4.916920
    18  C    5.294050   4.820005   6.859619   7.329671   4.339348
    19  O    6.469665   7.041270   7.043416   8.211248   5.133048
    20  C    7.395377   7.353371   8.491924   9.351169   6.178559
    21  C    6.654988   6.022084   8.238797   8.687395   5.719553
    22  H    4.687407   3.932210   6.459367   6.707115   3.952535
    23  H    5.682179   6.457758   6.108235   7.339928   4.339615
    24  H    8.310402   8.377001   9.259599  10.221806   7.049682
    25  C    7.591369   7.193125   8.965093   9.609494   6.508947
    26  H    7.127883   6.216364   8.864432   9.139486   6.341556
    27  H    8.638266   8.138628  10.045556  10.660804   7.580243
                   11         12         13         14         15
    11  H    0.000000
    12  C    2.095401   0.000000
    13  C    2.565672   1.450588   0.000000
    14  H    3.067943   1.078894   2.204905   0.000000
    15  O    2.350114   2.343434   1.244249   3.306646   0.000000
    16  C    4.048316   2.547375   1.486338   2.772537   2.356731
    17  C    4.952812   3.828244   2.503873   4.178094   2.786373
    18  C    4.898099   2.980358   2.538206   2.656663   3.643222
    19  O    4.879457   4.318126   2.868469   4.931931   2.530809
    20  C    6.308601   4.984610   3.790950   5.119242   4.186365
    21  C    6.254249   4.360589   3.808358   3.972429   4.791501
    22  H    4.712420   2.634125   2.763152   1.956308   3.993845
    23  H    3.973651   3.706531   2.288323   4.477998   1.637273
    24  H    7.063263   5.925920   4.637125   6.145985   4.812599
    25  C    6.853472   5.194583   4.292054   5.036922   5.000511
    26  H    6.997035   4.990148   4.678880   4.396725   5.748092
    27  H    7.938001   6.255540   5.376671   6.036285   6.061223
                   16         17         18         19         20
    16  C    0.000000
    17  C    1.415662   0.000000
    18  C    1.403762   2.415667   0.000000
    19  O    2.413348   1.333434   3.658682   0.000000
    20  C    2.437642   1.400818   2.770805   2.336296   0.000000
    21  C    2.434942   2.799021   1.380291   4.131060   2.410267
    22  H    2.155835   3.402343   1.082492   4.556570   3.853114
    23  H    2.388569   1.868336   3.776987   0.986918   3.143938
    24  H    3.405892   2.134148   3.853996   2.530425   1.083454
    25  C    2.806021   2.413293   2.395726   3.604416   1.378879
    26  H    3.413418   3.882254   2.141913   5.214164   3.391963
    27  H    3.890687   3.393336   3.379693   4.468871   2.133919
                   21         22         23         24         25
    21  C    0.000000
    22  H    2.120015   0.000000
    23  H    4.541027   4.504670   0.000000
    24  H    3.402628   4.936401   3.489005   0.000000
    25  C    1.397161   3.369455   4.280489   2.154733   0.000000
    26  H    1.083233   2.440520   5.608431   4.301682   2.158886
    27  H    2.154253   4.263312   5.235363   2.482580   1.084669
                   26         27
    26  H    0.000000
    27  H    2.487801   0.000000
 Stoichiometry    C11H13NO2
 Framework group  C1[X(C11H13NO2)]
 Deg. of freedom    75
 Full point group                 C1      NOp   1
 Largest Abelian subgroup         C1      NOp   1
 Largest concise Abelian subgroup C1      NOp   1
                         Standard orientation:                         
 ---------------------------------------------------------------------
 Center     Atomic      Atomic             Coordinates (Angstroms)
 Number     Number       Type             X           Y           Z
 ---------------------------------------------------------------------
      1          6           0        3.727801    1.628145    0.036330
      2          1           0        4.775665    1.907272    0.144395
      3          1           0        3.345378    2.051267   -0.900297
      4          6           0        4.826931   -0.593504   -0.107932
      5          1           0        5.283559   -0.427116   -1.090329
      6          7           0        3.613736    0.184696    0.048668
      7          1           0        3.166484    2.062598    0.868877
      8          1           0        4.596388   -1.654034   -0.009431
      9          1           0        5.553881   -0.325812    0.664079
     10          6           0        2.404312   -0.398388    0.027827
     11          1           0        2.406350   -1.484580    0.015950
     12          6           0        1.194736    0.224960    0.029067
     13          6           0       -0.000736   -0.596655    0.030076
     14          1           0        1.121408    1.301311    0.018904
     15          8           0        0.083130   -1.837999    0.043844
     16          6           0       -1.345538    0.035994    0.008573
     17          6           0       -2.497091   -0.787316   -0.005144
     18          6           0       -1.532215    1.427273    0.002253
     19          8           0       -2.431648   -2.119129    0.000800
     20          6           0       -3.770983   -0.205043   -0.026342
     21          6           0       -2.789570    1.996353   -0.017985
     22          1           0       -0.671598    2.083773    0.013922
     23          1           0       -1.472094   -2.349198    0.018999
     24          1           0       -4.629560   -0.865807   -0.036820
     25          6           0       -3.913445    1.166443   -0.032541
     26          1           0       -2.902031    3.073724   -0.022148
     27          1           0       -4.907041    1.601187   -0.049026
 ---------------------------------------------------------------------
 Rotational constants (GHZ):      1.6252332      0.3210442      0.2690922
 Standard basis: 6-311++G(d,p) (5D, 7F)
 There are   413 symmetry adapted cartesian basis functions of A   symmetry.
 There are   399 symmetry adapted basis functions of A   symmetry.
   399 basis functions,   621 primitive gaussians,   413 cartesian basis functions
    51 alpha electrons       51 beta electrons
       nuclear repulsion energy       837.9865733706 Hartrees.
 NAtoms=   27 NActive=   27 NUniq=   27 SFac= 1.00D+00 NAtFMM=   60 NAOKFM=F Big=F
 Integral buffers will be    131072 words long.
 Raffenetti 1 integral format.
 Two-electron integral symmetry is turned on.
 Nuclear repulsion after empirical dispersion term =      837.9716587500 Hartrees.
 One-electron integrals computed using PRISM.
 NBasis=   399 RedAO= T EigKep=  1.63D-06  NBF=   399
 NBsUse=   396 1.00D-06 EigRej=  7.53D-07 NBFU=   396
 ExpMin= 3.60D-02 ExpMax= 8.59D+03 ExpMxC= 1.30D+03 IAcc=3 IRadAn=         5 AccDes= 0.00D+00
 Harris functional with IExCor= 4639 and IRadAn=       5 diagonalized for initial guess.
 HarFok:  IExCor= 4639 AccDes= 0.00D+00 IRadAn=         5 IDoV= 1 UseB2=F ITyADJ=14
 ICtDFT=  3500011 ScaDFX=  1.000000  1.000000  1.000000  1.000000
 FoFCou: FMM=F IPFlag=           0 FMFlag=      100000 FMFlg1=           0
         NFxFlg=           0 DoJE=T BraDBF=F KetDBF=T FulRan=T
         wScrn=  0.000000 ICntrl=     500 IOpCl=  0 I1Cent=   200000004 NGrid=           0
         NMat0=    1 NMatS0=      1 NMatT0=    0 NMatD0=    1 NMtDS0=    0 NMtDT0=    0
 Petite list used in FoFCou.
 Requested convergence on RMS density matrix=1.00D-08 within 128 cycles.
 Requested convergence on MAX density matrix=1.00D-06.
 Requested convergence on             energy=1.00D-06.
 No special actions if energy rises.
 SCF Done:  E(RwB97XD) =  -632.152645775     A.U. after   17 cycles
            NFock= 17  Conv=0.43D-08     -V/T= 2.0040
 DoSCS=F DFT=T ScalE2(SS,OS)=  1.000000  1.000000
 ExpMin= 3.60D-02 ExpMax= 8.59D+03 ExpMxC= 1.30D+03 IAcc=3 IRadAn=         5 AccDes= 0.00D+00
 HarFok:  IExCor=  205 AccDes= 0.00D+00 IRadAn=         5 IDoV=-2 UseB2=F ITyADJ=14
 ICtDFT= 12500011 ScaDFX=  1.000000  1.000000  1.000000  1.000000
 Range of M.O.s used for correlation:    15   396
 NBasis=   399 NAE=    51 NBE=    51 NFC=    14 NFV=     0
 NROrb=    382 NOA=    37 NOB=    37 NVA=   345 NVB=   345

 **** Warning!!: The largest alpha MO coefficient is  0.14157392D+03

 Would need an additional         18603000000 words for in-memory AO integral storage.
 Orbital symmetries:
       Occupied  (A) (A) (A) (A) (A) (A) (A) (A) (A) (A) (A) (A)
                 (A) (A) (A) (A) (A) (A) (A) (A) (A) (A) (A) (A)
                 (A) (A) (A) (A) (A) (A) (A) (A) (A) (A) (A) (A)
                 (A) (A) (A) (A) (A) (A) (A) (A) (A) (A) (A) (A)
                 (A) (A) (A)
       Virtual   (A) (A) (A) (A) (A) (A) (A) (A) (A) (A) (A) (A)
                 (A) (A) (A) (A) (A) (A) (A) (A) (A) (A) (A) (A)
                 (A) (A) (A) (A) (A) (A) (A) (A) (A) (A) (A) (A)
                 (A) (A) (A) (A) (A) (A) (A) (A) (A) (A) (A) (A)
                 (A) (A) (A) (A) (A) (A) (A) (A) (A) (A) (A) (A)
                 (A) (A) (A) (A) (A) (A) (A) (A) (A) (A) (A) (A)
                 (A) (A) (A) (A) (A) (A) (A) (A) (A) (A) (A) (A)
                 (A) (A) (A) (A) (A) (A) (A) (A) (A) (A) (A) (A)
                 (A) (A) (A) (A) (A) (A) (A) (A) (A) (A) (A) (A)
                 (A) (A) (A) (A) (A) (A) (A) (A) (A) (A) (A) (A)
                 (A) (A) (A) (A) (A) (A) (A) (A) (A) (A) (A) (A)
                 (A) (A) (A) (A) (A) (A) (A) (A) (A) (A) (A) (A)
                 (A) (A) (A) (A) (A) (A) (A) (A) (A) (A) (A) (A)
                 (A) (A) (A) (A) (A) (A) (A) (A) (A) (A) (A) (A)
                 (A) (A) (A) (A) (A) (A) (A) (A) (A) (A) (A) (A)
                 (A) (A) (A) (A) (A) (A) (A) (A) (A) (A) (A) (A)
                 (A) (A) (A) (A) (A) (A) (A) (A) (A) (A) (A) (A)
                 (A) (A) (A) (A) (A) (A) (A) (A) (A) (A) (A) (A)
                 (A) (A) (A) (A) (A) (A) (A) (A) (A) (A) (A) (A)
                 (A) (A) (A) (A) (A) (A) (A) (A) (A) (A) (A) (A)
                 (A) (A) (A) (A) (A) (A) (A) (A) (A) (A) (A) (A)
                 (A) (A) (A) (A) (A) (A) (A) (A) (A) (A) (A) (A)
                 (A) (A) (A) (A) (A) (A) (A) (A) (A) (A) (A) (A)
                 (A) (A) (A) (A) (A) (A) (A) (A) (A) (A) (A) (A)
                 (A) (A) (A) (A) (A) (A) (A) (A) (A) (A) (A) (A)
                 (A) (A) (A) (A) (A) (A) (A) (A) (A) (A) (A) (A)
                 (A) (A) (A) (A) (A) (A) (A) (A) (A) (A) (A) (A)
                 (A) (A) (A) (A) (A) (A) (A) (A) (A) (A) (A) (A)
                 (A) (A) (A) (A) (A) (A) (A) (A) (A)
     8 initial guesses have been made.
 Convergence on wavefunction:    0.000001000000000
 Iteration     1 Dimension     8 NMult     0 NNew      8
 CISAX will form     8 AO SS matrices at one time.
 New state      1 was old state      8
 Iteration     2 Dimension    12 NMult     8 NNew      4
 New state      1 was old state      2
 Iteration     3 Dimension    16 NMult    12 NNew      4
 Iteration     4 Dimension    20 NMult    16 NNew      4
 Iteration     5 Dimension    24 NMult    20 NNew      4
 Iteration     6 Dimension    28 NMult    24 NNew      4
 Iteration     7 Dimension    32 NMult    28 NNew      4
 Iteration     8 Dimension    36 NMult    32 NNew      4
 Iteration     9 Dimension    40 NMult    36 NNew      4
 Iteration    10 Dimension    44 NMult    40 NNew      4
 Iteration    11 Dimension    48 NMult    44 NNew      4
 Iteration    12 Dimension    52 NMult    48 NNew      4
 Iteration    13 Dimension    56 NMult    52 NNew      4
 ***********************************************************************
 Excited states from <AA,BB:AA,BB> singles matrix:
 ***********************************************************************
 
 Ground to excited state transition densities written to RWF  633
 Ground to excited state transition electric dipole moments (Au):
       state          X           Y           Z        Dip. S.      Osc.
         1        -2.2478     -0.2576      0.0170      5.1194      0.5218
 Ground to excited state transition velocity dipole moments (Au):
       state          X           Y           Z        Dip. S.      Osc.
         1         0.3425      0.0435     -0.0027      0.1192      0.5197
 Ground to excited state transition magnetic dipole moments (Au):
       state          X           Y           Z
         1        -0.0168      0.1291     -0.4386
 Ground to excited state transition velocity quadrupole moments (Au):
       state          XX          YY          ZZ          XY          XZ          YZ
         1         0.1227     -0.1446      0.0456     -0.0093     -0.0425      0.0052
 <0|del|b> * <b|rxdel|0> + <0|del|b> * <b|delr+rdel|0>
 Rotatory Strengths (R) in cgs (10**-40 erg-esu-cm/Gauss)
       state          XX          YY          ZZ    R(velocity)    E-M Angle
         1        20.0142     -6.5499     -8.7569      1.5692       89.63
 1/2[<0|r|b>*<b|rxdel|0> + (<0|rxdel|b>*<b|r|0>)*]
 Rotatory Strengths (R) in cgs (10**-40 erg-esu-cm/Gauss)
       state          XX          YY          ZZ     R(length)
         1       -26.7478     23.5211      5.2582      0.6772
  1/2[<0|del|b>*<b|r|0> + (<0|r|b>*<b|del|0>)*] (Au)
       state          X           Y           Z        Dip. S.   Osc.(frdel)
         1        -0.7698     -0.0112      0.0000      0.7811      0.5207

 Excitation energies and oscillator strengths:
 
 Excited State   1:      Singlet-A      4.1603 eV  298.02 nm  f=0.5218  <S**2>=0.000
      51 -> 52         0.66797
 This state for optimization and/or second-order correction.
 Total Energy, E(TD-HF/TD-KS) =  -631.999757199    
 Copying the excited state density for this state as the 1-particle RhoCI density.
 SavETr:  write IOETrn=   770 NScale= 10 NData=  16 NLR=1 NState=    1 LETran=      28.
          IDoAtm=111111111111111111111111111
          Differentiating once with respect to electric field.
                with respect to dipole field.
          Differentiating once with respect to nuclear coordinates.
          There are     1 degrees of freedom in the 1st order CPHF.  IDoFFX=0 NUNeed=     1.
 LinEq1:  Iter=  0 NonCon=     1 RMS=4.48D-03 Max=3.38D-01 NDo=     1
 AX will form     1 AO Fock derivatives at one time.
 LinEq1:  Iter=  1 NonCon=     1 RMS=1.71D-03 Max=8.79D-02 NDo=     1
 LinEq1:  Iter=  2 NonCon=     1 RMS=1.18D-03 Max=7.54D-02 NDo=     1
 LinEq1:  Iter=  3 NonCon=     1 RMS=4.04D-04 Max=1.47D-02 NDo=     1
 LinEq1:  Iter=  4 NonCon=     1 RMS=2.84D-04 Max=9.10D-03 NDo=     1
 LinEq1:  Iter=  5 NonCon=     1 RMS=1.34D-04 Max=4.39D-03 NDo=     1
 LinEq1:  Iter=  6 NonCon=     1 RMS=7.19D-05 Max=3.21D-03 NDo=     1
 LinEq1:  Iter=  7 NonCon=     1 RMS=2.85D-05 Max=1.05D-03 NDo=     1
 LinEq1:  Iter=  8 NonCon=     1 RMS=1.55D-05 Max=5.89D-04 NDo=     1
 LinEq1:  Iter=  9 NonCon=     1 RMS=7.00D-06 Max=1.51D-04 NDo=     1
 LinEq1:  Iter= 10 NonCon=     1 RMS=3.00D-06 Max=1.25D-04 NDo=     1
 LinEq1:  Iter= 11 NonCon=     1 RMS=1.31D-06 Max=3.61D-05 NDo=     1
 LinEq1:  Iter= 12 NonCon=     1 RMS=6.72D-07 Max=2.38D-05 NDo=     1
 LinEq1:  Iter= 13 NonCon=     1 RMS=2.90D-07 Max=1.19D-05 NDo=     1
 LinEq1:  Iter= 14 NonCon=     1 RMS=1.03D-07 Max=2.21D-06 NDo=     1
 LinEq1:  Iter= 15 NonCon=     1 RMS=5.09D-08 Max=1.79D-06 NDo=     1
 LinEq1:  Iter= 16 NonCon=     1 RMS=1.87D-08 Max=6.46D-07 NDo=     1
 LinEq1:  Iter= 17 NonCon=     1 RMS=8.26D-09 Max=2.53D-07 NDo=     1
 LinEq1:  Iter= 18 NonCon=     1 RMS=4.06D-09 Max=2.45D-07 NDo=     1
 LinEq1:  Iter= 19 NonCon=     1 RMS=1.47D-09 Max=4.85D-08 NDo=     1
 LinEq1:  Iter= 20 NonCon=     1 RMS=6.79D-10 Max=2.36D-08 NDo=     1
 LinEq1:  Iter= 21 NonCon=     1 RMS=2.17D-10 Max=6.79D-09 NDo=     1
 LinEq1:  Iter= 22 NonCon=     1 RMS=7.24D-11 Max=1.05D-09 NDo=     1
 LinEq1:  Iter= 23 NonCon=     0 RMS=3.41D-11 Max=9.08D-10 NDo=     1
 Linear equations converged to 1.000D-10 1.000D-09 after    23 iterations.
 End of Minotr F.D. properties file   721 does not exist.
 End of Minotr F.D. properties file   722 does not exist.
 End of Minotr F.D. properties file   788 does not exist.

 **********************************************************************

            Population analysis using the SCF density.

 **********************************************************************

 Orbital symmetries:
       Occupied  (A) (A) (A) (A) (A) (A) (A) (A) (A) (A) (A) (A)
                 (A) (A) (A) (A) (A) (A) (A) (A) (A) (A) (A) (A)
                 (A) (A) (A) (A) (A) (A) (A) (A) (A) (A) (A) (A)
                 (A) (A) (A) (A) (A) (A) (A) (A) (A) (A) (A) (A)
                 (A) (A) (A)
       Virtual   (A) (A) (A) (A) (A) (A) (A) (A) (A) (A) (A) (A)
                 (A) (A) (A) (A) (A) (A) (A) (A) (A) (A) (A) (A)
                 (A) (A) (A) (A) (A) (A) (A) (A) (A) (A) (A) (A)
                 (A) (A) (A) (A) (A) (A) (A) (A) (A) (A) (A) (A)
                 (A) (A) (A) (A) (A) (A) (A) (A) (A) (A) (A) (A)
                 (A) (A) (A) (A) (A) (A) (A) (A) (A) (A) (A) (A)
                 (A) (A) (A) (A) (A) (A) (A) (A) (A) (A) (A) (A)
                 (A) (A) (A) (A) (A) (A) (A) (A) (A) (A) (A) (A)
                 (A) (A) (A) (A) (A) (A) (A) (A) (A) (A) (A) (A)
                 (A) (A) (A) (A) (A) (A) (A) (A) (A) (A) (A) (A)
                 (A) (A) (A) (A) (A) (A) (A) (A) (A) (A) (A) (A)
                 (A) (A) (A) (A) (A) (A) (A) (A) (A) (A) (A) (A)
                 (A) (A) (A) (A) (A) (A) (A) (A) (A) (A) (A) (A)
                 (A) (A) (A) (A) (A) (A) (A) (A) (A) (A) (A) (A)
                 (A) (A) (A) (A) (A) (A) (A) (A) (A) (A) (A) (A)
                 (A) (A) (A) (A) (A) (A) (A) (A) (A) (A) (A) (A)
                 (A) (A) (A) (A) (A) (A) (A) (A) (A) (A) (A) (A)
                 (A) (A) (A) (A) (A) (A) (A) (A) (A) (A) (A) (A)
                 (A) (A) (A) (A) (A) (A) (A) (A) (A) (A) (A) (A)
                 (A) (A) (A) (A) (A) (A) (A) (A) (A) (A) (A) (A)
                 (A) (A) (A) (A) (A) (A) (A) (A) (A) (A) (A) (A)
                 (A) (A) (A) (A) (A) (A) (A) (A) (A) (A) (A) (A)
                 (A) (A) (A) (A) (A) (A) (A) (A) (A) (A) (A) (A)
                 (A) (A) (A) (A) (A) (A) (A) (A) (A) (A) (A) (A)
                 (A) (A) (A) (A) (A) (A) (A) (A) (A) (A) (A) (A)
                 (A) (A) (A) (A) (A) (A) (A) (A) (A) (A) (A) (A)
                 (A) (A) (A) (A) (A) (A) (A) (A) (A) (A) (A) (A)
                 (A) (A) (A) (A) (A) (A) (A) (A) (A) (A) (A) (A)
                 (A) (A) (A) (A) (A) (A) (A) (A) (A)
 The electronic state is 1-A.
 Alpha  occ. eigenvalues --  -19.25113 -19.22152 -14.48986 -10.37251 -10.35072
 Alpha  occ. eigenvalues --  -10.34493 -10.33910 -10.33642 -10.29459 -10.29214
 Alpha  occ. eigenvalues --  -10.29102 -10.27958 -10.27741 -10.27276  -1.16167
 Alpha  occ. eigenvalues --   -1.12610  -1.08747  -0.95676  -0.89352  -0.86237
 Alpha  occ. eigenvalues --   -0.85246  -0.83764  -0.80031  -0.73716  -0.70095
 Alpha  occ. eigenvalues --   -0.68820  -0.65136  -0.63087  -0.60380  -0.59082
 Alpha  occ. eigenvalues --   -0.58461  -0.58085  -0.55371  -0.53247  -0.51922
 Alpha  occ. eigenvalues --   -0.51702  -0.51468  -0.51344  -0.50371  -0.49498
 Alpha  occ. eigenvalues --   -0.47010  -0.46766  -0.46631  -0.45414  -0.42265
 Alpha  occ. eigenvalues --   -0.42213  -0.41613  -0.33716  -0.33501  -0.30046
 Alpha  occ. eigenvalues --   -0.28779
 Alpha virt. eigenvalues --    0.00355   0.02725   0.04161   0.04949   0.05726
 Alpha virt. eigenvalues --    0.05912   0.06107   0.06489   0.07648   0.08012
 Alpha virt. eigenvalues --    0.08142   0.08292   0.08518   0.09972   0.10494
 Alpha virt. eigenvalues --    0.11900   0.11983   0.12905   0.13105   0.13477
 Alpha virt. eigenvalues --    0.14162   0.14671   0.15048   0.15322   0.15983
 Alpha virt. eigenvalues --    0.16328   0.16392   0.16674   0.17026   0.17500
 Alpha virt. eigenvalues --    0.17752   0.17841   0.18411   0.18899   0.19235
 Alpha virt. eigenvalues --    0.19696   0.20114   0.20275   0.21150   0.21669
 Alpha virt. eigenvalues --    0.21875   0.22141   0.22189   0.23247   0.23416
 Alpha virt. eigenvalues --    0.24066   0.24196   0.24603   0.25423   0.25991
 Alpha virt. eigenvalues --    0.26315   0.26522   0.26766   0.27659   0.27930
 Alpha virt. eigenvalues --    0.28393   0.28774   0.29033   0.29893   0.30204
 Alpha virt. eigenvalues --    0.30941   0.31244   0.32200   0.32603   0.32974
 Alpha virt. eigenvalues --    0.33565   0.34110   0.34598   0.35333   0.35785
 Alpha virt. eigenvalues --    0.36213   0.36974   0.37209   0.37747   0.38456
 Alpha virt. eigenvalues --    0.38861   0.39345   0.39631   0.40262   0.40784
 Alpha virt. eigenvalues --    0.41130   0.41989   0.42975   0.43466   0.43786
 Alpha virt. eigenvalues --    0.44440   0.45833   0.46590   0.47587   0.48446
 Alpha virt. eigenvalues --    0.50111   0.51341   0.51383   0.52120   0.53093
 Alpha virt. eigenvalues --    0.55325   0.57430   0.58625   0.60422   0.61219
 Alpha virt. eigenvalues --    0.62157   0.62849   0.63170   0.63843   0.64380
 Alpha virt. eigenvalues --    0.65164   0.65954   0.66321   0.67111   0.67605
 Alpha virt. eigenvalues --    0.68994   0.69462   0.70257   0.70544   0.70843
 Alpha virt. eigenvalues --    0.71069   0.72069   0.72191   0.74022   0.74381
 Alpha virt. eigenvalues --    0.75683   0.76054   0.76582   0.77917   0.78879
 Alpha virt. eigenvalues --    0.80147   0.80412   0.80803   0.82731   0.83568
 Alpha virt. eigenvalues --    0.85934   0.87105   0.87676   0.88213   0.89525
 Alpha virt. eigenvalues --    0.91522   0.94261   0.94801   0.95054   0.95914
 Alpha virt. eigenvalues --    0.96388   0.97991   0.98421   0.99486   1.00551
 Alpha virt. eigenvalues --    1.01933   1.02677   1.04309   1.04886   1.05698
 Alpha virt. eigenvalues --    1.08498   1.08691   1.09891   1.11525   1.12007
 Alpha virt. eigenvalues --    1.14463   1.14700   1.15509   1.16557   1.18046
 Alpha virt. eigenvalues --    1.18340   1.18526   1.20025   1.21804   1.22251
 Alpha virt. eigenvalues --    1.22749   1.28334   1.32201   1.32993   1.33681
 Alpha virt. eigenvalues --    1.34774   1.36993   1.38396   1.40762   1.42729
 Alpha virt. eigenvalues --    1.45525   1.46890   1.50613   1.51573   1.52584
 Alpha virt. eigenvalues --    1.53749   1.55992   1.57790   1.58855   1.59578
 Alpha virt. eigenvalues --    1.61098   1.61918   1.62954   1.64406   1.65104
 Alpha virt. eigenvalues --    1.65611   1.66033   1.66510   1.68086   1.69974
 Alpha virt. eigenvalues --    1.71851   1.73171   1.73471   1.75509   1.75847
 Alpha virt. eigenvalues --    1.77040   1.77860   1.80763   1.81522   1.82173
 Alpha virt. eigenvalues --    1.82770   1.83413   1.84430   1.86108   1.87413
 Alpha virt. eigenvalues --    1.89663   1.91587   1.91749   1.96750   1.99040
 Alpha virt. eigenvalues --    1.99616   2.00815   2.02229   2.02595   2.03400
 Alpha virt. eigenvalues --    2.05070   2.05748   2.06475   2.07349   2.08266
 Alpha virt. eigenvalues --    2.10148   2.11763   2.12687   2.14568   2.15975
 Alpha virt. eigenvalues --    2.18102   2.19380   2.21954   2.24343   2.25268
 Alpha virt. eigenvalues --    2.26452   2.31322   2.32588   2.36046   2.38119
 Alpha virt. eigenvalues --    2.40388   2.43084   2.46152   2.46753   2.49225
 Alpha virt. eigenvalues --    2.50844   2.52321   2.54891   2.55746   2.57896
 Alpha virt. eigenvalues --    2.58306   2.59141   2.62199   2.62673   2.64184
 Alpha virt. eigenvalues --    2.67019   2.70226   2.71283   2.71890   2.74404
 Alpha virt. eigenvalues --    2.76311   2.77110   2.80274   2.80757   2.82029
 Alpha virt. eigenvalues --    2.83018   2.84152   2.84724   2.86240   2.86832
 Alpha virt. eigenvalues --    2.88196   2.89199   2.90662   2.91282   2.92554
 Alpha virt. eigenvalues --    2.95163   2.95463   2.96576   2.98752   2.99239
 Alpha virt. eigenvalues --    3.02904   3.04783   3.08558   3.10729   3.13689
 Alpha virt. eigenvalues --    3.17871   3.19537   3.22765   3.23799   3.25467
 Alpha virt. eigenvalues --    3.27249   3.30467   3.31813   3.31995   3.38103
 Alpha virt. eigenvalues --    3.43423   3.47360   3.51627   3.57457   3.61520
 Alpha virt. eigenvalues --    3.63822   3.65216   3.68696   3.70092   3.72652
 Alpha virt. eigenvalues --    3.75823   3.80391   3.82196   3.83489   3.85051
 Alpha virt. eigenvalues --    3.90021   3.93148   3.94858   4.04187   4.08975
 Alpha virt. eigenvalues --    4.12934   4.15190   4.18643   4.29837   4.30893
 Alpha virt. eigenvalues --    4.40419   4.64343   4.95309   4.98728   5.14493
 Alpha virt. eigenvalues --    5.18007   5.18994   5.43993   5.63050   5.90579
 Alpha virt. eigenvalues --    5.94911  23.73978  23.94997  24.03817  24.04819
 Alpha virt. eigenvalues --   24.06811  24.07572  24.09617  24.17395  24.25631
 Alpha virt. eigenvalues --   24.30455  24.34374  35.70559  50.14383  50.20284
          Condensed to atoms (all electrons):
               1          2          3          4          5          6
     1  C    5.237844   0.386298   0.415891  -0.070595   0.012658   0.246758
     2  H    0.386298   0.491455  -0.020137   0.005962  -0.006897  -0.049451
     3  H    0.415891  -0.020137   0.529564  -0.006757   0.000869  -0.055114
     4  C   -0.070595   0.005962  -0.006757   5.182303   0.394382   0.271149
     5  H    0.012658  -0.006897   0.000869   0.394382   0.561294  -0.049522
     6  N    0.246758  -0.049451  -0.055114   0.271149  -0.049522   6.856337
     7  H    0.418862  -0.021074  -0.053396   0.010433   0.001947  -0.035546
     8  H   -0.001592   0.003810  -0.000559   0.411730  -0.030119  -0.093050
     9  H   -0.013694  -0.003153   0.003162   0.411964  -0.064437  -0.050318
    10  C    0.192908   0.023518  -0.007861  -0.030646  -0.037763   0.166606
    11  H    0.004065  -0.001541  -0.002222  -0.039997   0.004499  -0.066983
    12  C    0.114755   0.023263  -0.000198  -0.067895   0.018648  -0.218238
    13  C   -0.290805  -0.017969   0.015278  -0.141113   0.005923  -0.001660
    14  H    0.029787   0.003254  -0.011544  -0.006842  -0.000226  -0.033507
    15  O   -0.001107   0.000101   0.000185   0.000702  -0.000123   0.004221
    16  C   -0.175498  -0.003027   0.000663   0.001594  -0.000767  -0.014341
    17  C   -0.019310   0.001010  -0.001566  -0.004776  -0.000340   0.003942
    18  C   -0.040040  -0.006392   0.003001  -0.014334   0.000537  -0.001395
    19  O   -0.000137  -0.000009   0.000052   0.000293   0.000008  -0.000160
    20  C    0.003862   0.000199  -0.000872  -0.000862   0.000020   0.000381
    21  C   -0.005392  -0.000413   0.001265   0.001233  -0.000017   0.000341
    22  H   -0.005058  -0.000582   0.000012  -0.002339   0.000039  -0.005566
    23  H   -0.001112  -0.000092   0.000067  -0.000005   0.000007   0.000048
    24  H    0.000046   0.000002  -0.000013   0.000012   0.000000  -0.000004
    25  C   -0.005233  -0.000193   0.000406  -0.000590  -0.000007   0.000191
    26  H   -0.000060  -0.000004  -0.000016   0.000088   0.000000   0.000139
    27  H   -0.000102  -0.000004   0.000016  -0.000002   0.000000  -0.000011
               7          8          9         10         11         12
     1  C    0.418862  -0.001592  -0.013694   0.192908   0.004065   0.114755
     2  H   -0.021074   0.003810  -0.003153   0.023518  -0.001541   0.023263
     3  H   -0.053396  -0.000559   0.003162  -0.007861  -0.002222  -0.000198
     4  C    0.010433   0.411730   0.411964  -0.030646  -0.039997  -0.067895
     5  H    0.001947  -0.030119  -0.064437  -0.037763   0.004499   0.018648
     6  N   -0.035546  -0.093050  -0.050318   0.166606  -0.066983  -0.218238
     7  H    0.534779  -0.003084  -0.001472   0.036737   0.002907  -0.044586
     8  H   -0.003084   0.534425  -0.021276   0.058550  -0.007908   0.003832
     9  H   -0.001472  -0.021276   0.561540  -0.002668   0.000433   0.005268
    10  C    0.036737   0.058550  -0.002668  12.808142   0.248943   3.286230
    11  H    0.002907  -0.007908   0.000433   0.248943   0.469593   0.056944
    12  C   -0.044586   0.003832   0.005268   3.286230   0.056944  12.202794
    13  C   -0.031615   0.000858   0.000281  -4.686823   0.161822   1.122200
    14  H    0.013313  -0.003372   0.000890   0.075973   0.000719   0.637642
    15  O    0.000654   0.000186   0.000073   0.034403   0.009466  -0.217397
    16  C   -0.004073   0.005067   0.000952  -2.817520  -0.052295  -4.245775
    17  C   -0.001393   0.003417  -0.000238  -1.521655  -0.063030  -3.195533
    18  C   -0.004048  -0.003432   0.000361  -1.921795   0.046686  -1.778315
    19  O    0.000037  -0.000102   0.000002   0.007212   0.000150  -0.039378
    20  C   -0.000898   0.000118  -0.000007  -0.247395  -0.003411  -0.123457
    21  C    0.002367  -0.000273   0.000011   0.114436   0.002271  -0.361069
    22  H   -0.005343   0.000572  -0.000101  -0.181757   0.002028  -0.138309
    23  H   -0.000022   0.000029   0.000034  -0.014714   0.000706   0.003161
    24  H   -0.000015   0.000004   0.000000   0.001045  -0.000247   0.006283
    25  C    0.000370  -0.000008   0.000002  -0.221445  -0.000361  -0.675881
    26  H    0.000107  -0.000005   0.000003   0.008259  -0.000203   0.011792
    27  H    0.000012   0.000000   0.000000  -0.002260   0.000039  -0.011446
              13         14         15         16         17         18
     1  C   -0.290805   0.029787  -0.001107  -0.175498  -0.019310  -0.040040
     2  H   -0.017969   0.003254   0.000101  -0.003027   0.001010  -0.006392
     3  H    0.015278  -0.011544   0.000185   0.000663  -0.001566   0.003001
     4  C   -0.141113  -0.006842   0.000702   0.001594  -0.004776  -0.014334
     5  H    0.005923  -0.000226  -0.000123  -0.000767  -0.000340   0.000537
     6  N   -0.001660  -0.033507   0.004221  -0.014341   0.003942  -0.001395
     7  H   -0.031615   0.013313   0.000654  -0.004073  -0.001393  -0.004048
     8  H    0.000858  -0.003372   0.000186   0.005067   0.003417  -0.003432
     9  H    0.000281   0.000890   0.000073   0.000952  -0.000238   0.000361
    10  C   -4.686823   0.075973   0.034403  -2.817520  -1.521655  -1.921795
    11  H    0.161822   0.000719   0.009466  -0.052295  -0.063030   0.046686
    12  C    1.122200   0.637642  -0.217397  -4.245775  -3.195533  -1.778315
    13  C   14.163592  -0.085892   0.908124   1.256724  -4.120784   0.573150
    14  H   -0.085892   0.653241  -0.011977  -0.191582  -0.015042  -0.089127
    15  O    0.908124  -0.011977   8.142609  -0.166109  -0.106087  -0.249045
    16  C    1.256724  -0.191582  -0.166109  16.896889   1.279608  -3.168040
    17  C   -4.120784  -0.015042  -0.106087   1.279608  16.434084  -3.917423
    18  C    0.573150  -0.089127  -0.249045  -3.168040  -3.917423  14.737874
    19  O   -0.051556  -0.000881  -0.001590   0.098540   0.358978  -0.022398
    20  C   -0.906847   0.018749  -0.060536  -2.556872   0.242586   1.402737
    21  C   -0.315141  -0.082178   0.004838  -1.525705   0.343555   0.949512
    22  H    0.036295  -0.016802  -0.001661  -0.065794   0.026895   0.724334
    23  H    0.028906  -0.001210   0.072373  -0.150077   0.016758   0.033680
    24  H    0.002406   0.000968   0.001300  -0.082086  -0.082535   0.003186
    25  C   -0.949778  -0.022879  -0.031356  -0.414231  -0.138809   0.632481
    26  H    0.001137   0.003360   0.000741   0.038901   0.028064  -0.076866
    27  H   -0.005881  -0.001536  -0.000433   0.080175   0.032726  -0.045990
              19         20         21         22         23         24
     1  C   -0.000137   0.003862  -0.005392  -0.005058  -0.001112   0.000046
     2  H   -0.000009   0.000199  -0.000413  -0.000582  -0.000092   0.000002
     3  H    0.000052  -0.000872   0.001265   0.000012   0.000067  -0.000013
     4  C    0.000293  -0.000862   0.001233  -0.002339  -0.000005   0.000012
     5  H    0.000008   0.000020  -0.000017   0.000039   0.000007   0.000000
     6  N   -0.000160   0.000381   0.000341  -0.005566   0.000048  -0.000004
     7  H    0.000037  -0.000898   0.002367  -0.005343  -0.000022  -0.000015
     8  H   -0.000102   0.000118  -0.000273   0.000572   0.000029   0.000004
     9  H    0.000002  -0.000007   0.000011  -0.000101   0.000034   0.000000
    10  C    0.007212  -0.247395   0.114436  -0.181757  -0.014714   0.001045
    11  H    0.000150  -0.003411   0.002271   0.002028   0.000706  -0.000247
    12  C   -0.039378  -0.123457  -0.361069  -0.138309   0.003161   0.006283
    13  C   -0.051556  -0.906847  -0.315141   0.036295   0.028906   0.002406
    14  H   -0.000881   0.018749  -0.082178  -0.016802  -0.001210   0.000968
    15  O   -0.001590  -0.060536   0.004838  -0.001661   0.072373   0.001300
    16  C    0.098540  -2.556872  -1.525705  -0.065794  -0.150077  -0.082086
    17  C    0.358978   0.242586   0.343555   0.026895   0.016758  -0.082535
    18  C   -0.022398   1.402737   0.949512   0.724334   0.033680   0.003186
    19  O    8.091364  -0.397930   0.006585  -0.003103   0.258760  -0.025996
    20  C   -0.397930   8.299189  -0.249862   0.042776   0.072241   0.536395
    21  C    0.006585  -0.249862   7.048799  -0.077379   0.011322  -0.000025
    22  H   -0.003103   0.042776  -0.077379   0.586865   0.001913  -0.001025
    23  H    0.258760   0.072241   0.011322   0.001913   0.304014   0.002006
    24  H   -0.025996   0.536395  -0.000025  -0.001025   0.002006   0.465727
    25  C    0.015586   0.494064   0.403824   0.052945  -0.003652  -0.046905
    26  H    0.000327   0.018427   0.364674  -0.021476   0.000279   0.001731
    27  H    0.000612  -0.097713  -0.042524   0.002512  -0.000458  -0.012334
              25         26         27
     1  C   -0.005233  -0.000060  -0.000102
     2  H   -0.000193  -0.000004  -0.000004
     3  H    0.000406  -0.000016   0.000016
     4  C   -0.000590   0.000088  -0.000002
     5  H   -0.000007   0.000000   0.000000
     6  N    0.000191   0.000139  -0.000011
     7  H    0.000370   0.000107   0.000012
     8  H   -0.000008  -0.000005   0.000000
     9  H    0.000002   0.000003   0.000000
    10  C   -0.221445   0.008259  -0.002260
    11  H   -0.000361  -0.000203   0.000039
    12  C   -0.675881   0.011792  -0.011446
    13  C   -0.949778   0.001137  -0.005881
    14  H   -0.022879   0.003360  -0.001536
    15  O   -0.031356   0.000741  -0.000433
    16  C   -0.414231   0.038901   0.080175
    17  C   -0.138809   0.028064   0.032726
    18  C    0.632481  -0.076866  -0.045990
    19  O    0.015586   0.000327   0.000612
    20  C    0.494064   0.018427  -0.097713
    21  C    0.403824   0.364674  -0.042524
    22  H    0.052945  -0.021476   0.002512
    23  H   -0.003652   0.000279  -0.000458
    24  H   -0.046905   0.001731  -0.012334
    25  C    6.945680  -0.076988   0.430311
    26  H   -0.076988   0.485536  -0.010575
    27  H    0.430311  -0.010575   0.483249
 Mulliken charges:
               1
     1  C   -0.433996
     2  H    0.192068
     3  H    0.189822
     4  C   -0.305092
     5  H    0.189388
     6  N    0.124754
     7  H    0.184037
     8  H    0.142183
     9  H    0.172387
    10  C    0.631340
    11  H    0.226927
    12  C   -0.375333
    13  C   -0.670830
    14  H    0.136703
    15  O   -0.332556
    16  C    1.974679
    17  C    0.416897
    18  C   -1.768898
    19  O   -0.295267
    20  C   -0.485083
    21  C   -0.595054
    22  H    0.049109
    23  H    0.365039
    24  H    0.230073
    25  C   -0.387542
    26  H    0.222630
    27  H    0.201618
 Sum of Mulliken charges =   0.00000
 Mulliken charges with hydrogens summed into heavy atoms:
               1
     1  C    0.131931
     4  C    0.198866
     6  N    0.124754
    10  C    0.858267
    12  C   -0.238631
    13  C   -0.670830
    15  O   -0.332556
    16  C    1.974679
    17  C    0.416897
    18  C   -1.719789
    19  O    0.069772
    20  C   -0.255011
    21  C   -0.372424
    25  C   -0.185924
 Electronic spatial extent (au):  <R**2>=           3944.8224
 Charge=              0.0000 electrons
 Dipole moment (field-independent basis, Debye):
    X=              5.7491    Y=              3.6062    Z=             -0.1541  Tot=              6.7882
 Quadrupole moment (field-independent basis, Debye-Ang):
   XX=            -58.3414   YY=            -83.6066   ZZ=            -87.6827
   XY=             -3.6827   XZ=             -0.3830   YZ=              0.2440
 Traceless Quadrupole moment (field-independent basis, Debye-Ang):
   XX=             18.2022   YY=             -7.0630   ZZ=            -11.1391
   XY=             -3.6827   XZ=             -0.3830   YZ=              0.2440
 Octapole moment (field-independent basis, Debye-Ang**2):
  XXX=             95.5798  YYY=             11.4367  ZZZ=             -0.3074  XYY=             21.0322
  XXY=             14.9335  XXZ=             -2.0614  XZZ=             12.0084  YZZ=             -7.6598
  YYZ=              0.2163  XYZ=              0.9404
 Hexadecapole moment (field-independent basis, Debye-Ang**3):
 XXXX=          -3617.1050 YYYY=           -875.4741 ZZZZ=           -110.7849 XXXY=            -39.3389
 XXXZ=              2.5445 YYYX=            -20.3360 YYYZ=              0.2656 ZZZX=             -3.6253
 ZZZY=             -0.0595 XXYY=           -831.0424 XXZZ=           -777.0274 YYZZ=           -175.4789
 XXYZ=              2.6761 YYXZ=              1.6276 ZZXY=             18.3211
 N-N= 8.379716587500D+02 E-N=-3.149816168599D+03  KE= 6.296452113566D+02
 Calling FoFJK, ICntrl=  10005127 FMM=F ISym2X=0 I1Cent= 0 IOpClX= 0 NMat=1 NMatS=1 NMatT=0.
 ***** Axes restored to original set *****
 -------------------------------------------------------------------
 Center     Atomic                   Forces (Hartrees/Bohr)
 Number     Number              X              Y              Z
 -------------------------------------------------------------------
      1        6           0.002546108   -0.001104164   -0.002419345
      2        1           0.000038132    0.000153417    0.000058772
      3        1          -0.000867420    0.000737828    0.000087946
      4        6          -0.002568778   -0.001425323    0.000882650
      5        1          -0.000028365    0.000987140   -0.000250833
      6        7           0.008116351    0.006977908    0.007537811
      7        1          -0.000457823   -0.000394813    0.000527847
      8        1          -0.000280013   -0.000086288    0.000077406
      9        1           0.000269163    0.000223531    0.000495850
     10        6           0.007106355   -0.002622298   -0.013073485
     11        1          -0.000882160   -0.000516045    0.000240864
     12        6          -0.011180842   -0.002466456    0.004452666
     13        6          -0.031162676    0.005873733    0.033250599
     14        1           0.000547699   -0.000167071    0.001339309
     15        8           0.010314950   -0.015587850   -0.039010643
     16        6           0.044190660    0.022496174    0.004785317
     17        6          -0.021458615   -0.018513744   -0.016647534
     18        6           0.007148293    0.003310828    0.003765052
     19        8          -0.008750856    0.003887944    0.016205280
     20        6          -0.000659734   -0.002927548   -0.009170585
     21        6          -0.002652602   -0.001650990   -0.000630049
     22        1          -0.000210238   -0.000308678   -0.000931767
     23        1           0.015916130    0.006221064    0.000192953
     24        1           0.000213244   -0.000121530    0.000036997
     25        6          -0.015433625   -0.003380047    0.008257699
     26        1          -0.000483139    0.000372421    0.000067758
     27        1           0.000669801    0.000030858   -0.000128534
 -------------------------------------------------------------------
 Cartesian Forces:  Max     0.044190660 RMS     0.010698125

 GradGradGradGradGradGradGradGradGradGradGradGradGradGradGradGradGradGrad
 Berny optimization.
 FormGI is forming the generalized inverse of G from B-inverse, IUseBI=4.
 GSVD:  received Info=                   1 from GESDD.
 Internal  Forces:  Max     0.043240567 RMS     0.006821306
 Search for a local minimum.
 Step number   1 out of a maximum of  134
 All quantities printed in internal units (Hartrees-Bohrs-Radians)
 Mixed Optimization -- RFO/linear search
 Second derivative matrix not updated -- first step.
 ITU=  0
     Eigenvalues ---    0.00947   0.01033   0.01057   0.01187   0.01420
     Eigenvalues ---    0.01445   0.01654   0.01965   0.02017   0.02086
     Eigenvalues ---    0.02167   0.02169   0.02211   0.02238   0.02255
     Eigenvalues ---    0.02295   0.02448   0.02529   0.02572   0.02608
     Eigenvalues ---    0.07401   0.07416   0.07589   0.07635   0.15999
     Eigenvalues ---    0.16000   0.16000   0.16000   0.16000   0.16000
     Eigenvalues ---    0.16000   0.16000   0.16000   0.16000   0.16000
     Eigenvalues ---    0.16000   0.16000   0.22000   0.22000   0.22000
     Eigenvalues ---    0.22480   0.24471   0.24709   0.24813   0.25000
     Eigenvalues ---    0.25000   0.25000   0.25000   0.33854   0.34060
     Eigenvalues ---    0.34124   0.34348   0.34392   0.34839   0.34840
     Eigenvalues ---    0.35249   0.35436   0.35580   0.35607   0.35695
     Eigenvalues ---    0.36128   0.38168   0.38269   0.38508   0.40888
     Eigenvalues ---    0.42128   0.44525   0.45626   0.47847   0.48789
     Eigenvalues ---    0.50064   0.52796   0.56581   0.58702   0.85398
 RFO step:  Lambda=-1.41276626D-02 EMin= 9.46674514D-03
 Linear search not attempted -- first point.
 Iteration  1 RMS(Cart)=  0.09596118 RMS(Int)=  0.00288536
 Iteration  2 RMS(Cart)=  0.00582412 RMS(Int)=  0.00007360
 Iteration  3 RMS(Cart)=  0.00002727 RMS(Int)=  0.00007232
 Iteration  4 RMS(Cart)=  0.00000000 RMS(Int)=  0.00007232
 Variable       Old X    -DE/DX   Delta X   Delta X   Delta X     New X
                                 (Linear)    (Quad)   (Total)
    R1        2.05937   0.00011   0.00000   0.00031   0.00031   2.05968
    R2        2.07229   0.00113   0.00000   0.00320   0.00320   2.07549
    R3        2.73633  -0.00193   0.00000  -0.00483  -0.00483   2.73149
    R4        2.06747   0.00074   0.00000   0.00207   0.00207   2.06954
    R5        2.07121   0.00102   0.00000   0.00287   0.00287   2.07408
    R6        2.73975  -0.00282   0.00000  -0.00711  -0.00711   2.73264
    R7        2.05935  -0.00002   0.00000  -0.00006  -0.00006   2.05929
    R8        2.06674   0.00042   0.00000   0.00118   0.00118   2.06792
    R9        2.53754   0.01103   0.00000   0.01902   0.01902   2.55656
   R10        2.05273  -0.00017   0.00000  -0.00046  -0.00046   2.05227
   R11        2.57144   0.01451   0.00000   0.02677   0.02677   2.59822
   R12        2.74121   0.00172   0.00000   0.00434   0.00434   2.74556
   R13        2.03881   0.00105   0.00000   0.00279   0.00279   2.04160
   R14        2.35129   0.04324   0.00000   0.04981   0.04981   2.40110
   R15        2.80877  -0.01612   0.00000  -0.04572  -0.04572   2.76305
   R16        2.67521   0.01703   0.00000   0.03806   0.03808   2.71330
   R17        2.65273   0.00326   0.00000   0.00701   0.00705   2.65978
   R18        2.51982  -0.01715   0.00000  -0.02853  -0.02853   2.49129
   R19        2.64716   0.00233   0.00000   0.00482   0.00480   2.65196
   R20        2.60837   0.01512   0.00000   0.03011   0.03013   2.63850
   R21        2.04561  -0.00081   0.00000  -0.00219  -0.00219   2.04343
   R22        1.86500   0.01658   0.00000   0.03221   0.03221   1.89721
   R23        2.04743  -0.00009   0.00000  -0.00023  -0.00023   2.04720
   R24        2.60570   0.00865   0.00000   0.01707   0.01702   2.62273
   R25        2.64025   0.01093   0.00000   0.02318   0.02315   2.66340
   R26        2.04701   0.00030   0.00000   0.00081   0.00081   2.04782
   R27        2.04973  -0.00066   0.00000  -0.00178  -0.00178   2.04794
    A1        1.89778  -0.00006   0.00000  -0.00037  -0.00037   1.89741
    A2        1.90734   0.00016   0.00000   0.00132   0.00132   1.90866
    A3        1.89247   0.00005   0.00000   0.00106   0.00106   1.89353
    A4        1.94383  -0.00005   0.00000  -0.00069  -0.00069   1.94314
    A5        1.89422  -0.00021   0.00000  -0.00199  -0.00199   1.89223
    A6        1.92725   0.00012   0.00000   0.00069   0.00068   1.92793
    A7        1.94331   0.00002   0.00000  -0.00020  -0.00020   1.94311
    A8        1.89324   0.00014   0.00000   0.00063   0.00063   1.89388
    A9        1.89507  -0.00003   0.00000  -0.00061  -0.00061   1.89446
   A10        1.91301  -0.00034   0.00000  -0.00172  -0.00172   1.91129
   A11        1.92685  -0.00016   0.00000  -0.00083  -0.00083   1.92602
   A12        1.89127   0.00039   0.00000   0.00285   0.00285   1.89412
   A13        2.05809  -0.00065   0.00000  -0.00261  -0.00261   2.05547
   A14        2.09865   0.00202   0.00000   0.00757   0.00756   2.10621
   A15        2.11639  -0.00139   0.00000  -0.00551  -0.00551   2.11088
   A16        2.01826   0.00230   0.00000   0.01136   0.01136   2.02962
   A17        2.21640  -0.00251   0.00000  -0.01070  -0.01070   2.20570
   A18        2.04850   0.00021   0.00000  -0.00064  -0.00064   2.04786
   A19        2.06361   0.00237   0.00000   0.01015   0.01012   2.07374
   A20        2.11463  -0.00166   0.00000  -0.00777  -0.00779   2.10684
   A21        2.10489  -0.00070   0.00000  -0.00226  -0.00228   2.10261
   A22        2.10544  -0.00088   0.00000  -0.00330  -0.00349   2.10195
   A23        2.09967   0.00017   0.00000   0.00070   0.00051   2.10017
   A24        2.07807   0.00072   0.00000   0.00275   0.00256   2.08063
   A25        2.08125  -0.01631   0.00000  -0.06173  -0.06177   2.01949
   A26        2.14390   0.02300   0.00000   0.08710   0.08706   2.23096
   A27        2.05803  -0.00670   0.00000  -0.02537  -0.02530   2.03273
   A28        2.14230  -0.02378   0.00000  -0.08990  -0.08989   2.05241
   A29        2.09225   0.01156   0.00000   0.04352   0.04351   2.13576
   A30        2.04863   0.01222   0.00000   0.04638   0.04638   2.09501
   A31        2.12919  -0.00423   0.00000  -0.01741  -0.01738   2.11182
   A32        2.08898   0.00154   0.00000   0.00541   0.00535   2.09433
   A33        2.06501   0.00269   0.00000   0.01200   0.01194   2.07695
   A34        1.85525  -0.00755   0.00000  -0.04336  -0.04336   1.81190
   A35        2.05702   0.00194   0.00000   0.00804   0.00806   2.06508
   A36        2.10303  -0.00414   0.00000  -0.01756  -0.01766   2.08537
   A37        2.12314   0.00220   0.00000   0.00951   0.00953   2.13267
   A38        2.08060   0.00867   0.00000   0.03807   0.03804   2.11864
   A39        2.09982  -0.00407   0.00000  -0.01750  -0.01750   2.08232
   A40        2.10276  -0.00460   0.00000  -0.02056  -0.02056   2.08221
   A41        2.10326  -0.00516   0.00000  -0.02128  -0.02137   2.08189
   A42        2.08676   0.00264   0.00000   0.01097   0.01102   2.09778
   A43        2.09317   0.00252   0.00000   0.01031   0.01035   2.10352
    D1       -0.23536  -0.00008   0.00000  -0.00283  -0.00284  -0.23820
    D2        3.05628   0.00017   0.00000   0.00174   0.00175   3.05803
    D3        1.86173  -0.00009   0.00000  -0.00287  -0.00288   1.85885
    D4       -1.12983   0.00016   0.00000   0.00171   0.00171  -1.12811
    D5       -2.31559  -0.00031   0.00000  -0.00538  -0.00538  -2.32097
    D6        0.97604  -0.00006   0.00000  -0.00080  -0.00079   0.97525
    D7       -1.11509  -0.00012   0.00000  -0.00291  -0.00292  -1.11801
    D8        1.87486  -0.00006   0.00000  -0.00635  -0.00634   1.86852
    D9        3.07328  -0.00008   0.00000  -0.00244  -0.00246   3.07083
   D10       -0.21996  -0.00002   0.00000  -0.00588  -0.00587  -0.22583
   D11        0.99124  -0.00025   0.00000  -0.00437  -0.00438   0.98686
   D12       -2.30200  -0.00019   0.00000  -0.00781  -0.00780  -2.30980
   D13        3.11800   0.00018   0.00000   0.00485   0.00484   3.12283
   D14       -0.03175   0.00030   0.00000   0.00782   0.00782  -0.02393
   D15        0.13154   0.00036   0.00000   0.00927   0.00927   0.14081
   D16       -3.01821   0.00048   0.00000   0.01224   0.01225  -3.00596
   D17       -3.12117   0.00020   0.00000   0.00590   0.00589  -3.11528
   D18        0.03168  -0.00024   0.00000  -0.00673  -0.00672   0.02496
   D19        0.01214   0.00033   0.00000   0.00896   0.00895   0.02109
   D20       -3.11819  -0.00011   0.00000  -0.00367  -0.00366  -3.12185
   D21        0.01311   0.00067   0.00000   0.02649   0.02644   0.03955
   D22       -3.12377  -0.00029   0.00000  -0.01024  -0.01022  -3.13399
   D23       -3.13968   0.00110   0.00000   0.03901   0.03898  -3.10069
   D24        0.00663   0.00014   0.00000   0.00228   0.00232   0.00895
   D25        3.12933   0.00072   0.00000   0.02937   0.02932  -3.12454
   D26       -0.01324   0.00087   0.00000   0.03449   0.03460   0.02136
   D27       -0.00762  -0.00022   0.00000  -0.00677  -0.00688  -0.01450
   D28        3.13299  -0.00007   0.00000  -0.00165  -0.00160   3.13139
   D29        0.00038   0.00090   0.00000   0.02670   0.02650   0.02687
   D30       -3.14086   0.00081   0.00000   0.02379   0.02377  -3.11709
   D31       -3.14029   0.00075   0.00000   0.02177   0.02177  -3.11852
   D32        0.00166   0.00065   0.00000   0.01887   0.01905   0.02071
   D33        3.14143  -0.00063   0.00000  -0.01941  -0.01941   3.12202
   D34       -0.00066  -0.00012   0.00000  -0.00469  -0.00473  -0.00539
   D35       -0.00113  -0.00049   0.00000  -0.01437  -0.01411  -0.01524
   D36        3.13997   0.00002   0.00000   0.00034   0.00056   3.14053
   D37        0.00352   0.00077   0.00000   0.01906   0.01915   0.02268
   D38       -3.13842   0.00086   0.00000   0.02190   0.02181  -3.11660
   D39        3.14113  -0.00006   0.00000  -0.00203  -0.00215   3.13898
   D40       -0.00121  -0.00048   0.00000  -0.01390  -0.01400  -0.01521
   D41       -0.00012  -0.00014   0.00000  -0.00476  -0.00492  -0.00504
   D42        3.14072  -0.00056   0.00000  -0.01663  -0.01676   3.12395
   D43        0.00011   0.00017   0.00000   0.00451   0.00468   0.00479
   D44        3.14132   0.00041   0.00000   0.01144   0.01149  -3.13037
   D45       -3.14099  -0.00034   0.00000  -0.01000  -0.00985   3.13235
   D46        0.00022  -0.00010   0.00000  -0.00308  -0.00304  -0.00281
   D47        0.00017   0.00013   0.00000   0.00368   0.00348   0.00365
   D48        3.14158   0.00021   0.00000   0.00603   0.00595  -3.13565
   D49        3.14098  -0.00031   0.00000  -0.00865  -0.00885   3.13214
   D50       -0.00079  -0.00023   0.00000  -0.00630  -0.00638  -0.00717
   D51        0.00038   0.00003   0.00000   0.00111   0.00109   0.00147
   D52       -3.14103  -0.00005   0.00000  -0.00125  -0.00139   3.14077
   D53       -3.14083  -0.00021   0.00000  -0.00583  -0.00573   3.13663
   D54        0.00095  -0.00029   0.00000  -0.00819  -0.00820  -0.00726
         Item               Value     Threshold  Converged?
 Maximum Force            0.043241     0.000450     NO 
 RMS     Force            0.006821     0.000300     NO 
 Maximum Displacement     0.448752     0.001800     NO 
 RMS     Displacement     0.099214     0.001200     NO 
 Predicted change in Energy=-7.424150D-03
 GradGradGradGradGradGradGradGradGradGradGradGradGradGradGradGradGradGrad

                          Input orientation:                          
 ---------------------------------------------------------------------
 Center     Atomic      Atomic             Coordinates (Angstroms)
 Number     Number       Type             X           Y           Z
 ---------------------------------------------------------------------
      1          6           0        0.059425    0.232008    8.575651
      2          1           0        1.020933    0.675673    8.833777
      3          1           0       -0.714170    1.009523    8.632968
      4          6           0        1.266377    0.024151    6.424335
      5          1           0        1.264296    1.096849    6.192065
      6          7           0        0.135208   -0.337624    7.249346
      7          1           0       -0.174288   -0.543595    9.312661
      8          1           0        1.227017   -0.532583    5.488382
      9          1           0        2.203150   -0.219617    6.934744
     10          6           0       -0.905272   -1.033959    6.736724
     11          1           0       -0.778551   -1.414949    5.727656
     12          6           0       -2.094856   -1.306848    7.369828
     13          6           0       -3.092286   -2.101668    6.673933
     14          1           0       -2.286083   -0.938881    8.367442
     15          8           0       -2.849416   -2.571350    5.518572
     16          6           0       -4.372563   -2.403678    7.312329
     17          6           0       -5.275463   -3.214237    6.544649
     18          6           0       -4.822980   -1.992005    8.580671
     19          8           0       -4.865607   -3.634542    5.364237
     20          6           0       -6.552229   -3.564040    7.010397
     21          6           0       -6.091570   -2.347057    9.043373
     22          1           0       -4.188528   -1.380499    9.207421
     23          1           0       -3.932770   -3.270716    5.290860
     24          1           0       -7.180800   -4.176830    6.375580
     25          6           0       -6.963962   -3.132871    8.263713
     26          1           0       -6.414522   -2.006354   10.020073
     27          1           0       -7.945408   -3.400902    8.637056
 ---------------------------------------------------------------------
                    Distance matrix (angstroms):
                    1          2          3          4          5
     1  C    0.000000
     2  H    1.089938   0.000000
     3  H    1.098301   1.778303   0.000000
     4  C    2.475500   2.508015   3.125954   0.000000
     5  H    2.807338   2.686123   3.143241   1.097558   0.000000
     6  N    1.445444   2.078870   2.109658   1.446052   2.109596
     7  H    1.095155   1.773272   1.779222   3.277236   3.807715
     8  H    3.388082   3.562867   4.004338   1.089729   1.775277
     9  H    2.737170   2.409463   3.592424   1.094296   1.779353
    10  C    2.432070   3.321255   2.794294   2.435825   3.089340
    11  H    3.394959   4.154134   3.784580   2.595785   3.270784
    12  C    2.909125   3.972615   2.977816   3.736763   4.295205
    13  C    4.358424   5.412682   4.378672   4.855857   5.426096
    14  H    2.629779   3.709529   2.517478   4.162099   4.634831
    15  O    5.066152   6.042627   5.203978   4.949422   5.552649
    16  C    5.308987   6.394294   5.174734   6.203268   6.729254
    17  C    6.668028   7.747006   6.557943   7.300500   7.840806
    18  C    5.365085   6.428988   5.088637   6.767195   7.231970
    19  O    7.036997   8.078800   7.034655   7.218799   7.787623
    20  C    7.782928   8.868633   7.591650   8.622597   9.137375
    21  C    6.686185   7.731010   6.352282   8.162191   8.608090
    22  H    4.587419   5.613014   4.255980   6.282881   6.705439
    23  H    6.244722   7.257094   6.312648   6.258757   6.848160
    24  H    8.757797   9.841642   8.591353   9.434267   9.958163
    25  C    7.794080   8.865017   7.507042   9.004920   9.480849
    26  H    7.000615   7.992906   6.596483   8.720578   9.124021
    27  H    8.790856   9.851519   8.470104  10.073932  10.536906
                    6          7          8          9         10
     6  N    0.000000
     7  H    2.096539   0.000000
     8  H    2.081117   4.072945   0.000000
     9  H    2.095062   3.378115   1.772779   0.000000
    10  C    1.352872   2.722176   2.521189   3.219418   0.000000
    11  H    2.076325   3.738536   2.204115   3.431679   1.086016
    12  C    2.434563   2.836501   3.895403   4.454686   1.374917
    13  C    3.722858   4.231453   4.745939   5.625992   2.434538
    14  H    2.733916   2.347205   4.560256   4.766884   2.138906
    15  O    4.110121   5.065887   4.557937   5.750184   2.761732
    16  C    4.959088   5.008668   6.179245   6.939215   3.772209
    17  C    6.168214   6.388756   7.112609   8.065332   4.887645
    18  C    5.393796   4.923824   6.949433   7.430810   4.434684
    19  O    6.279447   6.866766   6.837955   8.005969   4.932647
    20  C    7.428908   7.423048   8.486632   9.372703   6.193895
    21  C    6.784476   6.191867   8.336185   8.818996   5.826022
    22  H    4.859665   4.101903   6.624073   6.882315   4.123615
    23  H    5.383971   6.143148   5.844638   7.047062   4.032289
    24  H    8.308245   8.421286   9.206467  10.199545   7.027824
    25  C    7.696789   7.341957   9.030841   9.710261   6.591271
    26  H    7.304831   6.448304   9.005628   9.326090   6.486738
    27  H    8.752472   8.307284  10.113099  10.770872   7.666628
                   11         12         13         14         15
    11  H    0.000000
    12  C    2.107385   0.000000
    13  C    2.592372   1.452886   0.000000
    14  H    3.076973   1.080371   2.206810   0.000000
    15  O    2.381063   2.365476   1.270608   3.331420   0.000000
    16  C    4.050394   2.528694   1.462145   2.759038   2.359164
    17  C    4.911938   3.799384   2.453729   4.175669   2.711428
    18  C    4.982980   3.062392   2.577397   2.755065   3.688772
    19  O    4.665050   4.137344   2.685083   4.789548   2.284562
    20  C    6.292803   5.009220   3.771332   5.189704   4.113611
    21  C    6.331743   4.456065   3.830165   4.113584   4.794381
    22  H    4.872155   2.786689   2.853138   2.126003   4.101092
    23  H    3.685615   3.399532   1.996491   4.196950   1.309436
    24  H    7.002612   5.923863   4.594698   6.197586   4.698181
    25  C    6.902329   5.276513   4.310528   5.167872   4.978011
    26  H    7.109062   5.115919   4.716248   4.573259   5.769983
    27  H    7.985765   6.341915   5.393946   6.177556   6.031768
                   16         17         18         19         20
    16  C    0.000000
    17  C    1.435816   0.000000
    18  C    1.407494   2.417431   0.000000
    19  O    2.356519   1.318336   3.611812   0.000000
    20  C    2.487679   1.403359   2.815556   2.357861   0.000000
    21  C    2.440226   2.767969   1.396236   4.086152   2.413761
    22  H    2.161513   3.410921   1.081335   4.506574   3.896389
    23  H    2.243103   1.837934   3.640114   1.003961   3.147128
    24  H    3.450762   2.141372   3.898101   2.583990   1.083331
    25  C    2.855206   2.410981   2.446598   3.614101   1.387887
    26  H    3.414578   3.851624   2.145948   5.169811   3.391680
[...]
 Alpha  occ. eigenvalues --   -0.46755  -0.45964  -0.44243  -0.43695  -0.40721
 Alpha  occ. eigenvalues --   -0.39754  -0.36648  -0.36002  -0.30467  -0.26533
 Alpha  occ. eigenvalues --   -0.21711
 Alpha virt. eigenvalues --   -0.06147   0.01349   0.03349   0.04037   0.04627
 Alpha virt. eigenvalues --    0.05974   0.06164   0.06766   0.07030   0.07114
 Alpha virt. eigenvalues --    0.07610   0.08414   0.08552   0.08898   0.09773
 Alpha virt. eigenvalues --    0.10206   0.11144   0.11507   0.12193   0.12546
 Alpha virt. eigenvalues --    0.12714   0.13314   0.13919   0.14307   0.14871
 Alpha virt. eigenvalues --    0.15421   0.15634   0.16087   0.16659   0.16885
 Alpha virt. eigenvalues --    0.17121   0.17299   0.17980   0.18312   0.18490
 Alpha virt. eigenvalues --    0.19531   0.19878   0.19931   0.20648   0.20972
 Alpha virt. eigenvalues --    0.21049   0.21191   0.21682   0.22368   0.22634
 Alpha virt. eigenvalues --    0.22971   0.23030   0.23230   0.23906   0.24259
 Alpha virt. eigenvalues --    0.24709   0.25644   0.25873   0.26788   0.27452
 Alpha virt. eigenvalues --    0.27770   0.27939   0.28491   0.28989   0.29355
 Alpha virt. eigenvalues --    0.29453   0.30261   0.30383   0.31089   0.31170
 Alpha virt. eigenvalues --    0.31737   0.32130   0.32952   0.33034   0.33603
 Alpha virt. eigenvalues --    0.33888   0.34602   0.34916   0.35391   0.35926
 Alpha virt. eigenvalues --    0.36561   0.37059   0.37734   0.38489   0.38858
 Alpha virt. eigenvalues --    0.39175   0.39980   0.40724   0.41781   0.42052
 Alpha virt. eigenvalues --    0.43657   0.44888   0.45122   0.45842   0.46212
 Alpha virt. eigenvalues --    0.46547   0.47034   0.48026   0.49141   0.50191
 Alpha virt. eigenvalues --    0.51045   0.51807   0.52841   0.54240   0.55707
 Alpha virt. eigenvalues --    0.57207   0.58718   0.61587   0.62062   0.63379
 Alpha virt. eigenvalues --    0.63624   0.65240   0.66087   0.66526   0.66986
 Alpha virt. eigenvalues --    0.67483   0.67789   0.67934   0.68933   0.69289
 Alpha virt. eigenvalues --    0.69614   0.70249   0.71089   0.72365   0.72929
 Alpha virt. eigenvalues --    0.73521   0.74260   0.74934   0.75522   0.76545
 Alpha virt. eigenvalues --    0.76788   0.77781   0.78627   0.78844   0.81141
 Alpha virt. eigenvalues --    0.81286   0.83130   0.83563   0.83807   0.85902
 Alpha virt. eigenvalues --    0.86249   0.87786   0.88811   0.90127   0.92483
 Alpha virt. eigenvalues --    0.92730   0.93960   0.94997   0.96066   0.97348
 Alpha virt. eigenvalues --    0.97465   0.98535   0.98768   1.00064   1.02015
 Alpha virt. eigenvalues --    1.03272   1.05122   1.06101   1.06369   1.07657
 Alpha virt. eigenvalues --    1.08751   1.11759   1.13317   1.13700   1.14581
 Alpha virt. eigenvalues --    1.15651   1.16297   1.19721   1.20067   1.21009
 Alpha virt. eigenvalues --    1.23068   1.23744   1.27241   1.28044   1.31139
 Alpha virt. eigenvalues --    1.32709   1.33576   1.35739   1.37976   1.40324
 Alpha virt. eigenvalues --    1.40709   1.43499   1.45094   1.45995   1.47139
 Alpha virt. eigenvalues --    1.49611   1.50912   1.52886   1.54140   1.55266
 Alpha virt. eigenvalues --    1.58141   1.58667   1.59110   1.60701   1.61633
 Alpha virt. eigenvalues --    1.63373   1.63888   1.64954   1.66348   1.68028
 Alpha virt. eigenvalues --    1.68693   1.68770   1.69568   1.70514   1.73191
 Alpha virt. eigenvalues --    1.74584   1.74940   1.75643   1.76577   1.78180
 Alpha virt. eigenvalues --    1.79264   1.79519   1.81511   1.82801   1.84925
 Alpha virt. eigenvalues --    1.85248   1.87331   1.87436   1.89489   1.91591
 Alpha virt. eigenvalues --    1.92434   1.93922   1.97642   1.99298   2.00553
 Alpha virt. eigenvalues --    2.02061   2.02796   2.05032   2.05979   2.06391
 Alpha virt. eigenvalues --    2.08064   2.08951   2.10400   2.11772   2.13010
 Alpha virt. eigenvalues --    2.14290   2.15528   2.17352   2.17690   2.19376
 Alpha virt. eigenvalues --    2.20234   2.20931   2.22546   2.24260   2.30129
 Alpha virt. eigenvalues --    2.33251   2.37351   2.38290   2.40236   2.42080
 Alpha virt. eigenvalues --    2.43813   2.46513   2.48037   2.50718   2.52800
 Alpha virt. eigenvalues --    2.54804   2.56551   2.57918   2.59775   2.60629
 Alpha virt. eigenvalues --    2.61063   2.63137   2.66918   2.67696   2.68643
 Alpha virt. eigenvalues --    2.69556   2.72937   2.73557   2.74771   2.76034
 Alpha virt. eigenvalues --    2.80247   2.81230   2.83166   2.84531   2.85075
 Alpha virt. eigenvalues --    2.87544   2.88247   2.89652   2.90110   2.91419
 Alpha virt. eigenvalues --    2.92150   2.93299   2.94549   2.96341   2.97575
 Alpha virt. eigenvalues --    2.99955   3.01457   3.02611   3.05192   3.06843
 Alpha virt. eigenvalues --    3.08532   3.08731   3.12277   3.14382   3.15806
 Alpha virt. eigenvalues --    3.20351   3.22028   3.25880   3.27788   3.32315
 Alpha virt. eigenvalues --    3.35157   3.41080   3.45294   3.46949   3.51241
 Alpha virt. eigenvalues --    3.52317   3.58231   3.58611   3.62663   3.65425
 Alpha virt. eigenvalues --    3.68033   3.69470   3.74827   3.76887   3.80391
 Alpha virt. eigenvalues --    3.83273   3.84460   3.87396   3.88080   3.94915
 Alpha virt. eigenvalues --    3.97842   4.03559   4.10587   4.18048   4.20046
 Alpha virt. eigenvalues --    4.29408   4.31275   4.36983   4.48192   4.93470
 Alpha virt. eigenvalues --    4.95804   5.07308   5.16455   5.29539   5.44037
 Alpha virt. eigenvalues --    5.51652   5.80407   5.96006  23.74509  23.88146
 Alpha virt. eigenvalues --   23.99891  24.01632  24.03264  24.08393  24.12239
 Alpha virt. eigenvalues --   24.19584  24.24397  24.31125  24.38226  35.61143
 Alpha virt. eigenvalues --   50.03341  50.27083
          Condensed to atoms (all electrons):
               1          2          3          4          5          6
     1  C    5.356807   0.370703   0.423340  -0.145552   0.016787   0.289916
     2  H    0.370703   0.494960  -0.027164   0.006253  -0.005144  -0.039599
     3  H    0.423340  -0.027164   0.492791  -0.022194   0.007431  -0.048272
     4  C   -0.145552   0.006253  -0.022194   5.282710   0.401582   0.249770
     5  H    0.016787  -0.005144   0.007431   0.401582   0.532879  -0.026870
     6  N    0.289916  -0.039599  -0.048272   0.249770  -0.026870   6.662694
     7  H    0.396564  -0.019722  -0.036499   0.016089  -0.000210  -0.029633
     8  H    0.000986   0.002608  -0.001695   0.394075  -0.040306  -0.072453
     9  H   -0.025213   0.005023   0.001103   0.411579  -0.054676  -0.045335
    10  C   -0.183234   0.010556   0.002812  -0.147549  -0.065355   0.127332
    11  H    0.016284  -0.000496  -0.001524  -0.013639   0.007038  -0.054875
    12  C    0.177093   0.003553   0.014307  -0.024483   0.027119  -0.104318
    13  C   -0.138728   0.004334  -0.006999  -0.050511  -0.002994  -0.019570
    14  H    0.016956   0.002400  -0.004009   0.002540   0.001806  -0.026932
    15  O   -0.002211  -0.000184   0.000224  -0.002908  -0.000040  -0.001103
    16  C   -0.109359   0.000770  -0.007076  -0.000569  -0.000421  -0.023291
    17  C   -0.025470  -0.001100  -0.000933  -0.008014   0.000494  -0.018400
    18  C    0.023331   0.000721   0.000202   0.010008  -0.001354   0.019891
    19  O    0.001668   0.000218  -0.000155  -0.000159  -0.000018   0.000669
    20  C    0.002531   0.000175  -0.001034  -0.000133  -0.000039   0.001348
    21  C    0.005498   0.000462   0.000218   0.000692  -0.000395   0.002209
    22  H   -0.000140   0.000129  -0.000775  -0.000078  -0.000081   0.000250
    23  H   -0.000984  -0.000007  -0.000073  -0.000612  -0.000039  -0.000786
    24  H    0.000108   0.000021  -0.000027  -0.000007  -0.000001   0.000082
    25  C   -0.002972  -0.000297   0.000494   0.000168   0.000039  -0.001379
    26  H   -0.000041   0.000006  -0.000008  -0.000003  -0.000002   0.000040
    27  H   -0.000027   0.000000   0.000006   0.000002   0.000001  -0.000020
               7          8          9         10         11         12
     1  C    0.396564   0.000986  -0.025213  -0.183234   0.016284   0.177093
     2  H   -0.019722   0.002608   0.005023   0.010556  -0.000496   0.003553
     3  H   -0.036499  -0.001695   0.001103   0.002812  -0.001524   0.014307
     4  C    0.016089   0.394075   0.411579  -0.147549  -0.013639  -0.024483
     5  H   -0.000210  -0.040306  -0.054676  -0.065355   0.007038   0.027119
     6  N   -0.029633  -0.072453  -0.045335   0.127332  -0.054875  -0.104318
     7  H    0.492361  -0.002378  -0.000211   0.023082   0.000071  -0.024825
     8  H   -0.002378   0.521244  -0.010414   0.029765  -0.007811   0.004614
     9  H   -0.000211  -0.010414   0.529417   0.014510  -0.002471   0.002877
    10  C    0.023082   0.029765   0.014510   8.305344   0.412338  -1.135711
    11  H    0.000071  -0.007811  -0.002471   0.412338   0.448316   0.079215
    12  C   -0.024825   0.004614   0.002877  -1.135711   0.079215  11.790459
    13  C   -0.014185   0.011073  -0.001011  -1.111374  -0.086455  -0.899555
    14  H   -0.007220  -0.000594  -0.001542  -0.067229   0.006617   0.424206
    15  O    0.000352   0.000697   0.000070  -0.026834   0.000596  -0.406638
    16  C   -0.004062   0.006907  -0.001334   0.285905  -0.044778  -4.691167
    17  C   -0.001196  -0.001301  -0.000747  -0.038843   0.004111  -0.495018
    18  C    0.004433   0.002792   0.001173  -0.340894  -0.023178   1.352186
    19  O   -0.000331  -0.000106  -0.000007  -0.004279   0.002953   0.031288
    20  C    0.000655  -0.000779   0.000014   0.054773   0.010931   0.061425
    21  C    0.002520   0.000180   0.000147   0.118284  -0.000951   0.242545
    22  H    0.000074   0.000239  -0.000008  -0.017818  -0.000768  -0.032370
    23  H    0.000130   0.000178  -0.000007  -0.017059  -0.002109   0.034623
    24  H    0.000013  -0.000006   0.000000  -0.000370   0.000146  -0.004417
    25  C   -0.000482   0.000233  -0.000027  -0.021324  -0.004521   0.011568
    26  H    0.000055  -0.000010   0.000002   0.000431   0.000054  -0.006287
    27  H   -0.000021   0.000003  -0.000001   0.000974  -0.000036  -0.004268
              13         14         15         16         17         18
     1  C   -0.138728   0.016956  -0.002211  -0.109359  -0.025470   0.023331
     2  H    0.004334   0.002400  -0.000184   0.000770  -0.001100   0.000721
     3  H   -0.006999  -0.004009   0.000224  -0.007076  -0.000933   0.000202
     4  C   -0.050511   0.002540  -0.002908  -0.000569  -0.008014   0.010008
     5  H   -0.002994   0.001806  -0.000040  -0.000421   0.000494  -0.001354
     6  N   -0.019570  -0.026932  -0.001103  -0.023291  -0.018400   0.019891
     7  H   -0.014185  -0.007220   0.000352  -0.004062  -0.001196   0.004433
     8  H    0.011073  -0.000594   0.000697   0.006907  -0.001301   0.002792
     9  H   -0.001011  -0.001542   0.000070  -0.001334  -0.000747   0.001173
    10  C   -1.111374  -0.067229  -0.026834   0.285905  -0.038843  -0.340894
    11  H   -0.086455   0.006617   0.000596  -0.044778   0.004111  -0.023178
    12  C   -0.899555   0.424206  -0.406638  -4.691167  -0.495018   1.352186
    13  C   11.233665  -0.005855   0.464422  -0.524178  -2.213011  -1.604032
    14  H   -0.005855   0.479350   0.000196  -0.012211  -0.010583  -0.037180
    15  O    0.464422   0.000196   7.786179   0.251925   0.092527  -0.183544
    16  C   -0.524178  -0.012211   0.251925  16.678909  -0.341295  -3.669341
    17  C   -2.213011  -0.010583   0.092527  -0.341295  16.242734  -2.444038
    18  C   -1.604032  -0.037180  -0.183544  -3.669341  -2.444038  13.390048
    19  O    0.309468   0.002236  -0.007452  -0.183713   0.092883  -0.048502
    20  C    1.090890   0.027731  -0.030387  -1.429730  -5.390501  -0.067480
    21  C    0.784939  -0.021991  -0.056072  -0.717838  -2.177299  -0.467887
    22  H   -0.027068   0.000046   0.001107   0.069973   0.088758   0.322390
    23  H    0.104840  -0.000129   0.261390  -0.042829  -0.069077   0.018730
    24  H    0.005044   0.000306  -0.000812  -0.006324  -0.169026   0.040886
    25  C   -0.857156  -0.008066   0.020709  -0.564622   3.387631  -0.059733
    26  H    0.019713  -0.000411  -0.000585   0.056602  -0.060340  -0.102819
    27  H   -0.007003  -0.000198   0.000185   0.068995   0.055095  -0.067426
              19         20         21         22         23         24
     1  C    0.001668   0.002531   0.005498  -0.000140  -0.000984   0.000108
     2  H    0.000218   0.000175   0.000462   0.000129  -0.000007   0.000021
     3  H   -0.000155  -0.001034   0.000218  -0.000775  -0.000073  -0.000027
     4  C   -0.000159  -0.000133   0.000692  -0.000078  -0.000612  -0.000007
     5  H   -0.000018  -0.000039  -0.000395  -0.000081  -0.000039  -0.000001
     6  N    0.000669   0.001348   0.002209   0.000250  -0.000786   0.000082
     7  H   -0.000331   0.000655   0.002520   0.000074   0.000130   0.000013
     8  H   -0.000106  -0.000779   0.000180   0.000239   0.000178  -0.000006
     9  H   -0.000007   0.000014   0.000147  -0.000008  -0.000007   0.000000
    10  C   -0.004279   0.054773   0.118284  -0.017818  -0.017059  -0.000370
    11  H    0.002953   0.010931  -0.000951  -0.000768  -0.002109   0.000146
    12  C    0.031288   0.061425   0.242545  -0.032370   0.034623  -0.004417
    13  C    0.309468   1.090890   0.784939  -0.027068   0.104840   0.005044
    14  H    0.002236   0.027731  -0.021991   0.000046  -0.000129   0.000306
    15  O   -0.007452  -0.030387  -0.056072   0.001107   0.261390  -0.000812
    16  C   -0.183713  -1.429730  -0.717838   0.069973  -0.042829  -0.006324
    17  C    0.092883  -5.390501  -2.177299   0.088758  -0.069077  -0.169026
    18  C   -0.048502  -0.067480  -0.467887   0.322390   0.018730   0.040886
    19  O    8.351607  -0.045014   0.021178  -0.003137  -0.009063  -0.013710
    20  C   -0.045014  13.470249   1.674585  -0.042422  -0.021498   0.581401
    21  C    0.021178   1.674585   7.755890  -0.107931   0.012991   0.024932
    22  H   -0.003137  -0.042422  -0.107931   0.536247   0.000142   0.000377
    23  H   -0.009063  -0.021498   0.012991   0.000142   0.378805  -0.000544
    24  H   -0.013710   0.581401   0.024932   0.000377  -0.000544   0.488727
    25  C   -0.039003  -3.952372  -0.990177   0.033565   0.002490  -0.151458
    26  H    0.000442   0.083408   0.461037  -0.012638  -0.000080   0.001466
    27  H    0.001205  -0.094813  -0.020676  -0.000702   0.000142  -0.012000
              25         26         27
     1  C   -0.002972  -0.000041  -0.000027
     2  H   -0.000297   0.000006   0.000000
     3  H    0.000494  -0.000008   0.000006
     4  C    0.000168  -0.000003   0.000002
     5  H    0.000039  -0.000002   0.000001
     6  N   -0.001379   0.000040  -0.000020
     7  H   -0.000482   0.000055  -0.000021
     8  H    0.000233  -0.000010   0.000003
     9  H   -0.000027   0.000002  -0.000001
    10  C   -0.021324   0.000431   0.000974
    11  H   -0.004521   0.000054  -0.000036
    12  C    0.011568  -0.006287  -0.004268
    13  C   -0.857156   0.019713  -0.007003
    14  H   -0.008066  -0.000411  -0.000198
    15  O    0.020709  -0.000585   0.000185
    16  C   -0.564622   0.056602   0.068995
    17  C    3.387631  -0.060340   0.055095
    18  C   -0.059733  -0.102819  -0.067426
    19  O   -0.039003   0.000442   0.001205
    20  C   -3.952372   0.083408  -0.094813
    21  C   -0.990177   0.461037  -0.020676
    22  H    0.033565  -0.012638  -0.000702
    23  H    0.002490  -0.000080   0.000142
    24  H   -0.151458   0.001466  -0.012000
    25  C    9.157589  -0.118298   0.394106
    26  H   -0.118298   0.514403  -0.006470
    27  H    0.394106  -0.006470   0.505297
 Mulliken charges:
               1
     1  C   -0.464644
     2  H    0.190820
     3  H    0.215507
     4  C   -0.359057
     5  H    0.202768
     6  N    0.158638
     7  H    0.204576
     8  H    0.162259
     9  H    0.177091
    10  C   -0.208233
    11  H    0.254942
    12  C   -0.428020
    13  C   -0.458701
    14  H    0.239761
    15  O   -0.161810
    16  C    0.954155
    17  C   -0.498042
    18  C   -0.069383
    19  O   -0.461165
    20  C    0.016086
    21  C   -0.547092
    22  H    0.192639
    23  H    0.350435
    24  H    0.215195
    25  C   -0.236705
    26  H    0.170332
    27  H    0.187648
 Sum of Mulliken charges =   0.00000
 Mulliken charges with hydrogens summed into heavy atoms:
               1
     1  C    0.146259
     4  C    0.183062
     6  N    0.158638
    10  C    0.046709
    12  C   -0.188260
    13  C   -0.458701
    15  O    0.188625
    16  C    0.954155
    17  C   -0.498042
    18  C    0.123255
    19  O   -0.461165
    20  C    0.231281
    21  C   -0.376759
    25  C   -0.049057
 Electronic spatial extent (au):  <R**2>=           3853.7094
 Charge=              0.0000 electrons
 Dipole moment (field-independent basis, Debye):
    X=             12.6891    Y=              2.6781    Z=             -2.6862  Tot=             13.2439
 Quadrupole moment (field-independent basis, Debye-Ang):
   XX=            -61.3339   YY=            -85.5906   ZZ=            -88.1256
   XY=             -0.0784   XZ=              4.4600   YZ=              9.4439
 Traceless Quadrupole moment (field-independent basis, Debye-Ang):
   XX=             17.0161   YY=             -7.2406   ZZ=             -9.7755
   XY=             -0.0784   XZ=              4.4600   YZ=              9.4439
 Octapole moment (field-independent basis, Debye-Ang**2):
  XXX=            185.0627  YYY=            -10.8722  ZZZ=             -2.5264  XYY=             29.7307
  XXY=             18.7523  XXZ=              4.4795  XZZ=             27.6483  YZZ=              9.0772
  YYZ=            -20.1414  XYZ=             -0.5863
 Hexadecapole moment (field-independent basis, Debye-Ang**3):
 XXXX=          -3511.2124 YYYY=           -580.9234 ZZZZ=           -500.4145 XXXY=             12.5089
 XXXZ=            -46.7223 YYYX=             17.2176 YYYZ=             50.8688 ZZZX=             14.0398
 ZZZY=             24.2909 XXYY=           -787.9595 XXZZ=           -768.8410 YYZZ=           -182.1867
 XXYZ=             43.1202 YYXZ=             39.9499 ZZXY=              8.8288
 N-N= 8.330095994892D+02 E-N=-3.139469342594D+03  KE= 6.293964404712D+02
 1\1\GINC-NXN36\FOpt\RwB97XD TD-FC\6-311++G(d,p)\C11H13N1O2\BTX008\21-O
 ct-2016\0\\# wb97xd 6-311++g** opt td=(nstates=1,root=1) geom=allcheck
 \\Geom Opt s0\\0,1\C,0.3363601223,-0.8139493662,8.6104916035\H,1.38220
 01526,-0.7179621289,8.905841083\H,-0.2497714308,-0.050530987,9.1464321
 066\C,1.0981093901,0.3147472278,6.5772531588\H,0.8237260846,1.33890268
 8,6.8722571361\N,0.234238409,-0.6810375525,7.1772365614\H,-0.014100330
 9,-1.8000760285,8.9225195838\H,1.037975053,0.244590826,5.4899971839\H,
 2.1337188151,0.1329192893,6.8737398148\C,-0.9793109209,-0.9104112869,6
 .570171012\H,-0.9966802066,-0.7209206885,5.5041411835\C,-2.1127250812,
 -1.3937692029,7.1827367153\C,-3.2876112073,-1.7006423437,6.5139039864\
 H,-2.1235344271,-1.5598135755,8.2532725159\O,-3.3919960991,-1.42720268
 29,5.1754901296\C,-4.5097082822,-2.1840682799,7.1928361224\C,-4.774052
 2671,-3.6143609819,7.2053465772\C,-5.4198050443,-1.3169388763,7.772718
 0605\O,-4.0233274916,-4.4046178455,6.6019327836\C,-5.955366099,-4.0742
 193214,7.907275947\C,-6.5506173427,-1.7977389798,8.4223637943\H,-5.230
 4583325,-0.2504370589,7.7360626237\H,-3.8816355347,-2.1311292001,4.746
 3605751\H,-6.1275035897,-5.1437398092,7.9367510038\C,-6.8095435808,-3.
 1851869822,8.49057444\H,-7.2385124645,-1.1040622792,8.8912770419\H,-7.
 6949902941,-3.5349455728,9.009463256\\Version=ES64L-G09RevD.01\State=1
 -A\HF=-632.0615968\RMSD=7.090e-09\RMSF=9.510e-06\Dipole=-0.3484465,0.9
 635656,0.9153125\PG=C01 [X(C11H13N1O2)]\\@


 YOU CAN WIPE THE SLATE CLEAN, BUT YOU'LL STILL
 HAVE TO EAT A LITTLE CHALK DUST.
 Job cpu time:       3 days  8 hours 52 minutes 20.8 seconds.
 File lengths (MBytes):  RWF=    157 Int=      0 D2E=      0 Chk=     25 Scr=      1
 Normal termination of Gaussian 09 at Fri Oct 21 09:27:28 2016.
