 Entering Gaussian System, Link 0=g09
 Input=1_opt.com
 Output=1_opt.out
 Initial command:
 /share/apps/gaussian/g09_D01/g09/l1.exe "/tmp/3818526.1.serial.q/Gau-25954.inp" -scrdir="/tmp/3818526.1.serial.q/"
 Entering Link 1 = /share/apps/gaussian/g09_D01/g09/l1.exe PID=     25955.
  
 Copyright (c) 1988,1990,1992,1993,1995,1998,2003,2009,2013,
            Gaussian, Inc.  All Rights Reserved.
  
 This is part of the Gaussian(R) 09 program.  It is based on
 the Gaussian(R) 03 system (copyright 2003, Gaussian, Inc.),
 the Gaussian(R) 98 system (copyright 1998, Gaussian, Inc.),
 the Gaussian(R) 94 system (copyright 1995, Gaussian, Inc.),
 the Gaussian 92(TM) system (copyright 1992, Gaussian, Inc.),
 the Gaussian 90(TM) system (copyright 1990, Gaussian, Inc.),
 the Gaussian 88(TM) system (copyright 1988, Gaussian, Inc.),
 the Gaussian 86(TM) system (copyright 1986, Carnegie Mellon
 University), and the Gaussian 82(TM) system (copyright 1983,
 Carnegie Mellon University). Gaussian is a federally registered
 trademark of Gaussian, Inc.
  
 This software contains proprietary and confidential information,
 including trade secrets, belonging to Gaussian, Inc.
  
 This software is provided under written license and may be
 used, copied, transmitted, or stored only in accord with that
 written license.
  
 The following legend is applicable only to US Government
 contracts under FAR:
  
                    RESTRICTED RIGHTS LEGEND
  
 Use, reproduction and disclosure by the US Government is
 subject to restrictions as set forth in subparagraphs (a)
 and (c) of the Commercial Computer Software - Restricted
 Rights clause in FAR 52.227-19.
  
 Gaussian, Inc.
 340 Quinnipiac St., Bldg. 40, Wallingford CT 06492
  
  
 ---------------------------------------------------------------
 Warning -- This program may not be used in any manner that
 competes with the business of Gaussian, Inc. or will provide
 assistance to any competitor of Gaussian, Inc.  The licensee
 of this program is prohibited from giving any competitor of
 Gaussian, Inc. access to this program.  By using this program,
 the user acknowledges that Gaussian, Inc. is engaged in the
 business of creating and licensing software in the field of
 computational chemistry and represents and warrants to the
 licensee that it is not a competitor of Gaussian, Inc. and that
 it will not use this program in any manner prohibited above.
 ---------------------------------------------------------------
  

 Cite this work as:
 Gaussian 09, Revision D.01,
 M. J. Frisch, G. W. Trucks, H. B. Schlegel, G. E. Scuseria, 
 M. A. Robb, J. R. Cheeseman, G. Scalmani, V. Barone, B. Mennucci, 
 G. A. Petersson, H. Nakatsuji, M. Caricato, X. Li, H. P. Hratchian, 
 A. F. Izmaylov, J. Bloino, G. Zheng, J. L. Sonnenberg, M. Hada, 
 M. Ehara, K. Toyota, R. Fukuda, J. Hasegawa, M. Ishida, T. Nakajima, 
 Y. Honda, O. Kitao, H. Nakai, T. Vreven, J. A. Montgomery, Jr., 
 J. E. Peralta, F. Ogliaro, M. Bearpark, J. J. Heyd, E. Brothers, 
 K. N. Kudin, V. N. Staroverov, T. Keith, R. Kobayashi, J. Normand, 
 K. Raghavachari, A. Rendell, J. C. Burant, S. S. Iyengar, J. Tomasi, 
 M. Cossi, N. Rega, J. M. Millam, M. Klene, J. E. Knox, J. B. Cross, 
 V. Bakken, C. Adamo, J. Jaramillo, R. Gomperts, R. E. Stratmann, 
 O. Yazyev, A. J. Austin, R. Cammi, C. Pomelli, J. W. Ochterski, 
 R. L. Martin, K. Morokuma, V. G. Zakrzewski, G. A. Voth, 
 P. Salvador, J. J. Dannenberg, S. Dapprich, A. D. Daniels, 
 O. Farkas, J. B. Foresman, J. V. Ortiz, J. Cioslowski, 
 and D. J. Fox, Gaussian, Inc., Wallingford CT, 2013.
 
 ******************************************
 Gaussian 09:  ES64L-G09RevD.01 24-Apr-2013
                15-Oct-2016 
 ******************************************
 %chk=1_opt.chk
 %mem=2GB
 %nproc=4
 Will use up to    4 processors via shared memory.
 -----------------------
 # wb97xd 6-311++g** opt
 -----------------------
 1/14=-1,18=20,19=15,26=3,38=1/1,3;
 2/9=110,12=2,17=6,18=5,40=1/2;
 3/5=4,6=6,7=1111,11=2,16=1,25=1,30=1,71=1,74=-58/1,2,3;
 4//1;
 5/5=2,38=5/2;
 6/7=2,8=2,9=2,10=2,28=1/1;
 7//1,2,3,16;
 1/14=-1,18=20,19=15,26=3/3(2);
 2/9=110/2;
 99//99;
 2/9=110/2;
 3/5=4,6=6,7=1111,11=2,16=1,25=1,30=1,71=1,74=-58/1,2,3;
 4/5=5,16=3,69=1/1;
 5/5=2,38=5/2;
 7//1,2,3,16;
 1/14=-1,18=20,19=15,26=3/3(-5);
 2/9=110/2;
 6/7=2,8=2,9=2,10=2,19=2,28=1/1;
 99/9=1/99;
 -----------
 Geom Opt s0
 -----------
 Symbolic Z-matrix:
 Charge =  0 Multiplicity = 1
 C                     0.0529    0.18715   8.64077 
 H                     0.95033   0.38398   8.91997 
 H                    -0.48555   0.97836   8.71492 
 C                     1.24517   0.06112   6.46598 
 H                     1.35906   1.01413   6.43339 
 N                     0.06358  -0.26174   7.26635 
 H                    -0.31263  -0.50286   9.1995 
 H                     1.13108  -0.27878   5.57539 
 H                     2.02106  -0.34085   6.86401 
 C                    -0.94265  -0.93639   6.74518 
 H                    -0.84068  -1.20138   5.85923 
 C                    -2.11932  -1.29417   7.34859 
 C                    -3.06622  -2.07097   6.6337 
 H                    -2.29613  -1.02886   8.22278 
 O                    -2.82333  -2.50302   5.46811 
 C                    -4.3783   -2.42444   7.248 
 C                    -5.24753  -3.2955    6.5657 
 C                    -4.80726  -1.91338   8.47996 
 O                    -4.90327  -3.84895   5.38641 
 C                    -6.4954   -3.61173   7.10328 
 C                    -6.03842  -2.2436    9.00469 
 H                    -4.24993  -1.3392    8.95343 
 H                    -4.17954  -3.5484    5.14477 
 H                    -7.0687   -4.1796    6.6406 
 C                    -6.8795   -3.08752   8.31193 
 H                    -6.30149  -1.89676   9.82654 
 H                    -7.71227  -3.30328   8.66527 
 

 GradGradGradGradGradGradGradGradGradGradGradGradGradGradGradGradGradGrad
 Berny optimization.
 Initialization pass.
                           ----------------------------
                           !    Initial Parameters    !
                           ! (Angstroms and Degrees)  !
 --------------------------                            --------------------------
 ! Name  Definition              Value          Derivative Info.                !
 --------------------------------------------------------------------------------
 ! R1    R(1,2)                  0.9602         estimate D2E/DX2                !
 ! R2    R(1,3)                  0.9599         estimate D2E/DX2                !
 ! R3    R(1,6)                  1.4459         estimate D2E/DX2                !
 ! R4    R(1,7)                  0.9602         estimate D2E/DX2                !
 ! R5    R(4,5)                  0.9603         estimate D2E/DX2                !
 ! R6    R(4,6)                  1.4632         estimate D2E/DX2                !
 ! R7    R(4,8)                  0.9601         estimate D2E/DX2                !
 ! R8    R(4,9)                  0.9602         estimate D2E/DX2                !
 ! R9    R(6,10)                 1.3188         estimate D2E/DX2                !
 ! R10   R(10,11)                0.9303         estimate D2E/DX2                !
 ! R11   R(10,12)                1.3699         estimate D2E/DX2                !
 ! R12   R(12,13)                1.4181         estimate D2E/DX2                !
 ! R13   R(12,14)                0.9305         estimate D2E/DX2                !
 ! R14   R(13,15)                1.2666         estimate D2E/DX2                !
 ! R15   R(13,16)                1.4913         estimate D2E/DX2                !
 ! R16   R(16,17)                1.4071         estimate D2E/DX2                !
 ! R17   R(16,18)                1.401          estimate D2E/DX2                !
 ! R18   R(17,19)                1.3474         estimate D2E/DX2                !
 ! R19   R(17,20)                1.395          estimate D2E/DX2                !
 ! R20   R(18,21)                1.3785         estimate D2E/DX2                !
 ! R21   R(18,22)                0.9298         estimate D2E/DX2                !
 ! R22   R(19,23)                0.8201         estimate D2E/DX2                !
 ! R23   R(20,24)                0.9302         estimate D2E/DX2                !
 ! R24   R(20,25)                1.3723         estimate D2E/DX2                !
 ! R25   R(21,25)                1.3782         estimate D2E/DX2                !
 ! R26   R(21,26)                0.93           estimate D2E/DX2                !
 ! R27   R(25,27)                0.93           estimate D2E/DX2                !
 ! A1    A(2,1,3)              109.4407         estimate D2E/DX2                !
 ! A2    A(2,1,6)              109.4583         estimate D2E/DX2                !
 ! A3    A(2,1,7)              109.5062         estimate D2E/DX2                !
 ! A4    A(3,1,6)              109.4786         estimate D2E/DX2                !
 ! A5    A(3,1,7)              109.5019         estimate D2E/DX2                !
 ! A6    A(6,1,7)              109.4417         estimate D2E/DX2                !
 ! A7    A(5,4,6)              109.4691         estimate D2E/DX2                !
 ! A8    A(5,4,8)              109.5086         estimate D2E/DX2                !
 ! A9    A(5,4,9)              109.4917         estimate D2E/DX2                !
 ! A10   A(6,4,8)              109.4712         estimate D2E/DX2                !
 ! A11   A(6,4,9)              109.4756         estimate D2E/DX2                !
 ! A12   A(8,4,9)              109.4111         estimate D2E/DX2                !
 ! A13   A(1,6,4)              117.2203         estimate D2E/DX2                !
 ! A14   A(1,6,10)             121.926          estimate D2E/DX2                !
 ! A15   A(4,6,10)             120.8537         estimate D2E/DX2                !
 ! A16   A(6,10,11)            116.0024         estimate D2E/DX2                !
 ! A17   A(6,10,12)            127.9443         estimate D2E/DX2                !
 ! A18   A(11,10,12)           116.0533         estimate D2E/DX2                !
 ! A19   A(10,12,13)           119.6391         estimate D2E/DX2                !
 ! A20   A(10,12,14)           120.1688         estimate D2E/DX2                !
 ! A21   A(13,12,14)           120.1921         estimate D2E/DX2                !
 ! A22   A(12,13,15)           121.5146         estimate D2E/DX2                !
 ! A23   A(12,13,16)           120.6407         estimate D2E/DX2                !
 ! A24   A(15,13,16)           117.8368         estimate D2E/DX2                !
 ! A25   A(13,16,17)           119.3745         estimate D2E/DX2                !
 ! A26   A(13,16,18)           123.0347         estimate D2E/DX2                !
 ! A27   A(17,16,18)           117.5849         estimate D2E/DX2                !
 ! A28   A(16,17,19)           121.3891         estimate D2E/DX2                !
 ! A29   A(16,17,20)           120.4016         estimate D2E/DX2                !
 ! A30   A(19,17,20)           118.2089         estimate D2E/DX2                !
 ! A31   A(16,18,21)           121.3858         estimate D2E/DX2                !
 ! A32   A(16,18,22)           119.3083         estimate D2E/DX2                !
 ! A33   A(21,18,22)           119.3058         estimate D2E/DX2                !
 ! A34   A(17,19,23)           109.4408         estimate D2E/DX2                !
 ! A35   A(17,20,24)           119.8701         estimate D2E/DX2                !
 ! A36   A(17,20,25)           120.2103         estimate D2E/DX2                !
 ! A37   A(24,20,25)           119.9195         estimate D2E/DX2                !
 ! A38   A(18,21,25)           120.0263         estimate D2E/DX2                !
 ! A39   A(18,21,26)           119.9793         estimate D2E/DX2                !
 ! A40   A(25,21,26)           119.9944         estimate D2E/DX2                !
 ! A41   A(20,25,21)           120.3842         estimate D2E/DX2                !
 ! A42   A(20,25,27)           119.7785         estimate D2E/DX2                !
 ! A43   A(21,25,27)           119.8373         estimate D2E/DX2                !
 ! D1    D(2,1,6,4)            -18.8992         estimate D2E/DX2                !
 ! D2    D(2,1,6,10)           161.0025         estimate D2E/DX2                !
 ! D3    D(3,1,6,4)            101.06           estimate D2E/DX2                !
 ! D4    D(3,1,6,10)           -79.0383         estimate D2E/DX2                !
 ! D5    D(7,1,6,4)           -138.916          estimate D2E/DX2                !
 ! D6    D(7,1,6,10)            40.9857         estimate D2E/DX2                !
 ! D7    D(5,4,6,1)            -59.351          estimate D2E/DX2                !
 ! D8    D(5,4,6,10)           120.7461         estimate D2E/DX2                !
 ! D9    D(8,4,6,1)           -179.3955         estimate D2E/DX2                !
 ! D10   D(8,4,6,10)             0.7017         estimate D2E/DX2                !
 ! D11   D(9,4,6,1)             60.6755         estimate D2E/DX2                !
 ! D12   D(9,4,6,10)          -119.2273         estimate D2E/DX2                !
 ! D13   D(1,6,10,11)         -178.6405         estimate D2E/DX2                !
 ! D14   D(1,6,10,12)            1.3793         estimate D2E/DX2                !
 ! D15   D(4,6,10,11)            1.2577         estimate D2E/DX2                !
 ! D16   D(4,6,10,12)         -178.7225         estimate D2E/DX2                !
 ! D17   D(6,10,12,13)        -177.5247         estimate D2E/DX2                !
 ! D18   D(6,10,12,14)           2.475          estimate D2E/DX2                !
 ! D19   D(11,10,12,13)          2.4951         estimate D2E/DX2                !
 ! D20   D(11,10,12,14)       -177.5052         estimate D2E/DX2                !
 ! D21   D(10,12,13,15)          3.6407         estimate D2E/DX2                !
 ! D22   D(10,12,13,16)       -177.4092         estimate D2E/DX2                !
 ! D23   D(14,12,13,15)       -176.3591         estimate D2E/DX2                !
 ! D24   D(14,12,13,16)          2.5911         estimate D2E/DX2                !
 ! D25   D(12,13,16,17)       -174.2831         estimate D2E/DX2                !
 ! D26   D(12,13,16,18)          6.6217         estimate D2E/DX2                !
 ! D27   D(15,13,16,17)          4.7047         estimate D2E/DX2                !
 ! D28   D(15,13,16,18)       -174.3904         estimate D2E/DX2                !
 ! D29   D(13,16,17,19)          1.9827         estimate D2E/DX2                !
 ! D30   D(13,16,17,20)       -178.242          estimate D2E/DX2                !
 ! D31   D(18,16,17,19)       -178.8731         estimate D2E/DX2                !
 ! D32   D(18,16,17,20)          0.9022         estimate D2E/DX2                !
 ! D33   D(13,16,18,21)        178.7642         estimate D2E/DX2                !
 ! D34   D(13,16,18,22)         -1.2155         estimate D2E/DX2                !
 ! D35   D(17,16,18,21)         -0.3462         estimate D2E/DX2                !
 ! D36   D(17,16,18,22)        179.6741         estimate D2E/DX2                !
 ! D37   D(16,17,19,23)         -4.4573         estimate D2E/DX2                !
 ! D38   D(20,17,19,23)        175.7626         estimate D2E/DX2                !
 ! D39   D(16,17,20,24)        179.2012         estimate D2E/DX2                !
 ! D40   D(16,17,20,25)         -0.7851         estimate D2E/DX2                !
 ! D41   D(19,17,20,24)         -1.0165         estimate D2E/DX2                !
 ! D42   D(19,17,20,25)        178.9973         estimate D2E/DX2                !
 ! D43   D(16,18,21,25)         -0.341          estimate D2E/DX2                !
 ! D44   D(16,18,21,26)        179.6571         estimate D2E/DX2                !
 ! D45   D(22,18,21,25)        179.6386         estimate D2E/DX2                !
 ! D46   D(22,18,21,26)         -0.3632         estimate D2E/DX2                !
 ! D47   D(17,20,25,21)          0.0799         estimate D2E/DX2                !
 ! D48   D(17,20,25,27)       -179.9158         estimate D2E/DX2                !
 ! D49   D(24,20,25,21)       -179.9063         estimate D2E/DX2                !
 ! D50   D(24,20,25,27)          0.098          estimate D2E/DX2                !
 ! D51   D(18,21,25,20)          0.4812         estimate D2E/DX2                !
 ! D52   D(18,21,25,27)       -179.5231         estimate D2E/DX2                !
 ! D53   D(26,21,25,20)       -179.517          estimate D2E/DX2                !
 ! D54   D(26,21,25,27)          0.4787         estimate D2E/DX2                !
 --------------------------------------------------------------------------------
 Trust Radius=3.00D-01 FncErr=1.00D-07 GrdErr=1.00D-06
 Number of steps in this run=    134 maximum allowed number of steps=    162.
 GradGradGradGradGradGradGradGradGradGradGradGradGradGradGradGradGradGrad

                          Input orientation:                          
 ---------------------------------------------------------------------
 Center     Atomic      Atomic             Coordinates (Angstroms)
 Number     Number       Type             X           Y           Z
 ---------------------------------------------------------------------
      1          6           0        0.052904    0.187151    8.640771
      2          1           0        0.950331    0.383980    8.919972
      3          1           0       -0.485550    0.978360    8.714915
      4          6           0        1.245171    0.061121    6.465982
      5          1           0        1.359061    1.014128    6.433388
      6          7           0        0.063581   -0.261738    7.266351
      7          1           0       -0.312633   -0.502856    9.199497
      8          1           0        1.131079   -0.278780    5.575387
      9          1           0        2.021055   -0.340848    6.864008
     10          6           0       -0.942651   -0.936385    6.745183
     11          1           0       -0.840679   -1.201384    5.859229
     12          6           0       -2.119319   -1.294170    7.348589
     13          6           0       -3.066216   -2.070968    6.633697
     14          1           0       -2.296129   -1.028856    8.222779
     15          8           0       -2.823329   -2.503024    5.468110
     16          6           0       -4.378297   -2.424439    7.248003
     17          6           0       -5.247527   -3.295495    6.565704
     18          6           0       -4.807260   -1.913378    8.479963
     19          8           0       -4.903268   -3.848953    5.386412
     20          6           0       -6.495395   -3.611727    7.103277
     21          6           0       -6.038416   -2.243601    9.004693
     22          1           0       -4.249928   -1.339196    8.953429
     23          1           0       -4.179542   -3.548396    5.144768
     24          1           0       -7.068703   -4.179596    6.640604
     25          6           0       -6.879505   -3.087515    8.311925
     26          1           0       -6.301488   -1.896756    9.826539
     27          1           0       -7.712269   -3.303280    8.665271
 ---------------------------------------------------------------------
                    Distance matrix (angstroms):
                    1          2          3          4          5
     1  C    0.000000
     2  H    0.960245   0.000000
     3  H    0.959918   1.567511   0.000000
     4  C    2.483363   2.492636   2.982352   0.000000
     5  H    2.694898   2.597546   2.934150   0.960341   0.000000
     6  N    1.445907   1.984374   1.984370   1.463210   1.999982
     7  H    0.960157   1.568340   1.568031   3.196393   3.570317
     8  H    3.282702   3.414406   3.748403   0.960057   1.568360
     9  H    2.703570   2.428747   3.383672   0.960208   1.568321
    10  C    2.417999   3.171191   2.784786   2.420648   3.033083
    11  H    3.234733   3.884488   3.610034   2.512536   3.174430
    12  C    2.929607   3.835125   3.114553   3.733042   4.273752
    13  C    4.342391   5.233209   4.504410   4.812690   5.398242
    14  H    2.677937   3.608557   2.747601   4.100633   4.553693
    15  O    5.057226   5.872874   5.303488   4.911546   5.549280
    16  C    5.328766   6.251158   5.374416   6.197819   6.738295
    17  C    6.673027   7.582517   6.749916   7.309716   7.889066
    18  C    5.297101   6.214605   5.205240   6.677326   7.126168
    19  O    7.172491   8.041666   7.341534   7.365966   7.997655
    20  C    7.724997   8.643199   7.732045   8.591410   9.140009
    21  C    6.568499   7.466856   6.426455   8.050307   8.482162
    22  H    4.576227   5.478426   4.427019   6.192285   6.584034
    23  H    6.640026   7.485409   6.847120   6.648438   7.290630
    24  H    8.589903   9.504033   8.616564   9.334596   9.901763
    25  C    7.673974   8.586462   7.587912   8.906839   9.392888
    26  H    6.791687   7.655880   6.582335   8.489917   8.869652
    27  H    8.513614   9.418142   8.400022   9.817932  10.291275
                    6          7          8          9         10
     6  N    0.000000
     7  H    1.984119   0.000000
     8  H    1.999800   3.907517   0.000000
     9  H    1.999961   3.305579   1.567308   0.000000
    10  C    1.318813   2.570706   2.470065   3.025283   0.000000
    11  H    1.918492   3.453138   2.195357   3.152717   0.930343
    12  C    2.416140   2.704839   3.839316   4.276253   1.369911
    13  C    3.670040   4.077318   4.685002   5.378353   2.410236
    14  H    2.659221   2.272644   4.395117   4.577957   2.005927
    15  O    4.073240   4.922145   4.538294   5.485580   2.760837
    16  C    4.940434   4.902085   6.144487   6.740958   3.777671
    17  C    6.156497   6.252110   7.125160   7.851828   4.912186
    18  C    5.284492   4.765393   6.809724   7.190970   4.347319
    19  O    6.408734   6.841777   7.013928   7.901667   5.100568
    20  C    7.366762   7.230890   8.462038   9.126106   6.174030
    21  C    6.647103   5.987715   8.186716   8.553249   5.725471
    22  H    4.755366   4.032655   6.441342   6.684879   3.997085
    23  H    5.771250   6.377235   6.251281   7.189684   4.456612
    24  H    8.161535   8.106222   9.142619   9.869630   6.932378
    25  C    7.568665   7.112809   8.918917   9.426591   6.506018
    26  H    7.052797   6.180819   8.713965   8.970070   6.255733
    27  H    8.465920   7.929841   9.843769  10.332383   7.424059
                   11         12         13         14         15
    11  H    0.000000
    12  C    1.965127   0.000000
    13  C    2.511771   1.418132   0.000000
    14  H    2.781091   0.930517   2.050418   0.000000
    15  O    2.403777   2.343749   1.266594   3.168487   0.000000
    16  C    3.992405   2.527965   1.491265   2.689473   2.364766
    17  C    4.929981   3.795246   2.502440   4.073610   2.776591
    18  C    4.807177   2.981351   2.542591   2.674753   3.654439
    19  O    4.872146   4.257632   2.844593   4.774421   2.478779
    20  C    6.271620   4.957952   3.788629   5.055526   4.169780
    21  C    6.164141   4.359291   3.805969   4.011447   4.786596
    22  H    4.606088   2.667777   2.705147   2.108908   3.941716
    23  H    4.143299   3.766017   2.374700   4.401077   1.742603
    24  H    6.947559   5.772636   4.523965   5.933625   4.712625
    25  C    6.785324   5.177207   4.288472   5.025272   4.988134
    26  H    6.785538   4.898355   4.548799   4.400931   5.609015
    27  H    7.714311   6.086975   5.218400   5.890957   5.896099
                   16         17         18         19         20
    16  C    0.000000
    17  C    1.407065   0.000000
    18  C    1.401042   2.401764   0.000000
    19  O    2.402156   1.347427   3.650442   0.000000
    20  C    2.431605   1.395049   2.762147   2.353459   0.000000
    21  C    2.423769   2.771399   1.378453   4.117970   2.386626
    22  H    2.025514   3.244001   0.929771   4.410141   3.691826
    23  H    2.392986   1.795441   3.767073   0.820064   3.033635
    24  H    3.269219   2.025815   3.692304   2.524169   0.930174
    25  C    2.797792   2.399145   2.387684   3.611638   1.372286
    26  H    3.259749   3.701398   2.011532   5.047853   3.224109
    27  H    3.727785   3.237776   3.225716   4.351915   2.003933
                   21         22         23         24         25
    21  C    0.000000
    22  H    2.004811   0.000000
    23  H    4.478496   4.403569   0.000000
    24  H    3.224668   4.621961   3.314090   0.000000
    25  C    1.378241   3.222239   4.187254   2.005430   0.000000
    26  H    0.930021   2.298280   5.399032   3.993765   2.011484
    27  H    2.009953   3.991048   4.993414   2.298126   0.930002
                   26         27
    26  H    0.000000
    27  H    2.305896   0.000000
 Stoichiometry    C11H13NO2
 Framework group  C1[X(C11H13NO2)]
 Deg. of freedom    75
 Full point group                 C1      NOp   1
 Largest Abelian subgroup         C1      NOp   1
 Largest concise Abelian subgroup C1      NOp   1
                         Standard orientation:                         
 ---------------------------------------------------------------------
 Center     Atomic      Atomic             Coordinates (Angstroms)
 Number     Number       Type             X           Y           Z
 ---------------------------------------------------------------------
      1          6           0        3.742730    1.620031    0.215552
      2          1           0        4.629996    1.806369    0.531949
      3          1           0        3.595625    2.081391   -0.613271
      4          6           0        4.819907   -0.592577   -0.117840
      5          1           0        5.333755   -0.269411   -0.862004
      6          7           0        3.594342    0.196804    0.008062
      7          1           0        3.101574    1.916764    0.865760
      8          1           0        4.593468   -1.514526   -0.260824
      9          1           0        5.336693   -0.512083    0.687426
     10          6           0        2.409414   -0.377616   -0.064435
     11          1           0        2.410040   -1.300761   -0.179936
     12          6           0        1.178301    0.218710    0.009146
     13          6           0        0.007897   -0.580698   -0.037774
     14          1           0        1.110591    1.143276    0.089477
     15          8           0        0.070911   -1.845075   -0.078256
     16          6           0       -1.343812    0.048855   -0.017358
     17          6           0       -2.485554   -0.770098    0.057276
     18          6           0       -1.542399    1.433959   -0.087856
     19          8           0       -2.382990   -2.110378    0.150500
     20          6           0       -3.761331   -0.205929    0.040851
     21          6           0       -2.808792    1.978358   -0.091589
     22          1           0       -0.804511    1.997805   -0.133361
     23          1           0       -1.594443   -2.328358    0.094081
     24          1           0       -4.511193   -0.754972    0.079350
     25          6           0       -3.913192    1.155971   -0.032185
     26          1           0       -2.917891    2.900975   -0.134187
     27          1           0       -4.766478    1.525727   -0.041566
 ---------------------------------------------------------------------
 Rotational constants (GHZ):      1.6536362      0.3227340      0.2712868
 Standard basis: 6-311++G(d,p) (5D, 7F)
 There are   413 symmetry adapted cartesian basis functions of A   symmetry.
 There are   399 symmetry adapted basis functions of A   symmetry.
   399 basis functions,   621 primitive gaussians,   413 cartesian basis functions
    51 alpha electrons       51 beta electrons
       nuclear repulsion energy       849.1708430283 Hartrees.
 NAtoms=   27 NActive=   27 NUniq=   27 SFac= 1.00D+00 NAtFMM=   60 NAOKFM=F Big=F
 Integral buffers will be    131072 words long.
 Raffenetti 2 integral format.
 Two-electron integral symmetry is turned on.
 Nuclear repulsion after empirical dispersion term =      849.1558372596 Hartrees.
 One-electron integrals computed using PRISM.
 NBasis=   399 RedAO= T EigKep=  1.15D-06  NBF=   399
 NBsUse=   397 1.00D-06 EigRej=  6.60D-07 NBFU=   397
 ExpMin= 3.60D-02 ExpMax= 8.59D+03 ExpMxC= 1.30D+03 IAcc=3 IRadAn=         5 AccDes= 0.00D+00
 Harris functional with IExCor= 4639 and IRadAn=       5 diagonalized for initial guess.
 HarFok:  IExCor= 4639 AccDes= 0.00D+00 IRadAn=         5 IDoV= 1 UseB2=F ITyADJ=14
 ICtDFT=  3500011 ScaDFX=  1.000000  1.000000  1.000000  1.000000
 FoFCou: FMM=F IPFlag=           0 FMFlag=      100000 FMFlg1=           0
         NFxFlg=           0 DoJE=T BraDBF=F KetDBF=T FulRan=T
         wScrn=  0.000000 ICntrl=     500 IOpCl=  0 I1Cent=   200000004 NGrid=           0
         NMat0=    1 NMatS0=      1 NMatT0=    0 NMatD0=    1 NMtDS0=    0 NMtDT0=    0
 Petite list used in FoFCou.
 Requested convergence on RMS density matrix=1.00D-08 within 128 cycles.
 Requested convergence on MAX density matrix=1.00D-06.
 Requested convergence on             energy=1.00D-06.
 No special actions if energy rises.
 SCF Done:  E(RwB97XD) =  -631.909066244     A.U. after   18 cycles
            NFock= 18  Conv=0.30D-08     -V/T= 1.9983

 **********************************************************************

            Population analysis using the SCF density.

 **********************************************************************

 Orbital symmetries:
       Occupied  (A) (A) (A) (A) (A) (A) (A) (A) (A) (A) (A) (A)
                 (A) (A) (A) (A) (A) (A) (A) (A) (A) (A) (A) (A)
                 (A) (A) (A) (A) (A) (A) (A) (A) (A) (A) (A) (A)
                 (A) (A) (A) (A) (A) (A) (A) (A) (A) (A) (A) (A)
                 (A) (A) (A)
       Virtual   (A) (A) (A) (A) (A) (A) (A) (A) (A) (A) (A) (A)
                 (A) (A) (A) (A) (A) (A) (A) (A) (A) (A) (A) (A)
                 (A) (A) (A) (A) (A) (A) (A) (A) (A) (A) (A) (A)
                 (A) (A) (A) (A) (A) (A) (A) (A) (A) (A) (A) (A)
                 (A) (A) (A) (A) (A) (A) (A) (A) (A) (A) (A) (A)
                 (A) (A) (A) (A) (A) (A) (A) (A) (A) (A) (A) (A)
                 (A) (A) (A) (A) (A) (A) (A) (A) (A) (A) (A) (A)
                 (A) (A) (A) (A) (A) (A) (A) (A) (A) (A) (A) (A)
                 (A) (A) (A) (A) (A) (A) (A) (A) (A) (A) (A) (A)
                 (A) (A) (A) (A) (A) (A) (A) (A) (A) (A) (A) (A)
                 (A) (A) (A) (A) (A) (A) (A) (A) (A) (A) (A) (A)
                 (A) (A) (A) (A) (A) (A) (A) (A) (A) (A) (A) (A)
                 (A) (A) (A) (A) (A) (A) (A) (A) (A) (A) (A) (A)
                 (A) (A) (A) (A) (A) (A) (A) (A) (A) (A) (A) (A)
                 (A) (A) (A) (A) (A) (A) (A) (A) (A) (A) (A) (A)
                 (A) (A) (A) (A) (A) (A) (A) (A) (A) (A) (A) (A)
                 (A) (A) (A) (A) (A) (A) (A) (A) (A) (A) (A) (A)
                 (A) (A) (A) (A) (A) (A) (A) (A) (A) (A) (A) (A)
                 (A) (A) (A) (A) (A) (A) (A) (A) (A) (A) (A) (A)
                 (A) (A) (A) (A) (A) (A) (A) (A) (A) (A) (A) (A)
                 (A) (A) (A) (A) (A) (A) (A) (A) (A) (A) (A) (A)
                 (A) (A) (A) (A) (A) (A) (A) (A) (A) (A) (A) (A)
                 (A) (A) (A) (A) (A) (A) (A) (A) (A) (A) (A) (A)
                 (A) (A) (A) (A) (A) (A) (A) (A) (A) (A) (A) (A)
                 (A) (A) (A) (A) (A) (A) (A) (A) (A) (A) (A) (A)
                 (A) (A) (A) (A) (A) (A) (A) (A) (A) (A) (A) (A)
                 (A) (A) (A) (A) (A) (A) (A) (A) (A) (A) (A) (A)
                 (A) (A) (A) (A) (A) (A) (A) (A) (A) (A) (A) (A)
                 (A) (A) (A) (A) (A) (A) (A) (A) (A) (A)
 The electronic state is 1-A.
 Alpha  occ. eigenvalues --  -19.23673 -19.20143 -14.48868 -10.35872 -10.34520
 Alpha  occ. eigenvalues --  -10.32688 -10.29940 -10.29585 -10.28497 -10.27207
 Alpha  occ. eigenvalues --  -10.26638 -10.25688 -10.25581 -10.24780  -1.18123
 Alpha  occ. eigenvalues --   -1.10313  -1.09479  -0.96139  -0.90640  -0.89043
 Alpha  occ. eigenvalues --   -0.87158  -0.85229  -0.82334  -0.75030  -0.72353
 Alpha  occ. eigenvalues --   -0.71357  -0.67527  -0.65326  -0.63169  -0.61135
 Alpha  occ. eigenvalues --   -0.60928  -0.59328  -0.55695  -0.55411  -0.55023
 Alpha  occ. eigenvalues --   -0.54027  -0.52973  -0.52062  -0.50797  -0.50350
 Alpha  occ. eigenvalues --   -0.47852  -0.47545  -0.46212  -0.45652  -0.42700
 Alpha  occ. eigenvalues --   -0.42266  -0.42019  -0.32996  -0.32461  -0.29776
 Alpha  occ. eigenvalues --   -0.28514
 Alpha virt. eigenvalues --    0.00992   0.02683   0.04195   0.04984   0.05452
 Alpha virt. eigenvalues --    0.05978   0.06307   0.06597   0.07856   0.08040
 Alpha virt. eigenvalues --    0.08240   0.08479   0.08824   0.10221   0.10503
 Alpha virt. eigenvalues --    0.12160   0.12403   0.13230   0.13558   0.13819
 Alpha virt. eigenvalues --    0.14182   0.14959   0.15678   0.15694   0.16291
 Alpha virt. eigenvalues --    0.16547   0.17035   0.17094   0.17229   0.18032
 Alpha virt. eigenvalues --    0.18122   0.18478   0.18794   0.19138   0.19534
 Alpha virt. eigenvalues --    0.19908   0.20419   0.21020   0.21408   0.22057
 Alpha virt. eigenvalues --    0.22414   0.22691   0.23198   0.23801   0.24197
 Alpha virt. eigenvalues --    0.24740   0.25179   0.25332   0.26144   0.26433
 Alpha virt. eigenvalues --    0.27371   0.27478   0.28000   0.28694   0.28867
 Alpha virt. eigenvalues --    0.29079   0.29413   0.29581   0.30667   0.31226
 Alpha virt. eigenvalues --    0.31288   0.32785   0.32902   0.33353   0.34712
 Alpha virt. eigenvalues --    0.35171   0.35461   0.36212   0.37103   0.37303
 Alpha virt. eigenvalues --    0.37732   0.38004   0.38731   0.39237   0.39389
 Alpha virt. eigenvalues --    0.39603   0.40490   0.40902   0.41643   0.41962
 Alpha virt. eigenvalues --    0.42406   0.42638   0.43443   0.43849   0.44287
 Alpha virt. eigenvalues --    0.44757   0.46001   0.46803   0.48044   0.48681
 Alpha virt. eigenvalues --    0.50022   0.50393   0.51184   0.52411   0.53110
 Alpha virt. eigenvalues --    0.54157   0.56045   0.57932   0.58476   0.61105
 Alpha virt. eigenvalues --    0.62338   0.63033   0.64139   0.64840   0.65401
 Alpha virt. eigenvalues --    0.66043   0.66771   0.67335   0.67794   0.68403
 Alpha virt. eigenvalues --    0.68884   0.70606   0.70771   0.71558   0.72559
 Alpha virt. eigenvalues --    0.74185   0.74748   0.75688   0.75819   0.76381
 Alpha virt. eigenvalues --    0.76734   0.77148   0.78890   0.80218   0.80902
 Alpha virt. eigenvalues --    0.81588   0.82859   0.83899   0.84768   0.86119
 Alpha virt. eigenvalues --    0.87516   0.88271   0.90882   0.91081   0.91486
 Alpha virt. eigenvalues --    0.92544   0.94136   0.95058   0.96334   0.96924
 Alpha virt. eigenvalues --    0.97430   0.98599   1.00057   1.00322   1.01406
 Alpha virt. eigenvalues --    1.02056   1.03037   1.05053   1.06461   1.07421
 Alpha virt. eigenvalues --    1.08696   1.08950   1.09474   1.11033   1.12138
 Alpha virt. eigenvalues --    1.13816   1.14630   1.16284   1.17530   1.17856
 Alpha virt. eigenvalues --    1.19353   1.19636   1.20913   1.22206   1.23312
 Alpha virt. eigenvalues --    1.24116   1.25712   1.30360   1.33549   1.34374
 Alpha virt. eigenvalues --    1.34747   1.36514   1.39220   1.40176   1.44818
 Alpha virt. eigenvalues --    1.45285   1.47003   1.49579   1.53646   1.55825
 Alpha virt. eigenvalues --    1.57009   1.58233   1.60820   1.61182   1.61820
 Alpha virt. eigenvalues --    1.62752   1.63697   1.65116   1.65581   1.67035
 Alpha virt. eigenvalues --    1.68180   1.69283   1.70564   1.70989   1.71835
 Alpha virt. eigenvalues --    1.73699   1.74918   1.75921   1.75987   1.77709
 Alpha virt. eigenvalues --    1.79119   1.79705   1.80440   1.82498   1.85248
 Alpha virt. eigenvalues --    1.86493   1.87791   1.89984   1.90399   1.92279
 Alpha virt. eigenvalues --    1.93127   1.93830   1.94751   1.96094   1.99068
 Alpha virt. eigenvalues --    2.01957   2.02561   2.03934   2.04537   2.06162
 Alpha virt. eigenvalues --    2.07427   2.08589   2.08896   2.10891   2.11723
 Alpha virt. eigenvalues --    2.13883   2.15116   2.15749   2.17213   2.20290
 Alpha virt. eigenvalues --    2.22881   2.24359   2.26546   2.27366   2.30425
 Alpha virt. eigenvalues --    2.32661   2.35420   2.37626   2.40166   2.41446
 Alpha virt. eigenvalues --    2.44670   2.45682   2.47561   2.48799   2.49832
 Alpha virt. eigenvalues --    2.52161   2.54600   2.58616   2.60033   2.63309
 Alpha virt. eigenvalues --    2.65134   2.66194   2.67421   2.68140   2.71465
 Alpha virt. eigenvalues --    2.73544   2.75843   2.77228   2.78046   2.81129
 Alpha virt. eigenvalues --    2.82419   2.82640   2.84523   2.87801   2.88392
 Alpha virt. eigenvalues --    2.88779   2.92213   2.92781   2.95764   2.96814
 Alpha virt. eigenvalues --    2.97420   2.98742   2.99290   3.00622   3.02296
 Alpha virt. eigenvalues --    3.04264   3.05447   3.06898   3.07941   3.08704
 Alpha virt. eigenvalues --    3.09906   3.11891   3.12377   3.13085   3.16657
 Alpha virt. eigenvalues --    3.20959   3.21280   3.21952   3.26821   3.27813
 Alpha virt. eigenvalues --    3.31553   3.33409   3.34272   3.38228   3.40270
 Alpha virt. eigenvalues --    3.43793   3.44820   3.53277   3.55392   3.60855
 Alpha virt. eigenvalues --    3.69057   3.72958   3.74960   3.78332   3.81239
 Alpha virt. eigenvalues --    3.83293   3.86531   3.92902   3.98665   4.00777
 Alpha virt. eigenvalues --    4.02062   4.19253   4.21960   4.24570   4.26827
 Alpha virt. eigenvalues --    4.27791   4.30939   4.35341   4.44888   4.47841
 Alpha virt. eigenvalues --    4.53125   4.60164   4.74187   4.97920   5.07377
 Alpha virt. eigenvalues --    5.15260   5.21320   5.26866   5.47492   5.70918
 Alpha virt. eigenvalues --    5.93419   6.27838  23.85986  24.01412  24.14666
 Alpha virt. eigenvalues --   24.20364  24.22362  24.32568  24.39391  24.40389
 Alpha virt. eigenvalues --   24.40953  24.41568  24.50583  35.72602  50.19682
 Alpha virt. eigenvalues --   50.24658
          Condensed to atoms (all electrons):
               1          2          3          4          5          6
     1  C    5.009833   0.416351   0.425306  -0.053767   0.018558   0.250278
     2  H    0.416351   0.517119  -0.025677   0.008258  -0.002393  -0.053943
     3  H    0.425306  -0.025677   0.502323  -0.002577  -0.001919  -0.044575
     4  C   -0.053767   0.008258  -0.002577   4.881367   0.425237   0.284615
     5  H    0.018558  -0.002393  -0.001919   0.425237   0.560368  -0.050843
     6  N    0.250278  -0.053943  -0.044575   0.284615  -0.050843   6.859661
     7  H    0.423525  -0.029027  -0.041453   0.006108   0.003042  -0.041953
     8  H    0.000015   0.004266  -0.002225   0.425073  -0.028854  -0.062736
     9  H   -0.006754  -0.005713   0.005229   0.427002  -0.069420  -0.041730
    10  C   -0.062669   0.041757  -0.034562   0.090716  -0.022202   0.216369
    11  H    0.013581  -0.000774  -0.002834  -0.019460   0.006125  -0.063354
    12  C    0.535367   0.024536  -0.019157  -0.109747   0.022226  -0.258034
    13  C   -0.390909  -0.034015   0.034856  -0.148105  -0.013423   0.059169
    14  H    0.041332   0.003022  -0.001950  -0.005839   0.000581  -0.026523
    15  O   -0.003889  -0.000260   0.000221  -0.000338  -0.000244   0.003611
    16  C   -0.288710  -0.012967   0.015694   0.008364  -0.004821   0.017501
    17  C   -0.031320  -0.000866   0.000157  -0.007016  -0.000985   0.003533
    18  C   -0.002078  -0.003579   0.005498  -0.011612   0.000374   0.003128
    19  O   -0.000300  -0.000031   0.000054   0.000203  -0.000004  -0.000062
    20  C   -0.005372  -0.000062   0.000124  -0.000915  -0.000087   0.002127
    21  C    0.026568   0.000955  -0.001252   0.000702   0.000224  -0.003784
    22  H   -0.006475  -0.000303  -0.001309  -0.001607  -0.000079  -0.003753
    23  H   -0.000753  -0.000099   0.000074  -0.000032  -0.000006   0.000224
    24  H    0.000053   0.000008  -0.000015   0.000020   0.000001   0.000012
    25  C   -0.003878  -0.000285   0.000565  -0.000683  -0.000046   0.000030
    26  H    0.000363   0.000013   0.000031   0.000118   0.000006   0.000146
    27  H   -0.000131  -0.000011   0.000019  -0.000007  -0.000001  -0.000021
               7          8          9         10         11         12
     1  C    0.423525   0.000015  -0.006754  -0.062669   0.013581   0.535367
     2  H   -0.029027   0.004266  -0.005713   0.041757  -0.000774   0.024536
     3  H   -0.041453  -0.002225   0.005229  -0.034562  -0.002834  -0.019157
     4  C    0.006108   0.425073   0.427002   0.090716  -0.019460  -0.109747
     5  H    0.003042  -0.028854  -0.069420  -0.022202   0.006125   0.022226
     6  N   -0.041953  -0.062736  -0.041730   0.216369  -0.063354  -0.258034
     7  H    0.540658  -0.003162  -0.003819   0.076198   0.004567  -0.062062
     8  H   -0.003162   0.517887  -0.022041   0.070687  -0.011024  -0.053863
     9  H   -0.003819  -0.022041   0.552432  -0.064689   0.001860   0.050309
    10  C    0.076198   0.070687  -0.064689  17.098350   0.349427  -6.012029
    11  H    0.004567  -0.011024   0.001860   0.349427   0.495322   0.031763
    12  C   -0.062062  -0.053863   0.050309  -6.012029   0.031763  27.983334
    13  C   -0.015248   0.008195   0.007888  -4.364829   0.084369   0.225232
    14  H   -0.011257   0.000794   0.001648  -0.213432   0.002125   1.098668
    15  O    0.001255   0.001736   0.000114   0.205348   0.013074  -0.382466
    16  C    0.001821   0.020359  -0.000990   1.461752  -0.085670 -11.888018
    17  C   -0.002394   0.005318   0.000154  -1.397830  -0.070869  -2.678958
    18  C   -0.001573  -0.005919   0.001270  -0.956895   0.053850  -1.301711
    19  O    0.000132  -0.000062   0.000017   0.021113   0.000091  -0.070522
    20  C   -0.000956   0.000953  -0.000180   0.078266  -0.005710  -1.198047
    21  C   -0.000702  -0.001576   0.000460  -0.527193   0.005676   0.956652
    22  H    0.000901   0.000199  -0.000185  -0.081808   0.002764  -0.328934
    23  H    0.000009   0.000033   0.000055  -0.022922  -0.000195   0.007697
    24  H   -0.000048   0.000011  -0.000002   0.002983  -0.000412   0.001395
    25  C    0.000649  -0.000006   0.000051  -0.174333   0.000194  -0.505593
    26  H   -0.000256  -0.000006   0.000006   0.005753  -0.000339   0.028499
    27  H    0.000066  -0.000002   0.000001  -0.002203   0.000110  -0.010695
              13         14         15         16         17         18
     1  C   -0.390909   0.041332  -0.003889  -0.288710  -0.031320  -0.002078
     2  H   -0.034015   0.003022  -0.000260  -0.012967  -0.000866  -0.003579
     3  H    0.034856  -0.001950   0.000221   0.015694   0.000157   0.005498
     4  C   -0.148105  -0.005839  -0.000338   0.008364  -0.007016  -0.011612
     5  H   -0.013423   0.000581  -0.000244  -0.004821  -0.000985   0.000374
     6  N    0.059169  -0.026523   0.003611   0.017501   0.003533   0.003128
     7  H   -0.015248  -0.011257   0.001255   0.001821  -0.002394  -0.001573
     8  H    0.008195   0.000794   0.001736   0.020359   0.005318  -0.005919
     9  H    0.007888   0.001648   0.000114  -0.000990   0.000154   0.001270
    10  C   -4.364829  -0.213432   0.205348   1.461752  -1.397830  -0.956895
    11  H    0.084369   0.002125   0.013074  -0.085670  -0.070869   0.053850
    12  C    0.225232   1.098668  -0.382466 -11.888018  -2.678958  -1.301711
    13  C   21.088920  -0.104733   1.003948  -5.320854  -0.646350  -2.249147
    14  H   -0.104733   0.764630  -0.012932  -0.377452   0.094605  -0.249844
    15  O    1.003948  -0.012932   8.142323  -0.230358  -0.077271  -0.238384
    16  C   -5.320854  -0.377452  -0.230358  25.151747  -0.445942  -0.461400
    17  C   -0.646350   0.094605  -0.077271  -0.445942  18.143159  -6.537605
    18  C   -2.249147  -0.249844  -0.238384  -0.461400  -6.537605  17.991773
    19  O   -0.112280  -0.002504  -0.000173   0.278743   0.337647  -0.020005
    20  C   -3.982829  -0.021250  -0.092808   0.255637  -2.404113   3.809481
    21  C    2.328482   0.000208   0.006275  -3.848552   1.965646  -3.366149
    22  H   -0.049181  -0.066504  -0.003441   0.139309  -0.060497   0.909903
    23  H    0.019049  -0.000501   0.052360  -0.189499   0.072625   0.024018
    24  H   -0.041095   0.001474   0.001550  -0.095771  -0.142881   0.061230
    25  C   -0.645371  -0.024675  -0.031421  -0.046406  -0.466514   0.099971
    26  H    0.023464   0.008277   0.001089  -0.002259   0.052215  -0.134710
    27  H    0.002005  -0.002190  -0.000654   0.116312   0.035515  -0.071717
              19         20         21         22         23         24
     1  C   -0.000300  -0.005372   0.026568  -0.006475  -0.000753   0.000053
     2  H   -0.000031  -0.000062   0.000955  -0.000303  -0.000099   0.000008
     3  H    0.000054   0.000124  -0.001252  -0.001309   0.000074  -0.000015
     4  C    0.000203  -0.000915   0.000702  -0.001607  -0.000032   0.000020
     5  H   -0.000004  -0.000087   0.000224  -0.000079  -0.000006   0.000001
     6  N   -0.000062   0.002127  -0.003784  -0.003753   0.000224   0.000012
     7  H    0.000132  -0.000956  -0.000702   0.000901   0.000009  -0.000048
     8  H   -0.000062   0.000953  -0.001576   0.000199   0.000033   0.000011
     9  H    0.000017  -0.000180   0.000460  -0.000185   0.000055  -0.000002
    10  C    0.021113   0.078266  -0.527193  -0.081808  -0.022922   0.002983
    11  H    0.000091  -0.005710   0.005676   0.002764  -0.000195  -0.000412
    12  C   -0.070522  -1.198047   0.956652  -0.328934   0.007697   0.001395
    13  C   -0.112280  -3.982829   2.328482  -0.049181   0.019049  -0.041095
    14  H   -0.002504  -0.021250   0.000208  -0.066504  -0.000501   0.001474
    15  O   -0.000173  -0.092808   0.006275  -0.003441   0.052360   0.001550
    16  C    0.278743   0.255637  -3.848552   0.139309  -0.189499  -0.095771
    17  C    0.337647  -2.404113   1.965646  -0.060497   0.072625  -0.142881
    18  C   -0.020005   3.809481  -3.366149   0.909903   0.024018   0.061230
    19  O    8.035378  -0.450199  -0.001501  -0.002717   0.286160  -0.041447
    20  C   -0.450199  10.732981  -1.746079   0.121465   0.088474   0.653743
    21  C   -0.001501  -1.746079  10.114790  -0.267061   0.012673  -0.018912
    22  H   -0.002717   0.121465  -0.267061   0.623229   0.001385  -0.000712
    23  H    0.286160   0.088474   0.012673   0.001385   0.317588   0.004023
    24  H   -0.041447   0.653743  -0.018912  -0.000712   0.004023   0.497821
    25  C    0.013659   0.695932   0.536018   0.049123  -0.006183  -0.068860
    26  H    0.000342   0.004858   0.449014  -0.031899   0.000594   0.001950
    27  H    0.001957  -0.151378  -0.061547   0.002064  -0.001077  -0.021591
              25         26         27
     1  C   -0.003878   0.000363  -0.000131
     2  H   -0.000285   0.000013  -0.000011
     3  H    0.000565   0.000031   0.000019
     4  C   -0.000683   0.000118  -0.000007
     5  H   -0.000046   0.000006  -0.000001
     6  N    0.000030   0.000146  -0.000021
     7  H    0.000649  -0.000256   0.000066
     8  H   -0.000006  -0.000006  -0.000002
     9  H    0.000051   0.000006   0.000001
    10  C   -0.174333   0.005753  -0.002203
    11  H    0.000194  -0.000339   0.000110
    12  C   -0.505593   0.028499  -0.010695
    13  C   -0.645371   0.023464   0.002005
    14  H   -0.024675   0.008277  -0.002190
    15  O   -0.031421   0.001089  -0.000654
    16  C   -0.046406  -0.002259   0.116312
    17  C   -0.466514   0.052215   0.035515
    18  C    0.099971  -0.134710  -0.071717
    19  O    0.013659   0.000342   0.001957
    20  C    0.695932   0.004858  -0.151378
    21  C    0.536018   0.449014  -0.061547
    22  H    0.049123  -0.031899   0.002064
    23  H   -0.006183   0.000594  -0.001077
    24  H   -0.068860   0.001950  -0.021591
    25  C    6.385950  -0.091804   0.494284
    26  H   -0.091804   0.506717  -0.016565
    27  H    0.494284  -0.016565   0.512442
 Mulliken charges:
               1
     1  C   -0.304125
     2  H    0.153719
     3  H    0.189352
     4  C   -0.196080
     5  H    0.158586
     6  N   -0.049094
     7  H    0.154981
     8  H    0.135950
     9  H    0.167024
    10  C    0.218879
    11  H    0.195745
    12  C   -0.085840
    13  C   -0.767210
    14  H    0.104220
    15  O   -0.358264
    16  C    1.832428
    17  C    0.260835
    18  C   -1.348170
    19  O   -0.273689
    20  C   -0.384057
    21  C   -0.560035
    22  H    0.056123
    23  H    0.334225
    24  H    0.205471
    25  C   -0.210370
    26  H    0.194381
    27  H    0.175014
 Sum of Mulliken charges =   0.00000
 Mulliken charges with hydrogens summed into heavy atoms:
               1
     1  C    0.193927
     4  C    0.265480
     6  N   -0.049094
    10  C    0.414624
    12  C    0.018380
    13  C   -0.767210
    15  O   -0.358264
    16  C    1.832428
    17  C    0.260835
    18  C   -1.292047
    19  O    0.060535
    20  C   -0.178586
    21  C   -0.365654
    25  C   -0.035355
 Electronic spatial extent (au):  <R**2>=           3898.0700
 Charge=              0.0000 electrons
 Dipole moment (field-independent basis, Debye):
    X=              6.3785    Y=              4.1967    Z=              0.0069  Tot=              7.6353
 Quadrupole moment (field-independent basis, Debye-Ang):
   XX=            -52.0145   YY=            -83.1823   ZZ=            -85.6102
   XY=             -3.2283   XZ=              0.3751   YZ=              0.4941
 Traceless Quadrupole moment (field-independent basis, Debye-Ang):
   XX=             21.5878   YY=             -9.5799   ZZ=            -12.0079
   XY=             -3.2283   XZ=              0.3751   YZ=              0.4941
 Octapole moment (field-independent basis, Debye-Ang**2):
  XXX=            118.1233  YYY=             16.9631  ZZZ=              0.7267  XYY=             23.0290
  XXY=             15.4920  XXZ=             -0.6338  XZZ=             13.9968  YZZ=             -6.1235
  YYZ=             -0.3164  XYZ=              2.0384
 Hexadecapole moment (field-independent basis, Debye-Ang**3):
 XXXX=          -3376.3789 YYYY=           -837.2890 ZZZZ=           -107.3592 XXXY=            -43.5148
 XXXZ=              2.1473 YYYX=            -10.9662 YYYZ=             -0.2360 ZZZX=             -1.9347
 ZZZY=              0.7251 XXYY=           -791.6130 XXZZ=           -740.0866 YYZZ=           -165.1062
 XXYZ=              9.7154 YYXZ=              4.8597 ZZXY=             16.7457
 N-N= 8.491558372596D+02 E-N=-3.174345361927D+03  KE= 6.329781396162D+02
 Calling FoFJK, ICntrl=      2127 FMM=F ISym2X=0 I1Cent= 0 IOpClX= 0 NMat=1 NMatS=1 NMatT=0.
 ***** Axes restored to original set *****
 -------------------------------------------------------------------
 Center     Atomic                   Forces (Hartrees/Bohr)
 Number     Number              X              Y              Z
 -------------------------------------------------------------------
      1        6          -0.001618372   -0.035528226   -0.111262273
      2        1           0.117002165    0.024567161    0.035342349
      3        1          -0.071891228    0.105867255    0.011483740
      4        6          -0.100202482   -0.026571524    0.067767355
      5        1           0.014516432    0.125820494   -0.005073039
      6        7           0.015582122    0.003443344   -0.001233185
      7        1          -0.047217093   -0.091050571    0.073775592
      8        1          -0.015930790   -0.044245787   -0.115339097
      9        1           0.102166965   -0.053869122    0.052601598
     10        6          -0.036627530    0.033470904    0.144096787
     11        1           0.020957531   -0.047185029   -0.160152471
     12        6           0.041457122   -0.031410736   -0.132407067
     13        6          -0.002438617   -0.021193779   -0.037849689
     14        1          -0.032833552    0.045622483    0.153682785
     15        8           0.000009238    0.014196888    0.026637962
     16        6           0.000239172    0.001667939    0.001356202
     17        6           0.005944498   -0.002242702   -0.009039420
     18        6          -0.091494704   -0.100164754   -0.086859368
     19        8          -0.234296007   -0.094283754    0.079815211
     20        6           0.100218917    0.093710441    0.072873621
     21        6           0.050746708   -0.052189038   -0.132578701
     22        1           0.099480201    0.103201800    0.084741899
     23        1           0.222020599    0.091984608   -0.074517115
     24        1          -0.099379864   -0.101697625   -0.085161708
     25        6           0.139437353    0.034428644   -0.062011980
     26        1          -0.046417207    0.062783337    0.146619339
     27        1          -0.149431575   -0.039132652    0.062690675
 -------------------------------------------------------------------
 Cartesian Forces:  Max     0.234296007 RMS     0.083732509

 GradGradGradGradGradGradGradGradGradGradGradGradGradGradGradGradGradGrad
 Berny optimization.
 FormGI is forming the generalized inverse of G from B-inverse, IUseBI=4.
 GSVD:  received Info=                   1 from GESDD.
 Internal  Forces:  Max     0.251608929 RMS     0.051469704
 Search for a local minimum.
 Step number   1 out of a maximum of  134
 All quantities printed in internal units (Hartrees-Bohrs-Radians)
 Mixed Optimization -- RFO/linear search
 Second derivative matrix not updated -- first step.
 ITU=  0
     Eigenvalues ---    0.00856   0.00881   0.01085   0.01384   0.01448
     Eigenvalues ---    0.01683   0.01849   0.02055   0.02130   0.02168
     Eigenvalues ---    0.02222   0.02253   0.02298   0.02375   0.02386
     Eigenvalues ---    0.02387   0.02420   0.02487   0.02626   0.02766
     Eigenvalues ---    0.07584   0.07588   0.07715   0.07717   0.16000
     Eigenvalues ---    0.16000   0.16000   0.16000   0.16000   0.16000
     Eigenvalues ---    0.16000   0.16000   0.16000   0.16000   0.16000
     Eigenvalues ---    0.16000   0.16000   0.22000   0.22000   0.22000
     Eigenvalues ---    0.22479   0.24470   0.24997   0.24998   0.25000
     Eigenvalues ---    0.25000   0.25000   0.25000   0.33311   0.36565
     Eigenvalues ---    0.38786   0.42097   0.42662   0.42743   0.45580
     Eigenvalues ---    0.48109   0.48519   0.49965   0.50994   0.55400
     Eigenvalues ---    0.55421   0.55429   0.55440   0.55461   0.55491
     Eigenvalues ---    0.55572   0.62228   0.62331   0.62375   0.62417
     Eigenvalues ---    0.62455   0.62460   0.62519   0.77395   1.00927
 RFO step:  Lambda=-3.33273832D-01 EMin= 8.55633663D-03
 Linear search not attempted -- first point.
 Maximum step size (   0.300) exceeded in Quadratic search.
    -- Step size scaled by   0.511
 Iteration  1 RMS(Cart)=  0.03582416 RMS(Int)=  0.00030228
 Iteration  2 RMS(Cart)=  0.00047794 RMS(Int)=  0.00000105
 Iteration  3 RMS(Cart)=  0.00000027 RMS(Int)=  0.00000101
 Variable       Old X    -DE/DX   Delta X   Delta X   Delta X     New X
                                 (Linear)    (Quad)   (Total)
    R1        1.81460   0.12466   0.00000   0.07174   0.07174   1.88634
    R2        1.81398   0.12848   0.00000   0.07388   0.07388   1.88786
    R3        2.73237   0.01010   0.00000   0.00715   0.00715   2.73952
    R4        1.81443   0.12634   0.00000   0.07269   0.07269   1.88712
    R5        1.81478   0.12676   0.00000   0.07297   0.07297   1.88775
    R6        2.76507   0.00072   0.00000   0.00053   0.00053   2.76559
    R7        1.81424   0.12455   0.00000   0.07165   0.07165   1.88589
    R8        1.81453   0.12690   0.00000   0.07303   0.07303   1.88756
    R9        2.49220   0.01697   0.00000   0.00907   0.00907   2.50126
   R10        1.75809   0.16825   0.00000   0.08979   0.08979   1.84788
   R11        2.58876  -0.00066   0.00000  -0.00040  -0.00040   2.58836
   R12        2.67988   0.01517   0.00000   0.01018   0.01018   2.69006
   R13        1.75842   0.16363   0.00000   0.08736   0.08736   1.84579
   R14        2.39352  -0.02935   0.00000  -0.01354  -0.01354   2.37997
   R15        2.81808   0.00219   0.00000   0.00168   0.00168   2.81976
   R16        2.65897   0.01225   0.00000   0.00788   0.00788   2.66685
   R17        2.64759   0.00240   0.00000   0.00143   0.00143   2.64901
   R18        2.54627  -0.00683   0.00000  -0.00392  -0.00392   2.54235
   R19        2.63626   0.00087   0.00000   0.00053   0.00053   2.63679
   R20        2.60490   0.00482   0.00000   0.00301   0.00301   2.60791
   R21        1.75701   0.16652   0.00000   0.08873   0.08873   1.84574
   R22        1.54970   0.25161   0.00000   0.09572   0.09572   1.64542
   R23        1.75777   0.16570   0.00000   0.08839   0.08839   1.84616
   R24        2.59324   0.01127   0.00000   0.00699   0.00699   2.60023
   R25        2.60450   0.01547   0.00000   0.00970   0.00970   2.61420
   R26        1.75749   0.16611   0.00000   0.08857   0.08857   1.84606
   R27        1.75745   0.16671   0.00000   0.08889   0.08889   1.84634
    A1        1.91010   0.00012   0.00000   0.00018   0.00018   1.91028
    A2        1.91041  -0.00224   0.00000  -0.00239  -0.00239   1.90802
    A3        1.91124  -0.00009   0.00000  -0.00030  -0.00030   1.91094
    A4        1.91076   0.00266   0.00000   0.00286   0.00286   1.91362
    A5        1.91117  -0.00047   0.00000  -0.00034  -0.00034   1.91083
    A6        1.91012   0.00002   0.00000  -0.00001  -0.00001   1.91011
    A7        1.91060   0.00045   0.00000   0.00050   0.00050   1.91109
    A8        1.91128   0.00012   0.00000   0.00004   0.00004   1.91132
    A9        1.91099   0.00074   0.00000   0.00092   0.00092   1.91191
   A10        1.91063  -0.00168   0.00000  -0.00181  -0.00181   1.90882
   A11        1.91071  -0.00023   0.00000  -0.00019  -0.00019   1.91052
   A12        1.90958   0.00059   0.00000   0.00055   0.00055   1.91013
   A13        2.04588   0.00185   0.00000   0.00162   0.00162   2.04750
   A14        2.12801  -0.00323   0.00000  -0.00283  -0.00283   2.12518
   A15        2.10930   0.00138   0.00000   0.00121   0.00121   2.11050
   A16        2.02462   0.00122   0.00000   0.00087   0.00087   2.02549
   A17        2.23305  -0.00699   0.00000  -0.00645  -0.00645   2.22660
   A18        2.02551   0.00577   0.00000   0.00558   0.00558   2.03109
   A19        2.08810  -0.00773   0.00000  -0.00714  -0.00714   2.08096
   A20        2.09734   0.00564   0.00000   0.00541   0.00541   2.10275
   A21        2.09775   0.00209   0.00000   0.00173   0.00173   2.09947
   A22        2.12083  -0.00213   0.00000  -0.00186  -0.00186   2.11897
   A23        2.10558  -0.01222   0.00000  -0.01070  -0.01070   2.09488
   A24        2.05664   0.01437   0.00000   0.01258   0.01258   2.06922
   A25        2.08348   0.01744   0.00000   0.01547   0.01548   2.09895
   A26        2.14736  -0.01870   0.00000  -0.01617  -0.01617   2.13119
   A27        2.05224   0.00126   0.00000   0.00070   0.00070   2.05294
   A28        2.11864   0.01564   0.00000   0.01382   0.01382   2.13246
   A29        2.10141  -0.00078   0.00000  -0.00094  -0.00094   2.10047
   A30        2.06313  -0.01486   0.00000  -0.01288  -0.01288   2.05025
   A31        2.11858   0.00292   0.00000   0.00255   0.00255   2.12113
   A32        2.08232  -0.00127   0.00000  -0.00108  -0.00108   2.08125
   A33        2.08228  -0.00165   0.00000  -0.00147  -0.00147   2.08081
   A34        1.91010   0.00069   0.00000   0.00071   0.00071   1.91081
   A35        2.09213  -0.00365   0.00000  -0.00383  -0.00383   2.08830
   A36        2.09807   0.00043   0.00000   0.00055   0.00055   2.09861
   A37        2.09299   0.00322   0.00000   0.00329   0.00329   2.09628
   A38        2.09485  -0.00375   0.00000  -0.00320  -0.00320   2.09166
   A39        2.09403   0.00109   0.00000   0.00079   0.00079   2.09482
   A40        2.09430   0.00266   0.00000   0.00241   0.00241   2.09671
   A41        2.10110  -0.00007   0.00000   0.00034   0.00035   2.10145
   A42        2.09053  -0.00067   0.00000  -0.00091  -0.00091   2.08962
   A43        2.09156   0.00075   0.00000   0.00056   0.00056   2.09212
    D1       -0.32985  -0.00073   0.00000  -0.00093  -0.00093  -0.33079
    D2        2.81002  -0.00030   0.00000  -0.00029  -0.00029   2.80973
    D3        1.76383  -0.00033   0.00000  -0.00043  -0.00043   1.76340
    D4       -1.37948   0.00011   0.00000   0.00021   0.00021  -1.37927
    D5       -2.42454   0.00074   0.00000   0.00090   0.00090  -2.42364
    D6        0.71534   0.00117   0.00000   0.00154   0.00154   0.71687
    D7       -1.03587  -0.00033   0.00000  -0.00036  -0.00036  -1.03623
    D8        2.10742  -0.00075   0.00000  -0.00099  -0.00099   2.10643
    D9       -3.13104   0.00028   0.00000   0.00040   0.00040  -3.13064
   D10        0.01225  -0.00015   0.00000  -0.00023  -0.00023   0.01202
   D11        1.05899   0.00072   0.00000   0.00095   0.00095   1.05994
   D12       -2.08091   0.00029   0.00000   0.00032   0.00032  -2.08059
   D13       -3.11787  -0.00026   0.00000  -0.00038  -0.00038  -3.11825
   D14        0.02407  -0.00014   0.00000  -0.00021  -0.00021   0.02386
   D15        0.02195   0.00019   0.00000   0.00028   0.00028   0.02223
   D16       -3.11930   0.00031   0.00000   0.00045   0.00045  -3.11885
   D17       -3.09839  -0.00052   0.00000  -0.00074  -0.00074  -3.09913
   D18        0.04320  -0.00047   0.00000  -0.00066  -0.00066   0.04253
   D19        0.04355  -0.00040   0.00000  -0.00057  -0.00057   0.04298
   D20       -3.09805  -0.00035   0.00000  -0.00050  -0.00050  -3.09855
   D21        0.06354  -0.00087   0.00000  -0.00124  -0.00124   0.06230
   D22       -3.09637   0.00031   0.00000   0.00044   0.00044  -3.09594
   D23       -3.07805  -0.00092   0.00000  -0.00132  -0.00132  -3.07936
   D24        0.04522   0.00026   0.00000   0.00036   0.00036   0.04559
   D25       -3.04181  -0.00036   0.00000  -0.00057  -0.00057  -3.04238
   D26        0.11557  -0.00062   0.00000  -0.00092  -0.00092   0.11465
   D27        0.08211   0.00062   0.00000   0.00092   0.00092   0.08304
   D28       -3.04369   0.00036   0.00000   0.00057   0.00057  -3.04312
   D29        0.03461  -0.00038   0.00000  -0.00065  -0.00066   0.03395
   D30       -3.11091  -0.00047   0.00000  -0.00078  -0.00078  -3.11169
   D31       -3.12192  -0.00033   0.00000  -0.00048  -0.00048  -3.12240
   D32        0.01575  -0.00042   0.00000  -0.00061  -0.00061   0.01514
   D33        3.12002   0.00055   0.00000   0.00069   0.00069   3.12071
   D34       -0.02121   0.00065   0.00000   0.00086   0.00086  -0.02036
   D35       -0.00604   0.00016   0.00000   0.00022   0.00022  -0.00583
   D36        3.13591   0.00025   0.00000   0.00038   0.00038   3.13629
   D37       -0.07779  -0.00005   0.00000  -0.00008  -0.00008  -0.07787
   D38        3.06764   0.00001   0.00000   0.00002   0.00002   3.06766
   D39        3.12765   0.00024   0.00000   0.00035   0.00035   3.12800
   D40       -0.01370   0.00042   0.00000   0.00057   0.00057  -0.01313
   D41       -0.01774   0.00022   0.00000   0.00028   0.00028  -0.01746
   D42        3.12409   0.00039   0.00000   0.00051   0.00051   3.12460
   D43       -0.00595   0.00019   0.00000   0.00025   0.00025  -0.00570
   D44        3.13561   0.00023   0.00000   0.00033   0.00033   3.13593
   D45        3.13529   0.00009   0.00000   0.00009   0.00009   3.13537
   D46       -0.00634   0.00013   0.00000   0.00016   0.00016  -0.00618
   D47        0.00140  -0.00006   0.00000  -0.00009  -0.00009   0.00130
   D48       -3.14012  -0.00020   0.00000  -0.00028  -0.00028  -3.14040
   D49       -3.13996   0.00011   0.00000   0.00014   0.00014  -3.13982
   D50        0.00171  -0.00002   0.00000  -0.00005  -0.00005   0.00166
   D51        0.00840  -0.00023   0.00000  -0.00031  -0.00031   0.00808
   D52       -3.13327  -0.00009   0.00000  -0.00013  -0.00013  -3.13340
   D53       -3.13316  -0.00027   0.00000  -0.00039  -0.00039  -3.13355
   D54        0.00835  -0.00013   0.00000  -0.00020  -0.00020   0.00815
         Item               Value     Threshold  Converged?
 Maximum Force            0.251609     0.000450     NO 
 RMS     Force            0.051470     0.000300     NO 
 Maximum Displacement     0.122759     0.001800     NO 
 RMS     Displacement     0.036014     0.001200     NO 
 Predicted change in Energy=-1.417481D-01
 GradGradGradGradGradGradGradGradGradGradGradGradGradGradGradGradGradGrad

                          Input orientation:                          
 ---------------------------------------------------------------------
 Center     Atomic      Atomic             Coordinates (Angstroms)
 Number     Number       Type             X           Y           Z
 ---------------------------------------------------------------------
      1          6           0        0.032830    0.183213    8.649168
      2          1           0        0.962391    0.390461    8.948140
      3          1           0       -0.532211    1.003423    8.726690
      4          6           0        1.247816    0.071159    6.480837
      5          1           0        1.361568    1.063165    6.450979
      6          7           0        0.060518   -0.260846    7.269440
      7          1           0       -0.348495   -0.539409    9.223325
      8          1           0        1.137698   -0.279777    5.553118
      9          1           0        2.053104   -0.345046    6.900349
     10          6           0       -0.942098   -0.940669    6.736007
     11          1           0       -0.826961   -1.215944    5.804786
     12          6           0       -2.119275   -1.301593    7.336061
     13          6           0       -3.060166   -2.082570    6.607218
     14          1           0       -2.312352   -1.027006    8.253317
     15          8           0       -2.805422   -2.504001    5.448055
     16          6           0       -4.372728   -2.436429    7.222425
     17          6           0       -5.259134   -3.308238    6.554730
     18          6           0       -4.781883   -1.913918    8.457176
     19          8           0       -4.950843   -3.878814    5.376015
     20          6           0       -6.501918   -3.612264    7.111506
     21          6           0       -6.008941   -2.230244    9.003794
     22          1           0       -4.184967   -1.311616    8.941857
     23          1           0       -4.184655   -3.573343    5.097105
     24          1           0       -7.112259   -4.208005    6.635058
     25          6           0       -6.867545   -3.076166    8.324869
     26          1           0       -6.269810   -1.857207    9.868148
     27          1           0       -7.739185   -3.294916    8.708272
 ---------------------------------------------------------------------
                    Distance matrix (angstroms):
                    1          2          3          4          5
     1  C    0.000000
     2  H    0.998208   0.000000
     3  H    0.999012   1.630521   0.000000
     4  C    2.488052   2.504198   3.013547   0.000000
     5  H    2.715123   2.616809   2.961221   0.998953   0.000000
     6  N    1.449692   2.013855   2.018238   1.463488   2.028698
     7  H    0.998623   1.630585   1.631174   3.231446   3.630215
     8  H    3.319732   3.464986   3.808774   0.997970   1.630879
     9  H    2.723772   2.433942   3.440603   0.998852   1.631935
    10  C    2.423589   3.208196   2.812530   2.425825   3.066507
    11  H    3.284417   3.957651   3.681032   2.533452   3.225145
    12  C    2.925826   3.867624   3.125016   3.735393   4.300200
    13  C    4.343957   5.270367   4.517308   4.818011   5.428792
    14  H    2.668559   3.635372   2.741464   4.125826   4.595097
    15  O    5.052121   5.901265   5.312153   4.911907   5.576229
    16  C    5.320438   6.279562   5.370751   6.199069   6.761984
    17  C    6.676960   7.623396   6.756600   7.332543   7.934332
    18  C    5.255121   6.208696   5.161709   6.648588   7.115465
    19  O    7.214610   8.121153   7.388340   7.432784   8.088586
    20  C    7.711873   8.666657   7.716916   8.603704   9.172259
    21  C    6.515637   7.447863   6.366157   8.020117   8.466864
    22  H    4.484417   5.421476   4.329934   6.122403   6.527488
    23  H    6.672035   7.552106   6.889196   6.686468   7.354642
    24  H    8.625065   9.575814   8.650488   9.392863   9.981225
    25  C    7.638318   8.585678   7.545924   8.897482   9.400203
    26  H    6.735912   7.629100   6.512002   8.468009   8.856836
    27  H    8.514992   9.452881   8.391456   9.851807  10.339823
                    6          7          8          9         10
     6  N    0.000000
     7  H    2.015578   0.000000
     8  H    2.026434   3.968198   0.000000
     9  H    2.028230   3.346890   1.630110   0.000000
    10  C    1.323611   2.588460   2.482248   3.058269   0.000000
    11  H    1.960878   3.517533   2.190806   3.202108   0.977857
    12  C    2.416421   2.697842   3.851087   4.302741   1.369700
    13  C    3.673674   4.071673   4.688630   5.408368   2.409717
    14  H    2.680583   2.243969   4.444353   4.620909   2.046285
    15  O    4.069742   4.914141   4.528400   5.511399   2.752237
    16  C    4.938526   4.878189   6.148376   6.765274   3.774007
    17  C    6.172204   6.237162   7.148026   7.897391   4.926972
    18  C    5.252829   4.704380   6.793042   7.183462   4.318981
    19  O    6.464401   6.865495   7.074939   7.991644   5.152894
    20  C    7.370380   7.194917   8.479256   9.160115   6.179808
    21  C    6.612476   5.911663   8.172266   8.542541   5.699014
    22  H    4.682439   3.923524   6.393670   6.634421   3.939490
    23  H    5.806304   6.398951   6.275585   7.251430   4.486775
    24  H    8.211652   8.118265   9.201270   9.949709   6.982591
    25  C    7.552351   7.052685   8.921116   9.437492   6.495826
    26  H    7.026714   6.100357   8.716591   8.964673   6.247790
    27  H    8.491830   7.904454   9.891669  10.385530   7.458733
                   11         12         13         14         15
    11  H    0.000000
    12  C    2.005546   0.000000
    13  C    2.526290   1.423521   0.000000
    14  H    2.870085   0.976747   2.093581   0.000000
    15  O    2.387605   2.341186   1.259428   3.208447   0.000000
    16  C    4.008958   2.525631   1.492151   2.700808   2.368418
    17  C    4.958253   3.807337   2.518031   4.095454   2.809311
    18  C    4.812874   2.953189   2.532804   2.631874   3.648206
    19  O    4.927588   4.301351   2.883923   4.834595   2.549143
    20  C    6.297222   4.959555   3.799990   5.053687   4.202309
    21  C    6.173764   4.332808   3.802716   3.959263   4.793825
    22  H    4.596365   2.616441   2.703717   2.015385   3.941013
    23  H    4.163202   3.799943   2.401525   4.466658   1.780152
    24  H    7.010475   5.819667   4.575774   5.981357   4.781365
    25  C    6.804403   5.164583   4.293447   4.995394   5.010417
    26  H    6.822517   4.893579   4.581077   4.354123   5.653101
    27  H    7.780179   6.118797   5.270429   5.899230   5.966286
                   16         17         18         19         20
    16  C    0.000000
    17  C    1.411235   0.000000
    18  C    1.401797   2.406491   0.000000
    19  O    2.413281   1.345351   3.658267   0.000000
    20  C    2.434818   1.395329   2.766536   2.342821   0.000000
    21  C    2.427545   2.778884   1.380044   4.122879   2.394527
    22  H    2.063227   3.292220   0.976726   4.460079   3.743184
    23  H    2.417630   1.830152   3.794792   0.870716   3.070673
    24  H    3.314893   2.061578   3.743474   2.522950   0.976948
    25  C    2.801563   2.402964   2.391298   3.607455   1.375985
    26  H    3.306700   3.755755   2.051337   5.099591   3.276152
    27  H    3.778594   3.284596   3.273505   4.384030   2.044798
                   21         22         23         24         25
    21  C    0.000000
    22  H    2.043182   0.000000
    23  H    4.515988   4.460665   0.000000
    24  H    3.277157   4.720110   3.367337   0.000000
    25  C    1.383374   3.269639   4.226529   2.048513   0.000000
    26  H    0.976892   2.345689   5.482321   4.085198   2.055446
    27  H    2.052950   4.076825   5.074714   2.350528   0.977039
                   26         27
    26  H    0.000000
    27  H    2.360378   0.000000
 Stoichiometry    C11H13NO2
 Framework group  C1[X(C11H13NO2)]
 Deg. of freedom    75
 Full point group                 C1      NOp   1
 Largest Abelian subgroup         C1      NOp   1
 Largest concise Abelian subgroup C1      NOp   1
                         Standard orientation:                         
 ---------------------------------------------------------------------
 Center     Atomic      Atomic             Coordinates (Angstroms)
 Number     Number       Type             X           Y           Z
 ---------------------------------------------------------------------
      1          6           0        3.729508    1.622082    0.215506
      2          1           0        4.650293    1.822108    0.544996
      3          1           0        3.572889    2.102479   -0.646302
      4          6           0        4.825496   -0.586741   -0.116638
      5          1           0        5.357484   -0.247849   -0.891265
      6          7           0        3.593798    0.193634    0.008800
      7          1           0        3.060406    1.925070    0.892078
      8          1           0        4.595565   -1.546522   -0.264613
      9          1           0        5.362050   -0.498756    0.721260
     10          6           0        2.408211   -0.390386   -0.063659
     11          1           0        2.414125   -1.360743   -0.184396
     12          6           0        1.177410    0.206063    0.010209
     13          6           0        0.008173   -0.604522   -0.037197
     14          1           0        1.101253    1.176191    0.094394
     15          8           0        0.081933   -1.861105   -0.078675
     16          6           0       -1.341965    0.030487   -0.016998
     17          6           0       -2.502730   -0.768714    0.057074
     18          6           0       -1.512949    1.420004   -0.087986
     19          8           0       -2.444718   -2.109577    0.150288
     20          6           0       -3.767101   -0.178779    0.040139
     21          6           0       -2.768228    1.993391   -0.092867
     22          1           0       -0.725493    1.995891   -0.135538
     23          1           0       -1.615662   -2.369143    0.091643
     24          1           0       -4.564009   -0.742463    0.080424
     25          6           0       -3.892487    1.189504   -0.033442
     26          1           0       -2.861748    2.964737   -0.138235
     27          1           0       -4.781491    1.594682   -0.043807
 ---------------------------------------------------------------------
 Rotational constants (GHZ):      1.6336931      0.3226052      0.2707138
 Standard basis: 6-311++G(d,p) (5D, 7F)
 There are   413 symmetry adapted cartesian basis functions of A   symmetry.
 There are   399 symmetry adapted basis functions of A   symmetry.
   399 basis functions,   621 primitive gaussians,   413 cartesian basis functions
    51 alpha electrons       51 beta electrons
       nuclear repulsion energy       844.8874626829 Hartrees.
 NAtoms=   27 NActive=   27 NUniq=   27 SFac= 1.00D+00 NAtFMM=   60 NAOKFM=F Big=F
 Integral buffers will be    131072 words long.
 Raffenetti 2 integral format.
 Two-electron integral symmetry is turned on.
 Nuclear repulsion after empirical dispersion term =      844.8725074227 Hartrees.
 One-electron integrals computed using PRISM.
 NBasis=   399 RedAO= T EigKep=  1.17D-06  NBF=   399
 NBsUse=   397 1.00D-06 EigRej=  6.59D-07 NBFU=   397
 Initial guess from the checkpoint file:  "1_opt.chk"
 B after Tr=     0.000000    0.000000    0.000000
         Rot=    0.999998    0.000123    0.000218    0.001876 Ang=   0.22 deg.
 ExpMin= 3.60D-02 ExpMax= 8.59D+03 ExpMxC= 1.30D+03 IAcc=3 IRadAn=         5 AccDes= 0.00D+00
 Harris functional with IExCor= 4639 and IRadAn=       5 diagonalized for initial guess.
 HarFok:  IExCor= 4639 AccDes= 0.00D+00 IRadAn=         5 IDoV= 1 UseB2=F ITyADJ=14
 ICtDFT=  3500011 ScaDFX=  1.000000  1.000000  1.000000  1.000000
 FoFCou: FMM=F IPFlag=           0 FMFlag=      100000 FMFlg1=           0
         NFxFlg=           0 DoJE=T BraDBF=F KetDBF=T FulRan=T
         wScrn=  0.000000 ICntrl=     500 IOpCl=  0 I1Cent=   200000004 NGrid=           0
         NMat0=    1 NMatS0=      1 NMatT0=    0 NMatD0=    1 NMtDS0=    0 NMtDT0=    0
 Petite list used in FoFCou.
 Requested convergence on RMS density matrix=1.00D-08 within 128 cycles.
 Requested convergence on MAX density matrix=1.00D-06.
 Requested convergence on             energy=1.00D-06.
 No special actions if energy rises.
 SCF Done:  E(RwB97XD) =  -632.044097691     A.U. after   15 cycles
            NFock= 15  Conv=0.62D-08     -V/T= 2.0004
 Calling FoFJK, ICntrl=      2127 FMM=F ISym2X=0 I1Cent= 0 IOpClX= 0 NMat=1 NMatS=1 NMatT=0.
 ***** Axes restored to original set *****
 -------------------------------------------------------------------
 Center     Atomic                   Forces (Hartrees/Bohr)
 Number     Number              X              Y              Z
 -------------------------------------------------------------------
      1        6          -0.001291336   -0.022422671   -0.073059579
      2        1           0.073699062    0.015759526    0.023334604
      3        1          -0.045902662    0.066852832    0.008219535
      4        6          -0.066339105   -0.017616853    0.044576452
      5        1           0.009514796    0.079767032   -0.003455838
      6        7           0.014100477    0.003018525   -0.000791206
      7        1          -0.029579727   -0.057737027    0.046659962
      8        1          -0.009009637   -0.027534051   -0.073120705
      9        1           0.065121842   -0.033697052    0.033211606
     10        6          -0.027381451    0.017637082    0.086199714
     11        1           0.013833931   -0.028079389   -0.096261761
     12        6           0.029627248   -0.015022053   -0.077100702
     13        6          -0.003165755   -0.017465415   -0.028937457
     14        1          -0.020176916    0.026928621    0.091890433
     15        8          -0.003466689    0.008203527    0.018947751
     16        6          -0.000511378    0.001060066    0.001086352
     17        6           0.006151321   -0.000689709   -0.006877509
     18        6          -0.056439546   -0.060784790   -0.051560099
     19        8          -0.129239623   -0.049443001    0.047543419
     20        6           0.060167484    0.056197098    0.043947184
     21        6           0.029707938   -0.031151776   -0.078381274
     22        1           0.060230571    0.061915926    0.049669066
     23        1           0.123368872    0.050101500   -0.043265509
     24        1          -0.060008325   -0.061319262   -0.050981018
     25        6           0.083248131    0.019545562   -0.038812874
     26        1          -0.026474070    0.038809736    0.088348226
     27        1          -0.089785452   -0.022833985    0.038971227
 -------------------------------------------------------------------
 Cartesian Forces:  Max     0.129239623 RMS     0.050215562

 GradGradGradGradGradGradGradGradGradGradGradGradGradGradGradGradGradGrad
 Berny optimization.
 Using GEDIIS/GDIIS optimizer.
 FormGI is forming the generalized inverse of G from B-inverse, IUseBI=4.
 GSVD:  received Info=                   1 from GESDD.
 Internal  Forces:  Max     0.139990814 RMS     0.030992409
 Search for a local minimum.
 Step number   2 out of a maximum of  134
 All quantities printed in internal units (Hartrees-Bohrs-Radians)
 Mixed Optimization -- RFO/linear search
 Update second derivatives using D2CorX and points    1    2
 DE= -1.35D-01 DEPred=-1.42D-01 R= 9.53D-01
 TightC=F SS=  1.41D+00  RLast= 3.00D-01 DXNew= 5.0454D-01 9.0009D-01
 Trust test= 9.53D-01 RLast= 3.00D-01 DXMaxT set to 5.05D-01
 ITU=  1  0
 Use linear search instead of GDIIS.
[...]
 Alpha  occ. eigenvalues --   -0.42213  -0.41613  -0.33716  -0.33501  -0.30046
 Alpha  occ. eigenvalues --   -0.28779
 Alpha virt. eigenvalues --    0.00355   0.02725   0.04161   0.04949   0.05726
 Alpha virt. eigenvalues --    0.05912   0.06107   0.06489   0.07648   0.08012
 Alpha virt. eigenvalues --    0.08142   0.08292   0.08518   0.09972   0.10494
 Alpha virt. eigenvalues --    0.11900   0.11983   0.12905   0.13105   0.13477
 Alpha virt. eigenvalues --    0.14162   0.14671   0.15048   0.15322   0.15983
 Alpha virt. eigenvalues --    0.16328   0.16392   0.16674   0.17026   0.17500
 Alpha virt. eigenvalues --    0.17752   0.17841   0.18411   0.18899   0.19235
 Alpha virt. eigenvalues --    0.19696   0.20114   0.20275   0.21150   0.21669
 Alpha virt. eigenvalues --    0.21875   0.22141   0.22189   0.23247   0.23416
 Alpha virt. eigenvalues --    0.24066   0.24196   0.24603   0.25423   0.25991
 Alpha virt. eigenvalues --    0.26315   0.26522   0.26766   0.27659   0.27930
 Alpha virt. eigenvalues --    0.28393   0.28774   0.29033   0.29893   0.30204
 Alpha virt. eigenvalues --    0.30941   0.31244   0.32200   0.32603   0.32974
 Alpha virt. eigenvalues --    0.33565   0.34110   0.34598   0.35333   0.35785
 Alpha virt. eigenvalues --    0.36213   0.36974   0.37209   0.37747   0.38456
 Alpha virt. eigenvalues --    0.38861   0.39345   0.39631   0.40262   0.40784
 Alpha virt. eigenvalues --    0.41130   0.41989   0.42975   0.43466   0.43786
 Alpha virt. eigenvalues --    0.44440   0.45833   0.46590   0.47587   0.48446
 Alpha virt. eigenvalues --    0.50111   0.51341   0.51383   0.52120   0.53093
 Alpha virt. eigenvalues --    0.55325   0.57430   0.58625   0.60422   0.61219
 Alpha virt. eigenvalues --    0.62157   0.62849   0.63170   0.63843   0.64380
 Alpha virt. eigenvalues --    0.65164   0.65954   0.66321   0.67111   0.67605
 Alpha virt. eigenvalues --    0.68994   0.69462   0.70257   0.70544   0.70843
 Alpha virt. eigenvalues --    0.71069   0.72069   0.72191   0.74022   0.74381
 Alpha virt. eigenvalues --    0.75683   0.76054   0.76582   0.77917   0.78879
 Alpha virt. eigenvalues --    0.80147   0.80412   0.80803   0.82731   0.83568
 Alpha virt. eigenvalues --    0.85934   0.87105   0.87676   0.88213   0.89525
 Alpha virt. eigenvalues --    0.91522   0.94261   0.94801   0.95054   0.95914
 Alpha virt. eigenvalues --    0.96388   0.97991   0.98421   0.99486   1.00551
 Alpha virt. eigenvalues --    1.01933   1.02677   1.04309   1.04886   1.05698
 Alpha virt. eigenvalues --    1.08498   1.08691   1.09891   1.11525   1.12007
 Alpha virt. eigenvalues --    1.14463   1.14700   1.15509   1.16557   1.18046
 Alpha virt. eigenvalues --    1.18340   1.18526   1.20025   1.21804   1.22251
 Alpha virt. eigenvalues --    1.22749   1.28334   1.32201   1.32993   1.33681
 Alpha virt. eigenvalues --    1.34774   1.36993   1.38396   1.40762   1.42729
 Alpha virt. eigenvalues --    1.45525   1.46890   1.50613   1.51573   1.52584
 Alpha virt. eigenvalues --    1.53749   1.55992   1.57790   1.58855   1.59578
 Alpha virt. eigenvalues --    1.61098   1.61918   1.62954   1.64406   1.65104
 Alpha virt. eigenvalues --    1.65611   1.66033   1.66510   1.68086   1.69974
 Alpha virt. eigenvalues --    1.71851   1.73171   1.73471   1.75509   1.75847
 Alpha virt. eigenvalues --    1.77040   1.77860   1.80763   1.81522   1.82173
 Alpha virt. eigenvalues --    1.82770   1.83413   1.84430   1.86108   1.87413
 Alpha virt. eigenvalues --    1.89663   1.91587   1.91749   1.96750   1.99040
 Alpha virt. eigenvalues --    1.99616   2.00815   2.02229   2.02595   2.03400
 Alpha virt. eigenvalues --    2.05070   2.05748   2.06475   2.07349   2.08266
 Alpha virt. eigenvalues --    2.10148   2.11763   2.12687   2.14568   2.15975
 Alpha virt. eigenvalues --    2.18102   2.19380   2.21954   2.24343   2.25268
 Alpha virt. eigenvalues --    2.26452   2.31322   2.32588   2.36046   2.38119
 Alpha virt. eigenvalues --    2.40388   2.43084   2.46152   2.46753   2.49225
 Alpha virt. eigenvalues --    2.50844   2.52321   2.54891   2.55746   2.57896
 Alpha virt. eigenvalues --    2.58306   2.59141   2.62199   2.62673   2.64184
 Alpha virt. eigenvalues --    2.67019   2.70226   2.71283   2.71890   2.74404
 Alpha virt. eigenvalues --    2.76311   2.77110   2.80274   2.80757   2.82029
 Alpha virt. eigenvalues --    2.83018   2.84152   2.84724   2.86240   2.86832
 Alpha virt. eigenvalues --    2.88196   2.89199   2.90662   2.91282   2.92554
 Alpha virt. eigenvalues --    2.95163   2.95463   2.96576   2.98752   2.99239
 Alpha virt. eigenvalues --    3.02904   3.04783   3.08558   3.10729   3.13689
 Alpha virt. eigenvalues --    3.17871   3.19537   3.22765   3.23799   3.25467
 Alpha virt. eigenvalues --    3.27249   3.30467   3.31813   3.31995   3.38103
 Alpha virt. eigenvalues --    3.43423   3.47360   3.51627   3.57457   3.61520
 Alpha virt. eigenvalues --    3.63822   3.65216   3.68696   3.70092   3.72652
 Alpha virt. eigenvalues --    3.75823   3.80391   3.82196   3.83489   3.85051
 Alpha virt. eigenvalues --    3.90021   3.93148   3.94858   4.04187   4.08975
 Alpha virt. eigenvalues --    4.12934   4.15190   4.18643   4.29837   4.30893
 Alpha virt. eigenvalues --    4.40419   4.64343   4.95309   4.98728   5.14493
 Alpha virt. eigenvalues --    5.18007   5.18994   5.43993   5.63050   5.90579
 Alpha virt. eigenvalues --    5.94911  23.73978  23.94997  24.03817  24.04819
 Alpha virt. eigenvalues --   24.06811  24.07572  24.09617  24.17395  24.25631
 Alpha virt. eigenvalues --   24.30455  24.34374  35.70559  50.14383  50.20284
          Condensed to atoms (all electrons):
               1          2          3          4          5          6
     1  C    5.237844   0.386298   0.415891  -0.070595   0.012658   0.246758
     2  H    0.386298   0.491455  -0.020137   0.005962  -0.006897  -0.049451
     3  H    0.415891  -0.020137   0.529564  -0.006757   0.000869  -0.055114
     4  C   -0.070595   0.005962  -0.006757   5.182303   0.394382   0.271149
     5  H    0.012658  -0.006897   0.000869   0.394382   0.561294  -0.049522
     6  N    0.246758  -0.049451  -0.055114   0.271149  -0.049522   6.856337
     7  H    0.418862  -0.021074  -0.053396   0.010433   0.001947  -0.035546
     8  H   -0.001592   0.003810  -0.000559   0.411730  -0.030119  -0.093050
     9  H   -0.013694  -0.003153   0.003162   0.411964  -0.064437  -0.050318
    10  C    0.192909   0.023518  -0.007861  -0.030646  -0.037763   0.166606
    11  H    0.004065  -0.001541  -0.002222  -0.039997   0.004499  -0.066983
    12  C    0.114755   0.023263  -0.000198  -0.067895   0.018648  -0.218238
    13  C   -0.290805  -0.017969   0.015278  -0.141113   0.005923  -0.001660
    14  H    0.029787   0.003254  -0.011544  -0.006842  -0.000226  -0.033507
    15  O   -0.001107   0.000101   0.000185   0.000702  -0.000123   0.004221
    16  C   -0.175498  -0.003027   0.000663   0.001594  -0.000767  -0.014341
    17  C   -0.019310   0.001010  -0.001566  -0.004776  -0.000340   0.003942
    18  C   -0.040040  -0.006392   0.003001  -0.014334   0.000537  -0.001395
    19  O   -0.000137  -0.000009   0.000052   0.000293   0.000008  -0.000160
    20  C    0.003862   0.000199  -0.000872  -0.000862   0.000020   0.000381
    21  C   -0.005392  -0.000413   0.001265   0.001233  -0.000017   0.000341
    22  H   -0.005058  -0.000582   0.000012  -0.002339   0.000039  -0.005566
    23  H   -0.001112  -0.000092   0.000067  -0.000005   0.000007   0.000048
    24  H    0.000046   0.000002  -0.000013   0.000012   0.000000  -0.000004
    25  C   -0.005233  -0.000193   0.000406  -0.000590  -0.000007   0.000191
    26  H   -0.000060  -0.000004  -0.000016   0.000088   0.000000   0.000139
    27  H   -0.000102  -0.000004   0.000016  -0.000002   0.000000  -0.000011
               7          8          9         10         11         12
     1  C    0.418862  -0.001592  -0.013694   0.192909   0.004065   0.114755
     2  H   -0.021074   0.003810  -0.003153   0.023518  -0.001541   0.023263
     3  H   -0.053396  -0.000559   0.003162  -0.007861  -0.002222  -0.000198
     4  C    0.010433   0.411730   0.411964  -0.030646  -0.039997  -0.067895
     5  H    0.001947  -0.030119  -0.064437  -0.037763   0.004499   0.018648
     6  N   -0.035546  -0.093050  -0.050318   0.166606  -0.066983  -0.218238
     7  H    0.534779  -0.003084  -0.001472   0.036738   0.002907  -0.044586
     8  H   -0.003084   0.534425  -0.021276   0.058550  -0.007908   0.003832
     9  H   -0.001472  -0.021276   0.561540  -0.002668   0.000433   0.005268
    10  C    0.036738   0.058550  -0.002668  12.808150   0.248943   3.286233
    11  H    0.002907  -0.007908   0.000433   0.248943   0.469593   0.056944
    12  C   -0.044586   0.003832   0.005268   3.286233   0.056944  12.202799
    13  C   -0.031615   0.000858   0.000281  -4.686828   0.161822   1.122203
    14  H    0.013313  -0.003372   0.000890   0.075974   0.000719   0.637642
    15  O    0.000654   0.000186   0.000073   0.034403   0.009466  -0.217397
    16  C   -0.004073   0.005067   0.000952  -2.817523  -0.052295  -4.245777
    17  C   -0.001393   0.003417  -0.000238  -1.521658  -0.063030  -3.195538
    18  C   -0.004048  -0.003432   0.000361  -1.921796   0.046686  -1.778318
    19  O    0.000037  -0.000102   0.000002   0.007212   0.000150  -0.039378
    20  C   -0.000898   0.000118  -0.000007  -0.247395  -0.003411  -0.123458
    21  C    0.002367  -0.000273   0.000011   0.114436   0.002271  -0.361069
    22  H   -0.005343   0.000572  -0.000101  -0.181757   0.002028  -0.138310
    23  H   -0.000022   0.000029   0.000034  -0.014714   0.000706   0.003161
    24  H   -0.000015   0.000004   0.000000   0.001045  -0.000247   0.006283
    25  C    0.000370  -0.000008   0.000002  -0.221446  -0.000361  -0.675882
    26  H    0.000107  -0.000005   0.000003   0.008259  -0.000203   0.011792
    27  H    0.000012   0.000000   0.000000  -0.002260   0.000039  -0.011446
              13         14         15         16         17         18
     1  C   -0.290805   0.029787  -0.001107  -0.175498  -0.019310  -0.040040
     2  H   -0.017969   0.003254   0.000101  -0.003027   0.001010  -0.006392
     3  H    0.015278  -0.011544   0.000185   0.000663  -0.001566   0.003001
     4  C   -0.141113  -0.006842   0.000702   0.001594  -0.004776  -0.014334
     5  H    0.005923  -0.000226  -0.000123  -0.000767  -0.000340   0.000537
     6  N   -0.001660  -0.033507   0.004221  -0.014341   0.003942  -0.001395
     7  H   -0.031615   0.013313   0.000654  -0.004073  -0.001393  -0.004048
     8  H    0.000858  -0.003372   0.000186   0.005067   0.003417  -0.003432
     9  H    0.000281   0.000890   0.000073   0.000952  -0.000238   0.000361
    10  C   -4.686828   0.075974   0.034403  -2.817523  -1.521658  -1.921796
    11  H    0.161822   0.000719   0.009466  -0.052295  -0.063030   0.046686
    12  C    1.122203   0.637642  -0.217397  -4.245777  -3.195538  -1.778318
    13  C   14.163601  -0.085892   0.908124   1.256727  -4.120786   0.573146
    14  H   -0.085892   0.653241  -0.011977  -0.191582  -0.015042  -0.089127
    15  O    0.908124  -0.011977   8.142609  -0.166109  -0.106087  -0.249045
    16  C    1.256727  -0.191582  -0.166109  16.896890   1.279611  -3.168039
    17  C   -4.120786  -0.015042  -0.106087   1.279611  16.434081  -3.917415
    18  C    0.573146  -0.089127  -0.249045  -3.168039  -3.917415  14.737871
    19  O   -0.051556  -0.000881  -0.001590   0.098540   0.358979  -0.022399
    20  C   -0.906849   0.018749  -0.060536  -2.556872   0.242587   1.402738
    21  C   -0.315141  -0.082178   0.004838  -1.525706   0.343554   0.949513
    22  H    0.036295  -0.016802  -0.001661  -0.065794   0.026895   0.724334
    23  H    0.028906  -0.001210   0.072373  -0.150077   0.016758   0.033680
    24  H    0.002406   0.000968   0.001300  -0.082086  -0.082535   0.003186
    25  C   -0.949780  -0.022880  -0.031356  -0.414233  -0.138806   0.632482
    26  H    0.001137   0.003360   0.000741   0.038901   0.028064  -0.076866
    27  H   -0.005881  -0.001536  -0.000433   0.080175   0.032726  -0.045990
              19         20         21         22         23         24
     1  C   -0.000137   0.003862  -0.005392  -0.005058  -0.001112   0.000046
     2  H   -0.000009   0.000199  -0.000413  -0.000582  -0.000092   0.000002
     3  H    0.000052  -0.000872   0.001265   0.000012   0.000067  -0.000013
     4  C    0.000293  -0.000862   0.001233  -0.002339  -0.000005   0.000012
     5  H    0.000008   0.000020  -0.000017   0.000039   0.000007   0.000000
     6  N   -0.000160   0.000381   0.000341  -0.005566   0.000048  -0.000004
     7  H    0.000037  -0.000898   0.002367  -0.005343  -0.000022  -0.000015
     8  H   -0.000102   0.000118  -0.000273   0.000572   0.000029   0.000004
     9  H    0.000002  -0.000007   0.000011  -0.000101   0.000034   0.000000
    10  C    0.007212  -0.247395   0.114436  -0.181757  -0.014714   0.001045
    11  H    0.000150  -0.003411   0.002271   0.002028   0.000706  -0.000247
    12  C   -0.039378  -0.123458  -0.361069  -0.138310   0.003161   0.006283
    13  C   -0.051556  -0.906849  -0.315141   0.036295   0.028906   0.002406
    14  H   -0.000881   0.018749  -0.082178  -0.016802  -0.001210   0.000968
    15  O   -0.001590  -0.060536   0.004838  -0.001661   0.072373   0.001300
    16  C    0.098540  -2.556872  -1.525706  -0.065794  -0.150077  -0.082086
    17  C    0.358979   0.242587   0.343554   0.026895   0.016758  -0.082535
    18  C   -0.022399   1.402738   0.949513   0.724334   0.033680   0.003186
    19  O    8.091364  -0.397931   0.006585  -0.003103   0.258760  -0.025996
    20  C   -0.397931   8.299189  -0.249862   0.042776   0.072241   0.536395
    21  C    0.006585  -0.249862   7.048799  -0.077379   0.011322  -0.000025
    22  H   -0.003103   0.042776  -0.077379   0.586865   0.001913  -0.001025
    23  H    0.258760   0.072241   0.011322   0.001913   0.304014   0.002006
    24  H   -0.025996   0.536395  -0.000025  -0.001025   0.002006   0.465727
    25  C    0.015586   0.494064   0.403824   0.052945  -0.003652  -0.046905
    26  H    0.000327   0.018427   0.364674  -0.021476   0.000279   0.001731
    27  H    0.000612  -0.097713  -0.042524   0.002512  -0.000458  -0.012334
              25         26         27
     1  C   -0.005233  -0.000060  -0.000102
     2  H   -0.000193  -0.000004  -0.000004
     3  H    0.000406  -0.000016   0.000016
     4  C   -0.000590   0.000088  -0.000002
     5  H   -0.000007   0.000000   0.000000
     6  N    0.000191   0.000139  -0.000011
     7  H    0.000370   0.000107   0.000012
     8  H   -0.000008  -0.000005   0.000000
     9  H    0.000002   0.000003   0.000000
    10  C   -0.221446   0.008259  -0.002260
    11  H   -0.000361  -0.000203   0.000039
    12  C   -0.675882   0.011792  -0.011446
    13  C   -0.949780   0.001137  -0.005881
    14  H   -0.022880   0.003360  -0.001536
    15  O   -0.031356   0.000741  -0.000433
    16  C   -0.414233   0.038901   0.080175
    17  C   -0.138806   0.028064   0.032726
    18  C    0.632482  -0.076866  -0.045990
    19  O    0.015586   0.000327   0.000612
    20  C    0.494064   0.018427  -0.097713
    21  C    0.403824   0.364674  -0.042524
    22  H    0.052945  -0.021476   0.002512
    23  H   -0.003652   0.000279  -0.000458
    24  H   -0.046905   0.001731  -0.012334
    25  C    6.945681  -0.076988   0.430311
    26  H   -0.076988   0.485536  -0.010575
    27  H    0.430311  -0.010575   0.483249
 Mulliken charges:
               1
     1  C   -0.433996
     2  H    0.192068
     3  H    0.189822
     4  C   -0.305092
     5  H    0.189388
     6  N    0.124754
     7  H    0.184037
     8  H    0.142183
     9  H    0.172387
    10  C    0.631340
    11  H    0.226927
    12  C   -0.375333
    13  C   -0.670830
    14  H    0.136703
    15  O   -0.332556
    16  C    1.974679
    17  C    0.416896
    18  C   -1.768899
    19  O   -0.295267
    20  C   -0.485083
    21  C   -0.595054
    22  H    0.049109
    23  H    0.365039
    24  H    0.230073
    25  C   -0.387543
    26  H    0.222630
    27  H    0.201618
 Sum of Mulliken charges =   0.00000
 Mulliken charges with hydrogens summed into heavy atoms:
               1
     1  C    0.131931
     4  C    0.198866
     6  N    0.124754
    10  C    0.858267
    12  C   -0.238630
    13  C   -0.670830
    15  O   -0.332556
    16  C    1.974679
    17  C    0.416896
    18  C   -1.719789
    19  O    0.069772
    20  C   -0.255010
    21  C   -0.372424
    25  C   -0.185924
 Electronic spatial extent (au):  <R**2>=           3944.8224
 Charge=              0.0000 electrons
 Dipole moment (field-independent basis, Debye):
    X=              5.7491    Y=              3.6062    Z=             -0.1541  Tot=              6.7882
 Quadrupole moment (field-independent basis, Debye-Ang):
   XX=            -58.3414   YY=            -83.6066   ZZ=            -87.6827
   XY=             -3.6827   XZ=             -0.3830   YZ=              0.2440
 Traceless Quadrupole moment (field-independent basis, Debye-Ang):
   XX=             18.2022   YY=             -7.0630   ZZ=            -11.1391
   XY=             -3.6827   XZ=             -0.3830   YZ=              0.2440
 Octapole moment (field-independent basis, Debye-Ang**2):
  XXX=             95.5798  YYY=             11.4367  ZZZ=             -0.3074  XYY=             21.0322
  XXY=             14.9335  XXZ=             -2.0614  XZZ=             12.0084  YZZ=             -7.6598
  YYZ=              0.2163  XYZ=              0.9404
 Hexadecapole moment (field-independent basis, Debye-Ang**3):
 XXXX=          -3617.1050 YYYY=           -875.4741 ZZZZ=           -110.7849 XXXY=            -39.3389
 XXXZ=              2.5445 YYYX=            -20.3360 YYYZ=              0.2656 ZZZX=             -3.6253
 ZZZY=             -0.0595 XXYY=           -831.0424 XXZZ=           -777.0274 YYZZ=           -175.4789
 XXYZ=              2.6761 YYXZ=              1.6276 ZZXY=             18.3211
 N-N= 8.379716587500D+02 E-N=-3.149816168714D+03  KE= 6.296452113378D+02
 1\1\GINC-DN38\FOpt\RwB97XD\6-311++G(d,p)\C11H13N1O2\CA12053\15-Oct-201
 6\0\\# wb97xd 6-311++g** opt\\Geom Opt s0\\0,1\C,-0.0059439113,0.25860
 1193,8.5983365048\H,0.9441303681,0.7151942619,8.8749023099\H,-0.786901
 1497,1.0280500315,8.6229367016\C,1.2662814724,0.0252514757,6.478994687
 3\H,1.2658114902,1.0930670574,6.2318738205\N,0.1124453274,-0.331212090
 3,7.2812134413\H,-0.2499135441,-0.5082633103,9.3395236612\H,1.25576837
 98,-0.5442246528,5.5499283251\H,2.1903545421,-0.2078518171,7.015529296
 1\C,-0.9037713959,-1.0402615675,6.7638354454\H,-0.7434676584,-1.429397
 574,5.7624194261\C,-2.0926045968,-1.3235641285,7.3622119322\C,-3.05169
 75706,-2.1326058255,6.6343401548\H,-2.324737819,-0.9499620729,8.347375
 8524\O,-2.7838062829,-2.5654683722,5.4989896194\C,-4.3734293732,-2.450
 8644285,7.2351196725\C,-5.2983160761,-3.2297571274,6.4989062503\C,-4.7
 540232856,-2.012472747,8.5132076871\O,-5.0366220604,-3.6972382069,5.27
 78318091\C,-6.5481263608,-3.5368128253,7.0520638468\C,-5.9864913466,-2
 .3181826115,9.0542864045\H,-4.0684325367,-1.4163735457,9.1017825143\H,
 -4.1256477295,-3.3910384226,5.0533908137\H,-7.2307567054,-4.1346039021
 ,6.4600054033\C,-6.8856481798,-3.0871009178,8.3110895943\H,-6.25185023
 96,-1.9657293523,10.0436065224\H,-7.8575257578,-3.3337795214,8.7247443
 037\\Version=ES64L-G09RevD.01\State=1-A\HF=-632.1526458\RMSD=3.766e-09
 \RMSF=6.603e-06\Dipole=1.8117544,1.5293772,1.2292912\Quadrupole=10.205
 9156,-4.7303729,-5.4755427,7.6683977,-3.1706061,-0.3796419\PG=C01 [X(C
 11H13N1O2)]\\@


 WE ARE REACHING THE STAGE WHERE THE PROBLEMS WE MUST SOLVE ARE 
 GOING TO BECOME INSOLUBLE WITHOUT COMPUTERS.
 I DO NOT FEAR COMPUTERS.  I FEAR THE LACK OF THEM.

                                   -- ISSAC ASIMOV
 Job cpu time:       0 days 12 hours 17 minutes 55.4 seconds.
 File lengths (MBytes):  RWF=     96 Int=      0 D2E=      0 Chk=     13 Scr=      1
 Normal termination of Gaussian 09 at Sat Oct 15 18:33:04 2016.
