 Entering Gaussian System, Link 0=g09
 Input=2_optS1.com
 Output=2_optS1.out
 Initial command:
 /share/apps/gaussian/g09_D01/g09/l1.exe "/tmp/3820736.1.chemistry.q/Gau-23350.inp" -scrdir="/tmp/3820736.1.chemistry.q/"
 Entering Link 1 = /share/apps/gaussian/g09_D01/g09/l1.exe PID=     23351.
  
 Copyright (c) 1988,1990,1992,1993,1995,1998,2003,2009,2013,
            Gaussian, Inc.  All Rights Reserved.
  
 This is part of the Gaussian(R) 09 program.  It is based on
 the Gaussian(R) 03 system (copyright 2003, Gaussian, Inc.),
 the Gaussian(R) 98 system (copyright 1998, Gaussian, Inc.),
 the Gaussian(R) 94 system (copyright 1995, Gaussian, Inc.),
 the Gaussian 92(TM) system (copyright 1992, Gaussian, Inc.),
 the Gaussian 90(TM) system (copyright 1990, Gaussian, Inc.),
 the Gaussian 88(TM) system (copyright 1988, Gaussian, Inc.),
 the Gaussian 86(TM) system (copyright 1986, Carnegie Mellon
 University), and the Gaussian 82(TM) system (copyright 1983,
 Carnegie Mellon University). Gaussian is a federally registered
 trademark of Gaussian, Inc.
  
 This software contains proprietary and confidential information,
 including trade secrets, belonging to Gaussian, Inc.
  
 This software is provided under written license and may be
 used, copied, transmitted, or stored only in accord with that
 written license.
  
 The following legend is applicable only to US Government
 contracts under FAR:
  
                    RESTRICTED RIGHTS LEGEND
  
 Use, reproduction and disclosure by the US Government is
 subject to restrictions as set forth in subparagraphs (a)
 and (c) of the Commercial Computer Software - Restricted
 Rights clause in FAR 52.227-19.
  
 Gaussian, Inc.
 340 Quinnipiac St., Bldg. 40, Wallingford CT 06492
  
  
 ---------------------------------------------------------------
 Warning -- This program may not be used in any manner that
 competes with the business of Gaussian, Inc. or will provide
 assistance to any competitor of Gaussian, Inc.  The licensee
 of this program is prohibited from giving any competitor of
 Gaussian, Inc. access to this program.  By using this program,
 the user acknowledges that Gaussian, Inc. is engaged in the
 business of creating and licensing software in the field of
 computational chemistry and represents and warrants to the
 licensee that it is not a competitor of Gaussian, Inc. and that
 it will not use this program in any manner prohibited above.
 ---------------------------------------------------------------
  

 Cite this work as:
 Gaussian 09, Revision D.01,
 M. J. Frisch, G. W. Trucks, H. B. Schlegel, G. E. Scuseria, 
 M. A. Robb, J. R. Cheeseman, G. Scalmani, V. Barone, B. Mennucci, 
 G. A. Petersson, H. Nakatsuji, M. Caricato, X. Li, H. P. Hratchian, 
 A. F. Izmaylov, J. Bloino, G. Zheng, J. L. Sonnenberg, M. Hada, 
 M. Ehara, K. Toyota, R. Fukuda, J. Hasegawa, M. Ishida, T. Nakajima, 
 Y. Honda, O. Kitao, H. Nakai, T. Vreven, J. A. Montgomery, Jr., 
 J. E. Peralta, F. Ogliaro, M. Bearpark, J. J. Heyd, E. Brothers, 
 K. N. Kudin, V. N. Staroverov, T. Keith, R. Kobayashi, J. Normand, 
 K. Raghavachari, A. Rendell, J. C. Burant, S. S. Iyengar, J. Tomasi, 
 M. Cossi, N. Rega, J. M. Millam, M. Klene, J. E. Knox, J. B. Cross, 
 V. Bakken, C. Adamo, J. Jaramillo, R. Gomperts, R. E. Stratmann, 
 O. Yazyev, A. J. Austin, R. Cammi, C. Pomelli, J. W. Ochterski, 
 R. L. Martin, K. Morokuma, V. G. Zakrzewski, G. A. Voth, 
 P. Salvador, J. J. Dannenberg, S. Dapprich, A. D. Daniels, 
 O. Farkas, J. B. Foresman, J. V. Ortiz, J. Cioslowski, 
 and D. J. Fox, Gaussian, Inc., Wallingford CT, 2013.
 
 ******************************************
 Gaussian 09:  ES64L-G09RevD.01 24-Apr-2013
                19-Oct-2016 
 ******************************************
 %chk=2_optS1.chk
 %mem=4GB
 %nproc=2
 Will use up to    2 processors via shared memory.
 -----------------------------------------------------------
 # wb97xd 6-311++g** opt td=(nstates=1,root=1) geom=allcheck
 -----------------------------------------------------------
 1/14=-1,18=20,19=15,26=3,29=7,38=1/1,3;
 2/9=110,12=2,40=1/2;
 3/5=4,6=6,7=1111,11=9,14=-4,16=1,25=1,30=1,71=1,74=-58/1,2,8,3;
 4//1;
 5/5=2,38=5/2;
 8/6=1,10=2,107=1,108=1/1;
 9/8=1,15=2,41=1,42=1,70=2/14;
 10/5=4/2;
 6/7=2,8=2,9=2,10=2/1;
 7/12=6,13=5,14=1/1,2,3,16;
 1/14=-1,18=20,19=15,26=3/3(2);
 2/9=110/2;
 99//99;
 2/9=110/2;
 3/5=4,6=6,7=1111,11=9,14=-2,16=1,25=1,30=1,71=1,74=-58/1,2,8,3;
 4/5=5,16=3,69=1/1;
 5/5=2,38=5/2;
 8/6=1,10=2,107=1,108=1/1;
 9/8=1,15=2,41=1,42=1,49=4,70=2/14;
 10/5=4/2;
 7/12=6,13=5,14=1/1,2,3,16;
 1/14=-1,18=20,19=15,26=3/3(-8);
 2/9=110/2;
 6/7=2,8=2,9=2,10=2/1;
 99//99;
 Structure from the checkpoint file:  "2_optS1.chk"
 -----------
 Geom Opt s0
 -----------
 Charge =  0 Multiplicity = 1
 Redundant internal coordinates found in file.
 C,0,3.7266485172,1.6277809907,0.0376344289
 H,0,4.7737856434,1.9076997782,0.1501102316
 H,0,3.3478528752,2.0525767308,-0.8996565763
 C,0,4.8253564827,-0.595220565,-0.1063923831
 H,0,5.2848231482,-0.4287285735,-1.0872336936
 N,0,3.6120839764,0.1841574562,0.0468783356
 H,0,3.1620560451,2.0602225648,0.8689532584
 H,0,4.5922592067,-1.6552873492,-0.0094031935
 H,0,5.5500582378,-0.329155157,0.6681892801
 C,0,2.4031579597,-0.3981234585,0.0249725668
 H,0,2.4056903002,-1.4841178447,0.0123012877
 C,0,1.1934710181,0.2264041966,0.025742264
 C,0,-0.0015413281,-0.5938201947,0.0267817468
 H,0,1.121708737,1.3029697936,0.015659222
 O,0,0.0796515435,-1.8360618819,0.0391813439
 C,0,-1.3446562638,0.0378898108,0.0068298624
 C,0,-2.4971880587,-0.7885781748,-0.0040097628
 C,0,-1.534337867,1.4271041355,-0.0007742217
 O,0,-2.4279813372,-2.1164242468,0.0030864417
 C,0,-3.7734464218,-0.2152510898,-0.0230397273
 C,0,-2.7879276688,2.0037034401,-0.0190062524
 H,0,-0.6758912015,2.0856591159,0.008232096
 H,0,-1.4646649445,-2.341988323,0.0191141289
 H,0,-4.6480181865,-0.8521694558,-0.0313154137
 C,0,-3.8868668376,1.1529415298,-0.0299738941
 H,0,-2.9279928576,3.0763310409,-0.0245543261
 F,0,-5.1149343582,1.6962474508,-0.0477706004
 Recover connectivity data from disk.

 GradGradGradGradGradGradGradGradGradGradGradGradGradGradGradGradGradGrad
 Berny optimization.
 Initialization pass.
                           ----------------------------
                           !    Initial Parameters    !
                           ! (Angstroms and Degrees)  !
 --------------------------                            --------------------------
 ! Name  Definition              Value          Derivative Info.                !
 --------------------------------------------------------------------------------
 ! R1    R(1,2)                  1.0897         estimate D2E/DX2                !
 ! R2    R(1,3)                  1.0966         estimate D2E/DX2                !
 ! R3    R(1,6)                  1.4482         estimate D2E/DX2                !
 ! R4    R(1,7)                  1.094          estimate D2E/DX2                !
 ! R5    R(4,5)                  1.0958         estimate D2E/DX2                !
 ! R6    R(4,6)                  1.4502         estimate D2E/DX2                !
 ! R7    R(4,8)                  1.0897         estimate D2E/DX2                !
 ! R8    R(4,9)                  1.0936         estimate D2E/DX2                !
 ! R9    R(6,10)                 1.342          estimate D2E/DX2                !
 ! R10   R(10,11)                1.0861         estimate D2E/DX2                !
 ! R11   R(10,12)                1.3614         estimate D2E/DX2                !
 ! R12   R(12,13)                1.4494         estimate D2E/DX2                !
 ! R13   R(12,14)                1.079          estimate D2E/DX2                !
 ! R14   R(13,15)                1.245          estimate D2E/DX2                !
 ! R15   R(13,16)                1.4844         estimate D2E/DX2                !
 ! R16   R(16,17)                1.4183         estimate D2E/DX2                !
 ! R17   R(16,18)                1.4021         estimate D2E/DX2                !
 ! R18   R(17,19)                1.3297         estimate D2E/DX2                !
 ! R19   R(17,20)                1.3993         estimate D2E/DX2                !
 ! R20   R(18,21)                1.38           estimate D2E/DX2                !
 ! R21   R(18,22)                1.082          estimate D2E/DX2                !
 ! R22   R(19,23)                0.9895         estimate D2E/DX2                !
 ! R23   R(20,24)                1.0819         estimate D2E/DX2                !
 ! R24   R(20,25)                1.3729         estimate D2E/DX2                !
 ! R25   R(21,25)                1.3898         estimate D2E/DX2                !
 ! R26   R(21,26)                1.0817         estimate D2E/DX2                !
 ! R27   R(25,27)                1.343          estimate D2E/DX2                !
 ! A1    A(2,1,3)              108.7024         estimate D2E/DX2                !
 ! A2    A(2,1,6)              109.3549         estimate D2E/DX2                !
 ! A3    A(2,1,7)              108.4175         estimate D2E/DX2                !
 ! A4    A(3,1,6)              111.3642         estimate D2E/DX2                !
 ! A5    A(3,1,7)              108.5487         estimate D2E/DX2                !
 ! A6    A(6,1,7)              110.3869         estimate D2E/DX2                !
 ! A7    A(5,4,6)              111.3299         estimate D2E/DX2                !
 ! A8    A(5,4,8)              108.4904         estimate D2E/DX2                !
 ! A9    A(5,4,9)              108.6112         estimate D2E/DX2                !
 ! A10   A(6,4,8)              109.5391         estimate D2E/DX2                !
 ! A11   A(6,4,9)              110.4146         estimate D2E/DX2                !
 ! A12   A(8,4,9)              108.384          estimate D2E/DX2                !
 ! A13   A(1,6,4)              117.9621         estimate D2E/DX2                !
 ! A14   A(1,6,10)             120.2432         estimate D2E/DX2                !
 ! A15   A(4,6,10)             121.2491         estimate D2E/DX2                !
 ! A16   A(6,10,11)            115.5908         estimate D2E/DX2                !
 ! A17   A(6,10,12)            126.9697         estimate D2E/DX2                !
 ! A18   A(11,10,12)           117.438          estimate D2E/DX2                !
 ! A19   A(10,12,13)           118.2293         estimate D2E/DX2                !
 ! A20   A(10,12,14)           121.1178         estimate D2E/DX2                !
 ! A21   A(13,12,14)           120.65           estimate D2E/DX2                !
 ! A22   A(12,13,15)           120.7239         estimate D2E/DX2                !
 ! A23   A(12,13,16)           120.3426         estimate D2E/DX2                !
 ! A24   A(15,13,16)           118.933          estimate D2E/DX2                !
 ! A25   A(13,16,17)           119.1699         estimate D2E/DX2                !
 ! A26   A(13,16,18)           122.9652         estimate D2E/DX2                !
 ! A27   A(17,16,18)           117.8649         estimate D2E/DX2                !
 ! A28   A(16,17,19)           122.656          estimate D2E/DX2                !
 ! A29   A(16,17,20)           120.1681         estimate D2E/DX2                !
 ! A30   A(19,17,20)           117.1759         estimate D2E/DX2                !
 ! A31   A(16,18,21)           122.4766         estimate D2E/DX2                !
 ! A32   A(16,18,22)           119.7139         estimate D2E/DX2                !
 ! A33   A(21,18,22)           117.8095         estimate D2E/DX2                !
 ! A34   A(17,19,23)           106.1649         estimate D2E/DX2                !
 ! A35   A(17,20,24)           119.7476         estimate D2E/DX2                !
 ! A36   A(17,20,25)           118.9308         estimate D2E/DX2                !
 ! A37   A(24,20,25)           121.3215         estimate D2E/DX2                !
 ! A38   A(18,21,25)           117.5569         estimate D2E/DX2                !
 ! A39   A(18,21,26)           122.1411         estimate D2E/DX2                !
 ! A40   A(25,21,26)           120.302          estimate D2E/DX2                !
 ! A41   A(20,25,21)           123.0026         estimate D2E/DX2                !
 ! A42   A(20,25,27)           118.605          estimate D2E/DX2                !
 ! A43   A(21,25,27)           118.3923         estimate D2E/DX2                !
 ! D1    D(2,1,6,4)            -13.4783         estimate D2E/DX2                !
 ! D2    D(2,1,6,10)           174.886          estimate D2E/DX2                !
 ! D3    D(3,1,6,4)            106.677          estimate D2E/DX2                !
 ! D4    D(3,1,6,10)           -64.9587         estimate D2E/DX2                !
 ! D5    D(7,1,6,4)           -132.6735         estimate D2E/DX2                !
 ! D6    D(7,1,6,10)            55.6908         estimate D2E/DX2                !
 ! D7    D(5,4,6,1)            -63.9835         estimate D2E/DX2                !
 ! D8    D(5,4,6,10)           107.5637         estimate D2E/DX2                !
 ! D9    D(8,4,6,1)            176.0264         estimate D2E/DX2                !
 ! D10   D(8,4,6,10)           -12.4263         estimate D2E/DX2                !
 ! D11   D(9,4,6,1)             56.7406         estimate D2E/DX2                !
 ! D12   D(9,4,6,10)          -131.7121         estimate D2E/DX2                !
 ! D13   D(1,6,10,11)          178.7379         estimate D2E/DX2                !
 ! D14   D(1,6,10,12)           -1.7134         estimate D2E/DX2                !
 ! D15   D(4,6,10,11)            7.3815         estimate D2E/DX2                !
 ! D16   D(4,6,10,12)         -173.0698         estimate D2E/DX2                !
 ! D17   D(6,10,12,13)        -178.7757         estimate D2E/DX2                !
 ! D18   D(6,10,12,14)           1.84           estimate D2E/DX2                !
 ! D19   D(11,10,12,13)          0.7657         estimate D2E/DX2                !
 ! D20   D(11,10,12,14)       -178.6186         estimate D2E/DX2                !
 ! D21   D(10,12,13,15)          0.6541         estimate D2E/DX2                !
 ! D22   D(10,12,13,16)       -179.0688         estimate D2E/DX2                !
 ! D23   D(14,12,13,15)       -179.9586         estimate D2E/DX2                !
 ! D24   D(14,12,13,16)          0.3184         estimate D2E/DX2                !
 ! D25   D(12,13,16,17)        179.4299         estimate D2E/DX2                !
 ! D26   D(12,13,16,18)         -0.6276         estimate D2E/DX2                !
 ! D27   D(15,13,16,17)         -0.298          estimate D2E/DX2                !
 ! D28   D(15,13,16,18)        179.6445         estimate D2E/DX2                !
 ! D29   D(13,16,17,19)          0.0063         estimate D2E/DX2                !
 ! D30   D(13,16,17,20)       -179.9908         estimate D2E/DX2                !
 ! D31   D(18,16,17,19)       -179.9391         estimate D2E/DX2                !
 ! D32   D(18,16,17,20)          0.0638         estimate D2E/DX2                !
 ! D33   D(13,16,18,21)       -179.9832         estimate D2E/DX2                !
 ! D34   D(13,16,18,22)         -0.0101         estimate D2E/DX2                !
 ! D35   D(17,16,18,21)         -0.0399         estimate D2E/DX2                !
 ! D36   D(17,16,18,22)        179.9331         estimate D2E/DX2                !
 ! D37   D(16,17,19,23)          0.1616         estimate D2E/DX2                !
 ! D38   D(20,17,19,23)       -179.8413         estimate D2E/DX2                !
 ! D39   D(16,17,20,24)        179.9941         estimate D2E/DX2                !
 ! D40   D(16,17,20,25)         -0.0465         estimate D2E/DX2                !
 ! D41   D(19,17,20,24)         -0.0031         estimate D2E/DX2                !
 ! D42   D(19,17,20,25)        179.9563         estimate D2E/DX2                !
 ! D43   D(16,18,21,25)         -0.0015         estimate D2E/DX2                !
 ! D44   D(16,18,21,26)        179.9849         estimate D2E/DX2                !
 ! D45   D(22,18,21,25)       -179.9751         estimate D2E/DX2                !
 ! D46   D(22,18,21,26)          0.0113         estimate D2E/DX2                !
 ! D47   D(17,20,25,21)          0.0033         estimate D2E/DX2                !
 ! D48   D(17,20,25,27)       -179.9766         estimate D2E/DX2                !
 ! D49   D(24,20,25,21)        179.962          estimate D2E/DX2                !
 ! D50   D(24,20,25,27)         -0.0179         estimate D2E/DX2                !
 ! D51   D(18,21,25,20)          0.0208         estimate D2E/DX2                !
 ! D52   D(18,21,25,27)       -179.9992         estimate D2E/DX2                !
 ! D53   D(26,21,25,20)       -179.9659         estimate D2E/DX2                !
 ! D54   D(26,21,25,27)          0.0141         estimate D2E/DX2                !
 --------------------------------------------------------------------------------
 Trust Radius=3.00D-01 FncErr=1.00D-07 GrdErr=1.00D-06
 Number of steps in this run=    134 maximum allowed number of steps=    162.
 GradGradGradGradGradGradGradGradGradGradGradGradGradGradGradGradGradGrad

                          Input orientation:                          
 ---------------------------------------------------------------------
 Center     Atomic      Atomic             Coordinates (Angstroms)
 Number     Number       Type             X           Y           Z
 ---------------------------------------------------------------------
      1          6           0        3.726649    1.627781    0.037634
      2          1           0        4.773786    1.907700    0.150110
      3          1           0        3.347853    2.052577   -0.899657
      4          6           0        4.825356   -0.595221   -0.106392
      5          1           0        5.284823   -0.428729   -1.087234
      6          7           0        3.612084    0.184157    0.046878
      7          1           0        3.162056    2.060223    0.868953
      8          1           0        4.592259   -1.655287   -0.009403
      9          1           0        5.550058   -0.329155    0.668189
     10          6           0        2.403158   -0.398123    0.024973
     11          1           0        2.405690   -1.484118    0.012301
     12          6           0        1.193471    0.226404    0.025742
     13          6           0       -0.001541   -0.593820    0.026782
     14          1           0        1.121709    1.302970    0.015659
     15          8           0        0.079652   -1.836062    0.039181
     16          6           0       -1.344656    0.037890    0.006830
     17          6           0       -2.497188   -0.788578   -0.004010
     18          6           0       -1.534338    1.427104   -0.000774
     19          8           0       -2.427981   -2.116424    0.003086
     20          6           0       -3.773446   -0.215251   -0.023040
     21          6           0       -2.787928    2.003703   -0.019006
     22          1           0       -0.675891    2.085659    0.008232
     23          1           0       -1.464665   -2.341988    0.019114
     24          1           0       -4.648018   -0.852169   -0.031315
     25          6           0       -3.886867    1.152942   -0.029974
     26          1           0       -2.927993    3.076331   -0.024554
     27          9           0       -5.114934    1.696247   -0.047771
 ---------------------------------------------------------------------
                    Distance matrix (angstroms):
                    1          2          3          4          5
     1  C    0.000000
     2  H    1.089725   0.000000
     3  H    1.096564   1.776593   0.000000
     4  C    2.483876   2.516558   3.134185   0.000000
     5  H    2.814688   2.692782   3.153397   1.095846   0.000000
     6  N    1.448192   2.081059   2.111099   1.450156   2.111847
     7  H    1.094012   1.771347   1.778359   3.281653   3.811520
     8  H    3.395590   3.571173   4.011154   1.089717   1.773643
     9  H    2.748094   2.423742   3.602846   1.093600   1.778138
    10  C    2.419933   3.309434   2.784478   2.433752   3.089002
    11  H    3.380752   4.138997   3.771942   2.580506   3.257642
    12  C    2.894993   3.957382   2.971974   3.726006   4.290347
    13  C    4.339934   5.392269   4.368083   4.828735   5.404992
    14  H    2.625204   3.704246   2.520998   4.163536   4.641839
    15  O    5.029791   6.005244   5.165662   4.907402   5.508467
    16  C    5.314775   6.399379   5.186552   6.203443   6.735333
    17  C    6.676576   7.756335   6.560400   7.325812   7.865276
    18  C    5.264952   6.328204   5.003498   6.674329   7.150207
    19  O    7.204147   8.251099   7.180235   7.411947   7.970224
    20  C    7.723462   8.808637   7.524919   8.607598   9.123066
    21  C    6.525659   7.564213   6.198850   8.045131   8.498655
    22  H    4.426384   5.454427   4.125030   6.120783   6.561426
    23  H    6.535224   7.549521   6.581540   6.529266   7.102123
    24  H    8.734412   9.819378   8.551346   9.477156   9.997780
    25  C    7.628608   8.695343   7.342129   8.886211   9.366930
    26  H    6.810757   7.791893   6.418732   8.579127   8.992501
    27  F    8.842260   9.892960   8.513016  10.201159  10.665410
                    6          7          8          9         10
     6  N    0.000000
     7  H    2.097130   0.000000
     8  H    2.085058   4.077009   0.000000
     9  H    2.098871   3.384078   1.770632   0.000000
    10  C    1.342026   2.707710   2.524640   3.212704   0.000000
    11  H    2.059059   3.724015   2.193366   3.413382   1.086071
    12  C    2.419074   2.819436   3.885069   4.438608   1.361388
    13  C    3.696477   4.214445   4.714979   5.594793   2.412650
    14  H    2.730327   2.337640   4.560333   4.764442   2.129769
    15  O    4.069327   5.036941   4.516488   5.708920   2.732499
    16  C    4.959060   5.014334   6.173660   6.936080   3.773135
    17  C    6.186438   6.395684   7.142232   8.088331   4.915962
    18  C    5.294605   4.818027   6.858309   7.329436   4.340045
    19  O    6.463512   7.031545   7.035381   8.202793   5.127665
    20  C    7.396653   7.353545   8.488753   9.349787   6.179497
    21  C    6.653964   6.016143   8.237443   8.685417   5.719972
    22  H    4.690835   3.933361   6.461300   6.710389   3.956008
    23  H    5.670588   6.442688   6.095794   7.326605   4.328822
    24  H    8.325225   8.383899   9.275139  10.235410   7.066004
    25  C    7.561661   7.163696   8.932085   9.578079   6.478675
    26  H    7.151390   6.238552   8.884967   9.162673   6.363604
    27  F    8.857552   8.335552  10.269560  10.879197   7.804703
                   11         12         13         14         15
    11  H    0.000000
    12  C    2.096555   0.000000
    13  C    2.566633   1.449422   0.000000
    14  H    3.068628   1.079002   2.204456   0.000000
    15  O    2.352667   2.344044   1.244954   3.307560   0.000000
    16  C    4.047423   2.545189   1.484390   2.771906   2.354017
    17  C    4.951995   3.827798   2.503424   4.179877   2.781940
    18  C    4.898898   2.980491   2.536604   2.658997   3.640716
    19  O    4.874862   4.313267   2.864698   4.928764   2.523515
    20  C    6.308170   4.986753   3.791183   5.125333   4.180582
    21  C    6.256161   4.360313   3.809616   3.972088   4.792723
    22  H    4.715874   2.636598   2.763096   1.960618   3.993958
    23  H    3.964295   3.696264   2.279667   4.469347   1.625201
    24  H    7.082095   5.940503   4.654016   6.159268   4.829480
    25  C    6.822913   5.164437   4.260300   5.011030   4.967111
    26  H    7.017637   5.011095   4.694333   4.421144   5.760346
    27  F    8.165668   6.477795   5.603281   6.249353   6.282395
                   16         17         18         19         20
    16  C    0.000000
    17  C    1.418272   0.000000
    18  C    1.402125   2.415852   0.000000
    19  O    2.411364   1.329667   3.654478   0.000000
    20  C    2.442129   1.399250   2.776947   2.329253   0.000000
    21  C    2.438877   2.807417   1.379959   4.135880   2.427967
    22  H    2.154207   3.402721   1.081992   4.552730   3.858758
    23  H    2.382934   1.865401   3.769789   0.989502   3.139309
    24  H    3.421383   2.151943   3.858889   2.555012   1.081947
    25  C    2.776244   2.387756   2.368630   3.580250   1.372903
    26  H    3.426378   3.888899   2.159349   5.216846   3.398427
    27  F    4.119239   3.609552   3.591005   4.664630   2.335386
                   21         22         23         24         25
    21  C    0.000000
    22  H    2.113801   0.000000
    23  H    4.542853   4.497371   0.000000
    24  H    3.408240   4.940667   3.515088   0.000000
    25  C    1.389814   3.343918   4.252529   2.144720   0.000000
    26  H    1.081748   2.460583   5.612613   4.288549   2.149162
    27  F    2.347406   4.456443   5.443922   2.590890   1.343000
                   26         27
    26  H    0.000000
    27  F    2.586094   0.000000
 Stoichiometry    C11H12FNO2
 Framework group  C1[X(C11H12FNO2)]
 Deg. of freedom    75
 Full point group                 C1      NOp   1
 Largest Abelian subgroup         C1      NOp   1
 Largest concise Abelian subgroup C1      NOp   1
                         Standard orientation:                         
 ---------------------------------------------------------------------
 Center     Atomic      Atomic             Coordinates (Angstroms)
 Number     Number       Type             X           Y           Z
 ---------------------------------------------------------------------
      1          6           0        3.978918   -1.800141   -0.039890
      2          1           0        5.002900   -2.155771   -0.151648
      3          1           0        3.568543   -2.198362    0.895772
      4          6           0        5.237362    0.335992    0.111420
      5          1           0        5.681855    0.133835    1.092458
      6          7           0        3.970475   -0.351985   -0.045546
      7          1           0        3.385454   -2.187971   -0.873106
      8          1           0        5.082732    1.410530    0.016860
      9          1           0        5.941827    0.019456   -0.662850
     10          6           0        2.807440    0.317277   -0.023796
     11          1           0        2.889535    1.400130   -0.008303
     12          6           0        1.555240   -0.216909   -0.027854
     13          6           0        0.423555    0.688693   -0.028412
     14          1           0        1.404757   -1.285341   -0.020663
     15          8           0        0.595589    1.921670   -0.037476
     16          6           0       -0.962273    0.157072   -0.011951
     17          6           0       -2.051152    1.065757   -0.000556
     18          6           0       -1.253268   -1.214519   -0.008214
     19          8           0       -1.884807    2.384974   -0.004111
     20          6           0       -3.366024    0.587464    0.015227
     21          6           0       -2.545770   -1.697735    0.006793
     22          1           0       -0.445380   -1.934195   -0.017746
     23          1           0       -0.907526    2.539368   -0.018225
     24          1           0       -4.191578    1.286745    0.023949
     25          6           0       -3.579421   -0.768749    0.018454
     26          1           0       -2.764077   -2.757223    0.009365
     27          9           0       -4.844029   -1.220631    0.033147
 ---------------------------------------------------------------------
 Rotational constants (GHZ):      1.4520923      0.2524154      0.2156824
 Standard basis: 6-311++G(d,p) (5D, 7F)
 There are   429 symmetry adapted cartesian basis functions of A   symmetry.
 There are   414 symmetry adapted basis functions of A   symmetry.
   414 basis functions,   648 primitive gaussians,   429 cartesian basis functions
    55 alpha electrons       55 beta electrons
       nuclear repulsion energy       940.3059176048 Hartrees.
 NAtoms=   27 NActive=   27 NUniq=   27 SFac= 1.00D+00 NAtFMM=   60 NAOKFM=F Big=F
 Integral buffers will be    131072 words long.
 Raffenetti 1 integral format.
 Two-electron integral symmetry is turned on.
 Nuclear repulsion after empirical dispersion term =      940.2907908444 Hartrees.
 One-electron integrals computed using PRISM.
 NBasis=   414 RedAO= T EigKep=  1.58D-06  NBF=   414
 NBsUse=   411 1.00D-06 EigRej=  7.81D-07 NBFU=   411
 ExpMin= 3.60D-02 ExpMax= 1.14D+04 ExpMxC= 1.72D+03 IAcc=3 IRadAn=         5 AccDes= 0.00D+00
 Harris functional with IExCor= 4639 and IRadAn=       5 diagonalized for initial guess.
 HarFok:  IExCor= 4639 AccDes= 0.00D+00 IRadAn=         5 IDoV= 1 UseB2=F ITyADJ=14
 ICtDFT=  3500011 ScaDFX=  1.000000  1.000000  1.000000  1.000000
 FoFCou: FMM=F IPFlag=           0 FMFlag=      100000 FMFlg1=           0
         NFxFlg=           0 DoJE=T BraDBF=F KetDBF=T FulRan=T
         wScrn=  0.000000 ICntrl=     500 IOpCl=  0 I1Cent=   200000004 NGrid=           0
         NMat0=    1 NMatS0=      1 NMatT0=    0 NMatD0=    1 NMtDS0=    0 NMtDT0=    0
 Petite list used in FoFCou.
 Requested convergence on RMS density matrix=1.00D-08 within 128 cycles.
 Requested convergence on MAX density matrix=1.00D-06.
 Requested convergence on             energy=1.00D-06.
 No special actions if energy rises.
 SCF Done:  E(RwB97XD) =  -731.396158151     A.U. after   16 cycles
            NFock= 16  Conv=0.72D-08     -V/T= 2.0037
 DoSCS=F DFT=T ScalE2(SS,OS)=  1.000000  1.000000
 ExpMin= 3.60D-02 ExpMax= 1.14D+04 ExpMxC= 1.72D+03 IAcc=3 IRadAn=         5 AccDes= 0.00D+00
 HarFok:  IExCor=  205 AccDes= 0.00D+00 IRadAn=         5 IDoV=-2 UseB2=F ITyADJ=14
 ICtDFT= 12500011 ScaDFX=  1.000000  1.000000  1.000000  1.000000
 Range of M.O.s used for correlation:    16   411
 NBasis=   414 NAE=    55 NBE=    55 NFC=    15 NFV=     0
 NROrb=    396 NOA=    40 NOB=    40 NVA=   356 NVB=   356

 **** Warning!!: The largest alpha MO coefficient is  0.14035867D+03

 Would need an additional         21642200000 words for in-memory AO integral storage.
 Orbital symmetries:
       Occupied  (A) (A) (A) (A) (A) (A) (A) (A) (A) (A) (A) (A)
                 (A) (A) (A) (A) (A) (A) (A) (A) (A) (A) (A) (A)
                 (A) (A) (A) (A) (A) (A) (A) (A) (A) (A) (A) (A)
                 (A) (A) (A) (A) (A) (A) (A) (A) (A) (A) (A) (A)
                 (A) (A) (A) (A) (A) (A) (A)
       Virtual   (A) (A) (A) (A) (A) (A) (A) (A) (A) (A) (A) (A)
                 (A) (A) (A) (A) (A) (A) (A) (A) (A) (A) (A) (A)
                 (A) (A) (A) (A) (A) (A) (A) (A) (A) (A) (A) (A)
                 (A) (A) (A) (A) (A) (A) (A) (A) (A) (A) (A) (A)
                 (A) (A) (A) (A) (A) (A) (A) (A) (A) (A) (A) (A)
                 (A) (A) (A) (A) (A) (A) (A) (A) (A) (A) (A) (A)
                 (A) (A) (A) (A) (A) (A) (A) (A) (A) (A) (A) (A)
                 (A) (A) (A) (A) (A) (A) (A) (A) (A) (A) (A) (A)
                 (A) (A) (A) (A) (A) (A) (A) (A) (A) (A) (A) (A)
                 (A) (A) (A) (A) (A) (A) (A) (A) (A) (A) (A) (A)
                 (A) (A) (A) (A) (A) (A) (A) (A) (A) (A) (A) (A)
                 (A) (A) (A) (A) (A) (A) (A) (A) (A) (A) (A) (A)
                 (A) (A) (A) (A) (A) (A) (A) (A) (A) (A) (A) (A)
                 (A) (A) (A) (A) (A) (A) (A) (A) (A) (A) (A) (A)
                 (A) (A) (A) (A) (A) (A) (A) (A) (A) (A) (A) (A)
                 (A) (A) (A) (A) (A) (A) (A) (A) (A) (A) (A) (A)
                 (A) (A) (A) (A) (A) (A) (A) (A) (A) (A) (A) (A)
                 (A) (A) (A) (A) (A) (A) (A) (A) (A) (A) (A) (A)
                 (A) (A) (A) (A) (A) (A) (A) (A) (A) (A) (A) (A)
                 (A) (A) (A) (A) (A) (A) (A) (A) (A) (A) (A) (A)
                 (A) (A) (A) (A) (A) (A) (A) (A) (A) (A) (A) (A)
                 (A) (A) (A) (A) (A) (A) (A) (A) (A) (A) (A) (A)
                 (A) (A) (A) (A) (A) (A) (A) (A) (A) (A) (A) (A)
                 (A) (A) (A) (A) (A) (A) (A) (A) (A) (A) (A) (A)
                 (A) (A) (A) (A) (A) (A) (A) (A) (A) (A) (A) (A)
                 (A) (A) (A) (A) (A) (A) (A) (A) (A) (A) (A) (A)
                 (A) (A) (A) (A) (A) (A) (A) (A) (A) (A) (A) (A)
                 (A) (A) (A) (A) (A) (A) (A) (A) (A) (A) (A) (A)
                 (A) (A) (A) (A) (A) (A) (A) (A) (A) (A) (A) (A)
                 (A) (A) (A) (A) (A) (A) (A) (A)
     8 initial guesses have been made.
 Convergence on wavefunction:    0.000001000000000
 Iteration     1 Dimension     8 NMult     0 NNew      8
 CISAX will form     8 AO SS matrices at one time.
 New state      1 was old state      8
 Iteration     2 Dimension    12 NMult     8 NNew      4
 New state      1 was old state      2
 Iteration     3 Dimension    16 NMult    12 NNew      4
 Iteration     4 Dimension    20 NMult    16 NNew      4
 Iteration     5 Dimension    24 NMult    20 NNew      4
 Iteration     6 Dimension    28 NMult    24 NNew      4
 Iteration     7 Dimension    32 NMult    28 NNew      4
 Iteration     8 Dimension    36 NMult    32 NNew      4
 Iteration     9 Dimension    40 NMult    36 NNew      4
 Iteration    10 Dimension    44 NMult    40 NNew      4
 Iteration    11 Dimension    48 NMult    44 NNew      4
 Iteration    12 Dimension    52 NMult    48 NNew      4
 Iteration    13 Dimension    56 NMult    52 NNew      4
 ***********************************************************************
 Excited states from <AA,BB:AA,BB> singles matrix:
 ***********************************************************************
 
 Ground to excited state transition densities written to RWF  633
 Ground to excited state transition electric dipole moments (Au):
       state          X           Y           Z        Dip. S.      Osc.
         1        -2.4228      0.3471     -0.0283      5.9911      0.6226
 Ground to excited state transition velocity dipole moments (Au):
       state          X           Y           Z        Dip. S.      Osc.
         1         0.3742     -0.0553      0.0045      0.1431      0.6119
 Ground to excited state transition magnetic dipole moments (Au):
       state          X           Y           Z
         1        -0.0382     -0.1587      0.0969
 Ground to excited state transition velocity quadrupole moments (Au):
       state          XX          YY          ZZ          XY          XZ          YZ
         1         0.9328     -0.2006      0.0657     -0.1565      0.0498      0.0038
 <0|del|b> * <b|rxdel|0> + <0|del|b> * <b|delr+rdel|0>
 Rotatory Strengths (R) in cgs (10**-40 erg-esu-cm/Gauss)
       state          XX          YY          ZZ    R(velocity)    E-M Angle
         1        25.5192    -26.5586    -21.9718     -7.6704       94.05
 1/2[<0|r|b>*<b|rxdel|0> + (<0|rxdel|b>*<b|r|0>)*]
 Rotatory Strengths (R) in cgs (10**-40 erg-esu-cm/Gauss)
       state          XX          YY          ZZ     R(length)
         1       -65.4042     38.9526      1.9412     -8.1701
  1/2[<0|del|b>*<b|r|0> + (<0|r|b>*<b|del|0>)*] (Au)
       state          X           Y           Z        Dip. S.   Osc.(frdel)
         1        -0.9066     -0.0192     -0.0001      0.9259      0.6172

 Excitation energies and oscillator strengths:
 
 Excited State   1:      Singlet-A      4.2421 eV  292.27 nm  f=0.6226  <S**2>=0.000
      52 -> 56        -0.11441
      55 -> 56         0.66570
 This state for optimization and/or second-order correction.
 Total Energy, E(TD-HF/TD-KS) =  -731.240265472    
 Copying the excited state density for this state as the 1-particle RhoCI density.
 SavETr:  write IOETrn=   770 NScale= 10 NData=  16 NLR=1 NState=    1 LETran=      28.
          IDoAtm=111111111111111111111111111
          Differentiating once with respect to electric field.
                with respect to dipole field.
          Differentiating once with respect to nuclear coordinates.
          There are     1 degrees of freedom in the 1st order CPHF.  IDoFFX=0 NUNeed=     1.
 LinEq1:  Iter=  0 NonCon=     1 RMS=4.03D-03 Max=3.12D-01 NDo=     1
 AX will form     1 AO Fock derivatives at one time.
 LinEq1:  Iter=  1 NonCon=     1 RMS=1.61D-03 Max=7.48D-02 NDo=     1
 LinEq1:  Iter=  2 NonCon=     1 RMS=1.12D-03 Max=6.64D-02 NDo=     1
 LinEq1:  Iter=  3 NonCon=     1 RMS=3.46D-04 Max=1.44D-02 NDo=     1
 LinEq1:  Iter=  4 NonCon=     1 RMS=2.45D-04 Max=8.75D-03 NDo=     1
 LinEq1:  Iter=  5 NonCon=     1 RMS=1.14D-04 Max=5.51D-03 NDo=     1
 LinEq1:  Iter=  6 NonCon=     1 RMS=5.48D-05 Max=1.62D-03 NDo=     1
 LinEq1:  Iter=  7 NonCon=     1 RMS=2.34D-05 Max=1.18D-03 NDo=     1
 LinEq1:  Iter=  8 NonCon=     1 RMS=1.16D-05 Max=5.03D-04 NDo=     1
 LinEq1:  Iter=  9 NonCon=     1 RMS=5.81D-06 Max=1.95D-04 NDo=     1
 LinEq1:  Iter= 10 NonCon=     1 RMS=2.49D-06 Max=1.49D-04 NDo=     1
 LinEq1:  Iter= 11 NonCon=     1 RMS=1.11D-06 Max=3.48D-05 NDo=     1
 LinEq1:  Iter= 12 NonCon=     1 RMS=5.75D-07 Max=2.43D-05 NDo=     1
 LinEq1:  Iter= 13 NonCon=     1 RMS=2.56D-07 Max=7.78D-06 NDo=     1
 LinEq1:  Iter= 14 NonCon=     1 RMS=9.93D-08 Max=2.29D-06 NDo=     1
 LinEq1:  Iter= 15 NonCon=     1 RMS=4.49D-08 Max=1.19D-06 NDo=     1
 LinEq1:  Iter= 16 NonCon=     1 RMS=1.88D-08 Max=5.06D-07 NDo=     1
 LinEq1:  Iter= 17 NonCon=     1 RMS=9.19D-09 Max=3.24D-07 NDo=     1
 LinEq1:  Iter= 18 NonCon=     1 RMS=3.71D-09 Max=1.31D-07 NDo=     1
 LinEq1:  Iter= 19 NonCon=     1 RMS=1.66D-09 Max=7.77D-08 NDo=     1
 LinEq1:  Iter= 20 NonCon=     1 RMS=7.49D-10 Max=2.56D-08 NDo=     1
 LinEq1:  Iter= 21 NonCon=     1 RMS=3.07D-10 Max=9.15D-09 NDo=     1
 LinEq1:  Iter= 22 NonCon=     1 RMS=1.38D-10 Max=4.71D-09 NDo=     1
 LinEq1:  Iter= 23 NonCon=     1 RMS=5.41D-11 Max=1.47D-09 NDo=     1
 LinEq1:  Iter= 24 NonCon=     0 RMS=2.54D-11 Max=9.23D-10 NDo=     1
 Linear equations converged to 1.000D-10 1.000D-09 after    24 iterations.
 End of Minotr F.D. properties file   721 does not exist.
 End of Minotr F.D. properties file   722 does not exist.
 End of Minotr F.D. properties file   788 does not exist.

 **********************************************************************

            Population analysis using the SCF density.

 **********************************************************************

 Orbital symmetries:
       Occupied  (A) (A) (A) (A) (A) (A) (A) (A) (A) (A) (A) (A)
                 (A) (A) (A) (A) (A) (A) (A) (A) (A) (A) (A) (A)
                 (A) (A) (A) (A) (A) (A) (A) (A) (A) (A) (A) (A)
                 (A) (A) (A) (A) (A) (A) (A) (A) (A) (A) (A) (A)
                 (A) (A) (A) (A) (A) (A) (A)
       Virtual   (A) (A) (A) (A) (A) (A) (A) (A) (A) (A) (A) (A)
                 (A) (A) (A) (A) (A) (A) (A) (A) (A) (A) (A) (A)
                 (A) (A) (A) (A) (A) (A) (A) (A) (A) (A) (A) (A)
                 (A) (A) (A) (A) (A) (A) (A) (A) (A) (A) (A) (A)
                 (A) (A) (A) (A) (A) (A) (A) (A) (A) (A) (A) (A)
                 (A) (A) (A) (A) (A) (A) (A) (A) (A) (A) (A) (A)
                 (A) (A) (A) (A) (A) (A) (A) (A) (A) (A) (A) (A)
                 (A) (A) (A) (A) (A) (A) (A) (A) (A) (A) (A) (A)
                 (A) (A) (A) (A) (A) (A) (A) (A) (A) (A) (A) (A)
                 (A) (A) (A) (A) (A) (A) (A) (A) (A) (A) (A) (A)
                 (A) (A) (A) (A) (A) (A) (A) (A) (A) (A) (A) (A)
                 (A) (A) (A) (A) (A) (A) (A) (A) (A) (A) (A) (A)
                 (A) (A) (A) (A) (A) (A) (A) (A) (A) (A) (A) (A)
                 (A) (A) (A) (A) (A) (A) (A) (A) (A) (A) (A) (A)
                 (A) (A) (A) (A) (A) (A) (A) (A) (A) (A) (A) (A)
                 (A) (A) (A) (A) (A) (A) (A) (A) (A) (A) (A) (A)
                 (A) (A) (A) (A) (A) (A) (A) (A) (A) (A) (A) (A)
                 (A) (A) (A) (A) (A) (A) (A) (A) (A) (A) (A) (A)
                 (A) (A) (A) (A) (A) (A) (A) (A) (A) (A) (A) (A)
                 (A) (A) (A) (A) (A) (A) (A) (A) (A) (A) (A) (A)
                 (A) (A) (A) (A) (A) (A) (A) (A) (A) (A) (A) (A)
                 (A) (A) (A) (A) (A) (A) (A) (A) (A) (A) (A) (A)
                 (A) (A) (A) (A) (A) (A) (A) (A) (A) (A) (A) (A)
                 (A) (A) (A) (A) (A) (A) (A) (A) (A) (A) (A) (A)
                 (A) (A) (A) (A) (A) (A) (A) (A) (A) (A) (A) (A)
                 (A) (A) (A) (A) (A) (A) (A) (A) (A) (A) (A) (A)
                 (A) (A) (A) (A) (A) (A) (A) (A) (A) (A) (A) (A)
                 (A) (A) (A) (A) (A) (A) (A) (A) (A) (A) (A) (A)
                 (A) (A) (A) (A) (A) (A) (A) (A) (A) (A) (A) (A)
                 (A) (A) (A) (A) (A) (A) (A) (A)
 The electronic state is 1-A.
 Alpha  occ. eigenvalues --  -24.81955 -19.25952 -19.22606 -14.49366 -10.38095
 Alpha  occ. eigenvalues --  -10.37768 -10.36386 -10.34910 -10.34192 -10.33952
 Alpha  occ. eigenvalues --  -10.30813 -10.29726 -10.29012 -10.28637 -10.27712
 Alpha  occ. eigenvalues --   -1.33630  -1.17061  -1.13168  -1.09115  -0.97002
 Alpha  occ. eigenvalues --   -0.89817  -0.87030  -0.85569  -0.85338  -0.80449
 Alpha  occ. eigenvalues --   -0.74568  -0.72129  -0.69974  -0.65964  -0.64451
 Alpha  occ. eigenvalues --   -0.63368  -0.60888  -0.58962  -0.58785  -0.58098
 Alpha  occ. eigenvalues --   -0.56514  -0.55739  -0.53444  -0.52823  -0.52043
 Alpha  occ. eigenvalues --   -0.51790  -0.51549  -0.50539  -0.49805  -0.49454
 Alpha  occ. eigenvalues --   -0.47516  -0.47188  -0.46149  -0.43511  -0.42497
 Alpha  occ. eigenvalues --   -0.41974  -0.34360  -0.33599  -0.30939  -0.29330
 Alpha virt. eigenvalues --    0.00111   0.02525   0.03999   0.05081   0.05195
 Alpha virt. eigenvalues --    0.05729   0.06296   0.06465   0.07572   0.07718
 Alpha virt. eigenvalues --    0.08016   0.08380   0.08885   0.10278   0.10892
 Alpha virt. eigenvalues --    0.11520   0.12498   0.12726   0.13127   0.13381
 Alpha virt. eigenvalues --    0.13811   0.14436   0.14657   0.15017   0.16000
 Alpha virt. eigenvalues --    0.16291   0.16610   0.16877   0.17015   0.17488
 Alpha virt. eigenvalues --    0.17645   0.18303   0.18497   0.18938   0.19152
 Alpha virt. eigenvalues --    0.19588   0.19812   0.20755   0.21263   0.21387
 Alpha virt. eigenvalues --    0.21567   0.21621   0.22351   0.22948   0.23469
 Alpha virt. eigenvalues --    0.24002   0.24068   0.24278   0.24788   0.25589
 Alpha virt. eigenvalues --    0.25967   0.26143   0.27124   0.27192   0.27591
 Alpha virt. eigenvalues --    0.28001   0.28601   0.29238   0.29380   0.29837
 Alpha virt. eigenvalues --    0.30796   0.30986   0.32265   0.32475   0.33137
 Alpha virt. eigenvalues --    0.33549   0.33990   0.34367   0.35228   0.35861
 Alpha virt. eigenvalues --    0.36394   0.36573   0.37408   0.37841   0.38150
 Alpha virt. eigenvalues --    0.38946   0.39269   0.39629   0.40011   0.40504
 Alpha virt. eigenvalues --    0.41436   0.42904   0.43031   0.43294   0.43902
 Alpha virt. eigenvalues --    0.44395   0.45267   0.45442   0.46373   0.46762
 Alpha virt. eigenvalues --    0.49181   0.49446   0.50374   0.50974   0.51348
 Alpha virt. eigenvalues --    0.52121   0.52653   0.54608   0.55021   0.57465
 Alpha virt. eigenvalues --    0.58442   0.60370   0.61050   0.61248   0.62940
 Alpha virt. eigenvalues --    0.63487   0.64055   0.65563   0.65848   0.66489
 Alpha virt. eigenvalues --    0.67204   0.67947   0.68449   0.68669   0.69967
 Alpha virt. eigenvalues --    0.70083   0.70617   0.70810   0.71690   0.71798
 Alpha virt. eigenvalues --    0.73852   0.74341   0.75227   0.75707   0.76615
 Alpha virt. eigenvalues --    0.77266   0.78860   0.79907   0.80063   0.80562
 Alpha virt. eigenvalues --    0.81616   0.82845   0.85378   0.86748   0.87379
 Alpha virt. eigenvalues --    0.88173   0.89556   0.90687   0.93935   0.94176
 Alpha virt. eigenvalues --    0.94811   0.96434   0.97079   0.98070   0.98446
 Alpha virt. eigenvalues --    0.99269   1.02015   1.02302   1.02934   1.04569
 Alpha virt. eigenvalues --    1.05021   1.05770   1.07612   1.08006   1.09579
 Alpha virt. eigenvalues --    1.11995   1.12781   1.13330   1.14075   1.15525
 Alpha virt. eigenvalues --    1.16367   1.17210   1.17938   1.19349   1.19568
 Alpha virt. eigenvalues --    1.21730   1.24154   1.26033   1.27780   1.31815
 Alpha virt. eigenvalues --    1.32387   1.33135   1.34213   1.36341   1.37812
 Alpha virt. eigenvalues --    1.39433   1.42489   1.45173   1.47034   1.49688
 Alpha virt. eigenvalues --    1.50373   1.51750   1.51960   1.53131   1.54717
 Alpha virt. eigenvalues --    1.55570   1.57563   1.58460   1.59592   1.61168
 Alpha virt. eigenvalues --    1.62428   1.63017   1.63290   1.64717   1.64804
 Alpha virt. eigenvalues --    1.65015   1.65805   1.67842   1.69101   1.69382
 Alpha virt. eigenvalues --    1.71280   1.72834   1.73641   1.74580   1.76659
 Alpha virt. eigenvalues --    1.77517   1.78540   1.80689   1.81688   1.82126
 Alpha virt. eigenvalues --    1.83763   1.84876   1.86162   1.86935   1.90141
 Alpha virt. eigenvalues --    1.93142   1.94880   1.97132   1.97490   1.99021
 Alpha virt. eigenvalues --    2.00802   2.01224   2.03791   2.04453   2.04480
 Alpha virt. eigenvalues --    2.06813   2.07351   2.07879   2.09522   2.10247
 Alpha virt. eigenvalues --    2.12174   2.13492   2.16885   2.17153   2.18252
 Alpha virt. eigenvalues --    2.19202   2.21326   2.23859   2.24167   2.26086
 Alpha virt. eigenvalues --    2.29560   2.30344   2.32019   2.37053   2.39860
 Alpha virt. eigenvalues --    2.41330   2.44766   2.45876   2.46467   2.50504
 Alpha virt. eigenvalues --    2.51508   2.52744   2.54673   2.55969   2.58622
 Alpha virt. eigenvalues --    2.59626   2.61903   2.63619   2.65004   2.68042
 Alpha virt. eigenvalues --    2.70421   2.71095   2.72256   2.73517   2.75704
 Alpha virt. eigenvalues --    2.77190   2.78670   2.79020   2.81876   2.82850
 Alpha virt. eigenvalues --    2.84125   2.84438   2.85090   2.87744   2.88980
 Alpha virt. eigenvalues --    2.89425   2.91671   2.92685   2.95071   2.95781
 Alpha virt. eigenvalues --    2.97586   2.98297   3.01213   3.03847   3.08033
 Alpha virt. eigenvalues --    3.10281   3.13230   3.15657   3.18372   3.21484
 Alpha virt. eigenvalues --    3.22046   3.24832   3.25891   3.26900   3.30584
 Alpha virt. eigenvalues --    3.31261   3.32579   3.37564   3.42900   3.46759
 Alpha virt. eigenvalues --    3.52848   3.57000   3.61078   3.62954   3.67328
 Alpha virt. eigenvalues --    3.68634   3.72007   3.74205   3.79415   3.80140
 Alpha virt. eigenvalues --    3.82632   3.83180   3.84793   3.88038   3.89568
 Alpha virt. eigenvalues --    3.92771   3.94425   3.96732   4.03794   4.08540
 Alpha virt. eigenvalues --    4.08627   4.12555   4.18135   4.23547   4.29334
 Alpha virt. eigenvalues --    4.31491   4.39738   4.64413   4.93949   4.97921
 Alpha virt. eigenvalues --    4.98367   5.13742   5.17737   5.18693   5.43207
 Alpha virt. eigenvalues --    5.62504   5.90065   5.94640   6.43983   6.56829
 Alpha virt. eigenvalues --    6.87932  23.70924  23.94119  24.03425  24.04303
 Alpha virt. eigenvalues --   24.04871  24.06182  24.07492  24.15935  24.24719
 Alpha virt. eigenvalues --   24.29873  24.32777  35.70255  50.13768  50.19926
 Alpha virt. eigenvalues --   66.95145
          Condensed to atoms (all electrons):
               1          2          3          4          5          6
     1  C    5.246174   0.386699   0.416330  -0.072689   0.013228   0.243247
     2  H    0.386699   0.488215  -0.019519   0.005694  -0.006606  -0.049312
     3  H    0.416330  -0.019519   0.527545  -0.006528   0.000644  -0.054165
     4  C   -0.072689   0.005694  -0.006528   5.183569   0.395322   0.273936
     5  H    0.013228  -0.006606   0.000644   0.395322   0.560174  -0.049307
     6  N    0.243247  -0.049312  -0.054165   0.273936  -0.049307   6.855454
     7  H    0.417853  -0.020921  -0.053215   0.010113   0.001929  -0.035685
     8  H   -0.001755   0.003808  -0.000528   0.409777  -0.030016  -0.094065
     9  H   -0.013910  -0.003259   0.003216   0.411600  -0.064313  -0.049471
    10  C    0.169777   0.022082  -0.005487  -0.047949  -0.035743   0.172056
    11  H    0.006561  -0.001246  -0.002462  -0.038376   0.004419  -0.066971
    12  C    0.140845   0.025090  -0.001785  -0.075288   0.016360  -0.229482
    13  C   -0.282467  -0.017385   0.012463  -0.124866   0.004272   0.000011
    14  H    0.017313   0.002019  -0.010096  -0.007204  -0.000010  -0.031754
    15  O   -0.001187   0.000098   0.000184   0.000871  -0.000088   0.004229
    16  C   -0.212381  -0.005052   0.002286   0.007573  -0.000709  -0.005289
    17  C   -0.033390   0.000343  -0.000694  -0.004065  -0.000413   0.005510
    18  C   -0.007033  -0.004770   0.001117  -0.014440   0.000587  -0.008277
    19  O   -0.000055  -0.000006   0.000045   0.000334   0.000010  -0.000159
    20  C    0.006105   0.000311  -0.000829  -0.000692   0.000010  -0.000300
    21  C   -0.000213  -0.000078   0.000847   0.001531   0.000006  -0.000025
    22  H    0.003160   0.000030  -0.000554  -0.002382   0.000023  -0.006875
    23  H   -0.001155  -0.000098   0.000070  -0.000057   0.000008   0.000073
    24  H    0.000073   0.000003  -0.000009   0.000017   0.000001  -0.000028
    25  C   -0.002381  -0.000053   0.000085  -0.000574  -0.000007  -0.000039
    26  H   -0.000945  -0.000057   0.000069   0.000100   0.000001   0.000223
    27  F    0.000010   0.000000   0.000000   0.000000   0.000000   0.000000
               7          8          9         10         11         12
     1  C    0.417853  -0.001755  -0.013910   0.169777   0.006561   0.140845
     2  H   -0.020921   0.003808  -0.003259   0.022082  -0.001246   0.025090
     3  H   -0.053215  -0.000528   0.003216  -0.005487  -0.002462  -0.001785
     4  C    0.010113   0.409777   0.411600  -0.047949  -0.038376  -0.075288
     5  H    0.001929  -0.030016  -0.064313  -0.035743   0.004419   0.016360
     6  N   -0.035685  -0.094065  -0.049471   0.172056  -0.066971  -0.229482
     7  H    0.534989  -0.003059  -0.001460   0.036285   0.002826  -0.043813
     8  H   -0.003059   0.534729  -0.021413   0.059800  -0.007971   0.002573
     9  H   -0.001460  -0.021413   0.560043  -0.004269   0.000468   0.006280
    10  C    0.036285   0.059800  -0.004269  12.513169   0.276172   2.892674
    11  H    0.002826  -0.007971   0.000468   0.276172   0.466878   0.074983
    12  C   -0.043813   0.002573   0.006280   2.892674   0.074983  12.393736
    13  C   -0.030869   0.003768   0.000961  -4.278225   0.123007   1.347894
    14  H    0.013443  -0.003463   0.000832   0.062254   0.001787   0.543971
    15  O    0.000651   0.000152   0.000072   0.032666   0.009304  -0.254428
    16  C   -0.002873   0.005122   0.001131  -2.591321  -0.064016  -4.623213
    17  C   -0.000551   0.003677  -0.000181  -1.603011  -0.066982  -4.026459
    18  C   -0.005596  -0.003818   0.000332  -1.884639   0.050265  -0.872619
    19  O    0.000030  -0.000104   0.000002   0.017016   0.000025  -0.023581
    20  C   -0.000821   0.000136  -0.000009  -0.202590  -0.002573  -0.005223
    21  C    0.002030  -0.000301   0.000003   0.166096   0.002493  -0.303189
    22  H   -0.005589   0.000544  -0.000104  -0.161295   0.002312  -0.027640
    23  H   -0.000026   0.000030   0.000036  -0.019009   0.000799   0.002058
    24  H   -0.000012   0.000002   0.000000   0.000341  -0.000159   0.000635
    25  C    0.000049  -0.000015   0.000000  -0.206267  -0.000920  -0.528523
    26  H    0.000161  -0.000003   0.000004   0.006965  -0.000223  -0.012825
    27  F    0.000000   0.000000   0.000000   0.000546   0.000017   0.003917
              13         14         15         16         17         18
     1  C   -0.282467   0.017313  -0.001187  -0.212381  -0.033390  -0.007033
     2  H   -0.017385   0.002019   0.000098  -0.005052   0.000343  -0.004770
     3  H    0.012463  -0.010096   0.000184   0.002286  -0.000694   0.001117
     4  C   -0.124866  -0.007204   0.000871   0.007573  -0.004065  -0.014440
     5  H    0.004272  -0.000010  -0.000088  -0.000709  -0.000413   0.000587
     6  N    0.000011  -0.031754   0.004229  -0.005289   0.005510  -0.008277
     7  H   -0.030869   0.013443   0.000651  -0.002873  -0.000551  -0.005596
     8  H    0.003768  -0.003463   0.000152   0.005122   0.003677  -0.003818
     9  H    0.000961   0.000832   0.000072   0.001131  -0.000181   0.000332
    10  C   -4.278225   0.062254   0.032666  -2.591321  -1.603011  -1.884639
    11  H    0.123007   0.001787   0.009304  -0.064016  -0.066982   0.050265
    12  C    1.347894   0.543971  -0.254428  -4.623213  -4.026459  -0.872619
    13  C   13.558248  -0.038967   0.889482   1.283482  -4.576566   0.632227
    14  H   -0.038967   0.660479  -0.011972  -0.067893   0.004690  -0.146827
    15  O    0.889482  -0.011972   8.146524  -0.125214  -0.116455  -0.250941
    16  C    1.283482  -0.067893  -0.125214  18.471660   2.254407  -5.114435
    17  C   -4.576566   0.004690  -0.116455   2.254407  17.371041  -4.767489
    18  C    0.632227  -0.146827  -0.250941  -5.114435  -4.767489  16.890411
    19  O   -0.010808  -0.000413  -0.001609   0.073934   0.327761  -0.033998
    20  C   -0.565289  -0.020869  -0.046327  -3.122773   0.107978   1.785113
    21  C   -0.463837  -0.061229   0.005823  -0.924808   0.752065   0.236190
    22  H    0.034352  -0.031413  -0.001288  -0.296794  -0.043311   0.834290
    23  H    0.023000  -0.001241   0.074974  -0.140265   0.009357   0.045517
    24  H    0.004904  -0.000857   0.000184  -0.083407  -0.040775   0.025079
    25  C   -0.955931  -0.014600  -0.021966  -0.987388   0.004889   0.631122
    26  H   -0.012661   0.005244   0.000611   0.139222   0.063016  -0.092104
    27  F    0.007492  -0.000340  -0.000021   0.020351  -0.080647  -0.049664
              19         20         21         22         23         24
     1  C   -0.000055   0.006105  -0.000213   0.003160  -0.001155   0.000073
     2  H   -0.000006   0.000311  -0.000078   0.000030  -0.000098   0.000003
     3  H    0.000045  -0.000829   0.000847  -0.000554   0.000070  -0.000009
     4  C    0.000334  -0.000692   0.001531  -0.002382  -0.000057   0.000017
     5  H    0.000010   0.000010   0.000006   0.000023   0.000008   0.000001
     6  N   -0.000159  -0.000300  -0.000025  -0.006875   0.000073  -0.000028
     7  H    0.000030  -0.000821   0.002030  -0.005589  -0.000026  -0.000012
     8  H   -0.000104   0.000136  -0.000301   0.000544   0.000030   0.000002
     9  H    0.000002  -0.000009   0.000003  -0.000104   0.000036   0.000000
    10  C    0.017016  -0.202590   0.166096  -0.161295  -0.019009   0.000341
    11  H    0.000025  -0.002573   0.002493   0.002312   0.000799  -0.000159
    12  C   -0.023581  -0.005223  -0.303189  -0.027640   0.002058   0.000635
    13  C   -0.010808  -0.565289  -0.463837   0.034352   0.023000   0.004904
    14  H   -0.000413  -0.020869  -0.061229  -0.031413  -0.001241  -0.000857
    15  O   -0.001609  -0.046327   0.005823  -0.001288   0.074974   0.000184
    16  C    0.073934  -3.122773  -0.924808  -0.296794  -0.140265  -0.083407
    17  C    0.327761   0.107978   0.752065  -0.043311   0.009357  -0.040775
    18  C   -0.033998   1.785113   0.236190   0.834290   0.045517   0.025079
    19  O    8.106075  -0.404654   0.016070  -0.003276   0.249364  -0.021985
    20  C   -0.404654  11.057745  -2.502043   0.163442   0.069320   0.675278
    21  C    0.016070  -2.502043   9.350144  -0.165362   0.013185  -0.082190
    22  H   -0.003276   0.163442  -0.165362   0.609020   0.002105   0.003714
    23  H    0.249364   0.069320   0.013185   0.002105   0.300976   0.001431
    24  H   -0.021985   0.675278  -0.082190   0.003714   0.001431   0.456205
    25  C    0.000592  -0.343311   0.018775   0.063631   0.000835  -0.171768
    26  H    0.000475  -0.130425   0.534459  -0.033900   0.000330  -0.002275
    27  F   -0.000614  -0.226707  -0.215560   0.002826  -0.000162  -0.021264
              25         26         27
     1  C   -0.002381  -0.000945   0.000010
     2  H   -0.000053  -0.000057   0.000000
     3  H    0.000085   0.000069   0.000000
     4  C   -0.000574   0.000100   0.000000
     5  H   -0.000007   0.000001   0.000000
     6  N   -0.000039   0.000223   0.000000
     7  H    0.000049   0.000161   0.000000
     8  H   -0.000015  -0.000003   0.000000
     9  H    0.000000   0.000004   0.000000
    10  C   -0.206267   0.006965   0.000546
    11  H   -0.000920  -0.000223   0.000017
    12  C   -0.528523  -0.012825   0.003917
    13  C   -0.955931  -0.012661   0.007492
    14  H   -0.014600   0.005244  -0.000340
    15  O   -0.021966   0.000611  -0.000021
    16  C   -0.987388   0.139222   0.020351
    17  C    0.004889   0.063016  -0.080647
    18  C    0.631122  -0.092104  -0.049664
    19  O    0.000592   0.000475  -0.000614
    20  C   -0.343311  -0.130425  -0.226707
    21  C    0.018775   0.534459  -0.215560
    22  H    0.063631  -0.033900   0.002826
    23  H    0.000835   0.000330  -0.000162
    24  H   -0.171768  -0.002275  -0.021264
    25  C    8.719000  -0.173510   0.596473
    26  H   -0.173510   0.481934  -0.026310
    27  F    0.596473  -0.026310   9.139629
 Mulliken charges:
               1
     1  C   -0.437816
     2  H    0.193967
     3  H    0.190970
     4  C   -0.305327
     5  H    0.190219
     6  N    0.126466
     7  H    0.184128
     8  H    0.142395
     9  H    0.173409
    10  C    0.611906
    11  H    0.229583
    12  C   -0.422948
    13  C   -0.567691
    14  H    0.137114
    15  O   -0.334327
    16  C    2.108663
    17  C    0.456256
    18  C   -1.875601
    19  O   -0.290472
    20  C   -0.290004
    21  C   -0.380881
    22  H    0.060335
    23  H    0.368545
    24  H    0.256860
    25  C   -0.628199
    26  H    0.252423
    27  F   -0.149973
 Sum of Mulliken charges =   0.00000
 Mulliken charges with hydrogens summed into heavy atoms:
               1
     1  C    0.131249
     4  C    0.200696
     6  N    0.126466
    10  C    0.841490
    12  C   -0.285834
    13  C   -0.567691
    15  O   -0.334327
    16  C    2.108663
    17  C    0.456256
    18  C   -1.815266
    19  O    0.078073
    20  C   -0.033144
    21  C   -0.128457
    25  C   -0.628199
    27  F   -0.149973
 Electronic spatial extent (au):  <R**2>=           4731.4804
 Charge=              0.0000 electrons
 Dipole moment (field-independent basis, Debye):
    X=              7.2238    Y=             -3.4626    Z=              0.1280  Tot=              8.0119
 Quadrupole moment (field-independent basis, Debye-Ang):
   XX=            -70.1146   YY=            -88.3727   ZZ=            -91.0233
   XY=             -3.5613   XZ=              0.6065   YZ=              0.2806
 Traceless Quadrupole moment (field-independent basis, Debye-Ang):
   XX=             13.0556   YY=             -5.2025   ZZ=             -7.8531
   XY=             -3.5613   XZ=              0.6065   YZ=              0.2806
 Octapole moment (field-independent basis, Debye-Ang**2):
  XXX=            173.8382  YYY=            -25.8445  ZZZ=              0.7394  XYY=             13.4957
  XXY=              8.0394  XXZ=              1.7509  XZZ=             -3.3909  YZZ=              2.7358
  YYZ=             -0.2766  XYZ=              0.6711
 Hexadecapole moment (field-independent basis, Debye-Ang**3):
 XXXX=          -4546.7517 YYYY=           -937.7108 ZZZZ=           -111.0144 XXXY=           -118.8770
 XXXZ=              4.9407 YYYX=             50.7730 YYYZ=              0.4717 ZZZX=              2.0833
 ZZZY=             -0.6987 XXYY=           -956.1158 XXZZ=           -865.9717 YYZZ=           -180.8584
 XXYZ=              4.9104 YYXZ=             -2.0231 ZZXY=              3.8165
 N-N= 9.402907908444D+02 E-N=-3.591464127344D+03  KE= 7.286993371744D+02
 Calling FoFJK, ICntrl=  10005127 FMM=F ISym2X=0 I1Cent= 0 IOpClX= 0 NMat=1 NMatS=1 NMatT=0.
 ***** Axes restored to original set *****
 -------------------------------------------------------------------
 Center     Atomic                   Forces (Hartrees/Bohr)
 Number     Number              X              Y              Z
 -------------------------------------------------------------------
      1        6           0.002559016   -0.002445588    0.001503093
      2        1           0.000002254    0.000026779   -0.000123096
      3        1          -0.000485563    0.000370310   -0.001038212
      4        6          -0.003106945   -0.000068047    0.000734794
      5        1           0.000202110    0.000426790   -0.001030201
      6        7           0.009180563    0.009293726   -0.000180539
      7        1          -0.000669579    0.000413292    0.000344370
      8        1          -0.000366688    0.000145348   -0.000035537
      9        1           0.000141163    0.000801480    0.000089609
     10        6           0.012356083   -0.019022283    0.000104750
     11        1          -0.001269971    0.000000803    0.000145904
     12        6          -0.014143864    0.008651363   -0.000896149
     13        6          -0.033717189    0.036259832   -0.005620251
     14        1           0.000119179    0.001138286    0.001375248
     15        8           0.008303673   -0.042518199    0.002401170
     16        6           0.044392227    0.001315766    0.000684764
     17        6          -0.026545404   -0.013649030    0.000725817
     18        6           0.004929924    0.010131186    0.001618467
     19        8          -0.003091135    0.011582892   -0.000328916
     20        6           0.001137302   -0.008847696   -0.001379423
     21        6          -0.002412137   -0.001071220   -0.000057265
     22        1          -0.000349133   -0.000390145   -0.000091835
     23        1           0.012444424    0.000109226    0.001233138
     24        1           0.000173058   -0.000094460    0.000101863
     25        6          -0.005840548    0.005727872   -0.000023573
     26        1          -0.000221898    0.000357576   -0.000409353
     27        9          -0.003720922    0.001354141    0.000151362
 -------------------------------------------------------------------
 Cartesian Forces:  Max     0.044392227 RMS     0.010438926

 GradGradGradGradGradGradGradGradGradGradGradGradGradGradGradGradGradGrad
 Berny optimization.
 FormGI is forming the generalized inverse of G from B-inverse, IUseBI=4.
 Internal  Forces:  Max     0.042990954 RMS     0.006332903
 Search for a local minimum.
 Step number   1 out of a maximum of  134
 All quantities printed in internal units (Hartrees-Bohrs-Radians)
 Mixed Optimization -- RFO/linear search
 Second derivative matrix not updated -- first step.
 ITU=  0
     Eigenvalues ---    0.00972   0.01028   0.01054   0.01208   0.01435
     Eigenvalues ---    0.01443   0.01661   0.01955   0.02020   0.02094
     Eigenvalues ---    0.02194   0.02206   0.02258   0.02293   0.02316
     Eigenvalues ---    0.02362   0.02459   0.02530   0.02600   0.02622
     Eigenvalues ---    0.07399   0.07416   0.07594   0.07628   0.15999
     Eigenvalues ---    0.16000   0.16000   0.16000   0.16000   0.16000
     Eigenvalues ---    0.16000   0.16000   0.16000   0.16000   0.16000
     Eigenvalues ---    0.16000   0.22000   0.22000   0.22369   0.23506
     Eigenvalues ---    0.24602   0.24725   0.24823   0.25000   0.25000
     Eigenvalues ---    0.25000   0.25000   0.25000   0.34065   0.34072
     Eigenvalues ---    0.34146   0.34353   0.34400   0.34844   0.34845
     Eigenvalues ---    0.35271   0.35755   0.35760   0.35784   0.36115
     Eigenvalues ---    0.38225   0.38321   0.38483   0.40828   0.42441
     Eigenvalues ---    0.44805   0.46519   0.48136   0.49583   0.49640
     Eigenvalues ---    0.52668   0.56538   0.56753   0.59584   0.85129
 RFO step:  Lambda=-1.18371801D-02 EMin= 9.72439295D-03
 Linear search not attempted -- first point.
 Iteration  1 RMS(Cart)=  0.08185645 RMS(Int)=  0.00204287
 Iteration  2 RMS(Cart)=  0.00382930 RMS(Int)=  0.00016381
 Iteration  3 RMS(Cart)=  0.00001132 RMS(Int)=  0.00016371
 Iteration  4 RMS(Cart)=  0.00000000 RMS(Int)=  0.00016371
 Variable       Old X    -DE/DX   Delta X   Delta X   Delta X     New X
                                 (Linear)    (Quad)   (Total)
    R1        2.05928   0.00000   0.00000  -0.00001  -0.00001   2.05927
    R2        2.07221   0.00120   0.00000   0.00339   0.00339   2.07560
    R3        2.73669  -0.00153   0.00000  -0.00385  -0.00385   2.73284
    R4        2.06738   0.00077   0.00000   0.00217   0.00217   2.06955
    R5        2.07085   0.00107   0.00000   0.00304   0.00304   2.07388
    R6        2.74040  -0.00329   0.00000  -0.00836  -0.00836   2.73204
    R7        2.05927  -0.00007   0.00000  -0.00018  -0.00018   2.05909
    R8        2.06660   0.00035   0.00000   0.00099   0.00099   2.06759
    R9        2.53606   0.01061   0.00000   0.01831   0.01831   2.55437
   R10        2.05238   0.00000   0.00000  -0.00001  -0.00001   2.05236
   R11        2.57265   0.02109   0.00000   0.03917   0.03917   2.61182
   R12        2.73901   0.00357   0.00000   0.00903   0.00903   2.74804
   R13        2.03902   0.00111   0.00000   0.00299   0.00299   2.04201
   R14        2.35262   0.04299   0.00000   0.04981   0.04981   2.40243
   R15        2.80509  -0.01616   0.00000  -0.04583  -0.04583   2.75926
   R16        2.68015   0.01478   0.00000   0.03387   0.03389   2.71403
   R17        2.64963   0.00917   0.00000   0.02033   0.02038   2.67001
   R18        2.51271  -0.01119   0.00000  -0.01841  -0.01841   2.49430
   R19        2.64420  -0.00148   0.00000  -0.00356  -0.00359   2.64061
   R20        2.60774   0.01032   0.00000   0.02090   0.02093   2.62868
   R21        2.04467  -0.00051   0.00000  -0.00139  -0.00139   2.04327
   R22        1.86989   0.01211   0.00000   0.02385   0.02385   1.89374
   R23        2.04458  -0.00009   0.00000  -0.00023  -0.00023   2.04435
   R24        2.59441   0.00786   0.00000   0.01470   0.01465   2.60906
   R25        2.62637   0.00793   0.00000   0.01613   0.01612   2.64248
   R26        2.04421   0.00039   0.00000   0.00104   0.00104   2.04525
   R27        2.53790   0.00395   0.00000   0.00684   0.00684   2.54474
    A1        1.89722   0.00001   0.00000  -0.00020  -0.00020   1.89702
    A2        1.90860   0.00013   0.00000   0.00118   0.00118   1.90979
    A3        1.89224   0.00012   0.00000   0.00186   0.00185   1.89410
    A4        1.94367  -0.00028   0.00000  -0.00224  -0.00224   1.94143
    A5        1.89453  -0.00014   0.00000  -0.00166  -0.00166   1.89287
    A6        1.92661   0.00017   0.00000   0.00114   0.00113   1.92775
    A7        1.94307  -0.00045   0.00000  -0.00322  -0.00323   1.93985
    A8        1.89352   0.00037   0.00000   0.00225   0.00225   1.89577
    A9        1.89562   0.00023   0.00000   0.00010   0.00009   1.89571
   A10        1.91182  -0.00025   0.00000  -0.00080  -0.00080   1.91102
   A11        1.92710  -0.00052   0.00000  -0.00309  -0.00310   1.92400
   A12        1.89166   0.00066   0.00000   0.00509   0.00509   1.89674
   A13        2.05883  -0.00086   0.00000  -0.00338  -0.00338   2.05545
   A14        2.09864   0.00301   0.00000   0.01155   0.01154   2.11019
   A15        2.11620  -0.00215   0.00000  -0.00838  -0.00838   2.10782
   A16        2.01744   0.00327   0.00000   0.01608   0.01607   2.03351
   A17        2.21604  -0.00394   0.00000  -0.01699  -0.01699   2.19905
   A18        2.04968   0.00067   0.00000   0.00095   0.00094   2.05062
   A19        2.06349   0.00221   0.00000   0.00956   0.00951   2.07300
   A20        2.11390  -0.00130   0.00000  -0.00586  -0.00592   2.10798
   A21        2.10574  -0.00090   0.00000  -0.00352  -0.00357   2.10217
   A22        2.10703  -0.00585   0.00000  -0.02227  -0.02286   2.08417
   A23        2.10037  -0.00128   0.00000  -0.00482  -0.00544   2.09493
   A24        2.07577   0.00714   0.00000   0.02736   0.02671   2.10248
   A25        2.07991  -0.01415   0.00000  -0.05481  -0.05484   2.02507
   A26        2.14615   0.01895   0.00000   0.07159   0.07157   2.21772
   A27        2.05713  -0.00480   0.00000  -0.01678  -0.01674   2.04039
   A28        2.14075  -0.01944   0.00000  -0.07410  -0.07408   2.06668
   A29        2.09733   0.00836   0.00000   0.03162   0.03157   2.12890
   A30        2.04510   0.01108   0.00000   0.04248   0.04251   2.08761
   A31        2.13762  -0.00482   0.00000  -0.01869  -0.01868   2.11894
   A32        2.08940   0.00231   0.00000   0.00878   0.00871   2.09811
   A33        2.05616   0.00251   0.00000   0.00992   0.00986   2.06602
   A34        1.85293  -0.00550   0.00000  -0.03202  -0.03202   1.82090
   A35        2.08999   0.00122   0.00000   0.00598   0.00602   2.09601
   A36        2.07573  -0.00281   0.00000  -0.01409  -0.01422   2.06151
   A37        2.11746   0.00159   0.00000   0.00810   0.00813   2.12559
   A38        2.05175   0.00636   0.00000   0.02796   0.02795   2.07970
   A39        2.13176  -0.00300   0.00000  -0.01292  -0.01292   2.11884
   A40        2.09967  -0.00336   0.00000  -0.01504  -0.01504   2.08463
   A41        2.14680  -0.00229   0.00000  -0.01004  -0.01014   2.13666
   A42        2.07005   0.00081   0.00000   0.00373   0.00378   2.07383
   A43        2.06634   0.00148   0.00000   0.00631   0.00635   2.07268
    D1       -0.23524  -0.00005   0.00000  -0.00244  -0.00244  -0.23768
    D2        3.05234   0.00020   0.00000  -0.00005  -0.00004   3.05229
    D3        1.86187  -0.00013   0.00000  -0.00333  -0.00333   1.85853
    D4       -1.13374   0.00011   0.00000  -0.00094  -0.00094  -1.13468
    D5       -2.31559  -0.00037   0.00000  -0.00615  -0.00615  -2.32174
    D6        0.97199  -0.00013   0.00000  -0.00376  -0.00376   0.96823
    D7       -1.11672  -0.00012   0.00000  -0.00458  -0.00459  -1.12132
    D8        1.87734   0.00009   0.00000  -0.00524  -0.00524   1.87210
    D9        3.07224  -0.00014   0.00000  -0.00482  -0.00483   3.06741
   D10       -0.21688   0.00007   0.00000  -0.00548  -0.00547  -0.22235
   D11        0.99031  -0.00048   0.00000  -0.00869  -0.00869   0.98162
   D12       -2.29881  -0.00027   0.00000  -0.00935  -0.00933  -2.30814
   D13        3.11956   0.00029   0.00000   0.00871   0.00869   3.12826
   D14       -0.02990   0.00050   0.00000   0.01443   0.01444  -0.01547
   D15        0.12883   0.00042   0.00000   0.01068   0.01067   0.13950
   D16       -3.02064   0.00062   0.00000   0.01640   0.01642  -3.00422
   D17       -3.12022   0.00029   0.00000   0.00915   0.00915  -3.11107
   D18        0.03211  -0.00033   0.00000  -0.01023  -0.01021   0.02191
   D19        0.01336   0.00051   0.00000   0.01503   0.01501   0.02837
   D20       -3.11748  -0.00011   0.00000  -0.00435  -0.00435  -3.12184
   D21        0.01142   0.00118   0.00000   0.04988   0.04939   0.06081
   D22       -3.12534  -0.00042   0.00000  -0.01633  -0.01586  -3.14120
   D23       -3.14087   0.00180   0.00000   0.06914   0.06867  -3.07220
   D24        0.00556   0.00020   0.00000   0.00294   0.00342   0.00898
   D25        3.13164   0.00099   0.00000   0.04357   0.04396  -3.10758
   D26       -0.01095   0.00115   0.00000   0.04936   0.04988   0.03892
   D27       -0.00520  -0.00054   0.00000  -0.02133  -0.02184  -0.02704
   D28        3.13539  -0.00039   0.00000  -0.01554  -0.01593   3.11946
   D29        0.00011   0.00094   0.00000   0.03006   0.02998   0.03009
   D30       -3.14143   0.00096   0.00000   0.03052   0.03051  -3.11092
   D31       -3.14053   0.00077   0.00000   0.02452   0.02463  -3.11590
   D32        0.00111   0.00080   0.00000   0.02497   0.02517   0.02628
   D33       -3.14130  -0.00076   0.00000  -0.02481  -0.02477   3.11711
   D34       -0.00018  -0.00023   0.00000  -0.00838  -0.00838  -0.00856
   D35       -0.00070  -0.00061   0.00000  -0.01911  -0.01884  -0.01953
   D36        3.14043  -0.00008   0.00000  -0.00268  -0.00245   3.13798
   D37        0.00282   0.00094   0.00000   0.02465   0.02469   0.02751
   D38       -3.13882   0.00092   0.00000   0.02421   0.02417  -3.11465
   D39        3.14149  -0.00016   0.00000  -0.00529  -0.00543   3.13606
   D40       -0.00081  -0.00056   0.00000  -0.01742  -0.01751  -0.01832
   D41       -0.00005  -0.00013   0.00000  -0.00486  -0.00489  -0.00494
   D42        3.14083  -0.00053   0.00000  -0.01698  -0.01697   3.12386
   D43       -0.00003   0.00018   0.00000   0.00536   0.00550   0.00548
   D44        3.14133   0.00041   0.00000   0.01220   0.01222  -3.12963
   D45       -3.14116  -0.00034   0.00000  -0.01077  -0.01059   3.13144
   D46        0.00020  -0.00012   0.00000  -0.00393  -0.00387  -0.00367
   D47        0.00006   0.00010   0.00000   0.00313   0.00298   0.00304
   D48       -3.14118   0.00026   0.00000   0.00780   0.00773  -3.13345
   D49        3.14093  -0.00031   0.00000  -0.00919  -0.00931   3.13162
   D50       -0.00031  -0.00015   0.00000  -0.00452  -0.00457  -0.00488
   D51        0.00036   0.00009   0.00000   0.00302   0.00298   0.00334
   D52       -3.14158  -0.00007   0.00000  -0.00164  -0.00176   3.13984
   D53       -3.14100  -0.00013   0.00000  -0.00369  -0.00361   3.13858
   D54        0.00025  -0.00029   0.00000  -0.00835  -0.00835  -0.00810
         Item               Value     Threshold  Converged?
 Maximum Force            0.042991     0.000450     NO 
 RMS     Force            0.006333     0.000300     NO 
 Maximum Displacement     0.343680     0.001800     NO 
 RMS     Displacement     0.083319     0.001200     NO 
 Predicted change in Energy=-6.230678D-03
 GradGradGradGradGradGradGradGradGradGradGradGradGradGradGradGradGradGrad

                          Input orientation:                          
 ---------------------------------------------------------------------
 Center     Atomic      Atomic             Coordinates (Angstroms)
 Number     Number       Type             X           Y           Z
 ---------------------------------------------------------------------
      1          6           0        3.759491    1.592973    0.091854
      2          1           0        4.809602    1.855548    0.217594
      3          1           0        3.389259    2.055704   -0.832918
      4          6           0        4.827447   -0.629234   -0.133846
      5          1           0        5.285055   -0.431507   -1.111548
      6          7           0        3.625659    0.153710    0.047396
      7          1           0        3.194677    2.003941    0.935340
      8          1           0        4.583525   -1.689394   -0.071911
      9          1           0        5.555678   -0.391074    0.647218
     10          6           0        2.406956   -0.429084   -0.000024
     11          1           0        2.389838   -1.514106   -0.044392
     12          6           0        1.191313    0.228507    0.005340
     13          6           0       -0.030821   -0.559396   -0.011922
     14          1           0        1.146618    1.307883    0.030036
     15          8           0        0.043215   -1.827650    0.035856
     16          6           0       -1.330016    0.106996   -0.007253
     17          6           0       -2.479595   -0.753518    0.018576
     18          6           0       -1.573422    1.498582   -0.030867
     19          8           0       -2.286428   -2.058187    0.070849
     20          6           0       -3.782380   -0.249050   -0.010648
     21          6           0       -2.867719    2.007815   -0.052294
     22          1           0       -0.746761    2.195335   -0.047504
     23          1           0       -1.290205   -2.160121    0.108305
     24          1           0       -4.626469   -0.925523    0.004899
     25          6           0       -3.948951    1.121122   -0.043673
     26          1           0       -3.053967    3.073572   -0.081428
     27          9           0       -5.198444    1.622915   -0.062498
 ---------------------------------------------------------------------
                    Distance matrix (angstroms):
                    1          2          3          4          5
     1  C    0.000000
     2  H    1.089721   0.000000
     3  H    1.098359   1.777924   0.000000
     4  C    2.475817   2.509575   3.125056   0.000000
     5  H    2.806072   2.687618   3.139728   1.097452   0.000000
     6  N    1.446155   2.080130   2.109127   1.445733   2.106947
     7  H    1.095161   1.773461   1.779684   3.277607   3.806683
     8  H    3.388182   3.563921   4.003892   1.089621   1.776308
     9  H    2.733343   2.405934   3.587603   1.094122   1.779924
    10  C    2.434441   3.322590   2.798714   2.432436   3.085278
    11  H    3.398301   4.156737   3.790007   2.594791   3.270034
    12  C    2.909431   3.972950   2.978639   3.738525   4.294390
    13  C    4.360037   5.414271   4.382890   4.860300   5.429924
    14  H    2.629106   3.708445   2.516617   4.162665   4.631992
    15  O    5.051188   6.026394   5.199155   4.934965   5.544605
    16  C    5.302927   6.387715   5.172112   6.202614   6.728196
    17  C    6.666152   7.744626   6.562028   7.309689   7.853067
    18  C    5.335160   6.397825   5.057853   6.746061   7.206374
    19  O    7.062899   8.105091   7.067836   7.258859   7.833997
    20  C    7.764236   8.848931   7.577626   8.619098   9.135844
    21  C    6.641745   7.683572   6.305667   8.134879   8.575548
    22  H    4.548469   5.573052   4.212248   6.249596   6.664480
    23  H    6.291693   7.303779   6.368395   6.310937   6.907256
    24  H    8.756409   9.839666   8.593110   9.459576   9.986432
    25  C    7.724058   8.793173   7.439467   8.949695   9.424324
    26  H    6.974626   7.962959   6.566273   8.708054   9.104175
    27  F    8.959314  10.014667   8.633046  10.275980  10.734287
                    6          7          8          9         10
     6  N    0.000000
     7  H    2.097033   0.000000
     8  H    2.080570   4.072367   0.000000
     9  H    2.093216   3.375417   1.774222   0.000000
    10  C    1.351715   2.723054   2.516147   3.214781   0.000000
    11  H    2.077808   3.739559   2.200850   3.429587   1.086064
    12  C    2.435858   2.833820   3.897616   4.454613   1.382116
    13  C    3.725840   4.227510   4.751072   5.627769   2.441287
    14  H    2.734604   2.344913   4.561402   4.765205   2.146255
    15  O    4.093876   5.042011   4.543692   5.729290   2.746734
    16  C    4.956197   4.995972   6.180709   6.934638   3.775235
    17  C    6.172359   6.375061   7.125427   8.067972   4.897345
    18  C    5.370778   4.891188   6.933460   7.406394   4.422699
    19  O    6.312353   6.876826   6.881325   8.038041   4.968587
    20  C    7.419206   7.392576   8.489211   9.362280   6.191963
    21  C    6.753636   6.142319   8.318098   8.786217   5.810629
    22  H    4.826520   4.066638   6.595730   6.847839   4.103141
    23  H    5.433529   6.175562   5.895317   7.091267   4.083776
    24  H    8.322509   8.403440   9.241936  10.216376   7.050925
    25  C    7.636681   7.264245   8.983481   9.648940   6.542370
    26  H    7.291062   6.420551   9.000956   9.309172   6.488213
    27  F    8.946252   8.460812  10.327555  10.964078   7.877609
                   11         12         13         14         15
    11  H    0.000000
    12  C    2.115571   0.000000
    13  C    2.602330   1.454201   0.000000
    14  H    3.084601   1.080583   2.207907   0.000000
    15  O    2.368838   2.355173   1.271311   3.324019   0.000000
    16  C    4.057915   2.524287   1.460140   2.752678   2.372863
    17  C    4.928878   3.800014   2.456645   4.171202   2.742012
    18  C    4.978344   3.042723   2.572013   2.727397   3.698890
    19  O    4.709222   4.162684   2.709425   4.808108   2.341283
    20  C    6.300618   4.996592   3.764373   5.169208   4.138758
    21  C    6.328183   4.432267   3.826250   4.075731   4.815817
    22  H    4.857800   2.761763   2.846468   2.092479   4.100661
    23  H    3.739434   3.445878   2.040299   4.239255   1.376152
    24  H    7.041124   5.931135   4.610239   6.190094   4.756126
    25  C    6.864742   5.217420   4.263436   5.099523   4.963766
    26  H    7.119212   5.111195   4.726806   4.557959   5.798988
    27  F    8.211167   6.540487   5.609756   6.353552   6.276230
                   16         17         18         19         20
    16  C    0.000000
    17  C    1.436204   0.000000
    18  C    1.412910   2.428075   0.000000
    19  O    2.368299   1.319927   3.628957   0.000000
[...]
 Alpha virt. eigenvalues --   -0.06600   0.01118   0.03128   0.03793   0.04385
 Alpha virt. eigenvalues --    0.05824   0.05982   0.06531   0.06757   0.07116
 Alpha virt. eigenvalues --    0.07900   0.08163   0.08565   0.08826   0.09917
 Alpha virt. eigenvalues --    0.10925   0.11112   0.11816   0.12135   0.12333
 Alpha virt. eigenvalues --    0.12968   0.13328   0.13838   0.14323   0.14625
 Alpha virt. eigenvalues --    0.15350   0.15607   0.15763   0.16309   0.16851
 Alpha virt. eigenvalues --    0.16952   0.17100   0.17838   0.18148   0.18338
 Alpha virt. eigenvalues --    0.19532   0.19940   0.20224   0.20635   0.21007
 Alpha virt. eigenvalues --    0.21085   0.21265   0.21559   0.22234   0.22549
 Alpha virt. eigenvalues --    0.22754   0.22917   0.23605   0.23724   0.24318
 Alpha virt. eigenvalues --    0.25254   0.25497   0.26366   0.26409   0.27109
 Alpha virt. eigenvalues --    0.27606   0.27800   0.28187   0.28658   0.29041
 Alpha virt. eigenvalues --    0.29172   0.30009   0.30334   0.30740   0.31021
 Alpha virt. eigenvalues --    0.31342   0.31939   0.32646   0.33022   0.33404
 Alpha virt. eigenvalues --    0.33590   0.34189   0.34755   0.35216   0.36157
 Alpha virt. eigenvalues --    0.36554   0.36683   0.37649   0.38261   0.38785
 Alpha virt. eigenvalues --    0.39674   0.40199   0.41113   0.42202   0.43237
 Alpha virt. eigenvalues --    0.44044   0.44441   0.45181   0.45464   0.46072
 Alpha virt. eigenvalues --    0.46639   0.46732   0.47017   0.48425   0.49259
 Alpha virt. eigenvalues --    0.50446   0.50722   0.51722   0.52457   0.53511
 Alpha virt. eigenvalues --    0.53867   0.55331   0.55803   0.58082   0.59770
 Alpha virt. eigenvalues --    0.60912   0.61656   0.63004   0.63500   0.65493
 Alpha virt. eigenvalues --    0.65852   0.66869   0.67253   0.67346   0.68319
 Alpha virt. eigenvalues --    0.68683   0.68840   0.70149   0.70273   0.70867
 Alpha virt. eigenvalues --    0.72218   0.72915   0.73478   0.73822   0.74965
 Alpha virt. eigenvalues --    0.75323   0.76208   0.76405   0.77299   0.78597
 Alpha virt. eigenvalues --    0.78756   0.80362   0.81097   0.82641   0.82959
 Alpha virt. eigenvalues --    0.83831   0.84355   0.86670   0.86768   0.88504
 Alpha virt. eigenvalues --    0.89793   0.91541   0.92567   0.93559   0.94495
 Alpha virt. eigenvalues --    0.95234   0.96725   0.97383   0.98525   0.99860
 Alpha virt. eigenvalues --    1.00958   1.02731   1.03917   1.05085   1.05500
 Alpha virt. eigenvalues --    1.06831   1.08234   1.09470   1.11194   1.12754
 Alpha virt. eigenvalues --    1.13402   1.14243   1.15483   1.16921   1.19685
 Alpha virt. eigenvalues --    1.20259   1.21872   1.22802   1.25992   1.27148
 Alpha virt. eigenvalues --    1.27602   1.31656   1.32472   1.33518   1.35411
 Alpha virt. eigenvalues --    1.37074   1.39633   1.40177   1.42740   1.43932
 Alpha virt. eigenvalues --    1.44813   1.46489   1.49208   1.50303   1.51940
 Alpha virt. eigenvalues --    1.53659   1.54746   1.55676   1.56920   1.57983
 Alpha virt. eigenvalues --    1.58526   1.58656   1.60419   1.61407   1.62827
 Alpha virt. eigenvalues --    1.64013   1.65167   1.66215   1.66817   1.68131
 Alpha virt. eigenvalues --    1.68582   1.68994   1.69659   1.72487   1.72782
 Alpha virt. eigenvalues --    1.74329   1.74704   1.75604   1.75978   1.78748
 Alpha virt. eigenvalues --    1.79070   1.80936   1.81475   1.84006   1.84667
 Alpha virt. eigenvalues --    1.86106   1.88342   1.89506   1.90255   1.92338
 Alpha virt. eigenvalues --    1.94893   1.98821   1.99675   2.00901   2.01724
 Alpha virt. eigenvalues --    2.03102   2.04557   2.06103   2.08488   2.08750
 Alpha virt. eigenvalues --    2.09950   2.11560   2.12641   2.14057   2.14948
 Alpha virt. eigenvalues --    2.16329   2.17439   2.18723   2.20110   2.20185
 Alpha virt. eigenvalues --    2.21122   2.22719   2.23721   2.29181   2.31181
 Alpha virt. eigenvalues --    2.33390   2.36080   2.38989   2.40717   2.42190
 Alpha virt. eigenvalues --    2.46027   2.47841   2.48769   2.50411   2.53842
 Alpha virt. eigenvalues --    2.56136   2.56888   2.58296   2.60012   2.60376
 Alpha virt. eigenvalues --    2.62790   2.66543   2.68038   2.69085   2.69450
 Alpha virt. eigenvalues --    2.72364   2.73191   2.75593   2.76833   2.79709
 Alpha virt. eigenvalues --    2.80118   2.83192   2.84979   2.85731   2.86660
 Alpha virt. eigenvalues --    2.87654   2.89140   2.89810   2.91294   2.93213
 Alpha virt. eigenvalues --    2.93857   2.96980   2.99142   3.00222   3.00850
 Alpha virt. eigenvalues --    3.04266   3.05142   3.06323   3.07899   3.11507
 Alpha virt. eigenvalues --    3.12960   3.14960   3.19707   3.21313   3.25174
 Alpha virt. eigenvalues --    3.25701   3.28230   3.32384   3.35212   3.40486
 Alpha virt. eigenvalues --    3.45485   3.46875   3.50925   3.51729   3.57823
 Alpha virt. eigenvalues --    3.58375   3.62751   3.65761   3.68023   3.73833
 Alpha virt. eigenvalues --    3.74495   3.80053   3.80298   3.82868   3.87092
 Alpha virt. eigenvalues --    3.87810   3.88189   3.91548   3.94143   3.96601
 Alpha virt. eigenvalues --    4.00559   4.03274   4.09980   4.12161   4.19052
 Alpha virt. eigenvalues --    4.26666   4.28703   4.31399   4.36715   4.47925
 Alpha virt. eigenvalues --    4.93022   4.94866   5.01383   5.07120   5.16614
 Alpha virt. eigenvalues --    5.28653   5.43096   5.50989   5.80005   5.95420
 Alpha virt. eigenvalues --    6.48148   6.59872   6.91064  23.72654  23.85141
 Alpha virt. eigenvalues --   23.99554  24.01130  24.02915  24.04501  24.10864
 Alpha virt. eigenvalues --   24.18708  24.24066  24.30400  24.36358  35.60776
 Alpha virt. eigenvalues --   50.03120  50.26461  66.98835
          Condensed to atoms (all electrons):
               1          2          3          4          5          6
     1  C    5.366207   0.371413   0.420802  -0.141869   0.020469   0.291469
     2  H    0.371413   0.492373  -0.026191   0.006341  -0.005051  -0.039322
     3  H    0.420802  -0.026191   0.491252  -0.021561   0.006452  -0.048636
     4  C   -0.141869   0.006341  -0.021561   5.283208   0.402839   0.248925
     5  H    0.020469  -0.005051   0.006452   0.402839   0.531826  -0.026568
     6  N    0.291469  -0.039322  -0.048636   0.248925  -0.026568   6.659634
     7  H    0.396713  -0.019793  -0.036693   0.015239  -0.000201  -0.028835
     8  H   -0.001923   0.002351  -0.001235   0.392902  -0.040570  -0.075034
     9  H   -0.026301   0.004420   0.001400   0.411211  -0.054748  -0.043580
    10  C   -0.249374   0.006993   0.022336  -0.144545  -0.071121   0.096874
    11  H    0.018422  -0.000253  -0.001898  -0.012717   0.007709  -0.052293
    12  C    0.247467   0.009202  -0.007991  -0.020318   0.030913  -0.064406
    13  C   -0.152937   0.001497  -0.002514  -0.055967  -0.005515  -0.034811
    14  H    0.023995   0.002500  -0.006373   0.003170   0.002368  -0.024284
    15  O   -0.002967  -0.000167   0.000361  -0.003053  -0.000069  -0.000966
    16  C   -0.121461   0.000109  -0.002933  -0.002929  -0.001158  -0.023468
    17  C   -0.027578  -0.001120  -0.000468  -0.008612   0.000471  -0.017445
    18  C    0.032478   0.001312  -0.002915   0.007648  -0.001360   0.021760
    19  O    0.001875   0.000231  -0.000172  -0.000232  -0.000021   0.000695
    20  C    0.001243   0.000078  -0.000916  -0.000054  -0.000043   0.000560
    21  C    0.003543   0.000274   0.001195   0.001446  -0.000364   0.000823
    22  H    0.000260   0.000166  -0.000889  -0.000410  -0.000101   0.000433
    23  H   -0.001087  -0.000021  -0.000036  -0.000717  -0.000057  -0.000851
    24  H    0.000088   0.000020  -0.000030  -0.000009  -0.000001   0.000059
    25  C   -0.001617  -0.000196   0.000075  -0.000116   0.000018  -0.000679
    26  H   -0.000161  -0.000002   0.000049   0.000033   0.000002  -0.000012
    27  F    0.000002   0.000000   0.000003   0.000000   0.000000   0.000000
               7          8          9         10         11         12
     1  C    0.396713  -0.001923  -0.026301  -0.249374   0.018422   0.247467
     2  H   -0.019793   0.002351   0.004420   0.006993  -0.000253   0.009202
     3  H   -0.036693  -0.001235   0.001400   0.022336  -0.001898  -0.007991
     4  C    0.015239   0.392902   0.411211  -0.144545  -0.012717  -0.020318
     5  H   -0.000201  -0.040570  -0.054748  -0.071121   0.007709   0.030913
     6  N   -0.028835  -0.075034  -0.043580   0.096874  -0.052293  -0.064406
     7  H    0.492217  -0.002229  -0.000298   0.025606  -0.000047  -0.026553
     8  H   -0.002229   0.523128  -0.010654   0.052126  -0.008818  -0.016823
     9  H   -0.000298  -0.010654   0.526813   0.012373  -0.002569   0.005140
    10  C    0.025606   0.052126   0.012373   9.357073   0.396022  -2.237436
    11  H   -0.000047  -0.008818  -0.002569   0.396022   0.448975   0.109762
    12  C   -0.026553  -0.016823   0.005140  -2.237436   0.109762  12.957868
    13  C   -0.015773   0.017202  -0.001026  -1.056046  -0.102014  -0.877826
    14  H   -0.008137  -0.001743  -0.001441  -0.159992   0.008842   0.535884
    15  O    0.000455   0.000908   0.000034   0.013817  -0.000004  -0.509542
    16  C   -0.003811   0.007540  -0.001277   0.572791  -0.052455  -5.060629
    17  C   -0.001055  -0.001247  -0.000789  -0.035696   0.002765  -0.662924
    18  C    0.004888   0.001964   0.001253  -0.604714  -0.017995   1.699474
    19  O   -0.000351  -0.000090  -0.000009  -0.015104   0.002665   0.052030
    20  C    0.000673  -0.000502  -0.000012   0.082004   0.008084   0.045352
    21  C    0.002309   0.000376   0.000125   0.240534  -0.001292   0.189852
    22  H    0.000202   0.000195  -0.000004  -0.029566  -0.000756  -0.019176
    23  H    0.000143   0.000245  -0.000008  -0.016831  -0.002662   0.033785
    24  H    0.000002  -0.000002  -0.000001   0.000167   0.000117  -0.005918
    25  C   -0.000307   0.000083  -0.000008  -0.075416  -0.003289   0.044824
    26  H    0.000029  -0.000002   0.000000   0.005319   0.000043  -0.011570
    27  F    0.000006   0.000000   0.000000   0.000200   0.000002   0.001204
              13         14         15         16         17         18
     1  C   -0.152937   0.023995  -0.002967  -0.121461  -0.027578   0.032478
     2  H    0.001497   0.002500  -0.000167   0.000109  -0.001120   0.001312
     3  H   -0.002514  -0.006373   0.000361  -0.002933  -0.000468  -0.002915
     4  C   -0.055967   0.003170  -0.003053  -0.002929  -0.008612   0.007648
     5  H   -0.005515   0.002368  -0.000069  -0.001158   0.000471  -0.001360
     6  N   -0.034811  -0.024284  -0.000966  -0.023468  -0.017445   0.021760
     7  H   -0.015773  -0.008137   0.000455  -0.003811  -0.001055   0.004888
     8  H    0.017202  -0.001743   0.000908   0.007540  -0.001247   0.001964
     9  H   -0.001026  -0.001441   0.000034  -0.001277  -0.000789   0.001253
    10  C   -1.056046  -0.159992   0.013817   0.572791  -0.035696  -0.604714
    11  H   -0.102014   0.008842  -0.000004  -0.052455   0.002765  -0.017995
    12  C   -0.877826   0.535884  -0.509542  -5.060629  -0.662924   1.699474
    13  C   10.941796  -0.004148   0.470861  -0.380731  -1.664040  -1.477833
    14  H   -0.004148   0.497529  -0.004292  -0.069089  -0.020396   0.002094
    15  O    0.470861  -0.004292   7.786934   0.347545   0.086259  -0.237112
    16  C   -0.380731  -0.069089   0.347545  17.575121  -0.651087  -4.907242
    17  C   -1.664040  -0.020396   0.086259  -0.651087  15.810657  -2.734658
    18  C   -1.477833   0.002094  -0.237112  -4.907242  -2.734658  15.037389
    19  O    0.231117   0.002617  -0.006967  -0.112620   0.032244  -0.041536
    20  C    0.319714   0.020938  -0.017153  -1.365759  -4.226063   0.834221
    21  C    0.594282  -0.037394  -0.029920   0.469197  -1.772327  -1.964376
    22  H   -0.019942  -0.000734  -0.000179   0.014323   0.068462   0.352989
    23  H    0.090370  -0.000847   0.264717  -0.039165  -0.069212   0.025283
    24  H   -0.009334   0.000309  -0.000700  -0.011165  -0.098327   0.066332
    25  C   -0.427796  -0.000525   0.005582  -1.285697   2.653702   0.298054
    26  H    0.016161  -0.000795   0.000169   0.116083  -0.036308  -0.132442
    27  F   -0.001441  -0.000431  -0.000014  -0.011329   0.020268   0.007038
              19         20         21         22         23         24
     1  C    0.001875   0.001243   0.003543   0.000260  -0.001087   0.000088
     2  H    0.000231   0.000078   0.000274   0.000166  -0.000021   0.000020
     3  H   -0.000172  -0.000916   0.001195  -0.000889  -0.000036  -0.000030
     4  C   -0.000232  -0.000054   0.001446  -0.000410  -0.000717  -0.000009
     5  H   -0.000021  -0.000043  -0.000364  -0.000101  -0.000057  -0.000001
     6  N    0.000695   0.000560   0.000823   0.000433  -0.000851   0.000059
     7  H   -0.000351   0.000673   0.002309   0.000202   0.000143   0.000002
     8  H   -0.000090  -0.000502   0.000376   0.000195   0.000245  -0.000002
     9  H   -0.000009  -0.000012   0.000125  -0.000004  -0.000008  -0.000001
    10  C   -0.015104   0.082004   0.240534  -0.029566  -0.016831   0.000167
    11  H    0.002665   0.008084  -0.001292  -0.000756  -0.002662   0.000117
    12  C    0.052030   0.045352   0.189852  -0.019176   0.033785  -0.005918
    13  C    0.231117   0.319714   0.594282  -0.019942   0.090370  -0.009334
    14  H    0.002617   0.020938  -0.037394  -0.000734  -0.000847   0.000309
    15  O   -0.006967  -0.017153  -0.029920  -0.000179   0.264717  -0.000700
    16  C   -0.112620  -1.365759   0.469197   0.014323  -0.039165  -0.011165
    17  C    0.032244  -4.226063  -1.772327   0.068462  -0.069212  -0.098327
    18  C   -0.041536   0.834221  -1.964376   0.352989   0.025283   0.066332
    19  O    8.345284   0.005548   0.033600  -0.002112  -0.008603  -0.010618
    20  C    0.005548  14.538010  -1.327333   0.034825  -0.018544   0.687848
    21  C    0.033600  -1.327333  10.700695  -0.156848   0.010813  -0.079382
    22  H   -0.002112   0.034825  -0.156848   0.532893   0.000574   0.001950
    23  H   -0.008603  -0.018544   0.010813   0.000574   0.379142  -0.000509
    24  H   -0.010618   0.687848  -0.079382   0.001950  -0.000509   0.477941
    25  C   -0.060217  -3.748374  -1.098429   0.039170   0.002103  -0.240281
    26  H    0.000474  -0.054220   0.613904  -0.018006  -0.000119  -0.001525
    27  F   -0.000553  -0.287782  -0.308350   0.001027  -0.000036  -0.020692
              25         26         27
     1  C   -0.001617  -0.000161   0.000002
     2  H   -0.000196  -0.000002   0.000000
     3  H    0.000075   0.000049   0.000003
     4  C   -0.000116   0.000033   0.000000
     5  H    0.000018   0.000002   0.000000
     6  N   -0.000679  -0.000012   0.000000
     7  H   -0.000307   0.000029   0.000006
     8  H    0.000083  -0.000002   0.000000
     9  H   -0.000008   0.000000   0.000000
    10  C   -0.075416   0.005319   0.000200
    11  H   -0.003289   0.000043   0.000002
    12  C    0.044824  -0.011570   0.001204
    13  C   -0.427796   0.016161  -0.001441
    14  H   -0.000525  -0.000795  -0.000431
    15  O    0.005582   0.000169  -0.000014
    16  C   -1.285697   0.116083  -0.011329
    17  C    2.653702  -0.036308   0.020268
    18  C    0.298054  -0.132442   0.007038
    19  O   -0.060217   0.000474  -0.000553
    20  C   -3.748374  -0.054220  -0.287782
    21  C   -1.098429   0.613904  -0.308350
    22  H    0.039170  -0.018006   0.001027
    23  H    0.002103  -0.000119  -0.000036
    24  H   -0.240281  -0.001525  -0.020692
    25  C   10.119201  -0.187531   0.632477
    26  H   -0.187531   0.501362  -0.024570
    27  F    0.632477  -0.024570   9.154924
 Mulliken charges:
               1
     1  C   -0.469171
     2  H    0.192837
     3  H    0.217525
     4  C   -0.359853
     5  H    0.203878
     6  N    0.159957
     7  H    0.205602
     8  H    0.161852
     9  H    0.179955
    10  C   -0.188393
    11  H    0.255653
    12  C   -0.441645
    13  C   -0.393305
    14  H    0.240374
    15  O   -0.164538
    16  C    1.001295
    17  C   -0.645478
    18  C   -0.271992
    19  O   -0.449179
    20  C    0.467658
    21  C   -0.086951
    22  H    0.201255
    23  H    0.352131
    24  H    0.243662
    25  C   -0.664811
    26  H    0.213636
    27  F   -0.161955
 Sum of Mulliken charges =   0.00000
 Mulliken charges with hydrogens summed into heavy atoms:
               1
     1  C    0.146793
     4  C    0.185832
     6  N    0.159957
    10  C    0.067260
    12  C   -0.201271
    13  C   -0.393305
    15  O    0.187593
    16  C    1.001295
    17  C   -0.645478
    18  C   -0.070737
    19  O   -0.449179
    20  C    0.711320
    21  C    0.126685
    25  C   -0.664811
    27  F   -0.161955
 Electronic spatial extent (au):  <R**2>=           4636.6142
 Charge=              0.0000 electrons
 Dipole moment (field-independent basis, Debye):
    X=             14.4727    Y=             -2.5705    Z=              2.9187  Tot=             14.9862
 Quadrupole moment (field-independent basis, Debye-Ang):
   XX=            -68.5782   YY=            -87.6429   ZZ=            -92.6310
   XY=             -5.5914   XZ=             -4.0053   YZ=              8.5899
 Traceless Quadrupole moment (field-independent basis, Debye-Ang):
   XX=             14.3725   YY=             -4.6922   ZZ=             -9.6803
   XY=             -5.5914   XZ=             -4.0053   YZ=              8.5899
 Octapole moment (field-independent basis, Debye-Ang**2):
  XXX=            267.7619  YYY=              3.6254  ZZZ=              3.0135  XYY=             23.4568
  XXY=             -5.0937  XXZ=             -1.6327  XZZ=              8.8227  YZZ=            -17.3448
  YYZ=             17.2241  XYZ=              6.2932
 Hexadecapole moment (field-independent basis, Debye-Ang**3):
 XXXX=          -4355.1483 YYYY=           -587.7620 ZZZZ=           -506.7018 XXXY=           -151.7232
 XXXZ=             18.3456 YYYX=             17.1202 YYYZ=             57.3611 ZZZX=             -1.1075
 ZZZY=             22.0798 XXYY=           -889.8776 XXZZ=           -854.4477 YYZZ=           -193.1781
 XXYZ=             26.2386 YYXZ=            -32.1165 ZZXY=              6.7908
 N-N= 9.348496859339D+02 E-N=-3.580494157591D+03  KE= 7.284558601473D+02
 1\1\GINC-NXN36\FOpt\RwB97XD TD-FC\6-311++G(d,p)\C11H12F1N1O2\BTX008\21
 -Oct-2016\0\\# wb97xd 6-311++g** opt td=(nstates=1,root=1) geom=allche
 ck\\Geom Opt s0\\0,1\C,3.5762041975,1.2053651306,1.0484137282\H,4.5576
 851659,1.3605945944,1.4984776033\H,3.3552769215,2.0587288669,0.3883040
 537\C,4.7960780024,-0.3787329312,-0.3642736758\H,4.9977670503,0.314994
 9263,-1.1940694718\N,3.5724981568,-0.0513851529,0.3386127523\H,2.83537
 40228,1.1872633135,1.8505854393\H,4.7265269586,-1.3883785112,-0.771871
 6015\H,5.6404899873,-0.3472740349,0.3281630416\C,2.3922740955,-0.51498
 25621,-0.1920617896\H,2.4800028456,-1.4248245449,-0.7727555275\C,1.147
 2871149,0.0392407829,-0.0016529367\C,-0.0314156518,-0.5137221921,-0.47
 8713924\H,1.0441626128,0.9645255111,0.5523648865\O,0.018368618,-1.6244
 850235,-1.2800226734\C,-1.3565562168,0.1122155112,-0.2885230996\C,-2.1
 992431469,-0.364816289,0.8014024743\C,-1.8305282289,1.1046592815,-1.13
 40076906\O,-1.8346900297,-1.3202317149,1.5080872883\C,-3.4789943252,0.
 2826745366,1.0072486587\C,-3.0649858498,1.6976830175,-0.9230090225\H,-
 1.2131456039,1.4366271696,-1.9596895949\H,-0.6918723337,-2.2221510962,
 -1.0389476662\H,-4.1057166802,-0.0421628343,1.8273429227\C,-3.86085931
 46,1.2677210296,0.1589912574\H,-3.4335898776,2.4893775486,-1.562666987
 4\F,-5.0452421309,1.8782373867,0.3248080052\\Version=ES64L-G09RevD.01\
 State=1-A\HF=-731.3078565\RMSD=4.854e-09\RMSF=1.455e-05\Dipole=0.81564
 85,0.9276587,-0.6588449\PG=C01 [X(C11H12F1N1O2)]\\@


 THE FIRST MORNING OF CREATION WROTE WHAT THE LAST DAWN OF
 RECKONING SHALL READ. -- OMAR KHAYYAM
 Job cpu time:       3 days  5 hours 21 minutes 36.1 seconds.
 File lengths (MBytes):  RWF=    172 Int=      0 D2E=      0 Chk=     27 Scr=      1
 Normal termination of Gaussian 09 at Fri Oct 21 07:41:32 2016.
