 Entering Gaussian System, Link 0=g09
 Input=2_opt.com
 Output=2_opt.out
 Initial command:
 /share/apps/gaussian/g09_D01/g09/l1.exe "/tmp/3820130.1.serial.q/Gau-15922.inp" -scrdir="/tmp/3820130.1.serial.q/"
 Entering Link 1 = /share/apps/gaussian/g09_D01/g09/l1.exe PID=     15923.
  
 Copyright (c) 1988,1990,1992,1993,1995,1998,2003,2009,2013,
            Gaussian, Inc.  All Rights Reserved.
  
 This is part of the Gaussian(R) 09 program.  It is based on
 the Gaussian(R) 03 system (copyright 2003, Gaussian, Inc.),
 the Gaussian(R) 98 system (copyright 1998, Gaussian, Inc.),
 the Gaussian(R) 94 system (copyright 1995, Gaussian, Inc.),
 the Gaussian 92(TM) system (copyright 1992, Gaussian, Inc.),
 the Gaussian 90(TM) system (copyright 1990, Gaussian, Inc.),
 the Gaussian 88(TM) system (copyright 1988, Gaussian, Inc.),
 the Gaussian 86(TM) system (copyright 1986, Carnegie Mellon
 University), and the Gaussian 82(TM) system (copyright 1983,
 Carnegie Mellon University). Gaussian is a federally registered
 trademark of Gaussian, Inc.
  
 This software contains proprietary and confidential information,
 including trade secrets, belonging to Gaussian, Inc.
  
 This software is provided under written license and may be
 used, copied, transmitted, or stored only in accord with that
 written license.
  
 The following legend is applicable only to US Government
 contracts under FAR:
  
                    RESTRICTED RIGHTS LEGEND
  
 Use, reproduction and disclosure by the US Government is
 subject to restrictions as set forth in subparagraphs (a)
 and (c) of the Commercial Computer Software - Restricted
 Rights clause in FAR 52.227-19.
  
 Gaussian, Inc.
 340 Quinnipiac St., Bldg. 40, Wallingford CT 06492
  
  
 ---------------------------------------------------------------
 Warning -- This program may not be used in any manner that
 competes with the business of Gaussian, Inc. or will provide
 assistance to any competitor of Gaussian, Inc.  The licensee
 of this program is prohibited from giving any competitor of
 Gaussian, Inc. access to this program.  By using this program,
 the user acknowledges that Gaussian, Inc. is engaged in the
 business of creating and licensing software in the field of
 computational chemistry and represents and warrants to the
 licensee that it is not a competitor of Gaussian, Inc. and that
 it will not use this program in any manner prohibited above.
 ---------------------------------------------------------------
  

 Cite this work as:
 Gaussian 09, Revision D.01,
 M. J. Frisch, G. W. Trucks, H. B. Schlegel, G. E. Scuseria, 
 M. A. Robb, J. R. Cheeseman, G. Scalmani, V. Barone, B. Mennucci, 
 G. A. Petersson, H. Nakatsuji, M. Caricato, X. Li, H. P. Hratchian, 
 A. F. Izmaylov, J. Bloino, G. Zheng, J. L. Sonnenberg, M. Hada, 
 M. Ehara, K. Toyota, R. Fukuda, J. Hasegawa, M. Ishida, T. Nakajima, 
 Y. Honda, O. Kitao, H. Nakai, T. Vreven, J. A. Montgomery, Jr., 
 J. E. Peralta, F. Ogliaro, M. Bearpark, J. J. Heyd, E. Brothers, 
 K. N. Kudin, V. N. Staroverov, T. Keith, R. Kobayashi, J. Normand, 
 K. Raghavachari, A. Rendell, J. C. Burant, S. S. Iyengar, J. Tomasi, 
 M. Cossi, N. Rega, J. M. Millam, M. Klene, J. E. Knox, J. B. Cross, 
 V. Bakken, C. Adamo, J. Jaramillo, R. Gomperts, R. E. Stratmann, 
 O. Yazyev, A. J. Austin, R. Cammi, C. Pomelli, J. W. Ochterski, 
 R. L. Martin, K. Morokuma, V. G. Zakrzewski, G. A. Voth, 
 P. Salvador, J. J. Dannenberg, S. Dapprich, A. D. Daniels, 
 O. Farkas, J. B. Foresman, J. V. Ortiz, J. Cioslowski, 
 and D. J. Fox, Gaussian, Inc., Wallingford CT, 2013.
 
 ******************************************
 Gaussian 09:  ES64L-G09RevD.01 24-Apr-2013
                18-Oct-2016 
 ******************************************
 %chk=2_opt.chk
 %mem=2GB
 %nproc=4
 Will use up to    4 processors via shared memory.
 -----------------------
 # wb97xd 6-311++g** opt
 -----------------------
 1/14=-1,18=20,19=15,26=3,38=1/1,3;
 2/9=110,12=2,17=6,18=5,40=1/2;
 3/5=4,6=6,7=1111,11=2,16=1,25=1,30=1,71=1,74=-58/1,2,3;
 4//1;
 5/5=2,38=5/2;
 6/7=2,8=2,9=2,10=2,28=1/1;
 7//1,2,3,16;
 1/14=-1,18=20,19=15,26=3/3(2);
 2/9=110/2;
 99//99;
 2/9=110/2;
 3/5=4,6=6,7=1111,11=2,16=1,25=1,30=1,71=1,74=-58/1,2,3;
 4/5=5,16=3,69=1/1;
 5/5=2,38=5/2;
 7//1,2,3,16;
 1/14=-1,18=20,19=15,26=3/3(-5);
 2/9=110/2;
 6/7=2,8=2,9=2,10=2,19=2,28=1/1;
 99/9=1/99;
 -----------
 Geom Opt s0
 -----------
 Symbolic Z-matrix:
 Charge =  0 Multiplicity = 1
 C                     3.7278    1.62815   0.03633 
 H                     4.77567   1.90727   0.1444 
 H                     3.34538   2.05127  -0.9003 
 C                     4.82693  -0.5935   -0.10793 
 H                     5.28356  -0.42712  -1.09033 
 N                     3.61374   0.1847    0.04867 
 H                     3.16648   2.0626    0.86888 
 H                     4.59639  -1.65403  -0.00943 
 H                     5.55388  -0.32581   0.66408 
 C                     2.40431  -0.39839   0.02783 
 H                     2.40635  -1.48458   0.01595 
 C                     1.19474   0.22496   0.02907 
 C                    -0.00074  -0.59666   0.03008 
 H                     1.12141   1.30131   0.0189 
 O                     0.08313  -1.838     0.04384 
 C                    -1.34554   0.03599   0.00857 
 C                    -2.49709  -0.78732  -0.00514 
 C                    -1.53222   1.42727   0.00225 
 O                    -2.43165  -2.11913   0.0008 
 C                    -3.77098  -0.20504  -0.02634 
 C                    -2.78957   1.99635  -0.01799 
 H                    -0.6716    2.08377   0.01392 
 H                    -1.47209  -2.3492    0.019 
 H                    -4.62956  -0.86581  -0.03682 
 C                    -3.91345   1.16644  -0.03254 
 H                    -2.90203   3.07372  -0.02215 
 F                    -5.15009   1.70753  -0.05306 
 

 GradGradGradGradGradGradGradGradGradGradGradGradGradGradGradGradGradGrad
 Berny optimization.
 Initialization pass.
                           ----------------------------
                           !    Initial Parameters    !
                           ! (Angstroms and Degrees)  !
 --------------------------                            --------------------------
 ! Name  Definition              Value          Derivative Info.                !
 --------------------------------------------------------------------------------
 ! R1    R(1,2)                  1.0898         estimate D2E/DX2                !
 ! R2    R(1,3)                  1.0966         estimate D2E/DX2                !
 ! R3    R(1,6)                  1.448          estimate D2E/DX2                !
 ! R4    R(1,7)                  1.0941         estimate D2E/DX2                !
 ! R5    R(4,5)                  1.096          estimate D2E/DX2                !
 ! R6    R(4,6)                  1.4498         estimate D2E/DX2                !
 ! R7    R(4,8)                  1.0898         estimate D2E/DX2                !
 ! R8    R(4,9)                  1.0937         estimate D2E/DX2                !
 ! R9    R(6,10)                 1.3428         estimate D2E/DX2                !
 ! R10   R(10,11)                1.0863         estimate D2E/DX2                !
 ! R11   R(10,12)                1.3607         estimate D2E/DX2                !
 ! R12   R(12,13)                1.4506         estimate D2E/DX2                !
 ! R13   R(12,14)                1.0789         estimate D2E/DX2                !
 ! R14   R(13,15)                1.2442         estimate D2E/DX2                !
 ! R15   R(13,16)                1.4863         estimate D2E/DX2                !
 ! R16   R(16,17)                1.4157         estimate D2E/DX2                !
 ! R17   R(16,18)                1.4038         estimate D2E/DX2                !
 ! R18   R(17,19)                1.3334         estimate D2E/DX2                !
 ! R19   R(17,20)                1.4008         estimate D2E/DX2                !
 ! R20   R(18,21)                1.3803         estimate D2E/DX2                !
 ! R21   R(18,22)                1.0825         estimate D2E/DX2                !
 ! R22   R(19,23)                0.9869         estimate D2E/DX2                !
 ! R23   R(20,24)                1.0835         estimate D2E/DX2                !
 ! R24   R(20,25)                1.3789         estimate D2E/DX2                !
 ! R25   R(21,25)                1.3972         estimate D2E/DX2                !
 ! R26   R(21,26)                1.0832         estimate D2E/DX2                !
 ! R27   R(25,27)                1.35           estimate D2E/DX2                !
 ! A1    A(2,1,3)              108.7349         estimate D2E/DX2                !
 ! A2    A(2,1,6)              109.2826         estimate D2E/DX2                !
 ! A3    A(2,1,7)              108.4307         estimate D2E/DX2                !
 ! A4    A(3,1,6)              111.3731         estimate D2E/DX2                !
 ! A5    A(3,1,7)              108.5308         estimate D2E/DX2                !
 ! A6    A(6,1,7)              110.4234         estimate D2E/DX2                !
 ! A7    A(5,4,6)              111.3431         estimate D2E/DX2                !
 ! A8    A(5,4,8)              108.4749         estimate D2E/DX2                !
 ! A9    A(5,4,9)              108.5797         estimate D2E/DX2                !
 ! A10   A(6,4,8)              109.6073         estimate D2E/DX2                !
 ! A11   A(6,4,9)              110.4006         estimate D2E/DX2                !
 ! A12   A(8,4,9)              108.3616         estimate D2E/DX2                !
 ! A13   A(1,6,4)              117.9197         estimate D2E/DX2                !
 ! A14   A(1,6,10)             120.2438         estimate D2E/DX2                !
 ! A15   A(4,6,10)             121.26           estimate D2E/DX2                !
 ! A16   A(6,10,11)            115.6378         estimate D2E/DX2                !
 ! A17   A(6,10,12)            126.9902         estimate D2E/DX2                !
 ! A18   A(11,10,12)           117.3704         estimate D2E/DX2                !
 ! A19   A(10,12,13)           118.2363         estimate D2E/DX2                !
 ! A20   A(10,12,14)           121.1593         estimate D2E/DX2                !
 ! A21   A(13,12,14)           120.6013         estimate D2E/DX2                !
 ! A22   A(12,13,15)           120.633          estimate D2E/DX2                !
 ! A23   A(12,13,16)           120.302          estimate D2E/DX2                !
 ! A24   A(15,13,16)           119.0645         estimate D2E/DX2                !
 ! A25   A(13,16,17)           119.2471         estimate D2E/DX2                !
 ! A26   A(13,16,18)           122.8365         estimate D2E/DX2                !
 ! A27   A(17,16,18)           117.9164         estimate D2E/DX2                !
 ! A28   A(16,17,19)           122.7449         estimate D2E/DX2                !
 ! A29   A(16,17,20)           119.877          estimate D2E/DX2                !
 ! A30   A(19,17,20)           117.3781         estimate D2E/DX2                !
 ! A31   A(16,18,21)           121.9939         estimate D2E/DX2                !
 ! A32   A(16,18,22)           119.6897         estimate D2E/DX2                !
 ! A33   A(21,18,22)           118.3163         estimate D2E/DX2                !
 ! A34   A(17,19,23)           106.2981         estimate D2E/DX2                !
 ! A35   A(17,20,24)           117.8583         estimate D2E/DX2                !
 ! A36   A(17,20,25)           120.4949         estimate D2E/DX2                !
 ! A37   A(24,20,25)           121.6468         estimate D2E/DX2                !
 ! A38   A(18,21,25)           119.2098         estimate D2E/DX2                !
 ! A39   A(18,21,26)           120.3107         estimate D2E/DX2                !
 ! A40   A(25,21,26)           120.4795         estimate D2E/DX2                !
 ! A41   A(20,25,21)           120.5079         estimate D2E/DX2                !
 ! A42   A(20,25,27)           119.5623         estimate D2E/DX2                !
 ! A43   A(21,25,27)           119.9298         estimate D2E/DX2                !
 ! D1    D(2,1,6,4)            -13.4849         estimate D2E/DX2                !
 ! D2    D(2,1,6,10)           175.1118         estimate D2E/DX2                !
 ! D3    D(3,1,6,4)            106.669          estimate D2E/DX2                !
 ! D4    D(3,1,6,10)           -64.7343         estimate D2E/DX2                !
 ! D5    D(7,1,6,4)           -132.6736         estimate D2E/DX2                !
 ! D6    D(7,1,6,10)            55.9231         estimate D2E/DX2                !
 ! D7    D(5,4,6,1)            -63.8899         estimate D2E/DX2                !
 ! D8    D(5,4,6,10)           107.4215         estimate D2E/DX2                !
 ! D9    D(8,4,6,1)            176.0861         estimate D2E/DX2                !
 ! D10   D(8,4,6,10)           -12.6025         estimate D2E/DX2                !
 ! D11   D(9,4,6,1)             56.7938         estimate D2E/DX2                !
 ! D12   D(9,4,6,10)          -131.8948         estimate D2E/DX2                !
 ! D13   D(1,6,10,11)          178.6481         estimate D2E/DX2                !
 ! D14   D(1,6,10,12)           -1.8191         estimate D2E/DX2                !
 ! D15   D(4,6,10,11)            7.5366         estimate D2E/DX2                !
 ! D16   D(4,6,10,12)         -172.9307         estimate D2E/DX2                !
 ! D17   D(6,10,12,13)        -178.8301         estimate D2E/DX2                !
 ! D18   D(6,10,12,14)           1.815          estimate D2E/DX2                !
 ! D19   D(11,10,12,13)          0.6956         estimate D2E/DX2                !
 ! D20   D(11,10,12,14)       -178.6593         estimate D2E/DX2                !
 ! D21   D(10,12,13,15)          0.7511         estimate D2E/DX2                !
 ! D22   D(10,12,13,16)       -178.9787         estimate D2E/DX2                !
 ! D23   D(14,12,13,15)       -179.8902         estimate D2E/DX2                !
 ! D24   D(14,12,13,16)          0.3799         estimate D2E/DX2                !
 ! D25   D(12,13,16,17)        179.2972         estimate D2E/DX2                !
 ! D26   D(12,13,16,18)         -0.7586         estimate D2E/DX2                !
 ! D27   D(15,13,16,17)         -0.4368         estimate D2E/DX2                !
 ! D28   D(15,13,16,18)        179.5074         estimate D2E/DX2                !
 ! D29   D(13,16,17,19)          0.0215         estimate D2E/DX2                !
 ! D30   D(13,16,17,20)       -179.9581         estimate D2E/DX2                !
 ! D31   D(18,16,17,19)       -179.9254         estimate D2E/DX2                !
 ! D32   D(18,16,17,20)          0.0949         estimate D2E/DX2                !
 ! D33   D(13,16,18,21)        179.9907         estimate D2E/DX2                !
 ! D34   D(13,16,18,22)         -0.038          estimate D2E/DX2                !
 ! D35   D(17,16,18,21)         -0.0644         estimate D2E/DX2                !
 ! D36   D(17,16,18,22)        179.9069         estimate D2E/DX2                !
 ! D37   D(16,17,19,23)          0.2018         estimate D2E/DX2                !
 ! D38   D(20,17,19,23)       -179.818          estimate D2E/DX2                !
 ! D39   D(16,17,20,24)        179.9737         estimate D2E/DX2                !
 ! D40   D(16,17,20,25)         -0.0695         estimate D2E/DX2                !
 ! D41   D(19,17,20,24)         -0.0071         estimate D2E/DX2                !
 ! D42   D(19,17,20,25)        179.9497         estimate D2E/DX2                !
 ! D43   D(16,18,21,25)          0.0065         estimate D2E/DX2                !
 ! D44   D(16,18,21,26)        179.9846         estimate D2E/DX2                !
 ! D45   D(22,18,21,25)       -179.9653         estimate D2E/DX2                !
 ! D46   D(22,18,21,26)          0.0129         estimate D2E/DX2                !
 ! D47   D(17,20,25,21)          0.0099         estimate D2E/DX2                !
 ! D48   D(17,20,25,27)        179.9995         estimate D2E/DX2                !
 ! D49   D(24,20,25,21)        179.965          estimate D2E/DX2                !
 ! D50   D(24,20,25,27)         -0.0454         estimate D2E/DX2                !
 ! D51   D(18,21,25,20)          0.022          estimate D2E/DX2                !
 ! D52   D(18,21,25,27)       -179.9676         estimate D2E/DX2                !
 ! D53   D(26,21,25,20)       -179.9561         estimate D2E/DX2                !
 ! D54   D(26,21,25,27)          0.0543         estimate D2E/DX2                !
 --------------------------------------------------------------------------------
 Trust Radius=3.00D-01 FncErr=1.00D-07 GrdErr=1.00D-06
 Number of steps in this run=    134 maximum allowed number of steps=    162.
 GradGradGradGradGradGradGradGradGradGradGradGradGradGradGradGradGradGrad

                          Input orientation:                          
 ---------------------------------------------------------------------
 Center     Atomic      Atomic             Coordinates (Angstroms)
 Number     Number       Type             X           Y           Z
 ---------------------------------------------------------------------
      1          6           0        3.727801    1.628145    0.036330
      2          1           0        4.775665    1.907272    0.144395
      3          1           0        3.345378    2.051267   -0.900297
      4          6           0        4.826931   -0.593504   -0.107932
      5          1           0        5.283559   -0.427116   -1.090329
      6          7           0        3.613736    0.184696    0.048668
      7          1           0        3.166484    2.062598    0.868877
      8          1           0        4.596388   -1.654034   -0.009431
      9          1           0        5.553881   -0.325812    0.664079
     10          6           0        2.404312   -0.398388    0.027827
     11          1           0        2.406350   -1.484580    0.015950
     12          6           0        1.194736    0.224960    0.029067
     13          6           0       -0.000736   -0.596655    0.030076
     14          1           0        1.121408    1.301311    0.018904
     15          8           0        0.083130   -1.837999    0.043844
     16          6           0       -1.345538    0.035994    0.008573
     17          6           0       -2.497091   -0.787316   -0.005144
     18          6           0       -1.532215    1.427273    0.002253
     19          8           0       -2.431648   -2.119129    0.000800
     20          6           0       -3.770983   -0.205043   -0.026342
     21          6           0       -2.789570    1.996353   -0.017985
     22          1           0       -0.671598    2.083773    0.013922
     23          1           0       -1.472094   -2.349198    0.018999
     24          1           0       -4.629560   -0.865807   -0.036820
     25          6           0       -3.913445    1.166443   -0.032541
     26          1           0       -2.902031    3.073724   -0.022148
     27          9           0       -5.150094    1.707534   -0.053059
 ---------------------------------------------------------------------
                    Distance matrix (angstroms):
                    1          2          3          4          5
     1  C    0.000000
     2  H    1.089775   0.000000
     3  H    1.096608   1.777030   0.000000
     4  C    2.482866   2.513996   3.133314   0.000000
     5  H    2.813155   2.689213   3.151990   1.096037   0.000000
     6  N    1.448001   2.080027   2.111075   1.449814   2.111856
     7  H    1.094057   1.771571   1.778232   3.281176   3.810403
     8  H    3.395473   3.569132   4.010975   1.089760   1.773661
     9  H    2.747105   2.421230   3.602119   1.093671   1.778000
    10  C    2.420440   3.309527   2.783492   2.434252   3.088877
    11  H    3.381672   4.139422   3.771405   2.582359   3.258898
    12  C    2.895755   3.958096   2.970585   3.725788   4.289140
    13  C    4.341862   5.394138   4.367329   4.829640   5.404426
    14  H    2.626863   3.706283   2.520597   4.163810   4.641267
    15  O    5.029696   6.004752   5.163338   4.906674   5.506487
    16  C    5.317376   6.402285   5.185756   6.205579   6.735502
    17  C    6.677234   7.757329   6.556927   7.327307   7.864215
    18  C    5.263960   6.327713   4.999488   6.673411   7.147536
    19  O    7.209864   8.256990   7.181797   7.417973   7.973574
    20  C    7.719862   8.805465   7.516470   8.607072   9.119546
    21  C    6.527990   7.567502   6.198312   8.045280   8.496972
    22  H    4.422987   5.451683   4.119824   6.116901   6.556510
    23  H    6.546638   7.560936   6.589176   6.540358   7.110827
    24  H    8.721848   9.807194   8.535488   9.460678   9.978590
    25  C    7.655492   8.722429   7.363859   8.916124   9.393787
    26  H    6.785852   7.767584   6.391141   8.555278   8.966648
    27  F    8.878700   9.929732   8.544531  10.239082  10.700176
                    6          7          8          9         10
     6  N    0.000000
     7  H    2.097449   0.000000
     8  H    2.085643   4.077917   0.000000
     9  H    2.098455   3.383210   1.770475   0.000000
    10  C    1.342806   2.710115   2.526506   3.214011   0.000000
    11  H    2.060421   3.726628   2.196731   3.416104   1.086259
    12  C    2.419414   2.823116   3.886301   4.439452   1.360749
    13  C    3.698008   4.219774   4.717326   5.597239   2.413208
    14  H    2.731193   2.341868   4.561837   4.765564   2.129530
    15  O    4.068968   5.040080   4.517320   5.709686   2.731414
    16  C    4.961665   5.020517   6.177621   6.939926   3.774975
    17  C    6.187884   6.400157   7.146234   8.091909   4.916920
    18  C    5.294050   4.820005   6.859618   7.329671   4.339348
    19  O    6.469665   7.041270   7.043416   8.211248   5.133049
    20  C    7.395377   7.353371   8.491923   9.351169   6.178558
    21  C    6.654988   6.022084   8.238797   8.687395   5.719554
    22  H    4.687407   3.932209   6.459367   6.707115   3.952536
    23  H    5.682180   6.457758   6.108235   7.339928   4.339615
    24  H    8.310403   8.377001   9.259599  10.221806   7.049682
    25  C    7.591369   7.193125   8.965092   9.609494   6.508947
    26  H    7.127883   6.216364   8.864431   9.139486   6.341556
    27  F    8.895735   8.375052  10.309992  10.918968   7.842863
                   11         12         13         14         15
    11  H    0.000000
    12  C    2.095402   0.000000
    13  C    2.565672   1.450588   0.000000
    14  H    3.067943   1.078894   2.204905   0.000000
    15  O    2.350114   2.343435   1.244250   3.306646   0.000000
    16  C    4.048316   2.547375   1.486338   2.772536   2.356732
    17  C    4.952813   3.828245   2.503873   4.178095   2.786373
    18  C    4.898099   2.980359   2.538205   2.656663   3.643223
    19  O    4.879458   4.318126   2.868470   4.931931   2.530809
    20  C    6.308601   4.984610   3.790950   5.119242   4.186366
    21  C    6.254249   4.360590   3.808359   3.972429   4.791501
    22  H    4.712421   2.634126   2.763152   1.956308   3.993846
    23  H    3.973651   3.706531   2.288323   4.477998   1.637273
    24  H    7.063264   5.925921   4.637125   6.145986   4.812599
    25  C    6.853472   5.194584   4.292054   5.036922   5.000512
    26  H    6.997035   4.990148   4.678880   4.396725   5.748092
    27  F    8.203304   6.516259   5.641993   6.285056   6.321932
                   16         17         18         19         20
    16  C    0.000000
    17  C    1.415663   0.000000
    18  C    1.403761   2.415667   0.000000
    19  O    2.413348   1.333433   3.658681   0.000000
    20  C    2.437643   1.400818   2.770804   2.336296   0.000000
    21  C    2.434942   2.799022   1.380291   4.131060   2.410267
    22  H    2.155835   3.402343   1.082493   4.556570   3.853114
    23  H    2.388570   1.868335   3.776987   0.986918   3.143938
    24  H    3.405893   2.134148   3.853996   2.530425   1.083454
    25  C    2.806021   2.413293   2.395725   3.604416   1.378879
    26  H    3.413417   3.882254   2.141913   5.214164   3.391962
    27  F    4.156018   3.642114   3.629139   4.694273   2.358094
                   21         22         23         24         25
    21  C    0.000000
    22  H    2.120015   0.000000
    23  H    4.541027   4.504670   0.000000
    24  H    3.402628   4.936402   3.489005   0.000000
    25  C    1.397161   3.369455   4.280489   2.154734   0.000000
    26  H    1.083233   2.440519   5.608431   4.301683   2.158886
    27  F    2.378386   4.494771   5.476308   2.625510   1.350000
                   26         27
    26  H    0.000000
    27  F    2.630821   0.000000
 Stoichiometry    C11H12FNO2
 Framework group  C1[X(C11H12FNO2)]
 Deg. of freedom    75
 Full point group                 C1      NOp   1
 Largest Abelian subgroup         C1      NOp   1
 Largest concise Abelian subgroup C1      NOp   1
                         Standard orientation:                         
 ---------------------------------------------------------------------
 Center     Atomic      Atomic             Coordinates (Angstroms)
 Number     Number       Type             X           Y           Z
 ---------------------------------------------------------------------
      1          6           0        3.981499   -1.803967   -0.037537
      2          1           0        5.005913   -2.159946   -0.144608
      3          1           0        3.566847   -2.200106    0.897175
      4          6           0        5.242514    0.329374    0.115172
      5          1           0        5.683591    0.126729    1.097864
      6          7           0        3.975115   -0.356004   -0.045822
      7          1           0        3.391051   -2.193133   -0.872332
      8          1           0        5.091667    1.404384    0.019395
      9          1           0        5.949047    0.010529   -0.656363
     10          6           0        2.812362    0.315349   -0.025360
     11          1           0        2.895146    1.398344   -0.010281
     12          6           0        1.559785   -0.216311   -0.030532
     13          6           0        0.428727    0.691935   -0.031194
     14          1           0        1.406599   -1.284252   -0.023667
     15          8           0        0.604699    1.923638   -0.041160
     16          6           0       -0.959438    0.160992   -0.013885
     17          6           0       -2.046602    1.067621    0.000261
     18          6           0       -1.249071   -1.212563   -0.011986
     19          8           0       -1.882289    2.390890   -0.001648
     20          6           0       -3.360306    0.581642    0.017536
     21          6           0       -2.545301   -1.686613    0.004396
     22          1           0       -0.439636   -1.931213   -0.024097
     23          1           0       -0.908250    2.549011   -0.017506
     24          1           0       -4.167387    1.304396    0.028472
     25          6           0       -3.604375   -0.775463    0.019449
     26          1           0       -2.737576   -2.752644    0.005192
     27          9           0       -4.877875   -1.223142    0.036229
 ---------------------------------------------------------------------
 Rotational constants (GHZ):      1.4497036      0.2512328      0.2147709
 Standard basis: 6-311++G(d,p) (5D, 7F)
 There are   429 symmetry adapted cartesian basis functions of A   symmetry.
 There are   414 symmetry adapted basis functions of A   symmetry.
   414 basis functions,   648 primitive gaussians,   429 cartesian basis functions
    55 alpha electrons       55 beta electrons
       nuclear repulsion energy       938.7171173182 Hartrees.
 NAtoms=   27 NActive=   27 NUniq=   27 SFac= 1.00D+00 NAtFMM=   60 NAOKFM=F Big=F
 Integral buffers will be    131072 words long.
 Raffenetti 2 integral format.
 Two-electron integral symmetry is turned on.
 Nuclear repulsion after empirical dispersion term =      938.7019947121 Hartrees.
 One-electron integrals computed using PRISM.
 NBasis=   414 RedAO= T EigKep=  1.67D-06  NBF=   414
 NBsUse=   411 1.00D-06 EigRej=  7.73D-07 NBFU=   411
 ExpMin= 3.60D-02 ExpMax= 1.14D+04 ExpMxC= 1.72D+03 IAcc=3 IRadAn=         5 AccDes= 0.00D+00
 Harris functional with IExCor= 4639 and IRadAn=       5 diagonalized for initial guess.
 HarFok:  IExCor= 4639 AccDes= 0.00D+00 IRadAn=         5 IDoV= 1 UseB2=F ITyADJ=14
 ICtDFT=  3500011 ScaDFX=  1.000000  1.000000  1.000000  1.000000
 FoFCou: FMM=F IPFlag=           0 FMFlag=      100000 FMFlg1=           0
         NFxFlg=           0 DoJE=T BraDBF=F KetDBF=T FulRan=T
         wScrn=  0.000000 ICntrl=     500 IOpCl=  0 I1Cent=   200000004 NGrid=           0
         NMat0=    1 NMatS0=      1 NMatT0=    0 NMatD0=    1 NMtDS0=    0 NMtDT0=    0
 Petite list used in FoFCou.
 Requested convergence on RMS density matrix=1.00D-08 within 128 cycles.
 Requested convergence on MAX density matrix=1.00D-06.
 Requested convergence on             energy=1.00D-06.
 No special actions if energy rises.
 SCF Done:  E(RwB97XD) =  -731.395327252     A.U. after   16 cycles
            NFock= 16  Conv=0.67D-08     -V/T= 2.0038

 **********************************************************************

            Population analysis using the SCF density.

 **********************************************************************

 Orbital symmetries:
       Occupied  (A) (A) (A) (A) (A) (A) (A) (A) (A) (A) (A) (A)
                 (A) (A) (A) (A) (A) (A) (A) (A) (A) (A) (A) (A)
                 (A) (A) (A) (A) (A) (A) (A) (A) (A) (A) (A) (A)
                 (A) (A) (A) (A) (A) (A) (A) (A) (A) (A) (A) (A)
                 (A) (A) (A) (A) (A) (A) (A)
       Virtual   (A) (A) (A) (A) (A) (A) (A) (A) (A) (A) (A) (A)
                 (A) (A) (A) (A) (A) (A) (A) (A) (A) (A) (A) (A)
                 (A) (A) (A) (A) (A) (A) (A) (A) (A) (A) (A) (A)
                 (A) (A) (A) (A) (A) (A) (A) (A) (A) (A) (A) (A)
                 (A) (A) (A) (A) (A) (A) (A) (A) (A) (A) (A) (A)
                 (A) (A) (A) (A) (A) (A) (A) (A) (A) (A) (A) (A)
                 (A) (A) (A) (A) (A) (A) (A) (A) (A) (A) (A) (A)
                 (A) (A) (A) (A) (A) (A) (A) (A) (A) (A) (A) (A)
                 (A) (A) (A) (A) (A) (A) (A) (A) (A) (A) (A) (A)
                 (A) (A) (A) (A) (A) (A) (A) (A) (A) (A) (A) (A)
                 (A) (A) (A) (A) (A) (A) (A) (A) (A) (A) (A) (A)
                 (A) (A) (A) (A) (A) (A) (A) (A) (A) (A) (A) (A)
                 (A) (A) (A) (A) (A) (A) (A) (A) (A) (A) (A) (A)
                 (A) (A) (A) (A) (A) (A) (A) (A) (A) (A) (A) (A)
                 (A) (A) (A) (A) (A) (A) (A) (A) (A) (A) (A) (A)
                 (A) (A) (A) (A) (A) (A) (A) (A) (A) (A) (A) (A)
                 (A) (A) (A) (A) (A) (A) (A) (A) (A) (A) (A) (A)
                 (A) (A) (A) (A) (A) (A) (A) (A) (A) (A) (A) (A)
                 (A) (A) (A) (A) (A) (A) (A) (A) (A) (A) (A) (A)
                 (A) (A) (A) (A) (A) (A) (A) (A) (A) (A) (A) (A)
                 (A) (A) (A) (A) (A) (A) (A) (A) (A) (A) (A) (A)
                 (A) (A) (A) (A) (A) (A) (A) (A) (A) (A) (A) (A)
                 (A) (A) (A) (A) (A) (A) (A) (A) (A) (A) (A) (A)
                 (A) (A) (A) (A) (A) (A) (A) (A) (A) (A) (A) (A)
                 (A) (A) (A) (A) (A) (A) (A) (A) (A) (A) (A) (A)
                 (A) (A) (A) (A) (A) (A) (A) (A) (A) (A) (A) (A)
                 (A) (A) (A) (A) (A) (A) (A) (A) (A) (A) (A) (A)
                 (A) (A) (A) (A) (A) (A) (A) (A) (A) (A) (A) (A)
                 (A) (A) (A) (A) (A) (A) (A) (A) (A) (A) (A) (A)
                 (A) (A) (A) (A) (A) (A) (A) (A)
 The electronic state is 1-A.
 Alpha  occ. eigenvalues --  -24.82222 -19.26025 -19.22641 -14.49365 -10.38451
 Alpha  occ. eigenvalues --  -10.37800 -10.36418 -10.34919 -10.34190 -10.33955
 Alpha  occ. eigenvalues --  -10.30856 -10.29798 -10.29214 -10.28825 -10.27735
 Alpha  occ. eigenvalues --   -1.33513  -1.17000  -1.13201  -1.09107  -0.96943
 Alpha  occ. eigenvalues --   -0.89828  -0.87041  -0.85563  -0.85257  -0.80463
 Alpha  occ. eigenvalues --   -0.74663  -0.71988  -0.69951  -0.65972  -0.64526
 Alpha  occ. eigenvalues --   -0.63373  -0.60850  -0.58958  -0.58782  -0.58074
 Alpha  occ. eigenvalues --   -0.56437  -0.55954  -0.53413  -0.52839  -0.52037
 Alpha  occ. eigenvalues --   -0.51786  -0.51542  -0.50456  -0.49803  -0.49375
 Alpha  occ. eigenvalues --   -0.47520  -0.47175  -0.46278  -0.43462  -0.42519
 Alpha  occ. eigenvalues --   -0.41976  -0.34384  -0.33657  -0.30952  -0.29380
 Alpha virt. eigenvalues --    0.00015   0.02521   0.03991   0.05076   0.05154
 Alpha virt. eigenvalues --    0.05721   0.06300   0.06470   0.07567   0.07682
 Alpha virt. eigenvalues --    0.08011   0.08328   0.08874   0.10270   0.10844
 Alpha virt. eigenvalues --    0.11509   0.12482   0.12708   0.13097   0.13347
 Alpha virt. eigenvalues --    0.13792   0.14442   0.14663   0.15008   0.15997
 Alpha virt. eigenvalues --    0.16270   0.16607   0.16857   0.16996   0.17477
 Alpha virt. eigenvalues --    0.17587   0.18280   0.18497   0.18932   0.19104
 Alpha virt. eigenvalues --    0.19571   0.19793   0.20718   0.21171   0.21352
 Alpha virt. eigenvalues --    0.21583   0.21628   0.22225   0.22924   0.23403
 Alpha virt. eigenvalues --    0.23917   0.24028   0.24217   0.24720   0.25589
 Alpha virt. eigenvalues --    0.25950   0.26130   0.27065   0.27128   0.27593
 Alpha virt. eigenvalues --    0.27999   0.28600   0.29143   0.29382   0.29802
 Alpha virt. eigenvalues --    0.30758   0.30956   0.32254   0.32458   0.32994
 Alpha virt. eigenvalues --    0.33491   0.33946   0.34474   0.35162   0.35676
 Alpha virt. eigenvalues --    0.36386   0.36535   0.37326   0.37802   0.38129
 Alpha virt. eigenvalues --    0.38959   0.39174   0.39608   0.39969   0.40417
 Alpha virt. eigenvalues --    0.41412   0.42819   0.42988   0.43349   0.43888
 Alpha virt. eigenvalues --    0.44357   0.44918   0.45335   0.46311   0.46516
 Alpha virt. eigenvalues --    0.49121   0.49306   0.50384   0.50886   0.51305
 Alpha virt. eigenvalues --    0.52054   0.52514   0.54321   0.55051   0.57365
 Alpha virt. eigenvalues --    0.58398   0.60570   0.61093   0.61259   0.62926
 Alpha virt. eigenvalues --    0.63472   0.63971   0.65551   0.65771   0.66458
 Alpha virt. eigenvalues --    0.67175   0.67587   0.68399   0.68590   0.69972
 Alpha virt. eigenvalues --    0.70036   0.70653   0.70712   0.71668   0.71794
 Alpha virt. eigenvalues --    0.73847   0.74245   0.75300   0.75465   0.76421
 Alpha virt. eigenvalues --    0.77329   0.78790   0.79876   0.80038   0.80361
 Alpha virt. eigenvalues --    0.81568   0.82851   0.85388   0.86879   0.87374
 Alpha virt. eigenvalues --    0.88045   0.89547   0.90565   0.93905   0.94139
 Alpha virt. eigenvalues --    0.94834   0.96376   0.96992   0.98002   0.98461
 Alpha virt. eigenvalues --    0.99230   1.01636   1.02411   1.02963   1.04504
 Alpha virt. eigenvalues --    1.04883   1.05647   1.07435   1.07974   1.09564
 Alpha virt. eigenvalues --    1.11940   1.12815   1.13409   1.14157   1.15540
 Alpha virt. eigenvalues --    1.16480   1.17374   1.17911   1.18961   1.19496
 Alpha virt. eigenvalues --    1.21679   1.23900   1.25127   1.27703   1.31479
 Alpha virt. eigenvalues --    1.32362   1.33061   1.34233   1.36564   1.37890
 Alpha virt. eigenvalues --    1.38918   1.42373   1.45129   1.46504   1.49686
 Alpha virt. eigenvalues --    1.50381   1.51664   1.51753   1.53092   1.54604
 Alpha virt. eigenvalues --    1.55372   1.57673   1.58473   1.59582   1.61181
 Alpha virt. eigenvalues --    1.62326   1.62786   1.62976   1.64484   1.64780
 Alpha virt. eigenvalues --    1.64931   1.65775   1.67794   1.69066   1.69840
 Alpha virt. eigenvalues --    1.71096   1.72816   1.73626   1.74266   1.76627
 Alpha virt. eigenvalues --    1.77414   1.78713   1.80613   1.81675   1.82133
 Alpha virt. eigenvalues --    1.83378   1.84831   1.86047   1.86756   1.90163
 Alpha virt. eigenvalues --    1.92576   1.94568   1.97083   1.97778   1.98603
 Alpha virt. eigenvalues --    2.00430   2.01344   2.03884   2.04438   2.04922
 Alpha virt. eigenvalues --    2.06628   2.07125   2.07604   2.09165   2.10222
 Alpha virt. eigenvalues --    2.12295   2.13401   2.16921   2.17089   2.18215
 Alpha virt. eigenvalues --    2.19506   2.21251   2.23787   2.24128   2.25987
 Alpha virt. eigenvalues --    2.29440   2.30054   2.32053   2.36861   2.39756
 Alpha virt. eigenvalues --    2.40931   2.43203   2.45890   2.46416   2.50479
 Alpha virt. eigenvalues --    2.51203   2.52440   2.54646   2.55964   2.58587
 Alpha virt. eigenvalues --    2.59452   2.61892   2.63626   2.64976   2.67913
 Alpha virt. eigenvalues --    2.70375   2.71010   2.71854   2.73354   2.75638
 Alpha virt. eigenvalues --    2.77199   2.78679   2.79708   2.81857   2.82829
 Alpha virt. eigenvalues --    2.83623   2.84238   2.84931   2.87727   2.88434
 Alpha virt. eigenvalues --    2.89430   2.91406   2.92671   2.94818   2.95665
 Alpha virt. eigenvalues --    2.97322   2.98252   3.01081   3.03708   3.08003
 Alpha virt. eigenvalues --    3.10271   3.13215   3.14987   3.18163   3.20519
 Alpha virt. eigenvalues --    3.21955   3.24174   3.25249   3.26797   3.30010
 Alpha virt. eigenvalues --    3.30881   3.31836   3.36949   3.42940   3.46343
 Alpha virt. eigenvalues --    3.52785   3.56953   3.61165   3.62085   3.66955
 Alpha virt. eigenvalues --    3.67779   3.71929   3.74206   3.79461   3.80118
 Alpha virt. eigenvalues --    3.82956   3.83179   3.84749   3.87787   3.89490
 Alpha virt. eigenvalues --    3.92669   3.94340   3.96145   4.03771   4.07732
 Alpha virt. eigenvalues --    4.08630   4.12341   4.17441   4.21335   4.28959
 Alpha virt. eigenvalues --    4.30903   4.39537   4.63884   4.94756   4.97019
 Alpha virt. eigenvalues --    4.98381   5.13716   5.17686   5.18634   5.43376
 Alpha virt. eigenvalues --    5.62232   5.90099   5.94123   6.43892   6.56442
 Alpha virt. eigenvalues --    6.86572  23.70306  23.93928  24.02950  24.03632
 Alpha virt. eigenvalues --   24.04550  24.05897  24.07307  24.15139  24.23530
 Alpha virt. eigenvalues --   24.29992  24.31441  35.70202  50.13632  50.19822
 Alpha virt. eigenvalues --   66.95080
          Condensed to atoms (all electrons):
               1          2          3          4          5          6
     1  C    5.242249   0.386742   0.416333  -0.073821   0.013396   0.243655
     2  H    0.386742   0.488416  -0.019477   0.005699  -0.006643  -0.049233
     3  H    0.416333  -0.019477   0.528048  -0.006574   0.000643  -0.054384
     4  C   -0.073821   0.005699  -0.006574   5.184455   0.395502   0.273917
     5  H    0.013396  -0.006643   0.000643   0.395502   0.560184  -0.049164
     6  N    0.243655  -0.049233  -0.054384   0.273917  -0.049164   6.853849
     7  H    0.417415  -0.020996  -0.053302   0.010213   0.001921  -0.035403
     8  H   -0.001794   0.003749  -0.000526   0.409346  -0.030158  -0.093602
     9  H   -0.014077  -0.003264   0.003223   0.411669  -0.064284  -0.049487
    10  C    0.140237   0.019285  -0.003749  -0.051830  -0.037202   0.179820
    11  H    0.006371  -0.001273  -0.002437  -0.038492   0.004456  -0.066627
    12  C    0.132304   0.025278  -0.001456  -0.081865   0.017181  -0.230661
    13  C   -0.257843  -0.015732   0.011409  -0.117483   0.004434  -0.002764
    14  H    0.017824   0.002154  -0.010344  -0.007508  -0.000018  -0.031530
    15  O   -0.001085   0.000099   0.000188   0.001005  -0.000088   0.004249
    16  C   -0.195009  -0.004311   0.001764   0.011272  -0.000529  -0.008069
    17  C   -0.028638   0.000537  -0.000898  -0.003429  -0.000365   0.004500
    18  C   -0.010507  -0.004843   0.001035  -0.014466   0.000544  -0.007621
    19  O   -0.000061  -0.000006   0.000045   0.000331   0.000009  -0.000150
    20  C    0.006363   0.000321  -0.000845  -0.000668   0.000009  -0.000277
    21  C   -0.000233  -0.000057   0.000856   0.001667   0.000005  -0.000061
    22  H    0.002979  -0.000009  -0.000517  -0.002377   0.000025  -0.007134
    23  H   -0.001124  -0.000096   0.000069  -0.000033   0.000008   0.000064
    24  H    0.000067   0.000003  -0.000008   0.000019   0.000001  -0.000028
    25  C   -0.002197  -0.000039   0.000035  -0.000606  -0.000008  -0.000032
    26  H   -0.000943  -0.000058   0.000072   0.000109   0.000001   0.000235
    27  F    0.000008   0.000000   0.000000   0.000000   0.000000   0.000000
               7          8          9         10         11         12
     1  C    0.417415  -0.001794  -0.014077   0.140237   0.006371   0.132304
     2  H   -0.020996   0.003749  -0.003264   0.019285  -0.001273   0.025278
     3  H   -0.053302  -0.000526   0.003223  -0.003749  -0.002437  -0.001456
     4  C    0.010213   0.409346   0.411669  -0.051830  -0.038492  -0.081865
     5  H    0.001921  -0.030158  -0.064284  -0.037202   0.004456   0.017181
     6  N   -0.035403  -0.093602  -0.049487   0.179820  -0.066627  -0.230661
     7  H    0.534883  -0.003035  -0.001465   0.036891   0.002763  -0.044957
     8  H   -0.003035   0.534338  -0.021356   0.057952  -0.008022   0.004600
     9  H   -0.001465  -0.021356   0.560064  -0.003753   0.000443   0.006101
    10  C    0.036891   0.057952  -0.003753  12.365925   0.271334   2.538209
    11  H    0.002763  -0.008022   0.000443   0.271334   0.466528   0.076448
    12  C   -0.044957   0.004600   0.006101   2.538209   0.076448  11.988124
    13  C   -0.030150   0.003938   0.000724  -4.051539   0.121498   1.419179
    14  H    0.013644  -0.003444   0.000852   0.053468   0.001754   0.554999
    15  O    0.000647   0.000120   0.000074   0.035374   0.009913  -0.260431
    16  C   -0.002740   0.004757   0.001098  -2.345482  -0.059640  -4.160273
    17  C   -0.000707   0.003589  -0.000186  -1.547264  -0.065943  -3.775680
    18  C   -0.005672  -0.003696   0.000323  -1.908352   0.048380  -0.991781
    19  O    0.000029  -0.000100   0.000002   0.017242   0.000033  -0.024190
    20  C   -0.000822   0.000150  -0.000012  -0.178587  -0.002359   0.068418
    21  C    0.002048  -0.000326   0.000003   0.188456   0.002802  -0.299222
    22  H   -0.005687   0.000543  -0.000107  -0.163290   0.002446  -0.030907
    23  H   -0.000025   0.000024   0.000036  -0.019415   0.000833   0.001075
    24  H   -0.000012   0.000003   0.000000   0.000560  -0.000169  -0.000060
    25  C    0.000010  -0.000015  -0.000001  -0.209293  -0.000831  -0.491344
    26  H    0.000169  -0.000004   0.000004   0.007336  -0.000220  -0.011987
    27  F    0.000000   0.000000   0.000000   0.000491   0.000015   0.003360
              13         14         15         16         17         18
     1  C   -0.257843   0.017824  -0.001085  -0.195009  -0.028638  -0.010507
     2  H   -0.015732   0.002154   0.000099  -0.004311   0.000537  -0.004843
     3  H    0.011409  -0.010344   0.000188   0.001764  -0.000898   0.001035
     4  C   -0.117483  -0.007508   0.001005   0.011272  -0.003429  -0.014466
     5  H    0.004434  -0.000018  -0.000088  -0.000529  -0.000365   0.000544
     6  N   -0.002764  -0.031530   0.004249  -0.008069   0.004500  -0.007621
     7  H   -0.030150   0.013644   0.000647  -0.002740  -0.000707  -0.005672
     8  H    0.003938  -0.003444   0.000120   0.004757   0.003589  -0.003696
     9  H    0.000724   0.000852   0.000074   0.001098  -0.000186   0.000323
    10  C   -4.051539   0.053468   0.035374  -2.345482  -1.547264  -1.908352
    11  H    0.121498   0.001754   0.009913  -0.059640  -0.065943   0.048380
    12  C    1.419179   0.554999  -0.260431  -4.160273  -3.775680  -0.991781
    13  C   13.012228  -0.034024   0.880113   1.362600  -4.444766   0.408430
    14  H   -0.034024   0.664531  -0.012790  -0.077622   0.001766  -0.142604
    15  O    0.880113  -0.012790   8.143675  -0.122057  -0.125142  -0.233666
    16  C    1.362600  -0.077622  -0.122057  17.898242   1.579307  -4.748977
    17  C   -4.444766   0.001766  -0.125142   1.579307  17.338510  -4.361574
    18  C    0.408430  -0.142604  -0.233666  -4.748977  -4.361574  16.536166
    19  O   -0.010141  -0.000321  -0.003581   0.076725   0.322876  -0.035345
    20  C   -0.495824  -0.017196  -0.040378  -3.043267   0.195371   1.500512
    21  C   -0.386421  -0.065221   0.005474  -0.912945   0.663489   0.254562
    22  H    0.029023  -0.033687  -0.000843  -0.291858  -0.036459   0.828515
    23  H    0.020461  -0.001220   0.074732  -0.142484   0.016145   0.044266
    24  H    0.003823  -0.000864   0.000228  -0.077680  -0.027477   0.014961
    25  C   -0.907192  -0.013535  -0.022254  -0.979559  -0.100999   0.799794
    26  H   -0.008622   0.005572   0.000549   0.137668   0.058522  -0.088653
    27  F    0.005943  -0.000332  -0.000019   0.019892  -0.076497  -0.045290
              19         20         21         22         23         24
     1  C   -0.000061   0.006363  -0.000233   0.002979  -0.001124   0.000067
     2  H   -0.000006   0.000321  -0.000057  -0.000009  -0.000096   0.000003
     3  H    0.000045  -0.000845   0.000856  -0.000517   0.000069  -0.000008
     4  C    0.000331  -0.000668   0.001667  -0.002377  -0.000033   0.000019
     5  H    0.000009   0.000009   0.000005   0.000025   0.000008   0.000001
     6  N   -0.000150  -0.000277  -0.000061  -0.007134   0.000064  -0.000028
     7  H    0.000029  -0.000822   0.002048  -0.005687  -0.000025  -0.000012
     8  H   -0.000100   0.000150  -0.000326   0.000543   0.000024   0.000003
     9  H    0.000002  -0.000012   0.000003  -0.000107   0.000036   0.000000
    10  C    0.017242  -0.178587   0.188456  -0.163290  -0.019415   0.000560
    11  H    0.000033  -0.002359   0.002802   0.002446   0.000833  -0.000169
    12  C   -0.024190   0.068418  -0.299222  -0.030907   0.001075  -0.000060
    13  C   -0.010141  -0.495824  -0.386421   0.029023   0.020461   0.003823
    14  H   -0.000321  -0.017196  -0.065221  -0.033687  -0.001220  -0.000864
    15  O   -0.003581  -0.040378   0.005474  -0.000843   0.074732   0.000228
    16  C    0.076725  -3.043267  -0.912945  -0.291858  -0.142484  -0.077680
    17  C    0.322876   0.195371   0.663489  -0.036459   0.016145  -0.027477
    18  C   -0.035345   1.500512   0.254562   0.828515   0.044266   0.014961
    19  O    8.098010  -0.400411   0.018415  -0.003504   0.251098  -0.022041
    20  C   -0.400411  10.667130  -2.190609   0.153969   0.070038   0.658018
    21  C    0.018415  -2.190609   9.101622  -0.155125   0.012089  -0.073606
    22  H   -0.003504   0.153969  -0.155125   0.609999   0.001969   0.003571
    23  H    0.251098   0.070038   0.012089   0.001969   0.302996   0.001309
    24  H   -0.022041   0.658018  -0.073606   0.003571   0.001309   0.458387
    25  C    0.004739  -0.320911  -0.130223   0.071256   0.001542  -0.172877
    26  H    0.000512  -0.119690   0.521128  -0.036735   0.000329  -0.002159
    27  F   -0.000480  -0.225485  -0.212694   0.003153  -0.000112  -0.021081
              25         26         27
     1  C   -0.002197  -0.000943   0.000008
     2  H   -0.000039  -0.000058   0.000000
     3  H    0.000035   0.000072   0.000000
     4  C   -0.000606   0.000109   0.000000
     5  H   -0.000008   0.000001   0.000000
     6  N   -0.000032   0.000235   0.000000
     7  H    0.000010   0.000169   0.000000
     8  H   -0.000015  -0.000004   0.000000
     9  H   -0.000001   0.000004   0.000000
    10  C   -0.209293   0.007336   0.000491
    11  H   -0.000831  -0.000220   0.000015
    12  C   -0.491344  -0.011987   0.003360
    13  C   -0.907192  -0.008622   0.005943
    14  H   -0.013535   0.005572  -0.000332
    15  O   -0.022254   0.000549  -0.000019
    16  C   -0.979559   0.137668   0.019892
    17  C   -0.100999   0.058522  -0.076497
    18  C    0.799794  -0.088653  -0.045290
    19  O    0.004739   0.000512  -0.000480
    20  C   -0.320911  -0.119690  -0.225485
    21  C   -0.130223   0.521128  -0.212694
    22  H    0.071256  -0.036735   0.003153
    23  H    0.001542   0.000329  -0.000112
    24  H   -0.172877  -0.002159  -0.021081
    25  C    8.718950  -0.176429   0.592439
    26  H   -0.176429   0.487258  -0.025751
    27  F    0.592439  -0.025751   9.138364
 Mulliken charges:
               1
     1  C   -0.438612
     2  H    0.193753
     3  H    0.190800
     4  C   -0.306053
     5  H    0.190136
     6  N    0.125938
     7  H    0.184339
     8  H    0.142970
     9  H    0.173375
    10  C    0.607176
    11  H    0.229997
    12  C   -0.430463
    13  C   -0.521305
    14  H    0.135696
    15  O   -0.334105
    16  C    2.079177
    17  C    0.411414
    18  C   -1.834442
    19  O   -0.289735
    20  C   -0.282956
    21  C   -0.345872
    22  H    0.060792
    23  H    0.365425
    24  H    0.257114
    25  C   -0.660420
    26  H    0.251786
    27  F   -0.155925
 Sum of Mulliken charges =   0.00000
 Mulliken charges with hydrogens summed into heavy atoms:
               1
     1  C    0.130279
     4  C    0.200428
     6  N    0.125938
    10  C    0.837174
    12  C   -0.294767
    13  C   -0.521305
    15  O   -0.334105
    16  C    2.079177
    17  C    0.411414
    18  C   -1.773650
    19  O    0.075690
    20  C   -0.025841
    21  C   -0.094086
    25  C   -0.660420
    27  F   -0.155925
 Electronic spatial extent (au):  <R**2>=           4749.1218
 Charge=              0.0000 electrons
 Dipole moment (field-independent basis, Debye):
    X=              7.2538    Y=             -3.4586    Z=              0.1330  Tot=              8.0372
 Quadrupole moment (field-independent basis, Debye-Ang):
   XX=            -70.4535   YY=            -88.4343   ZZ=            -91.0771
   XY=             -3.6277   XZ=              0.6500   YZ=              0.2968
 Traceless Quadrupole moment (field-independent basis, Debye-Ang):
   XX=             12.8681   YY=             -5.1126   ZZ=             -7.7555
   XY=             -3.6277   XZ=              0.6500   YZ=              0.2968
 Octapole moment (field-independent basis, Debye-Ang**2):
  XXX=            175.8658  YYY=            -25.3912  ZZZ=              0.7903  XYY=             13.8573
  XXY=              7.9077  XXZ=              1.8749  XZZ=             -3.3318  YZZ=              2.7567
  YYZ=             -0.2946  XYZ=              0.6480
 Hexadecapole moment (field-independent basis, Debye-Ang**3):
 XXXX=          -4576.3976 YYYY=           -939.7984 ZZZZ=           -111.2009 XXXY=           -118.9809
 XXXZ=              5.6747 YYYX=             49.2618 YYYZ=              0.5517 ZZZX=              2.0005
 ZZZY=             -0.7581 XXYY=           -961.3207 XXZZ=           -869.6485 YYZZ=           -181.1717
 XXYZ=              4.9594 YYXZ=             -1.9456 ZZXY=              3.8982
 N-N= 9.387019947121D+02 E-N=-3.588188073846D+03  KE= 7.286170458997D+02
 Calling FoFJK, ICntrl=      2127 FMM=F ISym2X=0 I1Cent= 0 IOpClX= 0 NMat=1 NMatS=1 NMatT=0.
 ***** Axes restored to original set *****
 -------------------------------------------------------------------
 Center     Atomic                   Forces (Hartrees/Bohr)
 Number     Number              X              Y              Z
 -------------------------------------------------------------------
      1        6           0.000016500    0.000063944    0.000029839
      2        1          -0.000075205    0.000136934   -0.000015315
      3        1           0.000059312   -0.000008789   -0.000010072
      4        6           0.000315594   -0.000119643   -0.000042860
      5        1          -0.000061892   -0.000016665    0.000068620
      6        7          -0.000816948   -0.000344128   -0.000069996
      7        1           0.000015991   -0.000040847    0.000004329
      8        1          -0.000105596    0.000051185    0.000007208
      9        1          -0.000023745   -0.000021028   -0.000012431
     10        6           0.000901290   -0.000120664    0.000056354
     11        1           0.000167451    0.000115803   -0.000016424
     12        6          -0.001096405    0.000147460    0.000013570
     13        6           0.000630705    0.000348546   -0.000025604
     14        1           0.000132105    0.000116331   -0.000018165
     15        8          -0.000789725   -0.000132348   -0.000004284
     16        6           0.002564291    0.000505318    0.000071100
     17        6           0.000468784    0.002119951   -0.000006938
     18        6          -0.003233355   -0.005392989   -0.000043328
     19        8          -0.002484256    0.003124172   -0.000047138
     20        6          -0.007190948   -0.001530400   -0.000085854
     21        6          -0.005537912    0.007381845   -0.000083829
     22        1          -0.001261983    0.000339331   -0.000026438
     23        1           0.001239487    0.000287221    0.000031582
     24        1          -0.000817416    0.001667129   -0.000016896
     25        6           0.009209427   -0.005010758    0.000094890
     26        1          -0.001714659   -0.000525133   -0.000031031
     27        9           0.009489109   -0.003141779    0.000179109
 -------------------------------------------------------------------
 Cartesian Forces:  Max     0.009489109 RMS     0.002305052

 GradGradGradGradGradGradGradGradGradGradGradGradGradGradGradGradGradGrad
 Berny optimization.
 FormGI is forming the generalized inverse of G from B-inverse, IUseBI=4.
 GSVD:  received Info=                   1 from GESDD.
 Internal  Forces:  Max     0.009954052 RMS     0.001952299
 Search for a local minimum.
 Step number   1 out of a maximum of  134
 All quantities printed in internal units (Hartrees-Bohrs-Radians)
 Mixed Optimization -- RFO/linear search
 Second derivative matrix not updated -- first step.
 ITU=  0
     Eigenvalues ---    0.00947   0.01033   0.01057   0.01187   0.01420
     Eigenvalues ---    0.01445   0.01654   0.01965   0.02017   0.02086
     Eigenvalues ---    0.02167   0.02169   0.02211   0.02238   0.02255
     Eigenvalues ---    0.02295   0.02448   0.02529   0.02572   0.02608
     Eigenvalues ---    0.07401   0.07416   0.07589   0.07635   0.15999
     Eigenvalues ---    0.16000   0.16000   0.16000   0.16000   0.16000
     Eigenvalues ---    0.16000   0.16000   0.16000   0.16000   0.16000
     Eigenvalues ---    0.16000   0.22000   0.22000   0.22365   0.23492
     Eigenvalues ---    0.24602   0.24709   0.24813   0.25000   0.25000
     Eigenvalues ---    0.25000   0.25000   0.25000   0.33854   0.34060
     Eigenvalues ---    0.34124   0.34348   0.34392   0.34839   0.34840
     Eigenvalues ---    0.35249   0.35580   0.35607   0.35695   0.36128
     Eigenvalues ---    0.38168   0.38269   0.38508   0.40997   0.42171
     Eigenvalues ---    0.44536   0.45630   0.47851   0.48795   0.50064
     Eigenvalues ---    0.52796   0.55021   0.56581   0.58702   0.85398
 RFO step:  Lambda=-1.54177841D-03 EMin= 9.46674379D-03
 Linear search not attempted -- first point.
 Iteration  1 RMS(Cart)=  0.01023904 RMS(Int)=  0.00008645
 Iteration  2 RMS(Cart)=  0.00013055 RMS(Int)=  0.00002315
 Iteration  3 RMS(Cart)=  0.00000001 RMS(Int)=  0.00002315
 Variable       Old X    -DE/DX   Delta X   Delta X   Delta X     New X
                                 (Linear)    (Quad)   (Total)
    R1        2.05938  -0.00004   0.00000  -0.00011  -0.00011   2.05927
    R2        2.07229  -0.00002   0.00000  -0.00005  -0.00005   2.07224
    R3        2.73633   0.00015   0.00000   0.00038   0.00038   2.73671
    R4        2.06747  -0.00002   0.00000  -0.00006  -0.00006   2.06741
    R5        2.07121  -0.00009   0.00000  -0.00026  -0.00026   2.07095
    R6        2.73975   0.00016   0.00000   0.00042   0.00042   2.74017
    R7        2.05935  -0.00003   0.00000  -0.00007  -0.00007   2.05927
    R8        2.06674  -0.00003   0.00000  -0.00009  -0.00009   2.06665
    R9        2.53754  -0.00074   0.00000  -0.00131  -0.00131   2.53623
   R10        2.05273  -0.00011   0.00000  -0.00032  -0.00032   2.05241
   R11        2.57144   0.00049   0.00000   0.00093   0.00093   2.57238
   R12        2.74121  -0.00050   0.00000  -0.00131  -0.00131   2.73991
   R13        2.03881   0.00011   0.00000   0.00029   0.00029   2.03911
   R14        2.35129   0.00008   0.00000   0.00009   0.00009   2.35138
   R15        2.80877  -0.00073   0.00000  -0.00215  -0.00215   2.80662
   R16        2.67522   0.00034   0.00000   0.00117   0.00112   2.67633
   R17        2.65272  -0.00080   0.00000  -0.00143  -0.00149   2.65124
   R18        2.51982  -0.00347   0.00000  -0.00590  -0.00590   2.51393
   R19        2.64716  -0.00232   0.00000  -0.00504  -0.00503   2.64213
   R20        2.60837  -0.00131   0.00000  -0.00270  -0.00270   2.60567
   R21        2.04561  -0.00080   0.00000  -0.00222  -0.00222   2.04339
   R22        1.86500   0.00114   0.00000   0.00227   0.00227   1.86727
   R23        2.04743  -0.00037   0.00000  -0.00103  -0.00103   2.04640
   R24        2.60570  -0.00619   0.00000  -0.01283  -0.01277   2.59293
   R25        2.64025  -0.00683   0.00000  -0.01514  -0.01509   2.62516
   R26        2.04701  -0.00034   0.00000  -0.00096  -0.00096   2.04605
   R27        2.55113  -0.00995   0.00000  -0.01804  -0.01804   2.53309
    A1        1.89778  -0.00010   0.00000  -0.00056  -0.00056   1.89722
    A2        1.90734   0.00023   0.00000   0.00145   0.00145   1.90879
    A3        1.89247  -0.00006   0.00000  -0.00034  -0.00034   1.89213
    A4        1.94383  -0.00002   0.00000  -0.00016  -0.00016   1.94367
    A5        1.89422   0.00004   0.00000   0.00016   0.00016   1.89438
    A6        1.92725  -0.00009   0.00000  -0.00056  -0.00056   1.92669
    A7        1.94330   0.00000   0.00000   0.00005   0.00005   1.94335
    A8        1.89325   0.00006   0.00000   0.00016   0.00015   1.89340
    A9        1.89507   0.00002   0.00000   0.00041   0.00041   1.89549
   A10        1.91301  -0.00018   0.00000  -0.00125  -0.00125   1.91176
   A11        1.92685   0.00005   0.00000   0.00041   0.00041   1.92726
   A12        1.89127   0.00005   0.00000   0.00024   0.00024   1.89151
   A13        2.05809   0.00020   0.00000   0.00084   0.00084   2.05893
   A14        2.09865  -0.00008   0.00000  -0.00027  -0.00027   2.09838
   A15        2.11639  -0.00012   0.00000  -0.00042  -0.00042   2.11597
   A16        2.01826  -0.00012   0.00000  -0.00081  -0.00081   2.01745
   A17        2.21640  -0.00011   0.00000  -0.00050  -0.00050   2.21590
   A18        2.04850   0.00023   0.00000   0.00131   0.00131   2.04981
   A19        2.06361  -0.00004   0.00000  -0.00020  -0.00020   2.06341
   A20        2.11463  -0.00012   0.00000  -0.00078  -0.00078   2.11385
   A21        2.10489   0.00016   0.00000   0.00099   0.00099   2.10587
   A22        2.10544   0.00081   0.00000   0.00323   0.00323   2.10867
   A23        2.09967   0.00025   0.00000   0.00101   0.00101   2.10067
   A24        2.07807  -0.00106   0.00000  -0.00423  -0.00423   2.07384
   A25        2.08125  -0.00032   0.00000  -0.00234  -0.00229   2.07897
   A26        2.14390   0.00146   0.00000   0.00471   0.00477   2.14867
   A27        2.05803  -0.00114   0.00000  -0.00237  -0.00248   2.05555
   A28        2.14230   0.00028   0.00000   0.00033   0.00036   2.14266
   A29        2.09225   0.00108   0.00000   0.00591   0.00586   2.09811
   A30        2.04863  -0.00137   0.00000  -0.00624  -0.00622   2.04242
   A31        2.12920   0.00132   0.00000   0.00750   0.00744   2.13664
   A32        2.08898   0.00040   0.00000   0.00281   0.00283   2.09181
   A33        2.06501  -0.00172   0.00000  -0.01030  -0.01028   2.05473
   A34        1.85525  -0.00106   0.00000  -0.00657  -0.00657   1.84869
   A35        2.05702   0.00457   0.00000   0.02360   0.02357   2.08059
   A36        2.10303  -0.00542   0.00000  -0.02412  -0.02406   2.07897
   A37        2.12314   0.00084   0.00000   0.00052   0.00049   2.12363
   A38        2.08060  -0.00560   0.00000  -0.02523  -0.02517   2.05543
   A39        2.09982   0.00460   0.00000   0.02376   0.02373   2.12355
   A40        2.10276   0.00100   0.00000   0.00147   0.00144   2.10420
   A41        2.10326   0.00975   0.00000   0.03830   0.03841   2.14167
   A42        2.08676  -0.00369   0.00000  -0.01445  -0.01450   2.07225
   A43        2.09317  -0.00606   0.00000  -0.02385  -0.02391   2.06926
    D1       -0.23536  -0.00001   0.00000  -0.00040  -0.00040  -0.23576
    D2        3.05628  -0.00002   0.00000  -0.00150  -0.00150   3.05478
    D3        1.86173   0.00000   0.00000  -0.00025  -0.00025   1.86147
    D4       -1.12983  -0.00001   0.00000  -0.00135  -0.00135  -1.13118
    D5       -2.31559  -0.00002   0.00000  -0.00054  -0.00054  -2.31613
    D6        0.97604  -0.00003   0.00000  -0.00164  -0.00164   0.97441
    D7       -1.11509  -0.00004   0.00000  -0.00082  -0.00082  -1.11591
    D8        1.87486  -0.00003   0.00000   0.00030   0.00030   1.87516
    D9        3.07328   0.00000   0.00000  -0.00023  -0.00023   3.07306
   D10       -0.21995   0.00002   0.00000   0.00090   0.00090  -0.21905
   D11        0.99124   0.00002   0.00000   0.00001   0.00001   0.99125
   D12       -2.30200   0.00004   0.00000   0.00113   0.00113  -2.30087
   D13        3.11800   0.00001   0.00000   0.00037   0.00037   3.11837
   D14       -0.03175   0.00001   0.00000   0.00020   0.00020  -0.03155
   D15        0.13154  -0.00003   0.00000  -0.00087  -0.00087   0.13066
   D16       -3.01821  -0.00003   0.00000  -0.00105  -0.00105  -3.01926
   D17       -3.12117   0.00003   0.00000   0.00096   0.00096  -3.12022
   D18        0.03168   0.00001   0.00000   0.00036   0.00036   0.03204
   D19        0.01214   0.00002   0.00000   0.00077   0.00077   0.01291
   D20       -3.11819   0.00001   0.00000   0.00018   0.00018  -3.11801
   D21        0.01311  -0.00001   0.00000  -0.00029  -0.00029   0.01282
   D22       -3.12377  -0.00002   0.00000  -0.00165  -0.00165  -3.12542
   D23       -3.13968   0.00000   0.00000   0.00029   0.00029  -3.13938
   D24        0.00663  -0.00001   0.00000  -0.00107  -0.00107   0.00556
   D25        3.12933   0.00002   0.00000   0.00157   0.00157   3.13090
   D26       -0.01324   0.00002   0.00000   0.00147   0.00147  -0.01177
   D27       -0.00762   0.00000   0.00000   0.00022   0.00022  -0.00741
   D28        3.13299   0.00000   0.00000   0.00011   0.00011   3.13311
   D29        0.00038   0.00001   0.00000   0.00022   0.00022   0.00059
   D30       -3.14086   0.00000   0.00000  -0.00016  -0.00016  -3.14102
   D31       -3.14029   0.00001   0.00000   0.00031   0.00031  -3.13998
   D32        0.00166   0.00000   0.00000  -0.00006  -0.00006   0.00159
   D33        3.14143   0.00001   0.00000   0.00023   0.00023  -3.14153
   D34       -0.00066   0.00000   0.00000   0.00011   0.00011  -0.00055
   D35       -0.00112   0.00000   0.00000   0.00012   0.00012  -0.00100
   D36        3.13997   0.00000   0.00000   0.00001   0.00001   3.13998
   D37        0.00352   0.00000   0.00000   0.00002   0.00002   0.00354
   D38       -3.13842   0.00001   0.00000   0.00039   0.00038  -3.13803
   D39        3.14113   0.00001   0.00000   0.00026   0.00026   3.14139
   D40       -0.00121   0.00000   0.00000   0.00011   0.00011  -0.00111
   D41       -0.00012   0.00000   0.00000  -0.00010  -0.00010  -0.00022
   D42        3.14071  -0.00001   0.00000  -0.00025  -0.00025   3.14047
   D43        0.00011   0.00000   0.00000  -0.00020  -0.00020  -0.00009
   D44        3.14132   0.00000   0.00000  -0.00018  -0.00018   3.14115
   D45       -3.14099   0.00000   0.00000  -0.00009  -0.00009  -3.14108
   D46        0.00022   0.00000   0.00000  -0.00007  -0.00007   0.00016
   D47        0.00017  -0.00001   0.00000  -0.00020  -0.00020  -0.00003
   D48        3.14158   0.00002   0.00000   0.00067   0.00068  -3.14093
   D49        3.14098  -0.00001   0.00000  -0.00035  -0.00035   3.14063
   D50       -0.00079   0.00001   0.00000   0.00053   0.00053  -0.00026
   D51        0.00038   0.00001   0.00000   0.00024   0.00024   0.00063
   D52       -3.14103  -0.00002   0.00000  -0.00064  -0.00063   3.14152
   D53       -3.14083   0.00001   0.00000   0.00022   0.00022  -3.14061
   D54        0.00095  -0.00002   0.00000  -0.00066  -0.00066   0.00029
         Item               Value     Threshold  Converged?
 Maximum Force            0.009954     0.000450     NO 
 RMS     Force            0.001952     0.000300     NO 
 Maximum Displacement     0.060786     0.001800     NO 
 RMS     Displacement     0.010254     0.001200     NO 
 Predicted change in Energy=-7.755362D-04
 GradGradGradGradGradGradGradGradGradGradGradGradGradGradGradGradGradGrad

                          Input orientation:                          
 ---------------------------------------------------------------------
 Center     Atomic      Atomic             Coordinates (Angstroms)
 Number     Number       Type             X           Y           Z
 ---------------------------------------------------------------------
      1          6           0        3.728270    1.626876    0.036960
      2          1           0        4.775639    1.906658    0.147516
      3          1           0        3.348145    2.050679   -0.900262
      4          6           0        4.825509   -0.596864   -0.106550
      5          1           0        5.283791   -0.431387   -1.088177
      6          7           0        3.613074    0.183305    0.048183
      7          1           0        3.165107    2.060697    0.868549
      8          1           0        4.591826   -1.656719   -0.008613
      9          1           0        5.551676   -0.331041    0.666774
     10          6           0        2.403690   -0.398212    0.025970
     11          1           0        2.405493   -1.484228    0.013693
     12          6           0        1.194632    0.227216    0.026489
     13          6           0       -0.001366   -0.592413    0.027229
     14          1           0        1.123792    1.303892    0.016504
     15          8           0        0.076838   -1.834174    0.041088
     16          6           0       -1.344940    0.040214    0.007085
     17          6           0       -2.495393   -0.785675   -0.004931
     18          6           0       -1.537659    1.429872    0.000494
     19          8           0       -2.428003   -2.114264    0.001704
     20          6           0       -3.771381   -0.214447   -0.024639
     21          6           0       -2.792012    2.002157   -0.018186
     22          1           0       -0.682740    2.091877    0.010792
     23          1           0       -1.465421   -2.336772    0.019057
     24          1           0       -4.639850   -0.861257   -0.033797
     25          6           0       -3.890936    1.152442   -0.030793
     26          1           0       -2.926696    3.076463   -0.022677
     27          9           0       -5.117927    1.691868   -0.048927
 ---------------------------------------------------------------------
                    Distance matrix (angstroms):
                    1          2          3          4          5
     1  C    0.000000
     2  H    1.089717   0.000000
     3  H    1.096581   1.776604   0.000000
     4  C    2.483858   2.516875   3.134018   0.000000
     5  H    2.814609   2.692880   3.153202   1.095900   0.000000
     6  N    1.448204   2.081194   2.111118   1.450036   2.111979
     7  H    1.094026   1.771279   1.778285   3.281826   3.811571
     8  H    3.395556   3.571529   4.010808   1.089721   1.773616
     9  H    2.748621   2.424698   3.603296   1.093624   1.778113
    10  C    2.419838   3.309583   2.783338   2.433564   3.088269
    11  H    3.380718   4.139277   3.770872   2.580378   3.256869
    12  C    2.894561   3.957119   2.970102   3.725598   4.289226
    13  C    4.339991   5.392550   4.366394   4.828730   5.403975
    14  H    2.624509   3.703577   2.519107   4.163019   4.640808
    15  O    5.031088   6.006986   5.165237   4.909441   5.509575
    16  C    5.315624   6.400377   5.185586   6.204291   6.735138
    17  C    6.675039   7.754986   6.556940   7.324041   7.862229
    18  C    5.269740   6.332984   5.006780   6.678999   7.154137
    19  O    7.203963   8.251154   7.178035   7.411319   7.968167
    20  C    7.722631   8.807966   7.522311   8.605781   9.119995
    21  C    6.531306   7.570068   6.203382   8.049183   8.502094
    22  H    4.435529   5.463232   4.132766   6.130571   6.570699
    23  H    6.533396   7.548115   6.577636   6.528312   7.099882
    24  H    8.730479   9.815583   8.546240   9.469331   9.988752
    25  C    7.634264   8.701159   7.346231   8.890570   9.370283
    26  H    6.811273   7.792521   6.418413   8.578873   8.991796
    27  F    8.846853   9.897848   8.516332  10.203604  10.666958
                    6          7          8          9         10
     6  N    0.000000
     7  H    2.097206   0.000000
     8  H    2.084915   4.077268   0.000000
     9  H    2.098901   3.384795   1.770560   0.000000
    10  C    1.342113   2.708492   2.524475   3.213248   0.000000
    11  H    2.059153   3.724820   2.193240   3.413917   1.086088
    12  C    2.418939   2.820193   3.884761   4.439083   1.361243
    13  C    3.696803   4.215846   4.715023   5.595856   2.412883
    14  H    2.730063   2.337884   4.559946   4.764664   2.129644
    15  O    4.071270   5.039059   4.518747   5.711808   2.734311
    16  C    4.960250   5.016473   6.174546   6.938036   3.774228
    17  C    6.185072   6.395785   7.140546   8.087843   4.914478
    18  C    5.299647   4.823637   6.862777   7.335082   4.344741
    19  O    6.463405   7.033108   7.034732   8.203505   5.127444
    20  C    7.395518   7.354517   8.486673   9.349387   6.178011
    21  C    6.658660   6.023039   8.240663   8.690807   5.723551
    22  H    4.700858   3.942416   6.470965   6.720773   3.965705
    23  H    5.669458   6.442140   6.095365   7.326811   4.327596
    24  H    8.319171   8.382685   9.265918  10.229328   7.058997
    25  C    7.566746   7.170878   8.935834   9.583854   6.483060
    26  H    7.151502   6.239883   8.884334   9.163473   6.363077
    27  F    8.860902   8.341850  10.271025  10.883236   7.806969
                   11         12         13         14         15
    11  H    0.000000
    12  C    2.096519   0.000000
    13  C    2.566804   1.449897   0.000000
    14  H    3.068612   1.079050   2.205009   0.000000
    15  O    2.354962   2.344996   1.244299   3.308198   0.000000
    16  C    4.048421   2.546522   1.485199   2.773375   2.352858
    17  C    4.950455   3.826646   2.501711   4.179145   2.778100
    18  C    4.903122   2.985376   2.539793   2.664479   3.641737
    19  O    4.874399   4.313540   2.864481   4.929428   2.520760
    20  C    6.306154   4.985876   3.789269   5.125403   4.175718
    21  C    6.258590   4.364142   3.810717   3.977725   4.790746
    22  H    4.725010   2.646078   2.769468   1.970916   3.998969
    23  H    3.963689   3.694587   2.277349   4.467490   1.622237
    24  H    7.072991   5.935452   4.646670   6.157108   4.816567
    25  C    6.826348   5.169364   4.263408   5.017238   4.966717
    26  H    7.016656   5.010586   4.692622   4.421538   5.756704
    27  F    8.166600   6.480686   5.603832   6.254108   6.279065
                   16         17         18         19         20
    16  C    0.000000
    17  C    1.416255   0.000000
    18  C    1.402973   2.413697   0.000000
    19  O    2.411396   1.330313   3.654260   0.000000
    20  C    2.439973   1.398154   2.773793   2.326943   0.000000
    21  C    2.438006   2.803599   1.378862   4.132532   2.423332
    22  H    2.155886   3.400922   1.081316   4.553861   3.854878
    23  H    2.380068   1.862074   3.767383   0.988117   3.134266
    24  H    3.416248   2.145983   3.856688   2.542352   1.082907
    25  C    2.778593   2.388411   2.369781   3.579469   1.372121
    26  H    3.423689   3.886187   2.154350   5.214685   3.397584
    27  F    4.119044   3.608024   3.590181   4.660997   2.334055
                   21         22         23         24         25
    21  C    0.000000
    22  H    2.111378   0.000000
    23  H    4.537349   4.497288   0.000000
    24  H    3.407916   4.937785   3.500991   0.000000
    25  C    1.389176   3.343171   4.249732   2.148457   0.000000
    26  H    1.082725   2.450688   5.607155   4.294259   2.152134
    27  F    2.346722   4.453590   5.438323   2.597544   1.340453
                   26         27
    26  H    0.000000
    27  F    2.592158   0.000000
 Stoichiometry    C11H12FNO2
 Framework group  C1[X(C11H12FNO2)]
 Deg. of freedom    75
 Full point group                 C1      NOp   1
 Largest Abelian subgroup         C1      NOp   1
 Largest concise Abelian subgroup C1      NOp   1
                         Standard orientation:                         
 ---------------------------------------------------------------------
 Center     Atomic      Atomic             Coordinates (Angstroms)
 Number     Number       Type             X           Y           Z
 ---------------------------------------------------------------------
      1          6           0        3.981100   -1.799344   -0.038495
      2          1           0        5.005324   -2.154900   -0.148167
      3          1           0        3.569332   -2.196393    0.897073
      4          6           0        5.238178    0.337607    0.112305
      5          1           0        5.681424    0.136607    1.094205
      6          7           0        3.972072   -0.351190   -0.046243
      7          1           0        3.389061   -2.188699   -0.872034
      8          1           0        5.082997    1.411976    0.016693
      9          1           0        5.944216    0.021122   -0.660585
     10          6           0        2.808541    0.317380   -0.024397
     11          1           0        2.889942    1.400309   -0.009371
     12          6           0        1.556885   -0.217711   -0.028335
     13          6           0        0.424203    0.687403   -0.028820
     14          1           0        1.407280   -1.286316   -0.021180
     15          8           0        0.593261    1.920117   -0.039420
     16          6           0       -0.962171    0.154945   -0.012317
     17          6           0       -2.048994    1.062932    0.000039
     18          6           0       -1.256268   -1.216854   -0.009533
     19          8           0       -1.884366    2.383016   -0.003134
     20          6           0       -3.363460    0.586752    0.016363
     21          6           0       -2.549233   -1.695672    0.005793
     22          1           0       -0.452170   -1.939735   -0.020206
     23          1           0       -0.908033    2.534389   -0.018461
     24          1           0       -4.182185    1.295475    0.025837
     25          6           0       -3.582921   -0.767702    0.018879
     26          1           0       -2.762328   -2.757218    0.007363
     27          9           0       -4.846188   -1.215753    0.033785
 ---------------------------------------------------------------------
 Rotational constants (GHZ):      1.4546644      0.2522574      0.2156249
 Standard basis: 6-311++G(d,p) (5D, 7F)
 There are   429 symmetry adapted cartesian basis functions of A   symmetry.
 There are   414 symmetry adapted basis functions of A   symmetry.
   414 basis functions,   648 primitive gaussians,   429 cartesian basis functions
    55 alpha electrons       55 beta electrons
       nuclear repulsion energy       940.4321572377 Hartrees.
 NAtoms=   27 NActive=   27 NUniq=   27 SFac= 1.00D+00 NAtFMM=   60 NAOKFM=F Big=F
 Integral buffers will be    131072 words long.
 Raffenetti 2 integral format.
 Two-electron integral symmetry is turned on.
 Nuclear repulsion after empirical dispersion term =      940.4170268557 Hartrees.
 One-electron integrals computed using PRISM.
 NBasis=   414 RedAO= T EigKep=  1.59D-06  NBF=   414
 NBsUse=   411 1.00D-06 EigRej=  7.77D-07 NBFU=   411
 Initial guess from the checkpoint file:  "2_opt.chk"
 B after Tr=     0.000000    0.000000    0.000000
         Rot=    1.000000    0.000063   -0.000019   -0.000444 Ang=   0.05 deg.
 ExpMin= 3.60D-02 ExpMax= 1.14D+04 ExpMxC= 1.72D+03 IAcc=3 IRadAn=         5 AccDes= 0.00D+00
 Harris functional with IExCor= 4639 and IRadAn=       5 diagonalized for initial guess.
 HarFok:  IExCor= 4639 AccDes= 0.00D+00 IRadAn=         5 IDoV= 1 UseB2=F ITyADJ=14
 ICtDFT=  3500011 ScaDFX=  1.000000  1.000000  1.000000  1.000000
 FoFCou: FMM=F IPFlag=           0 FMFlag=      100000 FMFlg1=           0
         NFxFlg=           0 DoJE=T BraDBF=F KetDBF=T FulRan=T
         wScrn=  0.000000 ICntrl=     500 IOpCl=  0 I1Cent=   200000004 NGrid=           0
         NMat0=    1 NMatS0=      1 NMatT0=    0 NMatD0=    1 NMtDS0=    0 NMtDT0=    0
 Petite list used in FoFCou.
 Requested convergence on RMS density matrix=1.00D-08 within 128 cycles.
 Requested convergence on MAX density matrix=1.00D-06.
 Requested convergence on             energy=1.00D-06.
 No special actions if energy rises.
 SCF Done:  E(RwB97XD) =  -731.396120239     A.U. after   13 cycles
            NFock= 13  Conv=0.33D-08     -V/T= 2.0037
 Calling FoFJK, ICntrl=      2127 FMM=F ISym2X=0 I1Cent= 0 IOpClX= 0 NMat=1 NMatS=1 NMatT=0.
 ***** Axes restored to original set *****
 -------------------------------------------------------------------
 Center     Atomic                   Forces (Hartrees/Bohr)
 Number     Number              X              Y              Z
 -------------------------------------------------------------------
      1        6          -0.000019353    0.000018098    0.000023701
      2        1           0.000008276   -0.000021400   -0.000000335
      3        1           0.000012246   -0.000009418   -0.000007626
      4        6           0.000106769   -0.000046695    0.000005855
      5        1          -0.000021588    0.000009833    0.000016723
      6        7          -0.000057589    0.000020819   -0.000079307
      7        1           0.000005114   -0.000009520   -0.000003309
      8        1           0.000005521   -0.000001831    0.000002131
      9        1          -0.000024546    0.000013420   -0.000004490
     10        6           0.000078269   -0.000036052    0.000070356
     11        1           0.000013459    0.000003338   -0.000009501
     12        6          -0.000378711   -0.000219408   -0.000026273
     13        6          -0.000452848    0.001113798    0.000095632
     14        1          -0.000152953    0.000018475   -0.000018667
     15        8           0.000745221   -0.000522976   -0.000030220
     16        6           0.001402694    0.000856151    0.000000350
     17        6          -0.000477074   -0.000829498    0.000003243
     18        6           0.000375012   -0.001610994   -0.000004991
     19        8          -0.000521129    0.000786730   -0.000005660
     20        6          -0.001706563   -0.001480739   -0.000022532
     21        6           0.000168150    0.002588671   -0.000007641
     22        1           0.000598048    0.000097298   -0.000001453
     23        1           0.000939296   -0.000826301    0.000007326
     24        1           0.000036696    0.001008298   -0.000001060
     25        6           0.001240741   -0.000922735    0.000042931
     26        1          -0.000611234   -0.000712026   -0.000013894
     27        9          -0.001311925    0.000714662   -0.000031290
 -------------------------------------------------------------------
 Cartesian Forces:  Max     0.002588671 RMS     0.000609345

 GradGradGradGradGradGradGradGradGradGradGradGradGradGradGradGradGradGrad
 Berny optimization.
 Using GEDIIS/GDIIS optimizer.
 FormGI is forming the generalized inverse of G from B-inverse, IUseBI=4.
 GSVD:  received Info=                   1 from GESDD.
 Internal  Forces:  Max     0.001654324 RMS     0.000427795
 Search for a local minimum.
 Step number   2 out of a maximum of  134
 All quantities printed in internal units (Hartrees-Bohrs-Radians)
 Mixed Optimization -- En-DIIS/RFO-DIIS
 Update second derivatives using D2CorX and points    1    2
 DE= -7.93D-04 DEPred=-7.76D-04 R= 1.02D+00
[...]
 Alpha virt. eigenvalues --    0.05729   0.06296   0.06465   0.07572   0.07718
 Alpha virt. eigenvalues --    0.08016   0.08380   0.08885   0.10278   0.10892
 Alpha virt. eigenvalues --    0.11520   0.12498   0.12726   0.13127   0.13381
 Alpha virt. eigenvalues --    0.13811   0.14436   0.14657   0.15017   0.16000
 Alpha virt. eigenvalues --    0.16291   0.16610   0.16877   0.17015   0.17488
 Alpha virt. eigenvalues --    0.17645   0.18303   0.18497   0.18938   0.19152
 Alpha virt. eigenvalues --    0.19588   0.19812   0.20755   0.21263   0.21387
 Alpha virt. eigenvalues --    0.21567   0.21621   0.22351   0.22948   0.23469
 Alpha virt. eigenvalues --    0.24002   0.24068   0.24278   0.24788   0.25589
 Alpha virt. eigenvalues --    0.25967   0.26143   0.27124   0.27192   0.27591
 Alpha virt. eigenvalues --    0.28001   0.28601   0.29238   0.29380   0.29837
 Alpha virt. eigenvalues --    0.30796   0.30986   0.32265   0.32475   0.33137
 Alpha virt. eigenvalues --    0.33549   0.33990   0.34367   0.35228   0.35861
 Alpha virt. eigenvalues --    0.36394   0.36573   0.37408   0.37841   0.38150
 Alpha virt. eigenvalues --    0.38946   0.39269   0.39629   0.40011   0.40504
 Alpha virt. eigenvalues --    0.41436   0.42904   0.43031   0.43294   0.43902
 Alpha virt. eigenvalues --    0.44395   0.45267   0.45442   0.46373   0.46762
 Alpha virt. eigenvalues --    0.49181   0.49446   0.50374   0.50974   0.51348
 Alpha virt. eigenvalues --    0.52121   0.52653   0.54608   0.55021   0.57465
 Alpha virt. eigenvalues --    0.58442   0.60370   0.61050   0.61248   0.62940
 Alpha virt. eigenvalues --    0.63487   0.64055   0.65563   0.65848   0.66489
 Alpha virt. eigenvalues --    0.67204   0.67947   0.68449   0.68669   0.69967
 Alpha virt. eigenvalues --    0.70083   0.70617   0.70810   0.71690   0.71798
 Alpha virt. eigenvalues --    0.73852   0.74341   0.75227   0.75707   0.76615
 Alpha virt. eigenvalues --    0.77266   0.78860   0.79907   0.80063   0.80562
 Alpha virt. eigenvalues --    0.81616   0.82845   0.85378   0.86748   0.87379
 Alpha virt. eigenvalues --    0.88173   0.89556   0.90687   0.93935   0.94176
 Alpha virt. eigenvalues --    0.94811   0.96434   0.97079   0.98070   0.98446
 Alpha virt. eigenvalues --    0.99269   1.02015   1.02302   1.02934   1.04569
 Alpha virt. eigenvalues --    1.05021   1.05770   1.07612   1.08006   1.09579
 Alpha virt. eigenvalues --    1.11995   1.12781   1.13330   1.14075   1.15525
 Alpha virt. eigenvalues --    1.16367   1.17210   1.17938   1.19349   1.19568
 Alpha virt. eigenvalues --    1.21730   1.24154   1.26033   1.27780   1.31815
 Alpha virt. eigenvalues --    1.32387   1.33135   1.34213   1.36341   1.37812
 Alpha virt. eigenvalues --    1.39433   1.42489   1.45173   1.47034   1.49688
 Alpha virt. eigenvalues --    1.50373   1.51750   1.51960   1.53131   1.54717
 Alpha virt. eigenvalues --    1.55570   1.57563   1.58460   1.59592   1.61168
 Alpha virt. eigenvalues --    1.62428   1.63017   1.63290   1.64717   1.64804
 Alpha virt. eigenvalues --    1.65015   1.65805   1.67842   1.69101   1.69382
 Alpha virt. eigenvalues --    1.71280   1.72834   1.73641   1.74580   1.76659
 Alpha virt. eigenvalues --    1.77517   1.78540   1.80689   1.81688   1.82126
 Alpha virt. eigenvalues --    1.83763   1.84876   1.86162   1.86935   1.90141
 Alpha virt. eigenvalues --    1.93142   1.94880   1.97132   1.97490   1.99021
 Alpha virt. eigenvalues --    2.00802   2.01224   2.03791   2.04453   2.04480
 Alpha virt. eigenvalues --    2.06813   2.07351   2.07879   2.09522   2.10247
 Alpha virt. eigenvalues --    2.12174   2.13492   2.16885   2.17153   2.18252
 Alpha virt. eigenvalues --    2.19202   2.21326   2.23859   2.24167   2.26086
 Alpha virt. eigenvalues --    2.29560   2.30344   2.32019   2.37053   2.39860
 Alpha virt. eigenvalues --    2.41330   2.44766   2.45876   2.46467   2.50504
 Alpha virt. eigenvalues --    2.51508   2.52744   2.54673   2.55969   2.58622
 Alpha virt. eigenvalues --    2.59626   2.61903   2.63619   2.65004   2.68042
 Alpha virt. eigenvalues --    2.70421   2.71095   2.72256   2.73517   2.75704
 Alpha virt. eigenvalues --    2.77190   2.78670   2.79020   2.81876   2.82850
 Alpha virt. eigenvalues --    2.84125   2.84438   2.85090   2.87744   2.88980
 Alpha virt. eigenvalues --    2.89425   2.91671   2.92685   2.95071   2.95781
 Alpha virt. eigenvalues --    2.97586   2.98297   3.01213   3.03847   3.08033
 Alpha virt. eigenvalues --    3.10281   3.13230   3.15657   3.18372   3.21484
 Alpha virt. eigenvalues --    3.22046   3.24832   3.25891   3.26900   3.30584
 Alpha virt. eigenvalues --    3.31261   3.32579   3.37564   3.42900   3.46759
 Alpha virt. eigenvalues --    3.52848   3.57000   3.61078   3.62954   3.67328
 Alpha virt. eigenvalues --    3.68634   3.72007   3.74205   3.79415   3.80140
 Alpha virt. eigenvalues --    3.82632   3.83180   3.84793   3.88038   3.89568
 Alpha virt. eigenvalues --    3.92771   3.94425   3.96732   4.03794   4.08540
 Alpha virt. eigenvalues --    4.08627   4.12555   4.18135   4.23547   4.29334
 Alpha virt. eigenvalues --    4.31491   4.39738   4.64413   4.93949   4.97921
 Alpha virt. eigenvalues --    4.98367   5.13742   5.17737   5.18693   5.43207
 Alpha virt. eigenvalues --    5.62504   5.90065   5.94640   6.43983   6.56829
 Alpha virt. eigenvalues --    6.87932  23.70924  23.94119  24.03425  24.04303
 Alpha virt. eigenvalues --   24.04871  24.06182  24.07492  24.15935  24.24719
 Alpha virt. eigenvalues --   24.29873  24.32777  35.70255  50.13768  50.19926
 Alpha virt. eigenvalues --   66.95145
          Condensed to atoms (all electrons):
               1          2          3          4          5          6
     1  C    5.246174   0.386699   0.416330  -0.072689   0.013228   0.243247
     2  H    0.386699   0.488215  -0.019519   0.005694  -0.006606  -0.049312
     3  H    0.416330  -0.019519   0.527545  -0.006528   0.000644  -0.054165
     4  C   -0.072689   0.005694  -0.006528   5.183569   0.395322   0.273936
     5  H    0.013228  -0.006606   0.000644   0.395322   0.560174  -0.049307
     6  N    0.243247  -0.049312  -0.054165   0.273936  -0.049307   6.855454
     7  H    0.417853  -0.020921  -0.053215   0.010113   0.001929  -0.035685
     8  H   -0.001755   0.003808  -0.000528   0.409777  -0.030016  -0.094065
     9  H   -0.013910  -0.003259   0.003216   0.411600  -0.064313  -0.049471
    10  C    0.169778   0.022082  -0.005487  -0.047948  -0.035743   0.172057
    11  H    0.006561  -0.001246  -0.002462  -0.038376   0.004419  -0.066971
    12  C    0.140845   0.025090  -0.001785  -0.075288   0.016360  -0.229481
    13  C   -0.282467  -0.017385   0.012463  -0.124866   0.004272   0.000011
    14  H    0.017313   0.002019  -0.010096  -0.007204  -0.000010  -0.031754
    15  O   -0.001187   0.000098   0.000184   0.000871  -0.000088   0.004229
    16  C   -0.212380  -0.005052   0.002286   0.007573  -0.000709  -0.005290
    17  C   -0.033390   0.000343  -0.000694  -0.004065  -0.000413   0.005510
    18  C   -0.007033  -0.004770   0.001116  -0.014440   0.000587  -0.008277
    19  O   -0.000055  -0.000006   0.000045   0.000334   0.000010  -0.000159
    20  C    0.006105   0.000311  -0.000829  -0.000692   0.000010  -0.000300
    21  C   -0.000213  -0.000078   0.000847   0.001531   0.000006  -0.000025
    22  H    0.003160   0.000030  -0.000554  -0.002382   0.000023  -0.006875
    23  H   -0.001155  -0.000098   0.000070  -0.000057   0.000008   0.000073
    24  H    0.000073   0.000003  -0.000009   0.000017   0.000001  -0.000028
    25  C   -0.002381  -0.000053   0.000085  -0.000574  -0.000007  -0.000039
    26  H   -0.000945  -0.000057   0.000069   0.000100   0.000001   0.000223
    27  F    0.000010   0.000000   0.000000   0.000000   0.000000   0.000000
               7          8          9         10         11         12
     1  C    0.417853  -0.001755  -0.013910   0.169778   0.006561   0.140845
     2  H   -0.020921   0.003808  -0.003259   0.022082  -0.001246   0.025090
     3  H   -0.053215  -0.000528   0.003216  -0.005487  -0.002462  -0.001785
     4  C    0.010113   0.409777   0.411600  -0.047948  -0.038376  -0.075288
     5  H    0.001929  -0.030016  -0.064313  -0.035743   0.004419   0.016360
     6  N   -0.035685  -0.094065  -0.049471   0.172057  -0.066971  -0.229481
     7  H    0.534989  -0.003059  -0.001460   0.036285   0.002826  -0.043813
     8  H   -0.003059   0.534729  -0.021413   0.059800  -0.007971   0.002573
     9  H   -0.001460  -0.021413   0.560043  -0.004269   0.000468   0.006280
    10  C    0.036285   0.059800  -0.004269  12.513185   0.276172   2.892680
    11  H    0.002826  -0.007971   0.000468   0.276172   0.466877   0.074983
    12  C   -0.043813   0.002573   0.006280   2.892680   0.074983  12.393744
    13  C   -0.030869   0.003768   0.000961  -4.278233   0.123007   1.347896
    14  H    0.013443  -0.003463   0.000832   0.062256   0.001787   0.543973
    15  O    0.000651   0.000152   0.000072   0.032666   0.009304  -0.254428
    16  C   -0.002873   0.005122   0.001131  -2.591327  -0.064016  -4.623213
    17  C   -0.000551   0.003677  -0.000181  -1.603016  -0.066982  -4.026464
    18  C   -0.005596  -0.003818   0.000332  -1.884644   0.050265  -0.872628
    19  O    0.000030  -0.000104   0.000002   0.017016   0.000025  -0.023581
    20  C   -0.000821   0.000136  -0.000009  -0.202591  -0.002573  -0.005225
    21  C    0.002030  -0.000301   0.000003   0.166096   0.002493  -0.303189
    22  H   -0.005589   0.000544  -0.000104  -0.161296   0.002312  -0.027641
    23  H   -0.000026   0.000030   0.000036  -0.019009   0.000799   0.002058
    24  H   -0.000012   0.000002   0.000000   0.000341  -0.000159   0.000635
    25  C    0.000049  -0.000015   0.000000  -0.206267  -0.000920  -0.528525
    26  H    0.000161  -0.000003   0.000004   0.006965  -0.000223  -0.012825
    27  F    0.000000   0.000000   0.000000   0.000546   0.000017   0.003917
              13         14         15         16         17         18
     1  C   -0.282467   0.017313  -0.001187  -0.212380  -0.033390  -0.007033
     2  H   -0.017385   0.002019   0.000098  -0.005052   0.000343  -0.004770
     3  H    0.012463  -0.010096   0.000184   0.002286  -0.000694   0.001116
     4  C   -0.124866  -0.007204   0.000871   0.007573  -0.004065  -0.014440
     5  H    0.004272  -0.000010  -0.000088  -0.000709  -0.000413   0.000587
     6  N    0.000011  -0.031754   0.004229  -0.005290   0.005510  -0.008277
     7  H   -0.030869   0.013443   0.000651  -0.002873  -0.000551  -0.005596
     8  H    0.003768  -0.003463   0.000152   0.005122   0.003677  -0.003818
     9  H    0.000961   0.000832   0.000072   0.001131  -0.000181   0.000332
    10  C   -4.278233   0.062256   0.032666  -2.591327  -1.603016  -1.884644
    11  H    0.123007   0.001787   0.009304  -0.064016  -0.066982   0.050265
    12  C    1.347896   0.543973  -0.254428  -4.623213  -4.026464  -0.872628
    13  C   13.558262  -0.038967   0.889483   1.283487  -4.576566   0.632219
    14  H   -0.038967   0.660479  -0.011972  -0.067895   0.004689  -0.146827
    15  O    0.889483  -0.011972   8.146524  -0.125214  -0.116456  -0.250941
    16  C    1.283487  -0.067895  -0.125214  18.471661   2.254407  -5.114433
    17  C   -4.576566   0.004689  -0.116456   2.254407  17.371035  -4.767474
    18  C    0.632219  -0.146827  -0.250941  -5.114433  -4.767474  16.890410
    19  O   -0.010808  -0.000413  -0.001609   0.073935   0.327761  -0.033998
    20  C   -0.565293  -0.020869  -0.046327  -3.122773   0.107980   1.785114
    21  C   -0.463836  -0.061229   0.005823  -0.924807   0.752063   0.236192
    22  H    0.034352  -0.031413  -0.001288  -0.296794  -0.043310   0.834290
    23  H    0.022999  -0.001241   0.074974  -0.140265   0.009357   0.045517
    24  H    0.004904  -0.000857   0.000184  -0.083407  -0.040775   0.025079
    25  C   -0.955934  -0.014600  -0.021966  -0.987391   0.004891   0.631125
    26  H   -0.012661   0.005244   0.000611   0.139222   0.063016  -0.092104
    27  F    0.007492  -0.000340  -0.000021   0.020351  -0.080647  -0.049664
              19         20         21         22         23         24
     1  C   -0.000055   0.006105  -0.000213   0.003160  -0.001155   0.000073
     2  H   -0.000006   0.000311  -0.000078   0.000030  -0.000098   0.000003
     3  H    0.000045  -0.000829   0.000847  -0.000554   0.000070  -0.000009
     4  C    0.000334  -0.000692   0.001531  -0.002382  -0.000057   0.000017
     5  H    0.000010   0.000010   0.000006   0.000023   0.000008   0.000001
     6  N   -0.000159  -0.000300  -0.000025  -0.006875   0.000073  -0.000028
     7  H    0.000030  -0.000821   0.002030  -0.005589  -0.000026  -0.000012
     8  H   -0.000104   0.000136  -0.000301   0.000544   0.000030   0.000002
     9  H    0.000002  -0.000009   0.000003  -0.000104   0.000036   0.000000
    10  C    0.017016  -0.202591   0.166096  -0.161296  -0.019009   0.000341
    11  H    0.000025  -0.002573   0.002493   0.002312   0.000799  -0.000159
    12  C   -0.023581  -0.005225  -0.303189  -0.027641   0.002058   0.000635
    13  C   -0.010808  -0.565293  -0.463836   0.034352   0.022999   0.004904
    14  H   -0.000413  -0.020869  -0.061229  -0.031413  -0.001241  -0.000857
    15  O   -0.001609  -0.046327   0.005823  -0.001288   0.074974   0.000184
    16  C    0.073935  -3.122773  -0.924807  -0.296794  -0.140265  -0.083407
    17  C    0.327761   0.107980   0.752063  -0.043310   0.009357  -0.040775
    18  C   -0.033998   1.785114   0.236192   0.834290   0.045517   0.025079
    19  O    8.106075  -0.404654   0.016070  -0.003276   0.249364  -0.021985
    20  C   -0.404654  11.057746  -2.502043   0.163442   0.069320   0.675278
    21  C    0.016070  -2.502043   9.350142  -0.165362   0.013185  -0.082190
    22  H   -0.003276   0.163442  -0.165362   0.609020   0.002105   0.003714
    23  H    0.249364   0.069320   0.013185   0.002105   0.300976   0.001431
    24  H   -0.021985   0.675278  -0.082190   0.003714   0.001431   0.456205
    25  C    0.000592  -0.343310   0.018774   0.063632   0.000835  -0.171768
    26  H    0.000475  -0.130425   0.534459  -0.033900   0.000330  -0.002275
    27  F   -0.000614  -0.226707  -0.215560   0.002826  -0.000162  -0.021264
              25         26         27
     1  C   -0.002381  -0.000945   0.000010
     2  H   -0.000053  -0.000057   0.000000
     3  H    0.000085   0.000069   0.000000
     4  C   -0.000574   0.000100   0.000000
     5  H   -0.000007   0.000001   0.000000
     6  N   -0.000039   0.000223   0.000000
     7  H    0.000049   0.000161   0.000000
     8  H   -0.000015  -0.000003   0.000000
     9  H    0.000000   0.000004   0.000000
    10  C   -0.206267   0.006965   0.000546
    11  H   -0.000920  -0.000223   0.000017
    12  C   -0.528525  -0.012825   0.003917
    13  C   -0.955934  -0.012661   0.007492
    14  H   -0.014600   0.005244  -0.000340
    15  O   -0.021966   0.000611  -0.000021
    16  C   -0.987391   0.139222   0.020351
    17  C    0.004891   0.063016  -0.080647
    18  C    0.631125  -0.092104  -0.049664
    19  O    0.000592   0.000475  -0.000614
    20  C   -0.343310  -0.130425  -0.226707
    21  C    0.018774   0.534459  -0.215560
    22  H    0.063632  -0.033900   0.002826
    23  H    0.000835   0.000330  -0.000162
    24  H   -0.171768  -0.002275  -0.021264
    25  C    8.719003  -0.173510   0.596473
    26  H   -0.173510   0.481934  -0.026310
    27  F    0.596473  -0.026310   9.139629
 Mulliken charges:
               1
     1  C   -0.437816
     2  H    0.193967
     3  H    0.190970
     4  C   -0.305327
     5  H    0.190219
     6  N    0.126466
     7  H    0.184128
     8  H    0.142395
     9  H    0.173409
    10  C    0.611907
    11  H    0.229583
    12  C   -0.422948
    13  C   -0.567691
    14  H    0.137114
    15  O   -0.334327
    16  C    2.108664
    17  C    0.456256
    18  C   -1.875602
    19  O   -0.290472
    20  C   -0.290004
    21  C   -0.380881
    22  H    0.060335
    23  H    0.368545
    24  H    0.256860
    25  C   -0.628199
    26  H    0.252423
    27  F   -0.149973
 Sum of Mulliken charges =   0.00000
 Mulliken charges with hydrogens summed into heavy atoms:
               1
     1  C    0.131249
     4  C    0.200696
     6  N    0.126466
    10  C    0.841490
    12  C   -0.285834
    13  C   -0.567691
    15  O   -0.334327
    16  C    2.108664
    17  C    0.456256
    18  C   -1.815267
    19  O    0.078073
    20  C   -0.033144
    21  C   -0.128458
    25  C   -0.628199
    27  F   -0.149973
 Electronic spatial extent (au):  <R**2>=           4731.4804
 Charge=              0.0000 electrons
 Dipole moment (field-independent basis, Debye):
    X=              7.2238    Y=             -3.4626    Z=              0.1280  Tot=              8.0119
 Quadrupole moment (field-independent basis, Debye-Ang):
   XX=            -70.1146   YY=            -88.3727   ZZ=            -91.0233
   XY=             -3.5613   XZ=              0.6065   YZ=              0.2806
 Traceless Quadrupole moment (field-independent basis, Debye-Ang):
   XX=             13.0556   YY=             -5.2025   ZZ=             -7.8531
   XY=             -3.5613   XZ=              0.6065   YZ=              0.2806
 Octapole moment (field-independent basis, Debye-Ang**2):
  XXX=            173.8382  YYY=            -25.8445  ZZZ=              0.7394  XYY=             13.4956
  XXY=              8.0394  XXZ=              1.7509  XZZ=             -3.3909  YZZ=              2.7358
  YYZ=             -0.2766  XYZ=              0.6711
 Hexadecapole moment (field-independent basis, Debye-Ang**3):
 XXXX=          -4546.7519 YYYY=           -937.7108 ZZZZ=           -111.0144 XXXY=           -118.8770
 XXXZ=              4.9407 YYYX=             50.7730 YYYZ=              0.4717 ZZZX=              2.0833
 ZZZY=             -0.6987 XXYY=           -956.1158 XXZZ=           -865.9718 YYZZ=           -180.8584
 XXYZ=              4.9104 YYXZ=             -2.0231 ZZXY=              3.8165
 N-N= 9.402907908444D+02 E-N=-3.591464125489D+03  KE= 7.286993366404D+02
 1\1\GINC-DN115\FOpt\RwB97XD\6-311++G(d,p)\C11H12F1N1O2\CA12053\18-Oct-
 2016\0\\# wb97xd 6-311++g** opt\\Geom Opt s0\\0,1\C,3.7266485172,1.627
 7809907,0.0376344289\H,4.7737856434,1.9076997782,0.1501102316\H,3.3478
 528752,2.0525767308,-0.8996565763\C,4.8253564827,-0.595220565,-0.10639
 23831\H,5.2848231482,-0.4287285735,-1.0872336936\N,3.6120839764,0.1841
 574562,0.0468783356\H,3.1620560451,2.0602225648,0.8689532584\H,4.59225
 92067,-1.6552873492,-0.0094031935\H,5.5500582378,-0.329155157,0.668189
 2801\C,2.4031579597,-0.3981234585,0.0249725668\H,2.4056903002,-1.48411
 78447,0.0123012877\C,1.1934710181,0.2264041966,0.025742264\C,-0.001541
 3281,-0.5938201947,0.0267817468\H,1.121708737,1.3029697936,0.015659222
 \O,0.0796515435,-1.8360618819,0.0391813439\C,-1.3446562638,0.037889810
 8,0.0068298624\C,-2.4971880587,-0.7885781748,-0.0040097628\C,-1.534337
 867,1.4271041355,-0.0007742217\O,-2.4279813372,-2.1164242468,0.0030864
 417\C,-3.7734464218,-0.2152510898,-0.0230397273\C,-2.7879276688,2.0037
 034401,-0.0190062524\H,-0.6758912015,2.0856591159,0.008232096\H,-1.464
 6649445,-2.341988323,0.0191141289\H,-4.6480181865,-0.8521694558,-0.031
 3154137\C,-3.8868668376,1.1529415298,-0.0299738941\H,-2.9279928576,3.0
 763310409,-0.0245543261\F,-5.1149343582,1.6962474508,-0.0477706004\\Ve
 rsion=ES64L-G09RevD.01\State=1-A\HF=-731.3961582\RMSD=6.120e-09\RMSF=4
 .172e-05\Dipole=2.9343401,1.1502241,-0.0492824\Quadrupole=10.0218321,-
 4.180825,-5.8410071,1.6257018,-0.4167911,0.2390288\PG=C01 [X(C11H12F1N
 1O2)]\\@


 EVERYTHING'S GOT A MORAL, IF ONLY YOU CAN FIND IT.

                                    -- LEWIS CARROL, ALICE IN WONDERLAND
 Job cpu time:       0 days  3 hours 46 minutes 34.9 seconds.
 File lengths (MBytes):  RWF=    103 Int=      0 D2E=      0 Chk=     13 Scr=      1
 Normal termination of Gaussian 09 at Tue Oct 18 16:04:58 2016.
