 Entering Gaussian System, Link 0=g09
 Input=2_optS1_trans.com
 Output=2_optS1_trans.out
 Initial command:
 /share/apps/gaussian/g09_D01/g09/l1.exe "/tmp/4045095.1.chemistry.q/Gau-31316.inp" -scrdir="/tmp/4045095.1.chemistry.q/"
 Entering Link 1 = /share/apps/gaussian/g09_D01/g09/l1.exe PID=     31317.
  
 Copyright (c) 1988,1990,1992,1993,1995,1998,2003,2009,2013,
            Gaussian, Inc.  All Rights Reserved.
  
 This is part of the Gaussian(R) 09 program.  It is based on
 the Gaussian(R) 03 system (copyright 2003, Gaussian, Inc.),
 the Gaussian(R) 98 system (copyright 1998, Gaussian, Inc.),
 the Gaussian(R) 94 system (copyright 1995, Gaussian, Inc.),
 the Gaussian 92(TM) system (copyright 1992, Gaussian, Inc.),
 the Gaussian 90(TM) system (copyright 1990, Gaussian, Inc.),
 the Gaussian 88(TM) system (copyright 1988, Gaussian, Inc.),
 the Gaussian 86(TM) system (copyright 1986, Carnegie Mellon
 University), and the Gaussian 82(TM) system (copyright 1983,
 Carnegie Mellon University). Gaussian is a federally registered
 trademark of Gaussian, Inc.
  
 This software contains proprietary and confidential information,
 including trade secrets, belonging to Gaussian, Inc.
  
 This software is provided under written license and may be
 used, copied, transmitted, or stored only in accord with that
 written license.
  
 The following legend is applicable only to US Government
 contracts under FAR:
  
                    RESTRICTED RIGHTS LEGEND
  
 Use, reproduction and disclosure by the US Government is
 subject to restrictions as set forth in subparagraphs (a)
 and (c) of the Commercial Computer Software - Restricted
 Rights clause in FAR 52.227-19.
  
 Gaussian, Inc.
 340 Quinnipiac St., Bldg. 40, Wallingford CT 06492
  
  
 ---------------------------------------------------------------
 Warning -- This program may not be used in any manner that
 competes with the business of Gaussian, Inc. or will provide
 assistance to any competitor of Gaussian, Inc.  The licensee
 of this program is prohibited from giving any competitor of
 Gaussian, Inc. access to this program.  By using this program,
 the user acknowledges that Gaussian, Inc. is engaged in the
 business of creating and licensing software in the field of
 computational chemistry and represents and warrants to the
 licensee that it is not a competitor of Gaussian, Inc. and that
 it will not use this program in any manner prohibited above.
 ---------------------------------------------------------------
  

 Cite this work as:
 Gaussian 09, Revision D.01,
 M. J. Frisch, G. W. Trucks, H. B. Schlegel, G. E. Scuseria, 
 M. A. Robb, J. R. Cheeseman, G. Scalmani, V. Barone, B. Mennucci, 
 G. A. Petersson, H. Nakatsuji, M. Caricato, X. Li, H. P. Hratchian, 
 A. F. Izmaylov, J. Bloino, G. Zheng, J. L. Sonnenberg, M. Hada, 
 M. Ehara, K. Toyota, R. Fukuda, J. Hasegawa, M. Ishida, T. Nakajima, 
 Y. Honda, O. Kitao, H. Nakai, T. Vreven, J. A. Montgomery, Jr., 
 J. E. Peralta, F. Ogliaro, M. Bearpark, J. J. Heyd, E. Brothers, 
 K. N. Kudin, V. N. Staroverov, T. Keith, R. Kobayashi, J. Normand, 
 K. Raghavachari, A. Rendell, J. C. Burant, S. S. Iyengar, J. Tomasi, 
 M. Cossi, N. Rega, J. M. Millam, M. Klene, J. E. Knox, J. B. Cross, 
 V. Bakken, C. Adamo, J. Jaramillo, R. Gomperts, R. E. Stratmann, 
 O. Yazyev, A. J. Austin, R. Cammi, C. Pomelli, J. W. Ochterski, 
 R. L. Martin, K. Morokuma, V. G. Zakrzewski, G. A. Voth, 
 P. Salvador, J. J. Dannenberg, S. Dapprich, A. D. Daniels, 
 O. Farkas, J. B. Foresman, J. V. Ortiz, J. Cioslowski, 
 and D. J. Fox, Gaussian, Inc., Wallingford CT, 2013.
 
 ******************************************
 Gaussian 09:  ES64L-G09RevD.01 24-Apr-2013
                 4-Sep-2017 
 ******************************************
 %chk=2_optS1_trans
 %mem=28GB
 %nproc=4
 Will use up to    4 processors via shared memory.
 ---------------------------------------------
 # wb97xd 6-311++g** opt td=(nstates=1,root=1)
 ---------------------------------------------
 1/14=-1,18=20,19=15,26=3,38=1/1,3;
 2/9=110,12=2,17=6,18=5,40=1/2;
 3/5=4,6=6,7=1111,11=9,16=1,25=1,30=1,71=1,74=-58/1,2,8,3;
 4//1;
 5/5=2,38=5/2;
 8/6=1,10=2,107=1,108=1/1;
 9/8=1,15=2,41=1,42=1,70=2/14;
 10/5=4/2;
 6/7=2,8=2,9=2,10=2/1;
 7/12=6,13=5,14=1/1,2,3,16;
 1/14=-1,18=20,19=15,26=3/3(2);
 2/9=110/2;
 99//99;
 2/9=110/2;
 3/5=4,6=6,7=1111,11=9,16=1,25=1,30=1,71=1,74=-58/1,2,8,3;
 4/5=5,16=3,69=1/1;
 5/5=2,38=5/2;
 8/6=1,10=2,107=1,108=1/1;
 9/8=1,15=2,41=1,42=1,49=4,70=2/14;
 10/5=4/2;
 7/12=6,13=5,14=1/1,2,3,16;
 1/14=-1,18=20,19=15,26=3/3(-8);
 2/9=110/2;
 6/7=2,8=2,9=2,10=2/1;
 99//99;
 -----------------------------------
 2-opt with chain c=c rotated like 1
 -----------------------------------
 Symbolic Z-matrix:
 Charge =  0 Multiplicity = 1
 C                     3.72665   1.62778   0.03763 
 H                     4.77379   1.9077    0.15011 
 H                     3.34785   2.05258  -0.89966 
 C                     4.82536  -0.59522  -0.10639 
 H                     5.28482  -0.42873  -1.08723 
 N                     3.61208   0.18416   0.04688 
 H                     3.16206   2.06022   0.86895 
 H                     4.59226  -1.65529  -0.0094 
 H                     5.55006  -0.32916   0.66819 
 C                     2.40316  -0.39812   0.02497 
 H                     2.40569  -1.48412   0.0123 
 C                     1.19347   0.2264    0.02574 
 C                    -0.00154  -0.59382   0.02678 
 H                     1.12171   1.30297   0.01566 
 O                     0.07965  -1.83606   0.03918 
 C                    -1.34466   0.03789   0.00683 
 C                    -1.52012   1.3083    0.61244 
 C                    -2.4622   -0.56424  -0.58856 
 O                    -0.5261    1.96516   1.20277 
 C                    -2.77719   1.92282   0.60591 
 C                    -3.70643   0.03243  -0.60155 
 H                    -2.36193  -1.53286  -1.06018 
 H                     0.27542   1.39221   1.11116 
 H                    -2.90338   2.892     1.07 
 C                    -3.82916   1.27674   0.00524 
 H                    -4.56499  -0.43698  -1.06274 
 F                    -5.03268   1.87272   0.00235 
 

 GradGradGradGradGradGradGradGradGradGradGradGradGradGradGradGradGradGrad
 Berny optimization.
 Initialization pass.
                           ----------------------------
                           !    Initial Parameters    !
                           ! (Angstroms and Degrees)  !
 --------------------------                            --------------------------
 ! Name  Definition              Value          Derivative Info.                !
 --------------------------------------------------------------------------------
 ! R1    R(1,2)                  1.0897         estimate D2E/DX2                !
 ! R2    R(1,3)                  1.0966         estimate D2E/DX2                !
 ! R3    R(1,6)                  1.4482         estimate D2E/DX2                !
 ! R4    R(1,7)                  1.094          estimate D2E/DX2                !
 ! R5    R(4,5)                  1.0958         estimate D2E/DX2                !
 ! R6    R(4,6)                  1.4502         estimate D2E/DX2                !
 ! R7    R(4,8)                  1.0897         estimate D2E/DX2                !
 ! R8    R(4,9)                  1.0936         estimate D2E/DX2                !
 ! R9    R(6,10)                 1.342          estimate D2E/DX2                !
 ! R10   R(10,11)                1.0861         estimate D2E/DX2                !
 ! R11   R(10,12)                1.3614         estimate D2E/DX2                !
 ! R12   R(12,13)                1.4494         estimate D2E/DX2                !
 ! R13   R(12,14)                1.079          estimate D2E/DX2                !
 ! R14   R(13,15)                1.245          estimate D2E/DX2                !
 ! R15   R(13,16)                1.4844         estimate D2E/DX2                !
 ! R16   R(16,17)                1.4183         estimate D2E/DX2                !
 ! R17   R(16,18)                1.4021         estimate D2E/DX2                !
 ! R18   R(17,19)                1.3297         estimate D2E/DX2                !
 ! R19   R(17,20)                1.3992         estimate D2E/DX2                !
 ! R20   R(18,21)                1.38           estimate D2E/DX2                !
 ! R21   R(18,22)                1.082          estimate D2E/DX2                !
 ! R22   R(19,23)                0.9895         estimate D2E/DX2                !
 ! R23   R(20,24)                1.0819         estimate D2E/DX2                !
 ! R24   R(20,25)                1.3729         estimate D2E/DX2                !
 ! R25   R(21,25)                1.3898         estimate D2E/DX2                !
 ! R26   R(21,26)                1.0817         estimate D2E/DX2                !
 ! R27   R(25,27)                1.343          estimate D2E/DX2                !
 ! A1    A(2,1,3)              108.7024         estimate D2E/DX2                !
 ! A2    A(2,1,6)              109.3549         estimate D2E/DX2                !
 ! A3    A(2,1,7)              108.4175         estimate D2E/DX2                !
 ! A4    A(3,1,6)              111.3642         estimate D2E/DX2                !
 ! A5    A(3,1,7)              108.5487         estimate D2E/DX2                !
 ! A6    A(6,1,7)              110.3869         estimate D2E/DX2                !
 ! A7    A(5,4,6)              111.3299         estimate D2E/DX2                !
 ! A8    A(5,4,8)              108.4904         estimate D2E/DX2                !
 ! A9    A(5,4,9)              108.6111         estimate D2E/DX2                !
 ! A10   A(6,4,8)              109.5391         estimate D2E/DX2                !
 ! A11   A(6,4,9)              110.4146         estimate D2E/DX2                !
 ! A12   A(8,4,9)              108.384          estimate D2E/DX2                !
 ! A13   A(1,6,4)              117.9621         estimate D2E/DX2                !
 ! A14   A(1,6,10)             120.2432         estimate D2E/DX2                !
 ! A15   A(4,6,10)             121.2491         estimate D2E/DX2                !
 ! A16   A(6,10,11)            115.5908         estimate D2E/DX2                !
 ! A17   A(6,10,12)            126.9697         estimate D2E/DX2                !
 ! A18   A(11,10,12)           117.438          estimate D2E/DX2                !
 ! A19   A(10,12,13)           118.2293         estimate D2E/DX2                !
 ! A20   A(10,12,14)           121.1177         estimate D2E/DX2                !
 ! A21   A(13,12,14)           120.65           estimate D2E/DX2                !
 ! A22   A(12,13,15)           120.7239         estimate D2E/DX2                !
 ! A23   A(12,13,16)           120.3426         estimate D2E/DX2                !
 ! A24   A(15,13,16)           118.933          estimate D2E/DX2                !
 ! A25   A(13,16,17)           119.1699         estimate D2E/DX2                !
 ! A26   A(13,16,18)           122.9652         estimate D2E/DX2                !
 ! A27   A(17,16,18)           117.8648         estimate D2E/DX2                !
 ! A28   A(16,17,19)           122.656          estimate D2E/DX2                !
 ! A29   A(16,17,20)           120.1681         estimate D2E/DX2                !
 ! A30   A(19,17,20)           117.1759         estimate D2E/DX2                !
 ! A31   A(16,18,21)           122.4766         estimate D2E/DX2                !
 ! A32   A(16,18,22)           119.7139         estimate D2E/DX2                !
 ! A33   A(21,18,22)           117.8095         estimate D2E/DX2                !
 ! A34   A(17,19,23)           106.1649         estimate D2E/DX2                !
 ! A35   A(17,20,24)           119.7476         estimate D2E/DX2                !
 ! A36   A(17,20,25)           118.9309         estimate D2E/DX2                !
 ! A37   A(24,20,25)           121.3215         estimate D2E/DX2                !
 ! A38   A(18,21,25)           117.5569         estimate D2E/DX2                !
 ! A39   A(18,21,26)           122.1411         estimate D2E/DX2                !
 ! A40   A(25,21,26)           120.302          estimate D2E/DX2                !
 ! A41   A(20,25,21)           123.0026         estimate D2E/DX2                !
 ! A42   A(20,25,27)           118.605          estimate D2E/DX2                !
 ! A43   A(21,25,27)           118.3924         estimate D2E/DX2                !
 ! D1    D(2,1,6,4)            -13.4783         estimate D2E/DX2                !
 ! D2    D(2,1,6,10)           174.8859         estimate D2E/DX2                !
 ! D3    D(3,1,6,4)            106.6771         estimate D2E/DX2                !
 ! D4    D(3,1,6,10)           -64.9587         estimate D2E/DX2                !
 ! D5    D(7,1,6,4)           -132.6735         estimate D2E/DX2                !
 ! D6    D(7,1,6,10)            55.6907         estimate D2E/DX2                !
 ! D7    D(5,4,6,1)            -63.9836         estimate D2E/DX2                !
 ! D8    D(5,4,6,10)           107.5638         estimate D2E/DX2                !
 ! D9    D(8,4,6,1)            176.0264         estimate D2E/DX2                !
 ! D10   D(8,4,6,10)           -12.4263         estimate D2E/DX2                !
 ! D11   D(9,4,6,1)             56.7406         estimate D2E/DX2                !
 ! D12   D(9,4,6,10)          -131.7121         estimate D2E/DX2                !
 ! D13   D(1,6,10,11)          178.7379         estimate D2E/DX2                !
 ! D14   D(1,6,10,12)           -1.7133         estimate D2E/DX2                !
 ! D15   D(4,6,10,11)            7.3814         estimate D2E/DX2                !
 ! D16   D(4,6,10,12)         -173.0698         estimate D2E/DX2                !
 ! D17   D(6,10,12,13)        -178.7757         estimate D2E/DX2                !
 ! D18   D(6,10,12,14)           1.8399         estimate D2E/DX2                !
 ! D19   D(11,10,12,13)          0.7657         estimate D2E/DX2                !
 ! D20   D(11,10,12,14)       -178.6186         estimate D2E/DX2                !
 ! D21   D(10,12,13,15)          0.654          estimate D2E/DX2                !
 ! D22   D(10,12,13,16)       -179.0689         estimate D2E/DX2                !
 ! D23   D(14,12,13,15)       -179.9586         estimate D2E/DX2                !
 ! D24   D(14,12,13,16)          0.3185         estimate D2E/DX2                !
 ! D25   D(12,13,16,17)        -30.2722         estimate D2E/DX2                !
 ! D26   D(12,13,16,18)        149.6704         estimate D2E/DX2                !
 ! D27   D(15,13,16,17)        150.0            estimate D2E/DX2                !
 ! D28   D(15,13,16,18)        -30.0575         estimate D2E/DX2                !
 ! D29   D(13,16,17,19)          0.0063         estimate D2E/DX2                !
 ! D30   D(13,16,17,20)       -179.9908         estimate D2E/DX2                !
 ! D31   D(18,16,17,19)       -179.9392         estimate D2E/DX2                !
 ! D32   D(18,16,17,20)          0.0638         estimate D2E/DX2                !
 ! D33   D(13,16,18,21)       -179.9832         estimate D2E/DX2                !
 ! D34   D(13,16,18,22)         -0.0101         estimate D2E/DX2                !
 ! D35   D(17,16,18,21)         -0.0399         estimate D2E/DX2                !
 ! D36   D(17,16,18,22)        179.9332         estimate D2E/DX2                !
 ! D37   D(16,17,19,23)          0.1616         estimate D2E/DX2                !
 ! D38   D(20,17,19,23)       -179.8413         estimate D2E/DX2                !
 ! D39   D(16,17,20,24)        179.9942         estimate D2E/DX2                !
 ! D40   D(16,17,20,25)         -0.0465         estimate D2E/DX2                !
 ! D41   D(19,17,20,24)         -0.0031         estimate D2E/DX2                !
 ! D42   D(19,17,20,25)        179.9563         estimate D2E/DX2                !
 ! D43   D(16,18,21,25)         -0.0015         estimate D2E/DX2                !
 ! D44   D(16,18,21,26)        179.9849         estimate D2E/DX2                !
 ! D45   D(22,18,21,25)       -179.9751         estimate D2E/DX2                !
 ! D46   D(22,18,21,26)          0.0113         estimate D2E/DX2                !
 ! D47   D(17,20,25,21)          0.0033         estimate D2E/DX2                !
 ! D48   D(17,20,25,27)       -179.9766         estimate D2E/DX2                !
 ! D49   D(24,20,25,21)        179.962          estimate D2E/DX2                !
 ! D50   D(24,20,25,27)         -0.018          estimate D2E/DX2                !
 ! D51   D(18,21,25,20)          0.0208         estimate D2E/DX2                !
 ! D52   D(18,21,25,27)       -179.9992         estimate D2E/DX2                !
 ! D53   D(26,21,25,20)       -179.9659         estimate D2E/DX2                !
 ! D54   D(26,21,25,27)          0.0141         estimate D2E/DX2                !
 --------------------------------------------------------------------------------
 Trust Radius=3.00D-01 FncErr=1.00D-07 GrdErr=1.00D-06
 Number of steps in this run=    134 maximum allowed number of steps=    162.
 GradGradGradGradGradGradGradGradGradGradGradGradGradGradGradGradGradGrad

                          Input orientation:                          
 ---------------------------------------------------------------------
 Center     Atomic      Atomic             Coordinates (Angstroms)
 Number     Number       Type             X           Y           Z
 ---------------------------------------------------------------------
      1          6           0        3.726649    1.627781    0.037634
      2          1           0        4.773786    1.907700    0.150110
      3          1           0        3.347853    2.052577   -0.899657
      4          6           0        4.825356   -0.595221   -0.106392
      5          1           0        5.284823   -0.428729   -1.087234
      6          7           0        3.612084    0.184157    0.046878
      7          1           0        3.162056    2.060223    0.868953
      8          1           0        4.592259   -1.655287   -0.009403
      9          1           0        5.550058   -0.329155    0.668189
     10          6           0        2.403158   -0.398123    0.024973
     11          1           0        2.405690   -1.484118    0.012301
     12          6           0        1.193471    0.226404    0.025742
     13          6           0       -0.001541   -0.593820    0.026782
     14          1           0        1.121709    1.302970    0.015659
     15          8           0        0.079652   -1.836062    0.039181
     16          6           0       -1.344656    0.037890    0.006830
     17          6           0       -1.520116    1.308300    0.612444
     18          6           0       -2.462200   -0.564240   -0.588559
     19          8           0       -0.526102    1.965160    1.202771
     20          6           0       -2.777187    1.922816    0.605912
     21          6           0       -3.706428    0.032429   -0.601550
     22          1           0       -2.361927   -1.532863   -1.060176
     23          1           0        0.275425    1.392208    1.111155
     24          1           0       -2.903377    2.891997    1.069996
     25          6           0       -3.829162    1.276744    0.005243
     26          1           0       -4.564995   -0.436983   -1.062740
     27          9           0       -5.032677    1.872721    0.002354
 ---------------------------------------------------------------------
                    Distance matrix (angstroms):
                    1          2          3          4          5
     1  C    0.000000
     2  H    1.089725   0.000000
     3  H    1.096564   1.776594   0.000000
     4  C    2.483876   2.516558   3.134185   0.000000
     5  H    2.814688   2.692783   3.153398   1.095847   0.000000
     6  N    1.448192   2.081060   2.111099   1.450155   2.111846
     7  H    1.094012   1.771348   1.778359   3.281653   3.811521
     8  H    3.395590   3.571172   4.011154   1.089716   1.773643
     9  H    2.748094   2.423742   3.602845   1.093599   1.778138
    10  C    2.419933   3.309434   2.784478   2.433752   3.089002
    11  H    3.380753   4.138997   3.771942   2.580506   3.257642
    12  C    2.894994   3.957383   2.971975   3.726005   4.290347
    13  C    4.339934   5.392269   4.368083   4.828734   5.404991
    14  H    2.625204   3.704246   2.520998   4.163535   4.641839
    15  O    5.029791   6.005244   5.165662   4.907401   5.508466
    16  C    5.314775   6.399379   5.186552   6.203442   6.735332
    17  C    5.287818   6.339262   5.151458   6.663718   7.225882
    18  C    6.595371   7.682162   6.379751   7.303555   7.764238
    19  O    4.422359   5.403722   4.408557   6.075160   6.688922
    20  C    6.535279   7.564733   6.308700   8.040308   8.566944
    21  C    7.629177   8.717549   7.343892   8.569157   9.016160
    22  H    6.947346   8.013779   6.744088   7.310671   7.726100
    23  H    3.622001   4.628671   3.730854   5.112159   5.765657
    24  H    6.827976   7.794476   6.607725   8.560251   9.095465
    25  C    7.564031   8.627271   7.275322   8.855360   9.336320
    26  H    8.615418   9.704708   8.296846   9.440250   9.849852
    27  F    8.762821   9.807639   8.430852  10.162843  10.627073
                    6          7          8          9         10
     6  N    0.000000
     7  H    2.097130   0.000000
     8  H    2.085058   4.077009   0.000000
     9  H    2.098871   3.384078   1.770632   0.000000
    10  C    1.342025   2.707710   2.524640   3.212703   0.000000
    11  H    2.059059   3.724016   2.193366   3.413382   1.086072
    12  C    2.419074   2.819437   3.885068   4.438607   1.361388
    13  C    3.696476   4.214444   4.714978   5.594792   2.412650
    14  H    2.730327   2.337640   4.560332   4.764441   2.129769
    15  O    4.069327   5.036941   4.516488   5.708919   2.732499
    16  C    4.959059   5.014333   6.173659   6.936080   3.773135
    17  C    5.284226   4.749097   6.821340   7.257529   4.318459
    18  C    6.153113   6.375296   7.161787   8.113628   4.906702
    19  O    4.651091   3.704455   6.385501   6.516854   3.943714
    20  C    6.645167   5.946653   8.215241   8.626603   5.706157
    21  C    7.348748   7.310978   8.489242   9.350161   6.156699
    22  H    6.313678   6.866308   7.034189   8.187531   5.017092
    23  H    3.704777   2.972801   5.401660   5.566064   2.985352
    24  H    7.129544   6.125499   8.833315   9.055265   6.330583
    25  C    7.521145   7.087804   8.917250   9.538773   6.453478
    26  H    8.275366   8.347142   9.297800  10.262652   7.052644
    27  F    8.808242   8.242561  10.251165  10.829861   7.774888
                   11         12         13         14         15
    11  H    0.000000
    12  C    2.096555   0.000000
    13  C    2.566632   1.449421   0.000000
    14  H    3.068628   1.079002   2.204456   0.000000
    15  O    2.352667   2.344043   1.244954   3.307561   0.000000
    16  C    4.047423   2.545188   1.484390   2.771906   2.354017
    17  C    4.854866   2.979644   2.503424   2.708398   3.574200
    18  C    4.990346   3.790305   2.536604   4.086068   2.910773
    19  O    4.680828   2.713965   2.864698   2.136121   4.021215
    20  C    6.230714   4.356666   3.791182   3.991742   4.755195
    21  C    6.327299   4.943696   3.809616   5.030520   4.270386
    22  H    4.886998   4.112796   2.763096   4.618992   2.694777
    23  H    3.744164   1.838486   2.279667   1.387182   3.407225
    24  H    6.960984   4.998001   4.654016   4.453981   5.684680
    25  C    6.818782   5.131323   4.260300   4.950952   4.996953
    26  H    7.130403   5.897864   4.694333   6.043921   4.974374
    27  F    8.160746   6.440173   5.603281   6.180717   6.316038
                   16         17         18         19         20
    16  C    0.000000
    17  C    1.418272   0.000000
    18  C    1.402124   2.415851   0.000000
    19  O    2.411364   1.329667   3.654477   0.000000
    20  C    2.442129   1.399250   2.776946   2.329253   0.000000
    21  C    2.438877   2.807417   1.379959   4.135879   2.427966
    22  H    2.154207   3.402721   1.081992   4.552730   3.858758
    23  H    2.382934   1.865401   3.769788   0.989502   3.139308
    24  H    3.421383   2.151943   3.858889   2.555012   1.081947
    25  C    2.776244   2.387757   2.368630   3.580251   1.372904
    26  H    3.426378   3.888899   2.159349   5.216846   3.398427
    27  F    4.119238   3.609552   3.591005   4.664629   2.335386
                   21         22         23         24         25
    21  C    0.000000
    22  H    2.113802   0.000000
    23  H    4.542852   4.497370   0.000000
    24  H    3.408239   4.940667   3.515087   0.000000
    25  C    1.389813   3.343918   4.252530   2.144720   0.000000
    26  H    1.081748   2.460583   5.612612   4.288548   2.149161
    27  F    2.347406   4.456443   5.443921   2.590889   1.342999
                   26         27
    26  H    0.000000
    27  F    2.586094   0.000000
 Stoichiometry    C11H12FNO2
 Framework group  C1[X(C11H12FNO2)]
 Deg. of freedom    75
 Full point group                 C1      NOp   1
 Largest Abelian subgroup         C1      NOp   1
 Largest concise Abelian subgroup C1      NOp   1
                         Standard orientation:                         
 ---------------------------------------------------------------------
 Center     Atomic      Atomic             Coordinates (Angstroms)
 Number     Number       Type             X           Y           Z
 ---------------------------------------------------------------------
      1          6           0        3.743244   -1.626242    0.511379
      2          1           0        4.741496   -2.063242    0.516338
      3          1           0        3.308393   -1.731415    1.512526
      4          6           0        5.139693    0.387391    0.105358
      5          1           0        5.570804    0.428446    1.112005
      6          7           0        3.830131   -0.235387    0.117380
      7          1           0        3.124787   -2.185135   -0.197149
      8          1           0        5.056039    1.404568   -0.276524
      9          1           0        5.821097   -0.169741   -0.543682
     10          6           0        2.713689    0.487707   -0.060734
     11          1           0        2.866892    1.527387   -0.334861
     12          6           0        1.429040    0.052897    0.057569
     13          6           0        0.359417    0.995150   -0.204894
     14          1           0        1.208567   -0.962475    0.348528
     15          8           0        0.612223    2.166792   -0.541426
     16          6           0       -1.058383    0.576822   -0.069762
     17          6           0       -1.407946   -0.773785   -0.325032
     18          6           0       -2.082043    1.459462    0.303091
     19          8           0       -0.514219   -1.690823   -0.683235
     20          6           0       -2.738136   -1.190766   -0.204121
     21          6           0       -3.397044    1.059523    0.426006
     22          1           0       -1.848710    2.496334    0.505967
     23          1           0        0.358988   -1.226532   -0.715786
     24          1           0       -2.997219   -2.222703   -0.400568
     25          6           0       -3.690769   -0.273530    0.164707
     26          1           0       -4.182541    1.745134    0.714295
     27          9           0       -4.965346   -0.680937    0.279239
 ---------------------------------------------------------------------
 Rotational constants (GHZ):      1.6353561      0.2571812      0.2280485
 Standard basis: 6-311++G(d,p) (5D, 7F)
 There are   429 symmetry adapted cartesian basis functions of A   symmetry.
 There are   414 symmetry adapted basis functions of A   symmetry.
   414 basis functions,   648 primitive gaussians,   429 cartesian basis functions
    55 alpha electrons       55 beta electrons
       nuclear repulsion energy       948.0356801237 Hartrees.
 NAtoms=   27 NActive=   27 NUniq=   27 SFac= 1.00D+00 NAtFMM=   60 NAOKFM=F Big=F
 Integral buffers will be    131072 words long.
 Raffenetti 1 integral format.
 Two-electron integral symmetry is turned on.
 Nuclear repulsion after empirical dispersion term =      948.0199751008 Hartrees.
 One-electron integrals computed using PRISM.
 NBasis=   414 RedAO= T EigKep=  3.43D-06  NBF=   414
 NBsUse=   412 1.00D-06 EigRej=  7.39D-07 NBFU=   412
 ExpMin= 3.60D-02 ExpMax= 1.14D+04 ExpMxC= 1.72D+03 IAcc=3 IRadAn=         5 AccDes= 0.00D+00
 Harris functional with IExCor= 4639 and IRadAn=       5 diagonalized for initial guess.
 HarFok:  IExCor= 4639 AccDes= 0.00D+00 IRadAn=         5 IDoV= 1 UseB2=F ITyADJ=14
 ICtDFT=  3500011 ScaDFX=  1.000000  1.000000  1.000000  1.000000
 FoFCou: FMM=F IPFlag=           0 FMFlag=      100000 FMFlg1=           0
         NFxFlg=           0 DoJE=T BraDBF=F KetDBF=T FulRan=T
         wScrn=  0.000000 ICntrl=     500 IOpCl=  0 I1Cent=   200000004 NGrid=           0
         NMat0=    1 NMatS0=      1 NMatT0=    0 NMatD0=    1 NMtDS0=    0 NMtDT0=    0
 Petite list used in FoFCou.
 Requested convergence on RMS density matrix=1.00D-08 within 128 cycles.
 Requested convergence on MAX density matrix=1.00D-06.
 Requested convergence on             energy=1.00D-06.
 No special actions if energy rises.
 SCF Done:  E(RwB97XD) =  -731.369163939     A.U. after   17 cycles
            NFock= 17  Conv=0.73D-08     -V/T= 2.0036
 DoSCS=F DFT=T ScalE2(SS,OS)=  1.000000  1.000000
 ExpMin= 3.60D-02 ExpMax= 1.14D+04 ExpMxC= 1.72D+03 IAcc=3 IRadAn=         5 AccDes= 0.00D+00
 HarFok:  IExCor=  205 AccDes= 0.00D+00 IRadAn=         5 IDoV=-2 UseB2=F ITyADJ=14
 ICtDFT= 12500011 ScaDFX=  1.000000  1.000000  1.000000  1.000000
 Range of M.O.s used for correlation:    16   412
 NBasis=   414 NAE=    55 NBE=    55 NFC=    15 NFV=     0
 NROrb=    397 NOA=    40 NOB=    40 NVA=   357 NVB=   357

 **** Warning!!: The largest alpha MO coefficient is  0.12521474D+03

 Would need an additional         18421000000 words for in-memory AO integral storage.
 Orbital symmetries:
       Occupied  (A) (A) (A) (A) (A) (A) (A) (A) (A) (A) (A) (A)
                 (A) (A) (A) (A) (A) (A) (A) (A) (A) (A) (A) (A)
                 (A) (A) (A) (A) (A) (A) (A) (A) (A) (A) (A) (A)
                 (A) (A) (A) (A) (A) (A) (A) (A) (A) (A) (A) (A)
                 (A) (A) (A) (A) (A) (A) (A)
       Virtual   (A) (A) (A) (A) (A) (A) (A) (A) (A) (A) (A) (A)
                 (A) (A) (A) (A) (A) (A) (A) (A) (A) (A) (A) (A)
                 (A) (A) (A) (A) (A) (A) (A) (A) (A) (A) (A) (A)
                 (A) (A) (A) (A) (A) (A) (A) (A) (A) (A) (A) (A)
                 (A) (A) (A) (A) (A) (A) (A) (A) (A) (A) (A) (A)
                 (A) (A) (A) (A) (A) (A) (A) (A) (A) (A) (A) (A)
                 (A) (A) (A) (A) (A) (A) (A) (A) (A) (A) (A) (A)
                 (A) (A) (A) (A) (A) (A) (A) (A) (A) (A) (A) (A)
                 (A) (A) (A) (A) (A) (A) (A) (A) (A) (A) (A) (A)
                 (A) (A) (A) (A) (A) (A) (A) (A) (A) (A) (A) (A)
                 (A) (A) (A) (A) (A) (A) (A) (A) (A) (A) (A) (A)
                 (A) (A) (A) (A) (A) (A) (A) (A) (A) (A) (A) (A)
                 (A) (A) (A) (A) (A) (A) (A) (A) (A) (A) (A) (A)
                 (A) (A) (A) (A) (A) (A) (A) (A) (A) (A) (A) (A)
                 (A) (A) (A) (A) (A) (A) (A) (A) (A) (A) (A) (A)
                 (A) (A) (A) (A) (A) (A) (A) (A) (A) (A) (A) (A)
                 (A) (A) (A) (A) (A) (A) (A) (A) (A) (A) (A) (A)
                 (A) (A) (A) (A) (A) (A) (A) (A) (A) (A) (A) (A)
                 (A) (A) (A) (A) (A) (A) (A) (A) (A) (A) (A) (A)
                 (A) (A) (A) (A) (A) (A) (A) (A) (A) (A) (A) (A)
                 (A) (A) (A) (A) (A) (A) (A) (A) (A) (A) (A) (A)
                 (A) (A) (A) (A) (A) (A) (A) (A) (A) (A) (A) (A)
                 (A) (A) (A) (A) (A) (A) (A) (A) (A) (A) (A) (A)
                 (A) (A) (A) (A) (A) (A) (A) (A) (A) (A) (A) (A)
                 (A) (A) (A) (A) (A) (A) (A) (A) (A) (A) (A) (A)
                 (A) (A) (A) (A) (A) (A) (A) (A) (A) (A) (A) (A)
                 (A) (A) (A) (A) (A) (A) (A) (A) (A) (A) (A) (A)
                 (A) (A) (A) (A) (A) (A) (A) (A) (A) (A) (A) (A)
                 (A) (A) (A) (A) (A) (A) (A) (A) (A) (A) (A) (A)
                 (A) (A) (A) (A) (A) (A) (A) (A) (A)
     8 initial guesses have been made.
 Convergence on wavefunction:    0.000001000000000
 Iteration     1 Dimension     8 NMult     0 NNew      8
 CISAX will form     8 AO SS matrices at one time.
 New state      1 was old state      3
 Iteration     2 Dimension    12 NMult     8 NNew      4
 Iteration     3 Dimension    16 NMult    12 NNew      4
 Iteration     4 Dimension    20 NMult    16 NNew      4
 Iteration     5 Dimension    24 NMult    20 NNew      4
 Iteration     6 Dimension    28 NMult    24 NNew      4
 Iteration     7 Dimension    32 NMult    28 NNew      4
 Iteration     8 Dimension    36 NMult    32 NNew      4
 Iteration     9 Dimension    40 NMult    36 NNew      4
 Iteration    10 Dimension    44 NMult    40 NNew      4
 Iteration    11 Dimension    48 NMult    44 NNew      4
 Iteration    12 Dimension    52 NMult    48 NNew      4
 ***********************************************************************
 Excited states from <AA,BB:AA,BB> singles matrix:
 ***********************************************************************
 
 Ground to excited state transition densities written to RWF  633
 Ground to excited state transition electric dipole moments (Au):
       state          X           Y           Z        Dip. S.      Osc.
         1        -0.3126     -0.0297      0.0042      0.0986      0.0093
 Ground to excited state transition velocity dipole moments (Au):
       state          X           Y           Z        Dip. S.      Osc.
         1         0.0442      0.0023     -0.0053      0.0020      0.0093
 Ground to excited state transition magnetic dipole moments (Au):
       state          X           Y           Z
         1        -0.1851     -0.6629      0.2334
 Ground to excited state transition velocity quadrupole moments (Au):
       state          XX          YY          ZZ          XY          XZ          YZ
         1         0.0062      0.0064      0.0098      0.0139      0.0420     -0.0302
 <0|del|b> * <b|rxdel|0> + <0|del|b> * <b|delr+rdel|0>
 Rotatory Strengths (R) in cgs (10**-40 erg-esu-cm/Gauss)
       state          XX          YY          ZZ    R(velocity)    E-M Angle
         1        -7.3987    -26.6630    -20.7038    -18.2551      109.80
 1/2[<0|r|b>*<b|rxdel|0> + (<0|rxdel|b>*<b|r|0>)*]
 Rotatory Strengths (R) in cgs (10**-40 erg-esu-cm/Gauss)
       state          XX          YY          ZZ     R(length)
         1       -40.9031    -13.9325     -0.6919    -18.5092
  1/2[<0|del|b>*<b|r|0> + (<0|r|b>*<b|del|0>)*] (Au)
       state          X           Y           Z        Dip. S.   Osc.(frdel)
         1        -0.0138     -0.0001      0.0000      0.0139      0.0093

 Excitation energies and oscillator strengths:
 
 Excited State   1:      Singlet-A      3.8526 eV  321.82 nm  f=0.0093  <S**2>=0.000
      52 -> 56         0.43428
      53 -> 56         0.50638
      55 -> 56         0.13937
 This state for optimization and/or second-order correction.
 Total Energy, E(TD-HF/TD-KS) =  -731.227584683    
 Copying the excited state density for this state as the 1-particle RhoCI density.
 SavETr:  write IOETrn=   770 NScale= 10 NData=  16 NLR=1 NState=    1 LETran=      28.
          IDoAtm=111111111111111111111111111
          Differentiating once with respect to electric field.
                with respect to dipole field.
          Differentiating once with respect to nuclear coordinates.
          There are     1 degrees of freedom in the 1st order CPHF.  IDoFFX=0 NUNeed=     1.
 LinEq1:  Iter=  0 NonCon=     1 RMS=8.78D-03 Max=5.12D-01 NDo=     1
 AX will form     1 AO Fock derivatives at one time.
 LinEq1:  Iter=  1 NonCon=     1 RMS=2.22D-03 Max=6.53D-02 NDo=     1
 LinEq1:  Iter=  2 NonCon=     1 RMS=1.51D-03 Max=4.68D-02 NDo=     1
 LinEq1:  Iter=  3 NonCon=     1 RMS=6.46D-04 Max=2.24D-02 NDo=     1
 LinEq1:  Iter=  4 NonCon=     1 RMS=2.95D-04 Max=9.95D-03 NDo=     1
 LinEq1:  Iter=  5 NonCon=     1 RMS=1.58D-04 Max=5.77D-03 NDo=     1
 LinEq1:  Iter=  6 NonCon=     1 RMS=6.54D-05 Max=2.72D-03 NDo=     1
 LinEq1:  Iter=  7 NonCon=     1 RMS=3.68D-05 Max=1.37D-03 NDo=     1
 LinEq1:  Iter=  8 NonCon=     1 RMS=1.53D-05 Max=6.86D-04 NDo=     1
 LinEq1:  Iter=  9 NonCon=     1 RMS=6.89D-06 Max=2.70D-04 NDo=     1
 LinEq1:  Iter= 10 NonCon=     1 RMS=2.83D-06 Max=1.02D-04 NDo=     1
 LinEq1:  Iter= 11 NonCon=     1 RMS=1.09D-06 Max=2.76D-05 NDo=     1
 LinEq1:  Iter= 12 NonCon=     1 RMS=5.04D-07 Max=2.57D-05 NDo=     1
 LinEq1:  Iter= 13 NonCon=     1 RMS=2.53D-07 Max=7.90D-06 NDo=     1
 LinEq1:  Iter= 14 NonCon=     1 RMS=1.13D-07 Max=3.45D-06 NDo=     1
 LinEq1:  Iter= 15 NonCon=     1 RMS=5.40D-08 Max=2.32D-06 NDo=     1
 LinEq1:  Iter= 16 NonCon=     1 RMS=1.89D-08 Max=6.10D-07 NDo=     1
 LinEq1:  Iter= 17 NonCon=     1 RMS=8.49D-09 Max=2.25D-07 NDo=     1
 LinEq1:  Iter= 18 NonCon=     1 RMS=4.64D-09 Max=1.47D-07 NDo=     1
 LinEq1:  Iter= 19 NonCon=     1 RMS=2.22D-09 Max=6.07D-08 NDo=     1
 LinEq1:  Iter= 20 NonCon=     1 RMS=8.18D-10 Max=2.07D-08 NDo=     1
 LinEq1:  Iter= 21 NonCon=     1 RMS=3.05D-10 Max=6.35D-09 NDo=     1
 LinEq1:  Iter= 22 NonCon=     1 RMS=1.19D-10 Max=3.36D-09 NDo=     1
 LinEq1:  Iter= 23 NonCon=     1 RMS=4.52D-11 Max=1.60D-09 NDo=     1
 LinEq1:  Iter= 24 NonCon=     0 RMS=1.87D-11 Max=4.79D-10 NDo=     1
 Linear equations converged to 1.000D-10 1.000D-09 after    24 iterations.
 End of Minotr F.D. properties file   721 does not exist.
 End of Minotr F.D. properties file   722 does not exist.
 End of Minotr F.D. properties file   788 does not exist.

 **********************************************************************

            Population analysis using the SCF density.

 **********************************************************************

 Orbital symmetries:
       Occupied  (A) (A) (A) (A) (A) (A) (A) (A) (A) (A) (A) (A)
                 (A) (A) (A) (A) (A) (A) (A) (A) (A) (A) (A) (A)
                 (A) (A) (A) (A) (A) (A) (A) (A) (A) (A) (A) (A)
                 (A) (A) (A) (A) (A) (A) (A) (A) (A) (A) (A) (A)
                 (A) (A) (A) (A) (A) (A) (A)
       Virtual   (A) (A) (A) (A) (A) (A) (A) (A) (A) (A) (A) (A)
                 (A) (A) (A) (A) (A) (A) (A) (A) (A) (A) (A) (A)
                 (A) (A) (A) (A) (A) (A) (A) (A) (A) (A) (A) (A)
                 (A) (A) (A) (A) (A) (A) (A) (A) (A) (A) (A) (A)
                 (A) (A) (A) (A) (A) (A) (A) (A) (A) (A) (A) (A)
                 (A) (A) (A) (A) (A) (A) (A) (A) (A) (A) (A) (A)
                 (A) (A) (A) (A) (A) (A) (A) (A) (A) (A) (A) (A)
                 (A) (A) (A) (A) (A) (A) (A) (A) (A) (A) (A) (A)
                 (A) (A) (A) (A) (A) (A) (A) (A) (A) (A) (A) (A)
                 (A) (A) (A) (A) (A) (A) (A) (A) (A) (A) (A) (A)
                 (A) (A) (A) (A) (A) (A) (A) (A) (A) (A) (A) (A)
                 (A) (A) (A) (A) (A) (A) (A) (A) (A) (A) (A) (A)
                 (A) (A) (A) (A) (A) (A) (A) (A) (A) (A) (A) (A)
                 (A) (A) (A) (A) (A) (A) (A) (A) (A) (A) (A) (A)
                 (A) (A) (A) (A) (A) (A) (A) (A) (A) (A) (A) (A)
                 (A) (A) (A) (A) (A) (A) (A) (A) (A) (A) (A) (A)
                 (A) (A) (A) (A) (A) (A) (A) (A) (A) (A) (A) (A)
                 (A) (A) (A) (A) (A) (A) (A) (A) (A) (A) (A) (A)
                 (A) (A) (A) (A) (A) (A) (A) (A) (A) (A) (A) (A)
                 (A) (A) (A) (A) (A) (A) (A) (A) (A) (A) (A) (A)
                 (A) (A) (A) (A) (A) (A) (A) (A) (A) (A) (A) (A)
                 (A) (A) (A) (A) (A) (A) (A) (A) (A) (A) (A) (A)
                 (A) (A) (A) (A) (A) (A) (A) (A) (A) (A) (A) (A)
                 (A) (A) (A) (A) (A) (A) (A) (A) (A) (A) (A) (A)
                 (A) (A) (A) (A) (A) (A) (A) (A) (A) (A) (A) (A)
                 (A) (A) (A) (A) (A) (A) (A) (A) (A) (A) (A) (A)
                 (A) (A) (A) (A) (A) (A) (A) (A) (A) (A) (A) (A)
                 (A) (A) (A) (A) (A) (A) (A) (A) (A) (A) (A) (A)
                 (A) (A) (A) (A) (A) (A) (A) (A) (A) (A) (A) (A)
                 (A) (A) (A) (A) (A) (A) (A) (A) (A)
 The electronic state is 1-A.
 Alpha  occ. eigenvalues --  -24.81713 -19.28232 -19.21039 -14.50226 -10.37763
 Alpha  occ. eigenvalues --  -10.37004 -10.36501 -10.35828 -10.34662 -10.34457
 Alpha  occ. eigenvalues --  -10.30034 -10.29489 -10.28740 -10.28629 -10.28499
 Alpha  occ. eigenvalues --   -1.33398  -1.18754  -1.11780  -1.09819  -0.96613
 Alpha  occ. eigenvalues --   -0.90622  -0.86792  -0.86126  -0.85363  -0.81648
 Alpha  occ. eigenvalues --   -0.75041  -0.72155  -0.69242  -0.67596  -0.64724
 Alpha  occ. eigenvalues --   -0.63763  -0.61106  -0.59380  -0.59320  -0.58202
 Alpha  occ. eigenvalues --   -0.56332  -0.56277  -0.52988  -0.52581  -0.52481
 Alpha  occ. eigenvalues --   -0.52208  -0.51777  -0.50323  -0.50229  -0.49331
 Alpha  occ. eigenvalues --   -0.48140  -0.47325  -0.45531  -0.43416  -0.42585
 Alpha  occ. eigenvalues --   -0.41741  -0.33673  -0.32480  -0.30939  -0.30209
 Alpha virt. eigenvalues --    0.00132   0.02485   0.04397   0.05187   0.05506
 Alpha virt. eigenvalues --    0.05921   0.05986   0.06528   0.07116   0.07685
 Alpha virt. eigenvalues --    0.07862   0.08066   0.08603   0.10037   0.10397
 Alpha virt. eigenvalues --    0.11546   0.12355   0.12547   0.13001   0.13098
 Alpha virt. eigenvalues --    0.14006   0.14302   0.14697   0.15402   0.15872
 Alpha virt. eigenvalues --    0.16042   0.16260   0.16448   0.17060   0.17158
 Alpha virt. eigenvalues --    0.17734   0.17981   0.18672   0.18777   0.18966
 Alpha virt. eigenvalues --    0.19674   0.20112   0.20275   0.20537   0.20706
 Alpha virt. eigenvalues --    0.21039   0.21649   0.22329   0.22692   0.22851
 Alpha virt. eigenvalues --    0.23245   0.23447   0.24252   0.24844   0.25132
 Alpha virt. eigenvalues --    0.25575   0.26057   0.26876   0.27201   0.27706
 Alpha virt. eigenvalues --    0.27942   0.28195   0.29050   0.29459   0.29780
 Alpha virt. eigenvalues --    0.30081   0.30893   0.30975   0.31726   0.32226
 Alpha virt. eigenvalues --    0.32835   0.33248   0.33847   0.34257   0.34700
 Alpha virt. eigenvalues --    0.35386   0.35779   0.35994   0.36649   0.37180
 Alpha virt. eigenvalues --    0.37585   0.38177   0.38615   0.38833   0.39673
 Alpha virt. eigenvalues --    0.39955   0.40248   0.41062   0.41280   0.42379
 Alpha virt. eigenvalues --    0.42828   0.44421   0.44881   0.45301   0.45442
 Alpha virt. eigenvalues --    0.47399   0.47955   0.48409   0.49146   0.49520
 Alpha virt. eigenvalues --    0.50399   0.51936   0.52314   0.52676   0.54310
 Alpha virt. eigenvalues --    0.54786   0.56568   0.57862   0.60809   0.61566
 Alpha virt. eigenvalues --    0.63500   0.63735   0.64481   0.65532   0.65938
 Alpha virt. eigenvalues --    0.66459   0.67010   0.67680   0.68541   0.69558
 Alpha virt. eigenvalues --    0.70172   0.70359   0.71078   0.71296   0.71840
 Alpha virt. eigenvalues --    0.72689   0.74118   0.74448   0.74930   0.75888
 Alpha virt. eigenvalues --    0.77129   0.77688   0.78753   0.79112   0.80767
 Alpha virt. eigenvalues --    0.81359   0.81619   0.82184   0.83543   0.85154
 Alpha virt. eigenvalues --    0.85783   0.87013   0.88594   0.89834   0.90001
 Alpha virt. eigenvalues --    0.91243   0.93544   0.94030   0.94918   0.96252
 Alpha virt. eigenvalues --    0.97369   0.98228   0.98451   1.00187   1.01435
 Alpha virt. eigenvalues --    1.01980   1.03806   1.04088   1.06654   1.07918
 Alpha virt. eigenvalues --    1.08370   1.10272   1.11302   1.12536   1.13619
 Alpha virt. eigenvalues --    1.14305   1.15636   1.16304   1.18189   1.19546
 Alpha virt. eigenvalues --    1.21694   1.22893   1.24794   1.26459   1.28535
 Alpha virt. eigenvalues --    1.30974   1.32567   1.34310   1.34912   1.37930
 Alpha virt. eigenvalues --    1.38262   1.38634   1.41154   1.42924   1.45207
 Alpha virt. eigenvalues --    1.48701   1.49350   1.50982   1.52464   1.53266
 Alpha virt. eigenvalues --    1.54103   1.55443   1.56335   1.58068   1.58767
 Alpha virt. eigenvalues --    1.59852   1.62183   1.62296   1.63229   1.64374
 Alpha virt. eigenvalues --    1.64834   1.65570   1.66464   1.67446   1.69575
 Alpha virt. eigenvalues --    1.71342   1.71997   1.74119   1.74308   1.74742
 Alpha virt. eigenvalues --    1.76296   1.76920   1.78139   1.79161   1.82094
 Alpha virt. eigenvalues --    1.82762   1.84179   1.84908   1.86442   1.88158
 Alpha virt. eigenvalues --    1.89198   1.90887   1.92885   1.95373   1.97071
 Alpha virt. eigenvalues --    1.98778   1.99502   2.00831   2.02535   2.02963
 Alpha virt. eigenvalues --    2.04091   2.06169   2.08259   2.08583   2.09565
 Alpha virt. eigenvalues --    2.10539   2.11733   2.14705   2.14968   2.16397
 Alpha virt. eigenvalues --    2.16885   2.19453   2.20969   2.23350   2.24763
 Alpha virt. eigenvalues --    2.25217   2.29587   2.31389   2.34167   2.36486
 Alpha virt. eigenvalues --    2.39876   2.40971   2.44041   2.45799   2.48266
 Alpha virt. eigenvalues --    2.50036   2.51447   2.52806   2.54600   2.55720
 Alpha virt. eigenvalues --    2.58053   2.59284   2.61449   2.62767   2.64891
 Alpha virt. eigenvalues --    2.67510   2.69663   2.70724   2.72812   2.75171
 Alpha virt. eigenvalues --    2.76105   2.76659   2.79901   2.81296   2.82263
 Alpha virt. eigenvalues --    2.82554   2.84694   2.85398   2.86626   2.87222
 Alpha virt. eigenvalues --    2.88762   2.90107   2.91238   2.93934   2.95092
 Alpha virt. eigenvalues --    2.95561   2.97293   2.99985   3.02067   3.05396
 Alpha virt. eigenvalues --    3.07207   3.09187   3.12332   3.12843   3.14541
 Alpha virt. eigenvalues --    3.19413   3.22020   3.25805   3.26257   3.27347
 Alpha virt. eigenvalues --    3.29828   3.30994   3.36379   3.41999   3.45152
 Alpha virt. eigenvalues --    3.45279   3.51292   3.56253   3.60938   3.63716
 Alpha virt. eigenvalues --    3.65883   3.67934   3.71297   3.72906   3.77428
 Alpha virt. eigenvalues --    3.79650   3.81385   3.82690   3.84405   3.88304
 Alpha virt. eigenvalues --    3.90614   3.92567   3.93683   3.96909   3.98717
 Alpha virt. eigenvalues --    4.08425   4.08789   4.13557   4.16857   4.23554
 Alpha virt. eigenvalues --    4.27730   4.30619   4.37706   4.59163   4.93642
 Alpha virt. eigenvalues --    4.97573   4.97997   5.14937   5.16614   5.21548
 Alpha virt. eigenvalues --    5.38079   5.59310   5.87751   5.91151   6.44743
 Alpha virt. eigenvalues --    6.56779   6.87869  23.70870  23.94210  24.02439
 Alpha virt. eigenvalues --   24.03917  24.05245  24.06173  24.06393  24.16340
 Alpha virt. eigenvalues --   24.24800  24.29741  24.32878  35.68883  50.10540
 Alpha virt. eigenvalues --   50.17764  66.95229
          Condensed to atoms (all electrons):
               1          2          3          4          5          6
     1  C    5.227500   0.385287   0.417181  -0.077624   0.014092   0.242787
     2  H    0.385287   0.493252  -0.017051   0.012173  -0.006565  -0.047846
     3  H    0.417181  -0.017051   0.526524  -0.008295   0.000183  -0.062857
     4  C   -0.077624   0.012173  -0.008295   5.201743   0.396451   0.262719
     5  H    0.014092  -0.006565   0.000183   0.396451   0.553128  -0.050499
     6  N    0.242787  -0.047846  -0.062857   0.262719  -0.050499   6.835322
     7  H    0.408295  -0.024123  -0.059241   0.004850   0.002181  -0.034362
     8  H   -0.002254   0.003687   0.000537   0.402196  -0.027103  -0.093480
     9  H   -0.011309  -0.003732   0.002057   0.417261  -0.061029  -0.043508
    10  C   -0.134462   0.030868   0.028698  -0.145585  -0.031329   0.125192
    11  H    0.001238  -0.000471  -0.003449  -0.023685   0.003074  -0.058078
    12  C    0.234406  -0.007001  -0.028616  -0.086940   0.014187  -0.187084
    13  C   -0.186887  -0.009817   0.023985  -0.038558   0.001234   0.008086
    14  H    0.035770   0.000820  -0.031670  -0.017728   0.000823  -0.041259
    15  O   -0.002016   0.000105   0.000161   0.007536  -0.000269   0.010808
    16  C   -0.119667   0.000321   0.017411   0.036325  -0.001367  -0.036762
    17  C   -0.001482  -0.002982  -0.009082   0.000580   0.000814   0.042945
    18  C   -0.006444   0.000193   0.003047  -0.001161  -0.000004  -0.008022
    19  O   -0.004417   0.000135   0.001211  -0.000874  -0.000054  -0.004850
    20  C   -0.003117  -0.000904  -0.002486   0.002658   0.000198   0.010610
    21  C    0.003878   0.000292  -0.000560  -0.000742  -0.000033  -0.001030
    22  H   -0.001034  -0.000061   0.000144   0.000263  -0.000016   0.000239
    23  H    0.002027   0.001040   0.005028   0.002273   0.000132   0.008900
    24  H   -0.000237  -0.000012   0.000115   0.000099  -0.000001   0.000061
    25  C   -0.001990  -0.000164  -0.000538  -0.000486   0.000011   0.000126
    26  H    0.000089   0.000007  -0.000010   0.000034   0.000001   0.000011
    27  F    0.000002   0.000000   0.000001   0.000000   0.000000   0.000000
               7          8          9         10         11         12
     1  C    0.408295  -0.002254  -0.011309  -0.134462   0.001238   0.234406
     2  H   -0.024123   0.003687  -0.003732   0.030868  -0.000471  -0.007001
     3  H   -0.059241   0.000537   0.002057   0.028698  -0.003449  -0.028616
     4  C    0.004850   0.402196   0.417261  -0.145585  -0.023685  -0.086940
     5  H    0.002181  -0.027103  -0.061029  -0.031329   0.003074   0.014187
     6  N   -0.034362  -0.093480  -0.043508   0.125192  -0.058078  -0.187084
     7  H    0.554736  -0.004701  -0.000019  -0.043981   0.003642   0.054137
     8  H   -0.004701   0.533436  -0.025206   0.093926  -0.006885  -0.038518
     9  H   -0.000019  -0.025206   0.553067  -0.028315   0.001444   0.027124
    10  C   -0.043981   0.093926  -0.028315   9.369079   0.408237  -3.758493
    11  H    0.003642  -0.006885   0.001444   0.408237   0.464838  -0.134849
    12  C    0.054137  -0.038518   0.027124  -3.758493  -0.134849  16.760746
    13  C   -0.034553   0.009620  -0.003788  -1.608949   0.067848  -0.278240
    14  H    0.020788   0.000340   0.000592  -0.068570   0.012428   0.514540
    15  O    0.000530  -0.000690   0.000093   0.050729   0.023691  -0.213119
    16  C   -0.029699   0.010579  -0.001294   2.213938   0.027455  -6.903385
    17  C    0.020896  -0.003790   0.000356  -0.343175   0.021076   0.731960
    18  C   -0.005806   0.002040   0.000029  -0.104281  -0.034792  -0.338756
    19  O   -0.001365   0.000286  -0.000042   0.044212   0.000296  -0.220530
    20  C    0.005164  -0.000528   0.000163  -0.283228  -0.010948   0.338675
    21  C   -0.001266   0.000372  -0.000034   0.134793   0.001341   0.006719
    22  H    0.000018   0.000059   0.000015  -0.005059  -0.000333  -0.049810
    23  H   -0.010027   0.000303  -0.000575  -0.004917  -0.001406  -0.070701
    24  H   -0.000119   0.000006   0.000002   0.002238  -0.000174  -0.007558
    25  C    0.001364  -0.000066   0.000009  -0.073288   0.001074   0.001036
    26  H   -0.000025  -0.000003   0.000000   0.004184   0.000015   0.000424
    27  F    0.000000   0.000000   0.000000   0.000189   0.000007   0.000940
              13         14         15         16         17         18
     1  C   -0.186887   0.035770  -0.002016  -0.119667  -0.001482  -0.006444
     2  H   -0.009817   0.000820   0.000105   0.000321  -0.002982   0.000193
     3  H    0.023985  -0.031670   0.000161   0.017411  -0.009082   0.003047
     4  C   -0.038558  -0.017728   0.007536   0.036325   0.000580  -0.001161
     5  H    0.001234   0.000823  -0.000269  -0.001367   0.000814  -0.000004
     6  N    0.008086  -0.041259   0.010808  -0.036762   0.042945  -0.008022
     7  H   -0.034553   0.020788   0.000530  -0.029699   0.020896  -0.005806
     8  H    0.009620   0.000340  -0.000690   0.010579  -0.003790   0.002040
     9  H   -0.003788   0.000592   0.000093  -0.001294   0.000356   0.000029
    10  C   -1.608949  -0.068570   0.050729   2.213938  -0.343175  -0.104281
    11  H    0.067848   0.012428   0.023691   0.027455   0.021076  -0.034792
    12  C   -0.278240   0.514540  -0.213119  -6.903385   0.731960  -0.338756
    13  C   12.237217  -0.054107   0.702157  -2.870299  -0.315836  -0.740243
    14  H   -0.054107   0.747873  -0.014480  -0.166808  -0.017587  -0.011042
    15  O    0.702157  -0.014480   8.102037  -0.409440  -0.029697   0.070995
    16  C   -2.870299  -0.166808  -0.409440  19.443672  -1.883087  -1.587151
    17  C   -0.315836  -0.017587  -0.029697  -1.883087  17.112489  -5.830452
    18  C   -0.740243  -0.011042   0.070995  -1.587151  -5.830452  11.848697
    19  O    0.106479   0.013516  -0.005093   0.346670   0.251669  -0.000654
    20  C   -0.458173  -0.010727   0.030986  -3.627153  -2.902416   3.224147
    21  C   -0.130307   0.035302  -0.006011   0.182627   0.296779  -0.076177
    22  H   -0.038405  -0.004094  -0.003860   0.015740   0.065611   0.382618
    23  H   -0.064665  -0.040373  -0.003338  -0.055389   0.029922   0.040095
    24  H   -0.025325  -0.002799   0.000349  -0.052323  -0.106635   0.068537
    25  C    0.201115   0.001953   0.002765  -0.195376   0.327734  -1.113482
    26  H    0.014583   0.000528  -0.000144   0.032771  -0.013864  -0.005562
    27  F   -0.001495   0.000080  -0.000005   0.019915  -0.039503  -0.052799
              19         20         21         22         23         24
     1  C   -0.004417  -0.003117   0.003878  -0.001034   0.002027  -0.000237
     2  H    0.000135  -0.000904   0.000292  -0.000061   0.001040  -0.000012
     3  H    0.001211  -0.002486  -0.000560   0.000144   0.005028   0.000115
     4  C   -0.000874   0.002658  -0.000742   0.000263   0.002273   0.000099
     5  H   -0.000054   0.000198  -0.000033  -0.000016   0.000132  -0.000001
     6  N   -0.004850   0.010610  -0.001030   0.000239   0.008900   0.000061
     7  H   -0.001365   0.005164  -0.001266   0.000018  -0.010027  -0.000119
     8  H    0.000286  -0.000528   0.000372   0.000059   0.000303   0.000006
     9  H   -0.000042   0.000163  -0.000034   0.000015  -0.000575   0.000002
    10  C    0.044212  -0.283228   0.134793  -0.005059  -0.004917   0.002238
    11  H    0.000296  -0.010948   0.001341  -0.000333  -0.001406  -0.000174
    12  C   -0.220530   0.338675   0.006719  -0.049810  -0.070701  -0.007558
    13  C    0.106479  -0.458173  -0.130307  -0.038405  -0.064665  -0.025325
    14  H    0.013516  -0.010727   0.035302  -0.004094  -0.040373  -0.002799
    15  O   -0.005093   0.030986  -0.006011  -0.003860  -0.003338   0.000349
    16  C    0.346670  -3.627153   0.182627   0.015740  -0.055389  -0.052323
    17  C    0.251669  -2.902416   0.296779   0.065611   0.029922  -0.106635
    18  C   -0.000654   3.224147  -0.076177   0.382618   0.040095   0.068537
    19  O    8.056442  -0.616296   0.043011  -0.001879   0.234865  -0.016634
    20  C   -0.616296  13.722516  -3.123294   0.086647   0.131381   0.703184
    21  C    0.043011  -3.123294   8.833852  -0.166421   0.010046  -0.105948
    22  H   -0.001879   0.086647  -0.166421   0.455802   0.001572   0.002774
    23  H    0.234865   0.131381   0.010046   0.001572   0.453979   0.003218
    24  H   -0.016634   0.703184  -0.105948   0.002774   0.003218   0.461782
    25  C   -0.041682  -0.509990  -0.154652   0.028340  -0.009437  -0.153245
    26  H    0.000696  -0.113059   0.575456  -0.015439   0.000670  -0.002748
    27  F   -0.000923  -0.257909  -0.192265   0.000746  -0.000350  -0.020775
              25         26         27
     1  C   -0.001990   0.000089   0.000002
     2  H   -0.000164   0.000007   0.000000
     3  H   -0.000538  -0.000010   0.000001
     4  C   -0.000486   0.000034   0.000000
     5  H    0.000011   0.000001   0.000000
     6  N    0.000126   0.000011   0.000000
     7  H    0.001364  -0.000025   0.000000
     8  H   -0.000066  -0.000003   0.000000
     9  H    0.000009   0.000000   0.000000
    10  C   -0.073288   0.004184   0.000189
    11  H    0.001074   0.000015   0.000007
    12  C    0.001036   0.000424   0.000940
    13  C    0.201115   0.014583  -0.001495
    14  H    0.001953   0.000528   0.000080
    15  O    0.002765  -0.000144  -0.000005
    16  C   -0.195376   0.032771   0.019915
    17  C    0.327734  -0.013864  -0.039503
    18  C   -1.113482  -0.005562  -0.052799
    19  O   -0.041682   0.000696  -0.000923
    20  C   -0.509990  -0.113059  -0.257909
    21  C   -0.154652   0.575456  -0.192265
    22  H    0.028340  -0.015439   0.000746
    23  H   -0.009437   0.000670  -0.000350
    24  H   -0.153245  -0.002748  -0.020775
    25  C    7.664942  -0.164363   0.586008
    26  H   -0.164363   0.472207  -0.022603
    27  F    0.586008  -0.022603   9.137472
 Mulliken charges:
               1
     1  C   -0.419611
     2  H    0.192550
     3  H    0.197571
     4  C   -0.345483
     5  H    0.191762
     6  N    0.121830
     7  H    0.172687
     8  H    0.145840
     9  H    0.176639
    10  C    0.127348
    11  H    0.237364
    12  C   -0.361296
    13  C   -0.512678
    14  H    0.095890
    15  O   -0.314779
    16  C    1.591776
    17  C   -1.403242
    18  C    0.276431
    19  O   -0.184192
    20  C   -0.336100
    21  C   -0.165727
    22  H    0.245824
    23  H    0.335727
    24  H    0.252168
    25  C   -0.397714
    26  H    0.236147
    27  F   -0.156733
 Sum of Mulliken charges =   0.00000
 Mulliken charges with hydrogens summed into heavy atoms:
               1
     1  C    0.143197
     4  C    0.168758
     6  N    0.121830
    10  C    0.364713
    12  C   -0.265407
    13  C   -0.512678
    15  O   -0.314779
    16  C    1.591776
    17  C   -1.403242
    18  C    0.522255
    19  O    0.151536
    20  C   -0.083932
    21  C    0.070420
    25  C   -0.397714
    27  F   -0.156733
 Electronic spatial extent (au):  <R**2>=           4531.5349
 Charge=              0.0000 electrons
 Dipole moment (field-independent basis, Debye):
    X=              7.0223    Y=             -2.0409    Z=              1.4212  Tot=              7.4497
 Quadrupole moment (field-independent basis, Debye-Ang):
   XX=            -66.2329   YY=            -91.4670   ZZ=            -90.7419
   XY=             -7.7404   XZ=              1.3639   YZ=              2.0843
 Traceless Quadrupole moment (field-independent basis, Debye-Ang):
   XX=             16.5810   YY=             -8.6530   ZZ=             -7.9279
   XY=             -7.7404   XZ=              1.3639   YZ=              2.0843
 Octapole moment (field-independent basis, Debye-Ang**2):
  XXX=            181.4181  YYY=            -21.0853  ZZZ=             -0.5333  XYY=             -5.0762
  XXY=             10.8012  XXZ=              4.9541  XZZ=             -0.2372  YZZ=             -3.9605
  YYZ=             10.7471  XYZ=             -7.4362
 Hexadecapole moment (field-independent basis, Debye-Ang**3):
 XXXX=          -4453.2653 YYYY=           -832.9751 ZZZZ=           -174.2398 XXXY=            -76.3806
 XXXZ=             21.2619 YYYX=             -4.1873 YYYZ=             16.5395 ZZZX=             -0.5901
 ZZZY=             -4.2681 XXYY=           -841.0962 XXZZ=           -840.9325 YYZZ=           -169.5456
 XXYZ=             10.1529 YYXZ=             -5.6720 ZZXY=              5.3748
 N-N= 9.480199751008D+02 E-N=-3.606749170225D+03  KE= 7.287322044243D+02
 Calling FoFJK, ICntrl=  10005127 FMM=F ISym2X=0 I1Cent= 0 IOpClX= 0 NMat=1 NMatS=1 NMatT=0.
 ***** Axes restored to original set *****
 -------------------------------------------------------------------
 Center     Atomic                   Forces (Hartrees/Bohr)
 Number     Number              X              Y              Z
 -------------------------------------------------------------------
      1        6          -0.000518604   -0.004778308   -0.000379132
      2        1          -0.000247241    0.000313135    0.000137401
      3        1          -0.000281075    0.001051632   -0.000682049
      4        6          -0.002861784    0.001955837   -0.000971121
      5        1           0.000788701   -0.000597997   -0.000659498
      6        7           0.016944661    0.008373262    0.002355901
      7        1          -0.000243251    0.001233073    0.000807773
      8        1           0.000072129   -0.000207858    0.000116184
      9        1           0.000266522   -0.000026954    0.000249083
     10        6           0.001698821   -0.016292458    0.000197616
     11        1           0.003662356    0.001492576   -0.000079450
     12        6          -0.011263622   -0.018100792   -0.001452719
     13        6          -0.007234371    0.083383011   -0.001993679
     14        1           0.004722900   -0.002704092   -0.016274350
     15        8           0.001474843   -0.056166488   -0.001865991
     16        6           0.007089261    0.000535526    0.000467992
     17        6          -0.019511169   -0.000734709   -0.005104269
     18        6           0.001083736   -0.009803916   -0.000160884
     19        8           0.018837407   -0.003017626    0.007555205
     20        6           0.010433627   -0.001811087    0.000522083
     21        6          -0.000646239    0.007833965    0.003940725
     22        1           0.002667896   -0.001058336    0.000058980
     23        1          -0.020439662    0.014809025    0.017764664
     24        1           0.000141933   -0.000075819    0.000243999
     25        6          -0.004641901   -0.007611655   -0.005042224
     26        1           0.000410888   -0.000183971   -0.000234993
     27        9          -0.002406764    0.002191024    0.000482754
 -------------------------------------------------------------------
 Cartesian Forces:  Max     0.083383011 RMS     0.013077286

 GradGradGradGradGradGradGradGradGradGradGradGradGradGradGradGradGradGrad
 Berny optimization.
 FormGI is forming the generalized inverse of G from B-inverse, IUseBI=4.
 Internal  Forces:  Max     0.056121344 RMS     0.012402431
 Search for a local minimum.
 Step number   1 out of a maximum of  134
 All quantities printed in internal units (Hartrees-Bohrs-Radians)
 Mixed Optimization -- RFO/linear search
 Second derivative matrix not updated -- first step.
 ITU=  0
     Eigenvalues ---    0.00972   0.01028   0.01054   0.01208   0.01435
     Eigenvalues ---    0.01443   0.01661   0.01955   0.02020   0.02094
     Eigenvalues ---    0.02194   0.02206   0.02258   0.02293   0.02316
     Eigenvalues ---    0.02362   0.02459   0.02530   0.02600   0.02622
     Eigenvalues ---    0.07399   0.07416   0.07594   0.07628   0.15999
     Eigenvalues ---    0.16000   0.16000   0.16000   0.16000   0.16000
     Eigenvalues ---    0.16000   0.16000   0.16000   0.16000   0.16000
     Eigenvalues ---    0.16000   0.22000   0.22000   0.22369   0.23506
     Eigenvalues ---    0.24602   0.24725   0.24823   0.25000   0.25000
     Eigenvalues ---    0.25000   0.25000   0.25000   0.34065   0.34072
     Eigenvalues ---    0.34146   0.34353   0.34400   0.34844   0.34845
     Eigenvalues ---    0.35271   0.35755   0.35760   0.35784   0.36115
     Eigenvalues ---    0.38225   0.38321   0.38483   0.40828   0.42441
     Eigenvalues ---    0.44805   0.46519   0.48136   0.49583   0.49640
     Eigenvalues ---    0.52668   0.56538   0.56754   0.59584   0.85129
 RFO step:  Lambda=-7.13426864D-02 EMin= 9.72438537D-03
 Linear search not attempted -- first point.
 Maximum step size (   0.300) exceeded in Quadratic search.
    -- Step size scaled by   0.848
 Iteration  1 RMS(Cart)=  0.30181204 RMS(Int)=  0.01831262
 Iteration  2 RMS(Cart)=  0.05336741 RMS(Int)=  0.00079440
 Iteration  3 RMS(Cart)=  0.00149894 RMS(Int)=  0.00055061
 Iteration  4 RMS(Cart)=  0.00000274 RMS(Int)=  0.00055061
 Iteration  5 RMS(Cart)=  0.00000000 RMS(Int)=  0.00055061
 Variable       Old X    -DE/DX   Delta X   Delta X   Delta X     New X
                                 (Linear)    (Quad)   (Total)
    R1        2.05928  -0.00014   0.00000  -0.00029  -0.00029   2.05899
    R2        2.07221   0.00109   0.00000   0.00224   0.00224   2.07444
    R3        2.73669  -0.00228   0.00000  -0.00424  -0.00424   2.73245
    R4        2.06738   0.00123   0.00000   0.00250   0.00250   2.06989
    R5        2.07085   0.00083   0.00000   0.00171   0.00171   2.07256
    R6        2.74040  -0.00192   0.00000  -0.00358  -0.00358   2.73681
    R7        2.05926   0.00020   0.00000   0.00040   0.00040   2.05967
    R8        2.06660   0.00034   0.00000   0.00070   0.00070   2.06730
    R9        2.53606   0.01572   0.00000   0.02087   0.02087   2.55693
   R10        2.05238  -0.00148   0.00000  -0.00296  -0.00296   2.04941
   R11        2.57265   0.02057   0.00000   0.02917   0.02917   2.60182
   R12        2.73901  -0.00550   0.00000  -0.01027  -0.01027   2.72874
   R13        2.03902  -0.00286   0.00000  -0.00561  -0.00561   2.03341
   R14        2.35262   0.05612   0.00000   0.05158   0.05158   2.40421
   R15        2.80509   0.00650   0.00000   0.01338   0.01338   2.81847
   R16        2.68015   0.02137   0.00000   0.03746   0.03745   2.71760
   R17        2.64963   0.00354   0.00000   0.00646   0.00640   2.65603
   R18        2.51271   0.01587   0.00000   0.02017   0.02017   2.53288
   R19        2.64420  -0.00425   0.00000  -0.00653  -0.00649   2.63771
   R20        2.60774   0.00146   0.00000   0.00195   0.00190   2.60964
   R21        2.04467   0.00117   0.00000   0.00231   0.00231   2.04697
   R22        1.86989  -0.02677   0.00000  -0.04003  -0.04003   1.82985
   R23        2.04458   0.00002   0.00000   0.00005   0.00005   2.04463
   R24        2.59441   0.00311   0.00000   0.00387   0.00393   2.59834
   R25        2.62637  -0.00891   0.00000  -0.01488  -0.01487   2.61150
   R26        2.04421  -0.00015   0.00000  -0.00029  -0.00029   2.04392
   R27        2.53790   0.00313   0.00000   0.00417   0.00417   2.54207
    A1        1.89722  -0.00046   0.00000  -0.00170  -0.00170   1.89552
    A2        1.90860   0.00012   0.00000   0.00028   0.00028   1.90888
    A3        1.89224  -0.00073   0.00000  -0.00300  -0.00300   1.88924
    A4        1.94367   0.00079   0.00000   0.00306   0.00305   1.94672
    A5        1.89453  -0.00074   0.00000  -0.00239  -0.00240   1.89214
    A6        1.92661   0.00095   0.00000   0.00350   0.00350   1.93011
    A7        1.94307   0.00122   0.00000   0.00472   0.00472   1.94779
    A8        1.89352  -0.00051   0.00000  -0.00184  -0.00185   1.89167
    A9        1.89562  -0.00034   0.00000  -0.00082  -0.00082   1.89480
   A10        1.91182  -0.00016   0.00000  -0.00081  -0.00081   1.91101
   A11        1.92710  -0.00007   0.00000  -0.00026  -0.00026   1.92684
   A12        1.89166  -0.00018   0.00000  -0.00116  -0.00116   1.89050
   A13        2.05883   0.00097   0.00000   0.00246   0.00246   2.06129
   A14        2.09864  -0.00108   0.00000  -0.00301  -0.00301   2.09563
   A15        2.11620   0.00006   0.00000   0.00004   0.00003   2.11623
   A16        2.01744  -0.00159   0.00000  -0.00747  -0.00747   2.00997
   A17        2.21604  -0.00434   0.00000  -0.01262  -0.01263   2.20341
   A18        2.04968   0.00593   0.00000   0.02011   0.02011   2.06979
   A19        2.06349   0.00756   0.00000   0.02190   0.02133   2.08482
   A20        2.11390  -0.00840   0.00000  -0.02808  -0.02863   2.08528
   A21        2.10574   0.00078   0.00000   0.00559   0.00499   2.11073
   A22        2.10703  -0.02369   0.00000  -0.06264  -0.06424   2.04279
   A23        2.10037   0.05242   0.00000   0.13822   0.13664   2.23701
   A24        2.07577  -0.02877   0.00000  -0.07603  -0.07760   1.99817
   A25        2.07991   0.05324   0.00000   0.13931   0.13928   2.21918
   A26        2.14615  -0.04552   0.00000  -0.12134  -0.12129   2.02486
   A27        2.05713  -0.00772   0.00000  -0.01795  -0.01826   2.03887
   A28        2.14075   0.02903   0.00000   0.07580   0.07512   2.21587
   A29        2.09733  -0.00490   0.00000  -0.01130  -0.01188   2.08545
   A30        2.04511  -0.02413   0.00000  -0.06450  -0.06497   1.98014
   A31        2.13762   0.00558   0.00000   0.01637   0.01601   2.15363
   A32        2.08940  -0.00546   0.00000  -0.01800  -0.01799   2.07141
   A33        2.05616  -0.00011   0.00000   0.00162   0.00160   2.05777
   A34        1.85293   0.01436   0.00000   0.05265   0.05265   1.90558
   A35        2.08999  -0.00414   0.00000  -0.01145  -0.01160   2.07839
   A36        2.07574   0.00787   0.00000   0.02139   0.02126   2.09700
   A37        2.11746  -0.00372   0.00000  -0.00992  -0.01003   2.10743
   A38        2.05176   0.00137   0.00000   0.00084   0.00068   2.05244
   A39        2.13176  -0.00113   0.00000  -0.00204  -0.00197   2.12980
   A40        2.09967  -0.00024   0.00000   0.00120   0.00127   2.10093
   A41        2.14680  -0.00219   0.00000  -0.00930  -0.00939   2.13741
   A42        2.07005  -0.00021   0.00000   0.00121   0.00115   2.07120
   A43        2.06634   0.00240   0.00000   0.00809   0.00804   2.07438
    D1       -0.23524  -0.00024   0.00000  -0.00210  -0.00210  -0.23734
    D2        3.05233   0.00014   0.00000   0.00180   0.00179   3.05413
    D3        1.86187  -0.00024   0.00000  -0.00209  -0.00210   1.85977
    D4       -1.13374   0.00014   0.00000   0.00180   0.00180  -1.13194
    D5       -2.31559   0.00000   0.00000  -0.00072  -0.00072  -2.31631
    D6        0.97199   0.00038   0.00000   0.00318   0.00318   0.97517
    D7       -1.11672   0.00004   0.00000   0.00043   0.00043  -1.11630
    D8        1.87734  -0.00045   0.00000  -0.00378  -0.00378   1.87356
    D9        3.07224   0.00001   0.00000   0.00026   0.00026   3.07250
   D10       -0.21688  -0.00048   0.00000  -0.00394  -0.00395  -0.22082
   D11        0.99031   0.00037   0.00000   0.00235   0.00236   0.99267
   D12       -2.29881  -0.00012   0.00000  -0.00185  -0.00185  -2.30066
   D13        3.11956   0.00010   0.00000   0.00045   0.00046   3.12003
   D14       -0.02990   0.00048   0.00000   0.00372   0.00371  -0.02619
   D15        0.12883   0.00042   0.00000   0.00428   0.00429   0.13312
   D16       -3.02064   0.00080   0.00000   0.00755   0.00754  -3.01310
   D17       -3.12023  -0.00337   0.00000  -0.03138  -0.03107   3.13189
   D18        0.03211   0.00341   0.00000   0.03158   0.03125   0.06336
   D19        0.01336  -0.00301   0.00000  -0.02817  -0.02783  -0.01447
   D20       -3.11748   0.00376   0.00000   0.03480   0.03449  -3.08300
   D21        0.01142  -0.00936   0.00000  -0.09631  -0.09608  -0.08466
   D22       -3.12534   0.00161   0.00000   0.01519   0.01555  -3.10979
   D23       -3.14087  -0.01616   0.00000  -0.15918  -0.15954   2.98277
   D24        0.00556  -0.00519   0.00000  -0.04769  -0.04792  -0.04236
   D25       -0.52835  -0.02271   0.00000  -0.23469  -0.23479  -0.76314
   D26        2.61224  -0.01995   0.00000  -0.20844  -0.20806   2.40418
   D27        2.61799  -0.01194   0.00000  -0.12520  -0.12558   2.49242
   D28       -0.52460  -0.00919   0.00000  -0.09894  -0.09884  -0.62345
   D29        0.00011  -0.01096   0.00000  -0.10123  -0.10144  -0.10133
   D30       -3.14143  -0.00391   0.00000  -0.03639  -0.03396   3.10779
   D31       -3.14053  -0.01355   0.00000  -0.12608  -0.12830   3.01436
   D32        0.00111  -0.00650   0.00000  -0.06125  -0.06082  -0.05971
   D33       -3.14130   0.00302   0.00000   0.02813   0.02963  -3.11167
   D34       -0.00018  -0.00016   0.00000  -0.00143   0.00011  -0.00007
   D35       -0.00070   0.00577   0.00000   0.05415   0.05360   0.05290
   D36        3.14043   0.00259   0.00000   0.02459   0.02408  -3.11868
   D37        0.00282  -0.00851   0.00000  -0.07227  -0.07176  -0.06894
   D38       -3.13882  -0.01536   0.00000  -0.13528  -0.13578   3.00858
   D39        3.14149  -0.00008   0.00000   0.00022   0.00107  -3.14062
   D40       -0.00081   0.00310   0.00000   0.02958   0.03054   0.02973
   D41       -0.00005   0.00658   0.00000   0.06157   0.05983   0.05978
   D42        3.14083   0.00976   0.00000   0.09094   0.08931  -3.05305
   D43       -0.00003  -0.00152   0.00000  -0.01427  -0.01377  -0.01380
   D44        3.14133  -0.00212   0.00000  -0.01978  -0.01980   3.12153
   D45       -3.14116   0.00161   0.00000   0.01477   0.01554  -3.12562
   D46        0.00020   0.00100   0.00000   0.00926   0.00951   0.00971
   D47        0.00006   0.00138   0.00000   0.01240   0.01164   0.01170
   D48       -3.14118  -0.00106   0.00000  -0.01010  -0.01046   3.13154
   D49        3.14093   0.00461   0.00000   0.04225   0.04161  -3.10065
   D50       -0.00031   0.00217   0.00000   0.01975   0.01951   0.01920
   D51        0.00036  -0.00220   0.00000  -0.02037  -0.02061  -0.02024
   D52       -3.14158   0.00024   0.00000   0.00208   0.00153  -3.14005
   D53       -3.14100  -0.00161   0.00000  -0.01497  -0.01469   3.12750
   D54        0.00025   0.00083   0.00000   0.00749   0.00745   0.00770
         Item               Value     Threshold  Converged?
 Maximum Force            0.056121     0.000450     NO 
 RMS     Force            0.012402     0.000300     NO 
 Maximum Displacement     1.478692     0.001800     NO 
 RMS     Displacement     0.335821     0.001200     NO 
 Predicted change in Energy=-4.657220D-02
 GradGradGradGradGradGradGradGradGradGradGradGradGradGradGradGradGradGrad

                          Input orientation:                          
 ---------------------------------------------------------------------
 Center     Atomic      Atomic             Coordinates (Angstroms)
 Number     Number       Type             X           Y           Z
 ---------------------------------------------------------------------
      1          6           0        3.935088    1.533785   -0.176121
      2          1           0        5.003228    1.746893   -0.147300
      3          1           0        3.528482    1.909330   -1.124113
      4          6           0        4.869169   -0.765864   -0.190884
      5          1           0        5.279407   -0.718260   -1.206909
      6          7           0        3.726166    0.109902   -0.035858
      7          1           0        3.454867    2.076293    0.645364
      8          1           0        4.569507   -1.794155    0.011016
      9          1           0        5.657770   -0.492404    0.516290
     10          6           0        2.470428   -0.384985    0.059022
     11          1           0        2.405138   -1.464455    0.140456
     12          6           0        1.304922    0.347955    0.065683
     13          6           0        0.036744   -0.335842    0.161825
     14          1           0        1.349435    1.414620   -0.068834
     15          8           0        0.062292   -1.607666    0.140958
     16          6           0       -1.332525    0.255267    0.148471
     17          6           0       -1.779963    1.426025    0.853616
     18          6           0       -2.292133   -0.429390   -0.616941
     19          8           0       -1.082003    2.147954    1.741416
     20          6           0       -3.095759    1.863495    0.693596
     21          6           0       -3.595909    0.001572   -0.763576
     22          1           0       -1.992955   -1.327638   -1.143242
     23          1           0       -0.225265    1.723145    1.893646
     24          1           0       -3.425201    2.745603    1.226527
     25          6           0       -3.965521    1.158841   -0.104876
     26          1           0       -4.311688   -0.533183   -1.373119
     27          9           0       -5.230058    1.600637   -0.228716
 ---------------------------------------------------------------------
                    Distance matrix (angstroms):
                    1          2          3          4          5
     1  C    0.000000
     2  H    1.089573   0.000000
     3  H    1.097748   1.776352   0.000000
     4  C    2.482159   2.516708   3.134489   0.000000
     5  H    2.818054   2.697411   3.158610   1.096754   0.000000
     6  N    1.445948   2.079194   2.112183   1.448259   2.114184
     7  H    1.095337   1.770379   1.778860   3.282898   3.816987
     8  H    3.393037   3.571023   4.010991   1.089928   1.773373
     9  H    2.748183   2.425537   3.604597   1.093969   1.778647
    10  C    2.425325   3.317009   2.789833   2.441614   3.099035
    11  H    3.380889   4.140728   3.774050   2.582491   3.260924
    12  C    2.895243   3.959780   2.966096   3.743030   4.307300
    13  C    4.336681   5.394377   4.345879   4.864325   5.431869
    14  H    2.590620   3.669709   2.471153   4.142213   4.614008
    15  O    4.996779   5.979048   5.097464   4.891300   5.461326
    16  C    5.430260   6.515689   5.290065   6.294353   6.819272
    17  C    5.808079   6.864144   5.685471   7.078581   7.660185
    18  C    6.544209   7.627520   6.293361   7.181851   7.599983
    19  O    5.406048   6.384210   5.433670   6.902215   7.574652
    20  C    7.092103   8.143359   6.869261   8.434211   8.967764
    21  C    7.707704   8.796084   7.384204   8.519065   8.915489
    22  H    6.653177   7.706570   6.400359   6.950635   7.298127
    23  H    4.650626   5.612767   4.819974   6.041000   6.773132
    24  H    7.590110   8.597862   7.387731   9.117896   9.679368
    25  C    7.909821   8.988106   7.600141   9.042324   9.497719
    26  H    8.585714   9.667939   8.215603   9.259587   9.594321
    27  F    9.165540  10.234654   8.809599  10.372855  10.806618
                    6          7          8          9         10
     6  N    0.000000
     7  H    2.098657   0.000000
     8  H    2.082992   4.077400   0.000000
     9  H    2.097316   3.386392   1.770360   0.000000
    10  C    1.353069   2.714923   2.528675   3.221767   0.000000
    11  H    2.062717   3.727433   2.193160   3.415515   1.084503
    12  C    2.435036   2.818767   3.905015   4.456067   1.376826
    13  C    3.721506   4.211386   4.763965   5.634367   2.436350
    14  H    2.711499   2.319641   4.546590   4.747722   2.124041
    15  O    4.050343   5.033443   4.512943   5.717872   2.701996
    16  C    5.064135   5.146082   6.249241   7.039782   3.857509
    17  C    5.730689   5.279173   7.169052   7.688565   4.687959
    18  C    6.070290   6.395301   7.024174   8.030514   4.810498
    19  O    5.516416   4.667939   7.104511   7.341455   4.676109
    20  C    7.081374   6.554259   8.520600   9.066751   6.036621
    21  C    7.358946   7.483517   8.396347   9.354819   6.134047
    22  H    6.000098   6.668180   6.679511   7.873072   4.717608
    23  H    4.683945   3.902088   6.237430   6.435516   3.882887
    24  H    7.725451   6.936934   9.273739   9.668996   6.776584
    25  C    7.763187   7.514434   9.032182   9.783669   6.620551
    26  H    8.173673   8.438188   9.076426  10.147001   6.933260
    27  F    9.081488   8.741749  10.373695  11.112184   7.957573
                   11         12         13         14         15
    11  H    0.000000
    12  C    2.121531   0.000000
    13  C    2.623646   1.443987   0.000000
    14  H    3.073659   1.076034   2.200108   0.000000
    15  O    2.347220   2.318243   1.272252   3.291650   0.000000
    16  C    4.114321   2.640374   1.491471   2.929886   2.327249
    17  C    5.136004   3.361486   2.623580   3.262541   3.620091
    18  C    4.869227   3.742867   2.457417   4.118472   2.739719
    19  O    5.269983   3.427170   3.148959   3.118762   4.239759
    20  C    6.452991   4.696502   3.864251   4.532388   4.725214
    21  C    6.243322   4.982549   3.763825   5.189971   4.097592
    22  H    4.583648   3.891672   2.608935   4.454874   2.439596
    23  H    4.489263   2.752102   2.703198   2.534994   3.774772
    24  H    7.273032   5.428659   4.755413   5.123146   5.682606
    25  C    6.893995   5.335184   4.280576   5.321228   4.892573
    26  H    6.947945   5.864543   4.615610   6.127268   4.751699
    27  F    8.235732   6.660469   5.625093   6.584063   6.199905
[...]
 Alpha  occ. eigenvalues --   -0.40849  -0.33925  -0.32051  -0.30866  -0.30507
 Alpha virt. eigenvalues --   -0.01062   0.02664   0.04370   0.05055   0.05245
 Alpha virt. eigenvalues --    0.05592   0.05925   0.06420   0.06643   0.07560
 Alpha virt. eigenvalues --    0.07777   0.08065   0.08550   0.09837   0.10024
 Alpha virt. eigenvalues --    0.11617   0.12015   0.12305   0.12784   0.13032
 Alpha virt. eigenvalues --    0.13726   0.14054   0.14787   0.15221   0.15850
 Alpha virt. eigenvalues --    0.16111   0.16311   0.16649   0.17081   0.17293
 Alpha virt. eigenvalues --    0.17547   0.17948   0.18447   0.18738   0.18922
 Alpha virt. eigenvalues --    0.19240   0.19682   0.19944   0.20549   0.20968
 Alpha virt. eigenvalues --    0.21226   0.21488   0.21930   0.22168   0.22855
 Alpha virt. eigenvalues --    0.23133   0.23508   0.23682   0.24072   0.24866
 Alpha virt. eigenvalues --    0.25280   0.25726   0.25888   0.26832   0.27691
 Alpha virt. eigenvalues --    0.27950   0.28271   0.29149   0.29451   0.29512
 Alpha virt. eigenvalues --    0.30364   0.30462   0.30959   0.31628   0.31994
 Alpha virt. eigenvalues --    0.32622   0.33112   0.33615   0.33861   0.34342
 Alpha virt. eigenvalues --    0.34691   0.35529   0.36168   0.36786   0.36967
 Alpha virt. eigenvalues --    0.37264   0.37477   0.37705   0.38864   0.39173
 Alpha virt. eigenvalues --    0.39526   0.39932   0.40953   0.41022   0.41807
 Alpha virt. eigenvalues --    0.42329   0.44365   0.44819   0.45158   0.45918
 Alpha virt. eigenvalues --    0.46667   0.47339   0.47759   0.48639   0.48814
 Alpha virt. eigenvalues --    0.49789   0.49906   0.51323   0.52214   0.54334
 Alpha virt. eigenvalues --    0.55688   0.56339   0.58300   0.60233   0.60827
 Alpha virt. eigenvalues --    0.63405   0.63843   0.64724   0.65359   0.65661
 Alpha virt. eigenvalues --    0.66521   0.67401   0.67568   0.68084   0.68840
 Alpha virt. eigenvalues --    0.69897   0.70210   0.70973   0.71102   0.72218
 Alpha virt. eigenvalues --    0.72745   0.73114   0.74138   0.75145   0.75700
 Alpha virt. eigenvalues --    0.75865   0.77062   0.78189   0.78737   0.79975
 Alpha virt. eigenvalues --    0.81140   0.81222   0.81650   0.83026   0.83688
 Alpha virt. eigenvalues --    0.85330   0.85561   0.87881   0.88349   0.89789
 Alpha virt. eigenvalues --    0.90672   0.92047   0.93444   0.93880   0.95648
 Alpha virt. eigenvalues --    0.96942   0.97139   0.97946   0.98545   0.99714
 Alpha virt. eigenvalues --    1.00537   1.01065   1.02564   1.04831   1.06206
 Alpha virt. eigenvalues --    1.09331   1.10240   1.10862   1.12461   1.14164
 Alpha virt. eigenvalues --    1.14813   1.15720   1.16831   1.18445   1.19080
 Alpha virt. eigenvalues --    1.19922   1.22806   1.25868   1.26669   1.27979
 Alpha virt. eigenvalues --    1.30270   1.32234   1.34196   1.34836   1.35896
 Alpha virt. eigenvalues --    1.38451   1.39103   1.39976   1.42690   1.47331
 Alpha virt. eigenvalues --    1.49230   1.52059   1.52512   1.52775   1.53718
 Alpha virt. eigenvalues --    1.54850   1.56617   1.57714   1.58298   1.59989
 Alpha virt. eigenvalues --    1.61490   1.61812   1.62401   1.63404   1.63574
 Alpha virt. eigenvalues --    1.64210   1.64813   1.66185   1.67224   1.67931
 Alpha virt. eigenvalues --    1.69679   1.71266   1.72348   1.73877   1.74297
 Alpha virt. eigenvalues --    1.75682   1.76039   1.77533   1.79754   1.80948
 Alpha virt. eigenvalues --    1.82089   1.83420   1.84140   1.86987   1.87516
 Alpha virt. eigenvalues --    1.88296   1.89565   1.90657   1.92939   1.97052
 Alpha virt. eigenvalues --    1.98676   2.00545   2.01504   2.02813   2.03278
 Alpha virt. eigenvalues --    2.04185   2.06570   2.07897   2.08221   2.09043
 Alpha virt. eigenvalues --    2.09817   2.11977   2.14340   2.15309   2.16298
 Alpha virt. eigenvalues --    2.17882   2.18807   2.20235   2.20875   2.21238
 Alpha virt. eigenvalues --    2.24327   2.28075   2.28414   2.31860   2.35812
 Alpha virt. eigenvalues --    2.37455   2.39541   2.42197   2.45202   2.47844
 Alpha virt. eigenvalues --    2.49562   2.50746   2.53787   2.53914   2.57421
 Alpha virt. eigenvalues --    2.57670   2.59335   2.61069   2.63861   2.66535
 Alpha virt. eigenvalues --    2.68056   2.70218   2.72194   2.72646   2.75169
 Alpha virt. eigenvalues --    2.76572   2.77667   2.79353   2.81253   2.81393
 Alpha virt. eigenvalues --    2.82375   2.83890   2.84656   2.85184   2.87112
 Alpha virt. eigenvalues --    2.88466   2.89621   2.92185   2.93547   2.94410
 Alpha virt. eigenvalues --    2.96304   2.96703   2.99784   3.01987   3.03307
 Alpha virt. eigenvalues --    3.04895   3.06726   3.10166   3.11142   3.13713
 Alpha virt. eigenvalues --    3.19485   3.19722   3.21332   3.25181   3.26033
 Alpha virt. eigenvalues --    3.29197   3.29734   3.32931   3.35813   3.39312
 Alpha virt. eigenvalues --    3.44833   3.49544   3.54111   3.58497   3.60245
 Alpha virt. eigenvalues --    3.63856   3.65684   3.66791   3.68673   3.75216
 Alpha virt. eigenvalues --    3.78481   3.81597   3.83491   3.85938   3.88119
 Alpha virt. eigenvalues --    3.89892   3.91310   3.92587   3.96849   4.00956
 Alpha virt. eigenvalues --    4.08533   4.09233   4.14532   4.16095   4.23027
 Alpha virt. eigenvalues --    4.26768   4.29389   4.36512   4.56351   4.93642
 Alpha virt. eigenvalues --    4.97442   4.97684   5.12173   5.14172   5.22596
 Alpha virt. eigenvalues --    5.36711   5.55906   5.83535   5.89342   6.44626
 Alpha virt. eigenvalues --    6.56547   6.87478  23.68826  23.89615  24.02919
 Alpha virt. eigenvalues --   24.04333  24.05629  24.06049  24.07097  24.16956
 Alpha virt. eigenvalues --   24.23883  24.25185  24.32129  35.66406  50.08464
 Alpha virt. eigenvalues --   50.14489  66.94987
          Condensed to atoms (all electrons):
               1          2          3          4          5          6
     1  C    5.338663   0.386936   0.402160  -0.130355   0.007090   0.275600
     2  H    0.386936   0.516376  -0.031695   0.012013  -0.007927  -0.047741
     3  H    0.402160  -0.031695   0.529395  -0.018206   0.007975  -0.065697
     4  C   -0.130355   0.012013  -0.018206   5.280193   0.403527   0.274972
     5  H    0.007090  -0.007927   0.007975   0.403527   0.551577  -0.035113
     6  N    0.275600  -0.047741  -0.065697   0.274972  -0.035113   6.757178
     7  H    0.401739  -0.022121  -0.045717   0.009231   0.000949  -0.028834
     8  H    0.004928   0.003564   0.000103   0.397666  -0.035146  -0.070094
     9  H   -0.022743   0.004934   0.000784   0.411438  -0.058181  -0.051240
    10  C   -0.300040   0.003197   0.058701  -0.192018  -0.057203   0.142493
    11  H    0.002095  -0.001569  -0.002227  -0.020732   0.004247  -0.062199
    12  C    0.501769   0.017690  -0.070187  -0.106734   0.027623  -0.191742
    13  C   -0.305746  -0.014808   0.041962  -0.013526   0.001541  -0.005751
    14  H    0.037867   0.003270  -0.019771  -0.008912   0.000496  -0.030292
    15  O    0.001101   0.000285  -0.000557   0.004774  -0.000154   0.008931
    16  C   -0.165915  -0.001661   0.020544   0.044602  -0.002053  -0.024022
    17  C   -0.041629  -0.004550   0.003395  -0.002191   0.000744   0.017981
    18  C    0.016730   0.001534  -0.001036   0.005829  -0.000430  -0.002031
    19  O   -0.007502  -0.000663   0.002018  -0.001429   0.000037  -0.004614
    20  C    0.008083  -0.000096  -0.003675   0.002810   0.000167   0.007263
    21  C    0.004756   0.000344  -0.000248  -0.000316  -0.000048  -0.000787
    22  H   -0.001253  -0.000051   0.000182   0.000285  -0.000065   0.000104
    23  H    0.002354   0.000961   0.000596   0.002117   0.000027   0.006368
    24  H   -0.000280  -0.000012   0.000057   0.000062   0.000000  -0.000010
    25  C   -0.002683  -0.000235   0.000022  -0.000432  -0.000016  -0.000416
    26  H    0.000085   0.000008  -0.000012   0.000038   0.000002   0.000014
    27  F    0.000004   0.000000   0.000002   0.000000   0.000000   0.000000
               7          8          9         10         11         12
     1  C    0.401739   0.004928  -0.022743  -0.300040   0.002095   0.501769
     2  H   -0.022121   0.003564   0.004934   0.003197  -0.001569   0.017690
     3  H   -0.045717   0.000103   0.000784   0.058701  -0.002227  -0.070187
     4  C    0.009231   0.397666   0.411438  -0.192018  -0.020732  -0.106734
     5  H    0.000949  -0.035146  -0.058181  -0.057203   0.004247   0.027623
     6  N   -0.028834  -0.070094  -0.051240   0.142493  -0.062199  -0.191742
     7  H    0.533365  -0.004106  -0.000586  -0.018964   0.001915   0.051726
     8  H   -0.004106   0.522313  -0.015734   0.054985  -0.002607  -0.032375
     9  H   -0.000586  -0.015734   0.555513   0.012000  -0.001275  -0.000846
    10  C   -0.018964   0.054985   0.012000   8.491771   0.399860  -3.723448
    11  H    0.001915  -0.002607  -0.001275   0.399860   0.455215  -0.041003
    12  C    0.051726  -0.032375  -0.000846  -3.723448  -0.041003  20.891670
    13  C   -0.043146   0.010471   0.004074  -0.292851   0.037906  -2.743854
    14  H    0.006993  -0.000960  -0.000566  -0.212604   0.004250   0.815383
    15  O   -0.000030   0.000360   0.000064   0.067179   0.017024  -0.213741
    16  C   -0.031322   0.009536   0.001327   1.665742   0.003546  -9.011191
    17  C    0.021304  -0.001926   0.000146   0.223063   0.006693  -0.465665
    18  C   -0.008657   0.001508   0.000273  -0.150909  -0.024441   0.095283
    19  O    0.001072   0.000099  -0.000051  -0.004264   0.002141  -0.014395
    20  C    0.005139  -0.000515   0.000055  -0.143533  -0.003962   0.527263
    21  C   -0.000878   0.000329  -0.000007   0.060804  -0.003227   0.219224
    22  H    0.000044   0.000095   0.000019   0.003776  -0.000047  -0.073891
    23  H   -0.005361   0.000105  -0.000059  -0.023831  -0.001822  -0.043313
    24  H   -0.000005   0.000005   0.000002   0.001221  -0.000069  -0.012234
    25  C    0.000870  -0.000016   0.000009  -0.021942   0.000705  -0.020225
    26  H   -0.000021   0.000000  -0.000001   0.003345  -0.000009  -0.004075
    27  F   -0.000001   0.000000   0.000000   0.000152   0.000005   0.001434
              13         14         15         16         17         18
     1  C   -0.305746   0.037867   0.001101  -0.165915  -0.041629   0.016730
     2  H   -0.014808   0.003270   0.000285  -0.001661  -0.004550   0.001534
     3  H    0.041962  -0.019771  -0.000557   0.020544   0.003395  -0.001036
     4  C   -0.013526  -0.008912   0.004774   0.044602  -0.002191   0.005829
     5  H    0.001541   0.000496  -0.000154  -0.002053   0.000744  -0.000430
     6  N   -0.005751  -0.030292   0.008931  -0.024022   0.017981  -0.002031
     7  H   -0.043146   0.006993  -0.000030  -0.031322   0.021304  -0.008657
     8  H    0.010471  -0.000960   0.000360   0.009536  -0.001926   0.001508
     9  H    0.004074  -0.000566   0.000064   0.001327   0.000146   0.000273
    10  C   -0.292851  -0.212604   0.067179   1.665742   0.223063  -0.150909
    11  H    0.037906   0.004250   0.017024   0.003546   0.006693  -0.024441
    12  C   -2.743854   0.815383  -0.213741  -9.011191  -0.465665   0.095283
    13  C   11.713827  -0.058007   0.752809  -0.749327  -0.378929  -1.169503
    14  H   -0.058007   0.550489  -0.003606  -0.196646  -0.156011   0.048763
    15  O    0.752809  -0.003606   8.116750  -0.498738  -0.048775   0.079713
    16  C   -0.749327  -0.196646  -0.498738  18.931746  -0.239048  -1.766170
    17  C   -0.378929  -0.156011  -0.048775  -0.239048  15.588287  -5.393894
    18  C   -1.169503   0.048763   0.079713  -1.766170  -5.393894  11.935323
    19  O    0.095774  -0.005084  -0.002027   0.029088   0.376756  -0.035571
    20  C   -0.597735   0.033643   0.025953  -2.845437  -2.920390   2.789783
    21  C    0.340513   0.015343   0.036346  -0.832149  -0.033991   0.220447
    22  H   -0.064448  -0.004349  -0.008307   0.085103   0.062508   0.359760
    23  H   -0.063643  -0.011110  -0.001637  -0.047285  -0.006214   0.061798
    24  H   -0.025793  -0.001452   0.000022  -0.047159  -0.077054   0.058842
    25  C    0.071578   0.001778   0.006979   0.147780   0.366751  -1.132484
    26  H    0.008720   0.000344  -0.000901   0.034850  -0.006203   0.000498
    27  F   -0.000484  -0.000167  -0.000004   0.025186  -0.028754  -0.053871
              19         20         21         22         23         24
     1  C   -0.007502   0.008083   0.004756  -0.001253   0.002354  -0.000280
     2  H   -0.000663  -0.000096   0.000344  -0.000051   0.000961  -0.000012
     3  H    0.002018  -0.003675  -0.000248   0.000182   0.000596   0.000057
     4  C   -0.001429   0.002810  -0.000316   0.000285   0.002117   0.000062
     5  H    0.000037   0.000167  -0.000048  -0.000065   0.000027   0.000000
     6  N   -0.004614   0.007263  -0.000787   0.000104   0.006368  -0.000010
     7  H    0.001072   0.005139  -0.000878   0.000044  -0.005361  -0.000005
     8  H    0.000099  -0.000515   0.000329   0.000095   0.000105   0.000005
     9  H   -0.000051   0.000055  -0.000007   0.000019  -0.000059   0.000002
    10  C   -0.004264  -0.143533   0.060804   0.003776  -0.023831   0.001221
    11  H    0.002141  -0.003962  -0.003227  -0.000047  -0.001822  -0.000069
    12  C   -0.014395   0.527263   0.219224  -0.073891  -0.043313  -0.012234
    13  C    0.095774  -0.597735   0.340513  -0.064448  -0.063643  -0.025793
    14  H   -0.005084   0.033643   0.015343  -0.004349  -0.011110  -0.001452
    15  O   -0.002027   0.025953   0.036346  -0.008307  -0.001637   0.000022
    16  C    0.029088  -2.845437  -0.832149   0.085103  -0.047285  -0.047159
    17  C    0.376756  -2.920390  -0.033991   0.062508  -0.006214  -0.077054
    18  C   -0.035571   2.789783   0.220447   0.359760   0.061798   0.058842
    19  O    8.000871  -0.445998   0.021729  -0.000874   0.228754  -0.020258
    20  C   -0.445998  12.940520  -2.834595   0.067254   0.135148   0.688101
    21  C    0.021729  -2.834595   8.897909  -0.150531   0.005339  -0.105636
    22  H   -0.000874   0.067254  -0.150531   0.450848   0.000860   0.002794
    23  H    0.228754   0.135148   0.005339   0.000860   0.441759   0.003153
    24  H   -0.020258   0.688101  -0.105636   0.002794   0.003153   0.462027
    25  C    0.010546  -0.787327   0.000907   0.023133  -0.012424  -0.162701
    26  H    0.000403  -0.109278   0.558452  -0.013047   0.000532  -0.002627
    27  F   -0.000789  -0.256736  -0.194293   0.000834  -0.000241  -0.020352
              25         26         27
     1  C   -0.002683   0.000085   0.000004
     2  H   -0.000235   0.000008   0.000000
     3  H    0.000022  -0.000012   0.000002
     4  C   -0.000432   0.000038   0.000000
     5  H   -0.000016   0.000002   0.000000
     6  N   -0.000416   0.000014   0.000000
     7  H    0.000870  -0.000021  -0.000001
     8  H   -0.000016   0.000000   0.000000
     9  H    0.000009  -0.000001   0.000000
    10  C   -0.021942   0.003345   0.000152
    11  H    0.000705  -0.000009   0.000005
    12  C   -0.020225  -0.004075   0.001434
    13  C    0.071578   0.008720  -0.000484
    14  H    0.001778   0.000344  -0.000167
    15  O    0.006979  -0.000901  -0.000004
    16  C    0.147780   0.034850   0.025186
    17  C    0.366751  -0.006203  -0.028754
    18  C   -1.132484   0.000498  -0.053871
    19  O    0.010546   0.000403  -0.000789
    20  C   -0.787327  -0.109278  -0.256736
    21  C    0.000907   0.558452  -0.194293
    22  H    0.023133  -0.013047   0.000834
    23  H   -0.012424   0.000532  -0.000241
    24  H   -0.162701  -0.002627  -0.020352
    25  C    7.468142  -0.155761   0.572292
    26  H   -0.155761   0.468057  -0.022580
    27  F    0.572292  -0.022580   9.134900
 Mulliken charges:
               1
     1  C   -0.413815
     2  H    0.182014
     3  H    0.191132
     4  C   -0.354709
     5  H    0.190336
     6  N    0.129679
     7  H    0.175402
     8  H    0.157412
     9  H    0.160652
    10  C   -0.046682
    11  H    0.229586
    12  C   -0.380147
    13  C   -0.551625
    14  H    0.190919
    15  O   -0.339814
    16  C    1.459074
    17  C   -0.862406
    18  C    0.062914
    19  O   -0.225772
    20  C   -0.281903
    21  C   -0.225738
    22  H    0.259266
    23  H    0.327068
    24  H    0.259357
    25  C   -0.374830
    26  H    0.239168
    27  F   -0.156538
 Sum of Mulliken charges =   0.00000
 Mulliken charges with hydrogens summed into heavy atoms:
               1
     1  C    0.134732
     4  C    0.153691
     6  N    0.129679
    10  C    0.182904
    12  C   -0.189228
    13  C   -0.551625
    15  O   -0.339814
    16  C    1.459074
    17  C   -0.862406
    18  C    0.322180
    19  O    0.101297
    20  C   -0.022546
    21  C    0.013431
    25  C   -0.374830
    27  F   -0.156538
 Electronic spatial extent (au):  <R**2>=           4586.6188
 Charge=              0.0000 electrons
 Dipole moment (field-independent basis, Debye):
    X=              6.6315    Y=             -2.1277    Z=              1.8777  Tot=              7.2132
 Quadrupole moment (field-independent basis, Debye-Ang):
   XX=            -68.3286   YY=            -92.0085   ZZ=            -90.1449
   XY=             -6.2517   XZ=              2.6988   YZ=              3.1223
 Traceless Quadrupole moment (field-independent basis, Debye-Ang):
   XX=             15.1654   YY=             -8.5145   ZZ=             -6.6509
   XY=             -6.2517   XZ=              2.6988   YZ=              3.1223
 Octapole moment (field-independent basis, Debye-Ang**2):
  XXX=            170.9443  YYY=            -18.7771  ZZZ=             -0.6879  XYY=             -6.5914
  XXY=             10.8757  XXZ=              7.7938  XZZ=              0.2323  YZZ=             -4.5631
  YYZ=             14.2572  XYZ=            -10.1579
 Hexadecapole moment (field-independent basis, Debye-Ang**3):
 XXXX=          -4530.3025 YYYY=           -790.7367 ZZZZ=           -247.7816 XXXY=            -42.8058
 XXXZ=             57.8824 YYYX=             -9.1356 YYYZ=             20.1231 ZZZX=             -8.0708
 ZZZY=              0.1036 XXYY=           -845.3959 XXZZ=           -860.6553 YYZZ=           -176.9289
 XXYZ=              4.3368 YYXZ=             -9.8011 ZZXY=              2.9128
 N-N= 9.415395256255D+02 E-N=-3.593665650921D+03  KE= 7.284871442905D+02
 1\1\GINC-NXN37\FOpt\RwB97XD TD-FC\6-311++G(d,p)\C11H12F1N1O2\BTX008\04
 -Sep-2017\0\\# wb97xd 6-311++g** opt td=(nstates=1,root=1)\\2-opt with
  chain c=c rotated like 1\\0,1\C,3.750738431,1.5974673687,-0.093466103
 7\H,4.7790727711,1.934979494,0.0398723625\H,3.4310237993,1.8425625058,
 -1.1178355141\C,4.8247390244,-0.6120795249,-0.2112780689\H,4.934419458
 3,-0.6777688996,-1.3036113601\N,3.6761418523,0.1807436711,0.1796396314
 \H,3.1198066752,2.1507585715,0.6068457373\H,4.7229289523,-1.6237387556
 ,0.1852457235\H,5.7342690026,-0.1737999023,0.2052733709\C,2.4508122799
 ,-0.4300641787,0.1908018624\H,2.4850683842,-1.5038870493,0.3334136933\
 C,1.2336644764,0.2054777367,0.0809597905\C,0.0081854877,-0.4861773781,
 0.1245695193\H,1.17044283,1.2690818586,-0.1147843238\O,-0.0201943173,-
 1.7932266143,0.1910925764\C,-1.3233728772,0.1276958899,0.064134402\C,-
 1.6248301338,1.293856071,0.8048551904\C,-2.3448138884,-0.4657426323,-0
 .6938479982\O,-0.7389635269,1.8772488688,1.6404368839\C,-2.8773668943,
 1.883618316,0.6989220039\C,-3.6028964086,0.1040007328,-0.7871998753\H,
 -2.1247958136,-1.375144232,-1.2387897335\H,0.0291840154,1.3007151654,1
 .7350112756\H,-3.1048481678,2.7814558971,1.258565965\C,-3.8337060999,1
 .2800779909,-0.0941285162\H,-4.3875781762,-0.3393273245,-1.3857019849\
 F,-5.043470877,1.8586922412,-0.1816001668\\Version=ES64L-G09RevD.01\St
 ate=1-A\HF=-731.3676368\RMSD=9.119e-09\RMSF=9.113e-06\Dipole=1.8833032
 ,0.0769729,-0.337725\PG=C01 [X(C11H12F1N1O2)]\\@


 BULLDOZER: SOMEONE WHO SLEEPS THROUGH SPEECHES.
 Job cpu time:       1 days  5 hours 53 minutes 27.1 seconds.
 File lengths (MBytes):  RWF=    172 Int=      0 D2E=      0 Chk=     24 Scr=      1
 Normal termination of Gaussian 09 at Mon Sep  4 22:19:28 2017.
