 Entering Gaussian System, Link 0=g09
 Input=3_optS1.com
 Output=3_optS1.out
 Initial command:
 /share/apps/gaussian/g09_D01/g09/l1.exe "/tmp/3820737.1.chemistry.q/Gau-23785.inp" -scrdir="/tmp/3820737.1.chemistry.q/"
 Entering Link 1 = /share/apps/gaussian/g09_D01/g09/l1.exe PID=     23786.
  
 Copyright (c) 1988,1990,1992,1993,1995,1998,2003,2009,2013,
            Gaussian, Inc.  All Rights Reserved.
  
 This is part of the Gaussian(R) 09 program.  It is based on
 the Gaussian(R) 03 system (copyright 2003, Gaussian, Inc.),
 the Gaussian(R) 98 system (copyright 1998, Gaussian, Inc.),
 the Gaussian(R) 94 system (copyright 1995, Gaussian, Inc.),
 the Gaussian 92(TM) system (copyright 1992, Gaussian, Inc.),
 the Gaussian 90(TM) system (copyright 1990, Gaussian, Inc.),
 the Gaussian 88(TM) system (copyright 1988, Gaussian, Inc.),
 the Gaussian 86(TM) system (copyright 1986, Carnegie Mellon
 University), and the Gaussian 82(TM) system (copyright 1983,
 Carnegie Mellon University). Gaussian is a federally registered
 trademark of Gaussian, Inc.
  
 This software contains proprietary and confidential information,
 including trade secrets, belonging to Gaussian, Inc.
  
 This software is provided under written license and may be
 used, copied, transmitted, or stored only in accord with that
 written license.
  
 The following legend is applicable only to US Government
 contracts under FAR:
  
                    RESTRICTED RIGHTS LEGEND
  
 Use, reproduction and disclosure by the US Government is
 subject to restrictions as set forth in subparagraphs (a)
 and (c) of the Commercial Computer Software - Restricted
 Rights clause in FAR 52.227-19.
  
 Gaussian, Inc.
 340 Quinnipiac St., Bldg. 40, Wallingford CT 06492
  
  
 ---------------------------------------------------------------
 Warning -- This program may not be used in any manner that
 competes with the business of Gaussian, Inc. or will provide
 assistance to any competitor of Gaussian, Inc.  The licensee
 of this program is prohibited from giving any competitor of
 Gaussian, Inc. access to this program.  By using this program,
 the user acknowledges that Gaussian, Inc. is engaged in the
 business of creating and licensing software in the field of
 computational chemistry and represents and warrants to the
 licensee that it is not a competitor of Gaussian, Inc. and that
 it will not use this program in any manner prohibited above.
 ---------------------------------------------------------------
  

 Cite this work as:
 Gaussian 09, Revision D.01,
 M. J. Frisch, G. W. Trucks, H. B. Schlegel, G. E. Scuseria, 
 M. A. Robb, J. R. Cheeseman, G. Scalmani, V. Barone, B. Mennucci, 
 G. A. Petersson, H. Nakatsuji, M. Caricato, X. Li, H. P. Hratchian, 
 A. F. Izmaylov, J. Bloino, G. Zheng, J. L. Sonnenberg, M. Hada, 
 M. Ehara, K. Toyota, R. Fukuda, J. Hasegawa, M. Ishida, T. Nakajima, 
 Y. Honda, O. Kitao, H. Nakai, T. Vreven, J. A. Montgomery, Jr., 
 J. E. Peralta, F. Ogliaro, M. Bearpark, J. J. Heyd, E. Brothers, 
 K. N. Kudin, V. N. Staroverov, T. Keith, R. Kobayashi, J. Normand, 
 K. Raghavachari, A. Rendell, J. C. Burant, S. S. Iyengar, J. Tomasi, 
 M. Cossi, N. Rega, J. M. Millam, M. Klene, J. E. Knox, J. B. Cross, 
 V. Bakken, C. Adamo, J. Jaramillo, R. Gomperts, R. E. Stratmann, 
 O. Yazyev, A. J. Austin, R. Cammi, C. Pomelli, J. W. Ochterski, 
 R. L. Martin, K. Morokuma, V. G. Zakrzewski, G. A. Voth, 
 P. Salvador, J. J. Dannenberg, S. Dapprich, A. D. Daniels, 
 O. Farkas, J. B. Foresman, J. V. Ortiz, J. Cioslowski, 
 and D. J. Fox, Gaussian, Inc., Wallingford CT, 2013.
 
 ******************************************
 Gaussian 09:  ES64L-G09RevD.01 24-Apr-2013
                19-Oct-2016 
 ******************************************
 %chk=3_optS1.chk
 %mem=4GB
 %nproc=2
 Will use up to    2 processors via shared memory.
 -----------------------------------------------------------
 # wb97xd 6-311++g** opt td=(nstates=1,root=1) geom=allcheck
 -----------------------------------------------------------
 1/14=-1,18=20,19=15,26=3,29=7,38=1/1,3;
 2/9=110,12=2,40=1/2;
 3/5=4,6=6,7=1111,11=9,14=-4,16=1,25=1,30=1,71=1,74=-58/1,2,8,3;
 4//1;
 5/5=2,38=5/2;
 8/6=1,10=2,107=1,108=1/1;
 9/8=1,15=2,41=1,42=1,70=2/14;
 10/5=4/2;
 6/7=2,8=2,9=2,10=2/1;
 7/12=6,13=5,14=1/1,2,3,16;
 1/14=-1,18=20,19=15,26=3/3(2);
 2/9=110/2;
 99//99;
 2/9=110/2;
 3/5=4,6=6,7=1111,11=9,14=-2,16=1,25=1,30=1,71=1,74=-58/1,2,8,3;
 4/5=5,16=3,69=1/1;
 5/5=2,38=5/2;
 8/6=1,10=2,107=1,108=1/1;
 9/8=1,15=2,41=1,42=1,49=4,70=2/14;
 10/5=4/2;
 7/12=6,13=5,14=1/1,2,3,16;
 1/14=-1,18=20,19=15,26=3/3(-8);
 2/9=110/2;
 6/7=2,8=2,9=2,10=2/1;
 99//99;
 Structure from the checkpoint file:  "3_optS1.chk"
 -----------
 Geom Opt s0
 -----------
 Charge =  0 Multiplicity = 1
 Redundant internal coordinates found in file.
 C,0,3.666802186,1.6388632261,0.2994840829
 H,0,4.7056905543,1.9312806991,0.452139733
 H,0,3.2509954845,2.2346791465,-0.5226710145
 C,0,4.8249902604,-0.4408326703,-0.4019458013
 H,0,5.1890646357,-0.049292834,-1.3591353873
 N,0,3.604025453,0.2219270716,0.0121213902
 H,0,3.1064936458,1.866773561,1.2107828422
 H,0,4.639153745,-1.508835586,-0.5141518102
 H,0,5.6069681099,-0.3044343083,0.350397946
 C,0,2.4135023149,-0.3960306255,-0.084261833
 H,0,2.452452271,-1.4530769622,-0.3310548016
 C,0,1.1850044149,0.1554583888,0.1032496224
 C,0,0.0206812677,-0.705596019,-0.0149764221
 H,0,1.0728995181,1.2051428453,0.3274627254
 O,0,0.1562457084,-1.9207965086,-0.2505354747
 C,0,-1.3410371282,-0.1481366744,0.1402066456
 C,0,-2.4674301869,-1.0100178076,0.040395463
 C,0,-1.5903665356,1.20617947,0.3844830565
 O,0,-2.3434098833,-2.3159713557,-0.1941591074
 C,0,-3.7549116743,-0.5038881491,0.1883379172
 C,0,-2.8652170341,1.7193529233,0.5300920196
 H,0,-0.7607854101,1.8970637941,0.462839592
 H,0,-1.3744918601,-2.4904728844,-0.2759412093
 H,0,-4.6015966233,-1.1734054625,0.1107712023
 C,0,-3.9576684261,0.8463488721,0.4307325501
 H,0,-2.9974349069,2.7759109845,0.7163558039
 O,0,-5.2467048937,1.2335877991,0.5564787522
 C,0,-5.524824059,2.5961106487,0.8001859812
 H,0,-5.1636040001,3.2303214372,-0.0166111477
 H,0,-6.6091029663,2.6722750659,0.8608963031
 H,0,-5.0856919916,2.9311151941,1.7461666805
 Recover connectivity data from disk.

 GradGradGradGradGradGradGradGradGradGradGradGradGradGradGradGradGradGrad
 Berny optimization.
 Initialization pass.
                           ----------------------------
                           !    Initial Parameters    !
                           ! (Angstroms and Degrees)  !
 --------------------------                            --------------------------
 ! Name  Definition              Value          Derivative Info.                !
 --------------------------------------------------------------------------------
 ! R1    R(1,2)                  1.09           estimate D2E/DX2                !
 ! R2    R(1,3)                  1.0972         estimate D2E/DX2                !
 ! R3    R(1,6)                  1.4471         estimate D2E/DX2                !
 ! R4    R(1,7)                  1.0938         estimate D2E/DX2                !
 ! R5    R(4,5)                  1.0964         estimate D2E/DX2                !
 ! R6    R(4,6)                  1.4496         estimate D2E/DX2                !
 ! R7    R(4,8)                  1.0898         estimate D2E/DX2                !
 ! R8    R(4,9)                  1.0937         estimate D2E/DX2                !
 ! R9    R(6,10)                 1.3448         estimate D2E/DX2                !
 ! R10   R(10,11)                1.0862         estimate D2E/DX2                !
 ! R11   R(10,12)                1.3596         estimate D2E/DX2                !
 ! R12   R(12,13)                1.4529         estimate D2E/DX2                !
 ! R13   R(12,14)                1.0792         estimate D2E/DX2                !
 ! R14   R(13,15)                1.2452         estimate D2E/DX2                !
 ! R15   R(13,16)                1.4796         estimate D2E/DX2                !
 ! R16   R(16,17)                1.4218         estimate D2E/DX2                !
 ! R17   R(16,18)                1.3986         estimate D2E/DX2                !
 ! R18   R(17,19)                1.3326         estimate D2E/DX2                !
 ! R19   R(17,20)                1.3913         estimate D2E/DX2                !
 ! R20   R(18,21)                1.382          estimate D2E/DX2                !
 ! R21   R(18,22)                1.0824         estimate D2E/DX2                !
 ! R22   R(19,23)                0.9879         estimate D2E/DX2                !
 ! R23   R(20,24)                1.0822         estimate D2E/DX2                !
 ! R24   R(20,25)                1.3867         estimate D2E/DX2                !
 ! R25   R(21,25)                1.4019         estimate D2E/DX2                !
 ! R26   R(21,26)                1.081          estimate D2E/DX2                !
 ! R27   R(25,27)                1.3518         estimate D2E/DX2                !
 ! R28   R(27,28)                1.4118         estimate D2E/DX2                !
 ! R29   R(28,29)                1.0954         estimate D2E/DX2                !
 ! R30   R(28,30)                1.0886         estimate D2E/DX2                !
 ! R31   R(28,31)                1.0954         estimate D2E/DX2                !
 ! A1    A(2,1,3)              108.691          estimate D2E/DX2                !
 ! A2    A(2,1,6)              109.3798         estimate D2E/DX2                !
 ! A3    A(2,1,7)              108.4008         estimate D2E/DX2                !
 ! A4    A(3,1,6)              111.4978         estimate D2E/DX2                !
 ! A5    A(3,1,7)              108.483          estimate D2E/DX2                !
 ! A6    A(6,1,7)              110.3187         estimate D2E/DX2                !
 ! A7    A(5,4,6)              111.4559         estimate D2E/DX2                !
 ! A8    A(5,4,8)              108.4635         estimate D2E/DX2                !
 ! A9    A(5,4,9)              108.5784         estimate D2E/DX2                !
 ! A10   A(6,4,8)              109.5006         estimate D2E/DX2                !
 ! A11   A(6,4,9)              110.4081         estimate D2E/DX2                !
 ! A12   A(8,4,9)              108.3585         estimate D2E/DX2                !
 ! A13   A(1,6,4)              117.8934         estimate D2E/DX2                !
 ! A14   A(1,6,10)             120.1693         estimate D2E/DX2                !
 ! A15   A(4,6,10)             121.0021         estimate D2E/DX2                !
 ! A16   A(6,10,11)            115.5774         estimate D2E/DX2                !
 ! A17   A(6,10,12)            127.1307         estimate D2E/DX2                !
 ! A18   A(11,10,12)           117.2896         estimate D2E/DX2                !
 ! A19   A(10,12,13)           118.1952         estimate D2E/DX2                !
 ! A20   A(10,12,14)           121.1343         estimate D2E/DX2                !
 ! A21   A(13,12,14)           120.6693         estimate D2E/DX2                !
 ! A22   A(12,13,15)           120.4304         estimate D2E/DX2                !
 ! A23   A(12,13,16)           120.3783         estimate D2E/DX2                !
 ! A24   A(15,13,16)           119.1912         estimate D2E/DX2                !
 ! A25   A(13,16,17)           119.5619         estimate D2E/DX2                !
 ! A26   A(13,16,18)           123.178          estimate D2E/DX2                !
 ! A27   A(17,16,18)           117.26           estimate D2E/DX2                !
 ! A28   A(16,17,19)           122.1864         estimate D2E/DX2                !
 ! A29   A(16,17,20)           120.34           estimate D2E/DX2                !
 ! A30   A(19,17,20)           117.4736         estimate D2E/DX2                !
 ! A31   A(16,18,21)           122.8505         estimate D2E/DX2                !
 ! A32   A(16,18,22)           119.6094         estimate D2E/DX2                !
 ! A33   A(21,18,22)           117.5398         estimate D2E/DX2                !
 ! A34   A(17,19,23)           106.1975         estimate D2E/DX2                !
 ! A35   A(17,20,24)           119.4275         estimate D2E/DX2                !
 ! A36   A(17,20,25)           120.5378         estimate D2E/DX2                !
 ! A37   A(24,20,25)           120.0346         estimate D2E/DX2                !
 ! A38   A(18,21,25)           118.6948         estimate D2E/DX2                !
 ! A39   A(18,21,26)           119.6002         estimate D2E/DX2                !
 ! A40   A(25,21,26)           121.705          estimate D2E/DX2                !
 ! A41   A(20,25,21)           120.3165         estimate D2E/DX2                !
 ! A42   A(20,25,27)           115.7602         estimate D2E/DX2                !
 ! A43   A(21,25,27)           123.9232         estimate D2E/DX2                !
 ! A44   A(25,27,28)           118.7092         estimate D2E/DX2                !
 ! A45   A(27,28,29)           111.4133         estimate D2E/DX2                !
 ! A46   A(27,28,30)           105.8638         estimate D2E/DX2                !
 ! A47   A(27,28,31)           111.4227         estimate D2E/DX2                !
 ! A48   A(29,28,30)           109.2397         estimate D2E/DX2                !
 ! A49   A(29,28,31)           109.5533         estimate D2E/DX2                !
 ! A50   A(30,28,31)           109.2516         estimate D2E/DX2                !
 ! D1    D(2,1,6,4)            -17.4568         estimate D2E/DX2                !
 ! D2    D(2,1,6,10)           173.4973         estimate D2E/DX2                !
 ! D3    D(3,1,6,4)            102.7856         estimate D2E/DX2                !
 ! D4    D(3,1,6,10)           -66.2603         estimate D2E/DX2                !
 ! D5    D(7,1,6,4)           -136.6053         estimate D2E/DX2                !
 ! D6    D(7,1,6,10)            54.3488         estimate D2E/DX2                !
 ! D7    D(5,4,6,1)            -63.9039         estimate D2E/DX2                !
 ! D8    D(5,4,6,10)           105.0464         estimate D2E/DX2                !
 ! D9    D(8,4,6,1)            176.0849         estimate D2E/DX2                !
 ! D10   D(8,4,6,10)           -14.9649         estimate D2E/DX2                !
 ! D11   D(9,4,6,1)             56.8585         estimate D2E/DX2                !
 ! D12   D(9,4,6,10)          -134.1913         estimate D2E/DX2                !
 ! D13   D(1,6,10,11)          178.2649         estimate D2E/DX2                !
 ! D14   D(1,6,10,12)           -2.3042         estimate D2E/DX2                !
 ! D15   D(4,6,10,11)            9.5643         estimate D2E/DX2                !
 ! D16   D(4,6,10,12)         -171.0048         estimate D2E/DX2                !
 ! D17   D(6,10,12,13)        -178.3493         estimate D2E/DX2                !
 ! D18   D(6,10,12,14)           2.0524         estimate D2E/DX2                !
 ! D19   D(11,10,12,13)          1.0731         estimate D2E/DX2                !
 ! D20   D(11,10,12,14)       -178.5252         estimate D2E/DX2                !
 ! D21   D(10,12,13,15)          1.6683         estimate D2E/DX2                !
 ! D22   D(10,12,13,16)       -178.1962         estimate D2E/DX2                !
 ! D23   D(14,12,13,15)       -178.7314         estimate D2E/DX2                !
 ! D24   D(14,12,13,16)          1.404          estimate D2E/DX2                !
 ! D25   D(12,13,16,17)       -179.0908         estimate D2E/DX2                !
 ! D26   D(12,13,16,18)          0.9145         estimate D2E/DX2                !
 ! D27   D(15,13,16,17)          1.043          estimate D2E/DX2                !
 ! D28   D(15,13,16,18)       -178.9517         estimate D2E/DX2                !
 ! D29   D(13,16,17,19)         -0.1972         estimate D2E/DX2                !
 ! D30   D(13,16,17,20)        179.773          estimate D2E/DX2                !
 ! D31   D(18,16,17,19)        179.7978         estimate D2E/DX2                !
 ! D32   D(18,16,17,20)         -0.232          estimate D2E/DX2                !
 ! D33   D(13,16,18,21)       -179.9111         estimate D2E/DX2                !
 ! D34   D(13,16,18,22)          0.2842         estimate D2E/DX2                !
 ! D35   D(17,16,18,21)          0.0941         estimate D2E/DX2                !
 ! D36   D(17,16,18,22)       -179.7106         estimate D2E/DX2                !
 ! D37   D(16,17,19,23)         -0.422          estimate D2E/DX2                !
 ! D38   D(20,17,19,23)        179.607          estimate D2E/DX2                !
 ! D39   D(16,17,20,24)       -179.9243         estimate D2E/DX2                !
 ! D40   D(16,17,20,25)          0.1957         estimate D2E/DX2                !
 ! D41   D(19,17,20,24)          0.0472         estimate D2E/DX2                !
 ! D42   D(19,17,20,25)       -179.8327         estimate D2E/DX2                !
 ! D43   D(16,18,21,25)          0.0818         estimate D2E/DX2                !
 ! D44   D(16,18,21,26)       -179.9096         estimate D2E/DX2                !
 ! D45   D(22,18,21,25)        179.8903         estimate D2E/DX2                !
 ! D46   D(22,18,21,26)         -0.1011         estimate D2E/DX2                !
 ! D47   D(17,20,25,21)         -0.0134         estimate D2E/DX2                !
 ! D48   D(17,20,25,27)        179.9181         estimate D2E/DX2                !
 ! D49   D(24,20,25,21)       -179.8927         estimate D2E/DX2                !
 ! D50   D(24,20,25,27)          0.0389         estimate D2E/DX2                !
 ! D51   D(18,21,25,20)         -0.1243         estimate D2E/DX2                !
 ! D52   D(18,21,25,27)        179.95           estimate D2E/DX2                !
 ! D53   D(26,21,25,20)        179.8669         estimate D2E/DX2                !
 ! D54   D(26,21,25,27)         -0.0588         estimate D2E/DX2                !
 ! D55   D(20,25,27,28)       -179.8063         estimate D2E/DX2                !
 ! D56   D(21,25,27,28)          0.1224         estimate D2E/DX2                !
 ! D57   D(25,27,28,29)         61.2021         estimate D2E/DX2                !
 ! D58   D(25,27,28,30)        179.849          estimate D2E/DX2                !
 ! D59   D(25,27,28,31)        -61.4846         estimate D2E/DX2                !
 --------------------------------------------------------------------------------
 Trust Radius=3.00D-01 FncErr=1.00D-07 GrdErr=1.00D-06
 Number of steps in this run=    150 maximum allowed number of steps=    186.
 GradGradGradGradGradGradGradGradGradGradGradGradGradGradGradGradGradGrad

                          Input orientation:                          
 ---------------------------------------------------------------------
 Center     Atomic      Atomic             Coordinates (Angstroms)
 Number     Number       Type             X           Y           Z
 ---------------------------------------------------------------------
      1          6           0        3.666802    1.638863    0.299484
      2          1           0        4.705691    1.931281    0.452140
      3          1           0        3.250995    2.234679   -0.522671
      4          6           0        4.824990   -0.440833   -0.401946
      5          1           0        5.189065   -0.049293   -1.359135
      6          7           0        3.604025    0.221927    0.012121
      7          1           0        3.106494    1.866774    1.210783
      8          1           0        4.639154   -1.508836   -0.514152
      9          1           0        5.606968   -0.304434    0.350398
     10          6           0        2.413502   -0.396031   -0.084262
     11          1           0        2.452452   -1.453077   -0.331055
     12          6           0        1.185004    0.155458    0.103250
     13          6           0        0.020681   -0.705596   -0.014976
     14          1           0        1.072900    1.205143    0.327463
     15          8           0        0.156246   -1.920797   -0.250535
     16          6           0       -1.341037   -0.148137    0.140207
     17          6           0       -2.467430   -1.010018    0.040395
     18          6           0       -1.590367    1.206179    0.384483
     19          8           0       -2.343410   -2.315971   -0.194159
     20          6           0       -3.754912   -0.503888    0.188338
     21          6           0       -2.865217    1.719353    0.530092
     22          1           0       -0.760785    1.897064    0.462840
     23          1           0       -1.374492   -2.490473   -0.275941
     24          1           0       -4.601597   -1.173405    0.110771
     25          6           0       -3.957668    0.846349    0.430733
     26          1           0       -2.997435    2.775911    0.716356
     27          8           0       -5.246705    1.233588    0.556479
     28          6           0       -5.524824    2.596111    0.800186
     29          1           0       -5.163604    3.230321   -0.016611
     30          1           0       -6.609103    2.672275    0.860896
     31          1           0       -5.085692    2.931115    1.746167
 ---------------------------------------------------------------------
                    Distance matrix (angstroms):
                    1          2          3          4          5
     1  C    0.000000
     2  H    1.090000   0.000000
     3  H    1.097192   1.777201   0.000000
     4  C    2.481640   2.524008   3.106509   0.000000
     5  H    2.813925   2.727094   3.110034   1.096387   0.000000
     6  N    1.447144   2.080666   2.112298   1.449640   2.113352
     7  H    1.093780   1.771195   1.777948   3.298359   3.822681
     8  H    3.393446   3.573870   3.992613   1.089842   1.773884
     9  H    2.746496   2.412690   3.572108   1.093670   1.778270
    10  C    2.420499   3.310322   2.795395   2.432736   3.073967
    11  H    3.381171   4.140574   3.778086   2.580426   3.242932
    12  C    2.897985   3.958598   2.997208   3.722940   4.267668
    13  C    4.346214   5.396353   4.397488   4.827135   5.380491
    14  H    2.630062   3.706749   2.554755   4.161665   4.621800
    15  O    5.029682   6.002474   5.188402   4.900040   5.482772
    16  C    5.319511   6.401890   5.215744   6.196733   6.700748
    17  C    6.686741   7.763661   6.598901   7.327962   7.842423
    18  C    5.275629   6.338035   5.031851   6.669927   7.111758
    19  O    7.211591   8.255100   7.218983   7.412508   7.951929
    20  C    7.725644   8.808032   7.555661   8.600414   9.088237
    21  C    6.536584   7.574274   6.227514   8.042039   8.459831
    22  H    4.438117   5.466594   4.144828   6.116740   6.519863
    23  H    6.541955   7.553186   6.616878   6.530734   7.086109
    24  H    8.735610   9.817393   8.583676   9.468901   9.964000
    25  C    7.666672   8.731055   7.402788   8.915452   9.363147
    26  H    6.773383   7.753796   6.393043   8.531610   8.905516
    27  O    8.926416   9.977366   8.624248  10.254819  10.687406
    28  C    9.254892  10.258000   8.882319  10.852963  11.244921
    29  H    8.978236   9.965451   8.488397  10.648844  10.942394
    30  H   10.342986  11.346396   9.966308  11.917412  12.309843
    31  H    8.964874   9.927001   8.667930  10.686723  11.139854
                    6          7          8          9         10
     6  N    0.000000
     7  H    2.095196   0.000000
     8  H    2.084225   4.088910   0.000000
     9  H    2.098396   3.421517   1.770507   0.000000
    10  C    1.344807   2.697714   2.525206   3.224212   0.000000
    11  H    2.061439   3.718392   2.195062   3.425599   1.086173
    12  C    2.421649   2.801312   3.883582   4.452679   1.359598
    13  C    3.701539   4.200215   4.714304   5.612578   2.413757
    14  H    2.733633   2.313766   4.559842   4.778821   2.128495
    15  O    4.067854   5.018476   4.509509   5.717003   2.729059
    16  C    4.960544   4.998652   6.167850   6.952941   3.769404
    17  C    6.195245   6.380781   7.145619   8.111095   4.920978
    18  C    5.299916   4.814525   6.854617   7.354233   4.337945
    19  O    6.469580   7.012180   7.036338   8.218962   5.130932
    20  C    7.396744   7.331051   8.483145   9.365406   6.175377
    21  C    6.660456   6.012188   8.235729   8.712401   5.719891
    22  H    4.696893   3.939059   6.458638   6.738510   3.953948
    23  H    5.676771   6.424576   6.097892   7.342469   4.332705
    24  H    8.323997   8.358670   9.267929  10.248284   7.060734
    25  C    7.598970   7.179981   8.963540   9.633952   6.511570
    26  H    7.113231   6.191036   8.842550   9.146486   6.323009
    27  O    8.924977   8.402676  10.314908  10.964041   7.857797
    28  C    9.465394   8.671803  11.040132  11.512266   8.529489
    29  H    9.269444   8.471144  10.899597  11.341711   8.400449
    30  H   10.537202   9.755207  12.078730  12.583871   9.576807
    31  H    9.265949   8.278367  10.926794  11.258327   8.405848
                   11         12         13         14         15
    11  H    0.000000
    12  C    2.093426   0.000000
    13  C    2.563619   1.452942   0.000000
    14  H    3.066422   1.079202   2.208020   0.000000
    15  O    2.344741   2.344001   1.245222   3.308449   0.000000
    16  C    4.039247   2.544488   1.479567   2.773720   2.353053
    17  C    4.953738   3.834392   2.507277   4.186082   2.792460
    18  C    4.891628   2.980904   2.531784   2.663877   3.637565
    19  O    4.874794   4.318116   2.866067   4.933711   2.531328
    20  C    6.300960   4.984451   3.786440   5.123271   4.182988
    21  C    6.251679   4.362597   3.808659   3.976711   4.794716
    22  H    4.709417   2.636018   2.759137   1.964556   3.990728
    23  H    3.965442   3.700778   2.280438   4.473410   1.633504
    24  H    7.073403   5.937229   4.647592   6.156651   4.829720
    25  C    6.852542   5.199198   4.293537   5.044404   5.004549
    26  H    6.977297   4.973477   4.665272   4.380202   5.739307
    27  O    8.202616   6.537176   5.642017   6.323817   6.308192
    28  C    9.017348   7.173862   6.505258   6.759306   7.333554
    29  H    8.946363   7.055068   6.509091   6.566103   7.408747
    30  H   10.027515   8.225357   7.492076   7.839017   8.252365
    31  H    8.964352   7.051601   6.511708   6.551332   7.416588
                   16         17         18         19         20
    16  C    0.000000
    17  C    1.421817   0.000000
    18  C    1.398574   2.408146   0.000000
    19  O    2.411651   1.332633   3.647937   0.000000
    20  C    2.440423   1.391281   2.765513   2.328580   0.000000
    21  C    2.441854   2.801339   1.381953   4.132876   2.418916
    22  H    2.150263   3.397384   1.082435   4.548188   3.847689
    23  H    2.379251   1.867172   3.761383   0.987897   3.135039
    24  H    3.418083   2.141568   3.847707   2.549087   1.082195
    25  C    2.814279   2.412316   2.394940   3.605078   1.386725
    26  H    3.409642   3.882149   2.134019   5.213833   3.407295
    27  O    4.163735   3.608944   3.660484   4.646714   2.319439
    28  C    5.046835   4.788434   4.193408   5.936217   3.621732
    29  H    5.103978   5.025244   4.126264   6.224659   3.996341
    30  H    6.018857   5.602317   5.250154   6.647697   4.322818
    31  H    5.107185   5.029660   4.128787   6.230320   3.999632
                   21         22         23         24         25
    21  C    0.000000
    22  H    2.112992   0.000000
    23  H    4.538126   4.491426   0.000000
    24  H    3.399838   4.929865   3.506910   0.000000
    25  C    1.401948   3.365278   4.278618   2.143928   0.000000
    26  H    1.080967   2.416453   5.599410   4.305481   2.174129
    27  O    2.430668   4.535685   5.436505   2.531489   1.351807
    28  C    2.813390   4.826855   6.652566   3.941687   2.377843
    29  H    2.804370   4.625177   6.866739   4.441271   2.708823
    30  H    3.877393   5.912886   7.439591   4.402502   3.247946
    31  H    2.806727   4.628283   6.874267   4.444767   2.710914
                   26         27         28         29         30
    26  H    0.000000
    27  O    2.731947   0.000000
    28  C    2.535163   1.411812   0.000000
    29  H    2.331527   2.079010   1.095382   0.000000
    30  H    3.616045   2.004649   1.088645   1.780703   0.000000
    31  H    2.333542   2.079154   1.095420   1.789687   1.780866
                   31
    31  H    0.000000
 Stoichiometry    C12H15NO3
 Framework group  C1[X(C12H15NO3)]
 Deg. of freedom    87
 Full point group                 C1      NOp   1
 Largest Abelian subgroup         C1      NOp   1
 Largest concise Abelian subgroup C1      NOp   1
                         Standard orientation:                         
 ---------------------------------------------------------------------
 Center     Atomic      Atomic             Coordinates (Angstroms)
 Number     Number       Type             X           Y           Z
 ---------------------------------------------------------------------
      1          6           0       -4.167874   -2.044747    0.092329
      2          1           0       -5.148594   -2.496697    0.240750
      3          1           0       -3.741675   -2.428729   -0.842948
      4          6           0       -5.623223   -0.051328   -0.166089
      5          1           0       -6.003949   -0.318155   -1.159023
      6          7           0       -4.302651   -0.604219    0.061636
      7          1           0       -3.519255   -2.347994    0.919184
      8          1           0       -5.580193    1.035239   -0.093462
      9          1           0       -6.325800   -0.419341    0.586949
     10          6           0       -3.208279    0.176222    0.019578
     11          1           0       -3.396056    1.244845   -0.030957
     12          6           0       -1.910443   -0.228150    0.044349
     13          6           0       -0.873798    0.789722    0.025818
     14          1           0       -1.652817   -1.275826    0.070432
     15          8           0       -1.176036    1.997692    0.019495
     16          6           0        0.554282    0.403080    0.011213
     17          6           0        1.554618    1.413470    0.012786
     18          6           0        0.987028   -0.926767   -0.004492
     19          8           0        1.252594    2.711386    0.023196
     20          6           0        2.902329    1.068129    0.003939
     21          6           0        2.322946   -1.280287   -0.016277
     22          1           0        0.257613   -1.726503   -0.010976
     23          1           0        0.266143    2.764796    0.021788
     24          1           0        3.651383    1.849191    0.006518
     25          6           0        3.288343   -0.263707   -0.010595
     26          1           0        2.598591   -2.325433   -0.029702
     27          8           0        4.621209   -0.489008   -0.019953
     28          6           0        5.083424   -1.822875   -0.039107
     29          1           0        4.745829   -2.350239   -0.937871
     30          1           0        6.170292   -1.761118   -0.046387
     31          1           0        4.758803   -2.371632    0.851641
 ---------------------------------------------------------------------
 Rotational constants (GHZ):      1.2020463      0.2153038      0.1833307
 Standard basis: 6-311++G(d,p) (5D, 7F)
 There are   473 symmetry adapted cartesian basis functions of A   symmetry.
 There are   457 symmetry adapted basis functions of A   symmetry.
   457 basis functions,   711 primitive gaussians,   473 cartesian basis functions
    59 alpha electrons       59 beta electrons
       nuclear repulsion energy      1047.4138058972 Hartrees.
 NAtoms=   31 NActive=   31 NUniq=   31 SFac= 1.00D+00 NAtFMM=   60 NAOKFM=F Big=F
 Integral buffers will be    131072 words long.
 Raffenetti 1 integral format.
 Two-electron integral symmetry is turned on.
 Nuclear repulsion after empirical dispersion term =     1047.3960473561 Hartrees.
 One-electron integrals computed using PRISM.
 NBasis=   457 RedAO= T EigKep=  1.21D-06  NBF=   457
 NBsUse=   454 1.00D-06 EigRej=  4.66D-07 NBFU=   454
 ExpMin= 3.60D-02 ExpMax= 8.59D+03 ExpMxC= 1.30D+03 IAcc=3 IRadAn=         5 AccDes= 0.00D+00
 Harris functional with IExCor= 4639 and IRadAn=       5 diagonalized for initial guess.
 HarFok:  IExCor= 4639 AccDes= 0.00D+00 IRadAn=         5 IDoV= 1 UseB2=F ITyADJ=14
 ICtDFT=  3500011 ScaDFX=  1.000000  1.000000  1.000000  1.000000
 FoFCou: FMM=F IPFlag=           0 FMFlag=      100000 FMFlg1=           0
         NFxFlg=           0 DoJE=T BraDBF=F KetDBF=T FulRan=T
         wScrn=  0.000000 ICntrl=     500 IOpCl=  0 I1Cent=   200000004 NGrid=           0
         NMat0=    1 NMatS0=      1 NMatT0=    0 NMatD0=    1 NMtDS0=    0 NMtDT0=    0
 Petite list used in FoFCou.
 Requested convergence on RMS density matrix=1.00D-08 within 128 cycles.
 Requested convergence on MAX density matrix=1.00D-06.
 Requested convergence on             energy=1.00D-06.
 No special actions if energy rises.
 SCF Done:  E(RwB97XD) =  -746.674904018     A.U. after   17 cycles
            NFock= 17  Conv=0.45D-08     -V/T= 2.0039
 DoSCS=F DFT=T ScalE2(SS,OS)=  1.000000  1.000000
 ExpMin= 3.60D-02 ExpMax= 8.59D+03 ExpMxC= 1.30D+03 IAcc=3 IRadAn=         5 AccDes= 0.00D+00
 HarFok:  IExCor=  205 AccDes= 0.00D+00 IRadAn=         5 IDoV=-2 UseB2=F ITyADJ=14
 ICtDFT= 12500011 ScaDFX=  1.000000  1.000000  1.000000  1.000000
 Range of M.O.s used for correlation:    17   454
 NBasis=   457 NAE=    59 NBE=    59 NFC=    16 NFV=     0
 NROrb=    438 NOA=    43 NOB=    43 NVA=   395 NVB=   395

 **** Warning!!: The largest alpha MO coefficient is  0.18192226D+03

 Would need an additional         32373500000 words for in-memory AO integral storage.
 Orbital symmetries:
       Occupied  (A) (A) (A) (A) (A) (A) (A) (A) (A) (A) (A) (A)
                 (A) (A) (A) (A) (A) (A) (A) (A) (A) (A) (A) (A)
                 (A) (A) (A) (A) (A) (A) (A) (A) (A) (A) (A) (A)
                 (A) (A) (A) (A) (A) (A) (A) (A) (A) (A) (A) (A)
                 (A) (A) (A) (A) (A) (A) (A) (A) (A) (A) (A)
       Virtual   (A) (A) (A) (A) (A) (A) (A) (A) (A) (A) (A) (A)
                 (A) (A) (A) (A) (A) (A) (A) (A) (A) (A) (A) (A)
                 (A) (A) (A) (A) (A) (A) (A) (A) (A) (A) (A) (A)
                 (A) (A) (A) (A) (A) (A) (A) (A) (A) (A) (A) (A)
                 (A) (A) (A) (A) (A) (A) (A) (A) (A) (A) (A) (A)
                 (A) (A) (A) (A) (A) (A) (A) (A) (A) (A) (A) (A)
                 (A) (A) (A) (A) (A) (A) (A) (A) (A) (A) (A) (A)
                 (A) (A) (A) (A) (A) (A) (A) (A) (A) (A) (A) (A)
                 (A) (A) (A) (A) (A) (A) (A) (A) (A) (A) (A) (A)
                 (A) (A) (A) (A) (A) (A) (A) (A) (A) (A) (A) (A)
                 (A) (A) (A) (A) (A) (A) (A) (A) (A) (A) (A) (A)
                 (A) (A) (A) (A) (A) (A) (A) (A) (A) (A) (A) (A)
                 (A) (A) (A) (A) (A) (A) (A) (A) (A) (A) (A) (A)
                 (A) (A) (A) (A) (A) (A) (A) (A) (A) (A) (A) (A)
                 (A) (A) (A) (A) (A) (A) (A) (A) (A) (A) (A) (A)
                 (A) (A) (A) (A) (A) (A) (A) (A) (A) (A) (A) (A)
                 (A) (A) (A) (A) (A) (A) (A) (A) (A) (A) (A) (A)
                 (A) (A) (A) (A) (A) (A) (A) (A) (A) (A) (A) (A)
                 (A) (A) (A) (A) (A) (A) (A) (A) (A) (A) (A) (A)
                 (A) (A) (A) (A) (A) (A) (A) (A) (A) (A) (A) (A)
                 (A) (A) (A) (A) (A) (A) (A) (A) (A) (A) (A) (A)
                 (A) (A) (A) (A) (A) (A) (A) (A) (A) (A) (A) (A)
                 (A) (A) (A) (A) (A) (A) (A) (A) (A) (A) (A) (A)
                 (A) (A) (A) (A) (A) (A) (A) (A) (A) (A) (A) (A)
                 (A) (A) (A) (A) (A) (A) (A) (A) (A) (A) (A) (A)
                 (A) (A) (A) (A) (A) (A) (A) (A) (A) (A) (A) (A)
                 (A) (A) (A) (A) (A) (A) (A) (A) (A) (A) (A) (A)
                 (A) (A) (A) (A) (A) (A) (A) (A) (A) (A) (A) (A)
                 (A) (A) (A) (A) (A) (A) (A) (A) (A) (A) (A) (A)
                 (A) (A) (A) (A) (A) (A) (A) (A) (A) (A) (A) (A)
                 (A) (A) (A) (A) (A) (A) (A) (A) (A) (A) (A) (A)
                 (A) (A) (A) (A) (A) (A) (A) (A) (A) (A) (A) (A)
                 (A) (A) (A) (A) (A) (A) (A) (A) (A) (A) (A)
     8 initial guesses have been made.
 Convergence on wavefunction:    0.000001000000000
 Iteration     1 Dimension     8 NMult     0 NNew      8
 CISAX will form     8 AO SS matrices at one time.
 Iteration     2 Dimension    12 NMult     8 NNew      4
 Iteration     3 Dimension    16 NMult    12 NNew      4
 Iteration     4 Dimension    20 NMult    16 NNew      4
 Iteration     5 Dimension    24 NMult    20 NNew      4
 Iteration     6 Dimension    28 NMult    24 NNew      4
 Iteration     7 Dimension    32 NMult    28 NNew      4
 Iteration     8 Dimension    36 NMult    32 NNew      4
 Iteration     9 Dimension    40 NMult    36 NNew      4
 Iteration    10 Dimension    44 NMult    40 NNew      4
 Iteration    11 Dimension    48 NMult    44 NNew      4
 Iteration    12 Dimension    52 NMult    48 NNew      4
 Iteration    13 Dimension    56 NMult    52 NNew      4
 Iteration    14 Dimension    60 NMult    56 NNew      4
 Iteration    15 Dimension    64 NMult    60 NNew      4
 ***********************************************************************
 Excited states from <AA,BB:AA,BB> singles matrix:
 ***********************************************************************
 
 Ground to excited state transition densities written to RWF  633
 Ground to excited state transition electric dipole moments (Au):
       state          X           Y           Z        Dip. S.      Osc.
         1        -2.5204     -0.3637     -0.0337      6.4859      0.6697
 Ground to excited state transition velocity dipole moments (Au):
       state          X           Y           Z        Dip. S.      Osc.
         1         0.3855      0.0571      0.0054      0.1519      0.6538
 Ground to excited state transition magnetic dipole moments (Au):
       state          X           Y           Z
         1        -0.0624      0.1606     -0.1506
 Ground to excited state transition velocity quadrupole moments (Au):
       state          XX          YY          ZZ          XY          XZ          YZ
         1        -1.0520      0.2289     -0.0529     -0.3893     -0.0631      0.0019
 <0|del|b> * <b|rxdel|0> + <0|del|b> * <b|delr+rdel|0>
 Rotatory Strengths (R) in cgs (10**-40 erg-esu-cm/Gauss)
       state          XX          YY          ZZ    R(velocity)    E-M Angle
         1        22.4473    -50.2667    -43.8802    -23.8999      100.14
 1/2[<0|r|b>*<b|rxdel|0> + (<0|rxdel|b>*<b|r|0>)*]
 Rotatory Strengths (R) in cgs (10**-40 erg-esu-cm/Gauss)
       state          XX          YY          ZZ     R(length)
         1      -111.1947     41.3096     -3.5882    -24.4911
  1/2[<0|del|b>*<b|r|0> + (<0|r|b>*<b|del|0>)*] (Au)
       state          X           Y           Z        Dip. S.   Osc.(frdel)
         1        -0.9716     -0.0208     -0.0002      0.9926      0.6617

 Excitation energies and oscillator strengths:
 
 Excited State   1:      Singlet-A      4.2145 eV  294.18 nm  f=0.6697  <S**2>=0.000
      56 -> 60         0.10462
      59 -> 60         0.66390
 This state for optimization and/or second-order correction.
 Total Energy, E(TD-HF/TD-KS) =  -746.520022322    
 Copying the excited state density for this state as the 1-particle RhoCI density.
 SavETr:  write IOETrn=   770 NScale= 10 NData=  16 NLR=1 NState=    1 LETran=      28.
          IDoAtm=1111111111111111111111111111111
          Differentiating once with respect to electric field.
                with respect to dipole field.
          Differentiating once with respect to nuclear coordinates.
          There are     1 degrees of freedom in the 1st order CPHF.  IDoFFX=0 NUNeed=     1.
 LinEq1:  Iter=  0 NonCon=     1 RMS=3.63D-03 Max=2.85D-01 NDo=     1
 AX will form     1 AO Fock derivatives at one time.
 LinEq1:  Iter=  1 NonCon=     1 RMS=1.41D-03 Max=8.29D-02 NDo=     1
 LinEq1:  Iter=  2 NonCon=     1 RMS=1.02D-03 Max=6.48D-02 NDo=     1
 LinEq1:  Iter=  3 NonCon=     1 RMS=3.18D-04 Max=1.79D-02 NDo=     1
 LinEq1:  Iter=  4 NonCon=     1 RMS=2.18D-04 Max=7.49D-03 NDo=     1
 LinEq1:  Iter=  5 NonCon=     1 RMS=1.02D-04 Max=4.80D-03 NDo=     1
 LinEq1:  Iter=  6 NonCon=     1 RMS=5.16D-05 Max=2.30D-03 NDo=     1
 LinEq1:  Iter=  7 NonCon=     1 RMS=2.12D-05 Max=1.14D-03 NDo=     1
 LinEq1:  Iter=  8 NonCon=     1 RMS=1.09D-05 Max=5.62D-04 NDo=     1
 LinEq1:  Iter=  9 NonCon=     1 RMS=5.49D-06 Max=2.43D-04 NDo=     1
 LinEq1:  Iter= 10 NonCon=     1 RMS=2.30D-06 Max=9.33D-05 NDo=     1
 LinEq1:  Iter= 11 NonCon=     1 RMS=1.09D-06 Max=5.63D-05 NDo=     1
 LinEq1:  Iter= 12 NonCon=     1 RMS=5.02D-07 Max=1.81D-05 NDo=     1
 LinEq1:  Iter= 13 NonCon=     1 RMS=2.20D-07 Max=1.09D-05 NDo=     1
 LinEq1:  Iter= 14 NonCon=     1 RMS=7.59D-08 Max=1.84D-06 NDo=     1
 LinEq1:  Iter= 15 NonCon=     1 RMS=3.85D-08 Max=1.80D-06 NDo=     1
 LinEq1:  Iter= 16 NonCon=     1 RMS=1.64D-08 Max=4.35D-07 NDo=     1
 LinEq1:  Iter= 17 NonCon=     1 RMS=9.24D-09 Max=2.83D-07 NDo=     1
 LinEq1:  Iter= 18 NonCon=     1 RMS=3.62D-09 Max=1.48D-07 NDo=     1
 LinEq1:  Iter= 19 NonCon=     1 RMS=1.47D-09 Max=4.52D-08 NDo=     1
 LinEq1:  Iter= 20 NonCon=     1 RMS=6.64D-10 Max=1.76D-08 NDo=     1
 LinEq1:  Iter= 21 NonCon=     1 RMS=2.31D-10 Max=8.32D-09 NDo=     1
 LinEq1:  Iter= 22 NonCon=     1 RMS=8.73D-11 Max=3.69D-09 NDo=     1
 LinEq1:  Iter= 23 NonCon=     1 RMS=4.45D-11 Max=1.69D-09 NDo=     1
 LinEq1:  Iter= 24 NonCon=     0 RMS=2.03D-11 Max=9.26D-10 NDo=     1
 Linear equations converged to 1.000D-10 1.000D-09 after    24 iterations.
 End of Minotr F.D. properties file   721 does not exist.
 End of Minotr F.D. properties file   722 does not exist.
 End of Minotr F.D. properties file   788 does not exist.

 **********************************************************************

            Population analysis using the SCF density.

 **********************************************************************

 Orbital symmetries:
       Occupied  (A) (A) (A) (A) (A) (A) (A) (A) (A) (A) (A) (A)
                 (A) (A) (A) (A) (A) (A) (A) (A) (A) (A) (A) (A)
                 (A) (A) (A) (A) (A) (A) (A) (A) (A) (A) (A) (A)
                 (A) (A) (A) (A) (A) (A) (A) (A) (A) (A) (A) (A)
                 (A) (A) (A) (A) (A) (A) (A) (A) (A) (A) (A)
       Virtual   (A) (A) (A) (A) (A) (A) (A) (A) (A) (A) (A) (A)
                 (A) (A) (A) (A) (A) (A) (A) (A) (A) (A) (A) (A)
                 (A) (A) (A) (A) (A) (A) (A) (A) (A) (A) (A) (A)
                 (A) (A) (A) (A) (A) (A) (A) (A) (A) (A) (A) (A)
                 (A) (A) (A) (A) (A) (A) (A) (A) (A) (A) (A) (A)
                 (A) (A) (A) (A) (A) (A) (A) (A) (A) (A) (A) (A)
                 (A) (A) (A) (A) (A) (A) (A) (A) (A) (A) (A) (A)
                 (A) (A) (A) (A) (A) (A) (A) (A) (A) (A) (A) (A)
                 (A) (A) (A) (A) (A) (A) (A) (A) (A) (A) (A) (A)
                 (A) (A) (A) (A) (A) (A) (A) (A) (A) (A) (A) (A)
                 (A) (A) (A) (A) (A) (A) (A) (A) (A) (A) (A) (A)
                 (A) (A) (A) (A) (A) (A) (A) (A) (A) (A) (A) (A)
                 (A) (A) (A) (A) (A) (A) (A) (A) (A) (A) (A) (A)
                 (A) (A) (A) (A) (A) (A) (A) (A) (A) (A) (A) (A)
                 (A) (A) (A) (A) (A) (A) (A) (A) (A) (A) (A) (A)
                 (A) (A) (A) (A) (A) (A) (A) (A) (A) (A) (A) (A)
                 (A) (A) (A) (A) (A) (A) (A) (A) (A) (A) (A) (A)
                 (A) (A) (A) (A) (A) (A) (A) (A) (A) (A) (A) (A)
                 (A) (A) (A) (A) (A) (A) (A) (A) (A) (A) (A) (A)
                 (A) (A) (A) (A) (A) (A) (A) (A) (A) (A) (A) (A)
                 (A) (A) (A) (A) (A) (A) (A) (A) (A) (A) (A) (A)
                 (A) (A) (A) (A) (A) (A) (A) (A) (A) (A) (A) (A)
                 (A) (A) (A) (A) (A) (A) (A) (A) (A) (A) (A) (A)
                 (A) (A) (A) (A) (A) (A) (A) (A) (A) (A) (A) (A)
                 (A) (A) (A) (A) (A) (A) (A) (A) (A) (A) (A) (A)
                 (A) (A) (A) (A) (A) (A) (A) (A) (A) (A) (A) (A)
                 (A) (A) (A) (A) (A) (A) (A) (A) (A) (A) (A) (A)
                 (A) (A) (A) (A) (A) (A) (A) (A) (A) (A) (A) (A)
                 (A) (A) (A) (A) (A) (A) (A) (A) (A) (A) (A) (A)
                 (A) (A) (A) (A) (A) (A) (A) (A) (A) (A) (A) (A)
                 (A) (A) (A) (A) (A) (A) (A) (A) (A) (A) (A) (A)
                 (A) (A) (A) (A) (A) (A) (A) (A) (A) (A) (A) (A)
                 (A) (A) (A) (A) (A) (A) (A) (A) (A) (A) (A)
 The electronic state is 1-A.
 Alpha  occ. eigenvalues --  -19.28296 -19.24818 -19.21743 -14.48643 -10.36915
 Alpha  occ. eigenvalues --  -10.35447 -10.35032 -10.34155 -10.33900 -10.33665
 Alpha  occ. eigenvalues --  -10.33434 -10.29841 -10.28479 -10.28078 -10.27055
 Alpha  occ. eigenvalues --  -10.26884  -1.18059  -1.15886  -1.12238  -1.08432
 Alpha  occ. eigenvalues --   -0.95577  -0.89119  -0.86911  -0.85012  -0.84054
 Alpha  occ. eigenvalues --   -0.81432  -0.79031  -0.72321  -0.70390  -0.68879
 Alpha  occ. eigenvalues --   -0.64997  -0.63186  -0.62224  -0.59962  -0.58230
 Alpha  occ. eigenvalues --   -0.58218  -0.57267  -0.56553  -0.55140  -0.52673
 Alpha  occ. eigenvalues --   -0.52011  -0.51443  -0.51118  -0.50997  -0.50043
 Alpha  occ. eigenvalues --   -0.49271  -0.48290  -0.47533  -0.47035  -0.46397
 Alpha  occ. eigenvalues --   -0.44602  -0.43618  -0.41343  -0.41271  -0.39554
 Alpha  occ. eigenvalues --   -0.33484  -0.30831  -0.29984  -0.28375
 Alpha virt. eigenvalues --    0.00969   0.02796   0.03889   0.04672   0.05616
 Alpha virt. eigenvalues --    0.06001   0.06178   0.06503   0.07407   0.07522
 Alpha virt. eigenvalues --    0.07720   0.08303   0.08599   0.09261   0.09581
 Alpha virt. eigenvalues --    0.10027   0.10333   0.11663   0.12319   0.12792
 Alpha virt. eigenvalues --    0.13454   0.13778   0.13896   0.14407   0.14627
 Alpha virt. eigenvalues --    0.14926   0.15495   0.15830   0.16100   0.16550
 Alpha virt. eigenvalues --    0.17352   0.17593   0.17729   0.17837   0.18529
 Alpha virt. eigenvalues --    0.18589   0.18826   0.19017   0.19389   0.19934
 Alpha virt. eigenvalues --    0.20459   0.20535   0.21054   0.21243   0.21786
 Alpha virt. eigenvalues --    0.22088   0.22390   0.22745   0.23168   0.23487
 Alpha virt. eigenvalues --    0.23810   0.24357   0.24848   0.25285   0.25520
 Alpha virt. eigenvalues --    0.26194   0.26377   0.26585   0.26702   0.26854
 Alpha virt. eigenvalues --    0.27676   0.28365   0.28824   0.29687   0.29867
 Alpha virt. eigenvalues --    0.30067   0.30727   0.31480   0.31624   0.32032
 Alpha virt. eigenvalues --    0.32752   0.33390   0.33865   0.34134   0.34571
 Alpha virt. eigenvalues --    0.35402   0.35503   0.35878   0.36362   0.37167
 Alpha virt. eigenvalues --    0.37245   0.37637   0.37863   0.38817   0.38911
 Alpha virt. eigenvalues --    0.39399   0.39580   0.40279   0.41122   0.41592
 Alpha virt. eigenvalues --    0.42080   0.42341   0.42458   0.43084   0.43781
 Alpha virt. eigenvalues --    0.43964   0.44280   0.45483   0.46136   0.47105
 Alpha virt. eigenvalues --    0.48131   0.48976   0.49104   0.50449   0.51363
 Alpha virt. eigenvalues --    0.51677   0.52455   0.53429   0.54213   0.54842
 Alpha virt. eigenvalues --    0.55861   0.58513   0.58862   0.60302   0.61400
 Alpha virt. eigenvalues --    0.62596   0.62971   0.64076   0.64969   0.65382
 Alpha virt. eigenvalues --    0.66355   0.66987   0.67172   0.68664   0.68832
 Alpha virt. eigenvalues --    0.69489   0.69660   0.70975   0.71464   0.71540
 Alpha virt. eigenvalues --    0.72167   0.72385   0.72609   0.73415   0.73557
 Alpha virt. eigenvalues --    0.74922   0.75937   0.76007   0.77057   0.77877
 Alpha virt. eigenvalues --    0.78605   0.79146   0.79787   0.81065   0.81386
 Alpha virt. eigenvalues --    0.82152   0.83683   0.84333   0.85302   0.87272
 Alpha virt. eigenvalues --    0.87477   0.87912   0.89185   0.90560   0.91586
 Alpha virt. eigenvalues --    0.94708   0.96126   0.96477   0.97536   0.98310
 Alpha virt. eigenvalues --    0.99062   0.99747   1.01305   1.01846   1.02726
 Alpha virt. eigenvalues --    1.04394   1.05145   1.06579   1.06804   1.07724
 Alpha virt. eigenvalues --    1.09375   1.10508   1.10819   1.11902   1.12265
 Alpha virt. eigenvalues --    1.13270   1.14113   1.15493   1.16429   1.16733
 Alpha virt. eigenvalues --    1.17339   1.18609   1.19332   1.20530   1.21975
 Alpha virt. eigenvalues --    1.23107   1.23844   1.26764   1.29687   1.32160
 Alpha virt. eigenvalues --    1.32813   1.33862   1.34859   1.37194   1.38311
 Alpha virt. eigenvalues --    1.38593   1.39612   1.40580   1.42987   1.46373
 Alpha virt. eigenvalues --    1.47769   1.48755   1.51030   1.51894   1.52357
 Alpha virt. eigenvalues --    1.54130   1.55469   1.57190   1.59125   1.59308
 Alpha virt. eigenvalues --    1.60118   1.61366   1.62973   1.63759   1.64189
 Alpha virt. eigenvalues --    1.64936   1.65820   1.66084   1.66900   1.68621
 Alpha virt. eigenvalues --    1.69055   1.69348   1.70445   1.72407   1.73664
 Alpha virt. eigenvalues --    1.75042   1.76700   1.77635   1.77791   1.77990
 Alpha virt. eigenvalues --    1.79720   1.80235   1.81925   1.82507   1.82911
 Alpha virt. eigenvalues --    1.83088   1.85348   1.86759   1.87412   1.89140
 Alpha virt. eigenvalues --    1.90887   1.93075   1.95590   1.97607   1.98083
 Alpha virt. eigenvalues --    1.99077   1.99286   2.02151   2.03164   2.04992
 Alpha virt. eigenvalues --    2.05547   2.06601   2.07627   2.08199   2.09860
 Alpha virt. eigenvalues --    2.11246   2.11559   2.14131   2.15009   2.16354
 Alpha virt. eigenvalues --    2.17353   2.20244   2.20599   2.21929   2.22920
 Alpha virt. eigenvalues --    2.24395   2.24615   2.26344   2.29060   2.30132
 Alpha virt. eigenvalues --    2.31041   2.33197   2.38064   2.40683   2.42265
 Alpha virt. eigenvalues --    2.44676   2.46908   2.47117   2.51446   2.52027
 Alpha virt. eigenvalues --    2.53254   2.55146   2.55593   2.56716   2.57658
 Alpha virt. eigenvalues --    2.59416   2.60815   2.60982   2.62451   2.64456
 Alpha virt. eigenvalues --    2.65341   2.67010   2.68941   2.71183   2.71797
 Alpha virt. eigenvalues --    2.72830   2.74623   2.76137   2.77478   2.78633
 Alpha virt. eigenvalues --    2.79936   2.82682   2.83091   2.84643   2.85526
 Alpha virt. eigenvalues --    2.86012   2.88373   2.89178   2.89754   2.91917
 Alpha virt. eigenvalues --    2.92963   2.93332   2.96367   2.96580   2.98526
 Alpha virt. eigenvalues --    2.99085   2.99952   3.02158   3.05193   3.08445
 Alpha virt. eigenvalues --    3.10499   3.13329   3.15271   3.15329   3.19814
 Alpha virt. eigenvalues --    3.20799   3.23141   3.23956   3.25308   3.26705
 Alpha virt. eigenvalues --    3.27131   3.31439   3.32018   3.32856   3.35160
 Alpha virt. eigenvalues --    3.38076   3.43775   3.44935   3.52599   3.56189
 Alpha virt. eigenvalues --    3.58130   3.62027   3.64108   3.67829   3.68969
 Alpha virt. eigenvalues --    3.72551   3.75103   3.77477   3.80633   3.82331
 Alpha virt. eigenvalues --    3.84086   3.85301   3.87282   3.90493   3.92986
 Alpha virt. eigenvalues --    3.94284   3.95247   4.04916   4.09502   4.13711
 Alpha virt. eigenvalues --    4.19629   4.21411   4.28769   4.31176   4.34783
 Alpha virt. eigenvalues --    4.40938   4.66237   4.96091   4.99066   5.14580
 Alpha virt. eigenvalues --    5.14986   5.18187   5.19747   5.44735   5.51776
 Alpha virt. eigenvalues --    5.63668   5.87974   5.93713   5.97694  23.75249
 Alpha virt. eigenvalues --   23.95074  24.04246  24.04964  24.05790  24.06396
 Alpha virt. eigenvalues --   24.07736  24.08775  24.16688  24.25763  24.31060
 Alpha virt. eigenvalues --   24.32895  35.70748  50.10869  50.15001  50.20820
          Condensed to atoms (all electrons):
               1          2          3          4          5          6
     1  C    5.317107   0.387879   0.413203  -0.084871   0.018185   0.252320
     2  H    0.387879   0.493604  -0.021270   0.005113  -0.006943  -0.049652
     3  H    0.413203  -0.021270   0.529932  -0.007713   0.001611  -0.056407
     4  C   -0.084871   0.005113  -0.007713   5.194774   0.389078   0.272297
     5  H    0.018185  -0.006943   0.001611   0.389078   0.565794  -0.048117
     6  N    0.252320  -0.049652  -0.056407   0.272297  -0.048117   6.841021
     7  H    0.413324  -0.021061  -0.052642   0.011791   0.001648  -0.034084
     8  H   -0.002928   0.004072  -0.000633   0.412396  -0.032565  -0.086638
     9  H   -0.017130  -0.002435   0.003297   0.414995  -0.065314  -0.050756
    10  C    0.064868   0.024972  -0.018663  -0.007595  -0.055481   0.226727
    11  H    0.009490  -0.000965  -0.003123  -0.040480   0.005494  -0.069543
    12  C    0.627433   0.039745  -0.009208  -0.123704   0.043977  -0.285828
    13  C   -0.551559  -0.029506   0.029858  -0.125465   0.000144  -0.005416
    14  H    0.053538   0.003360  -0.013469  -0.008124  -0.000211  -0.029645
    15  O   -0.001155   0.000149   0.000021   0.001062  -0.000148   0.003826
    16  C   -0.393177  -0.011484   0.013243   0.022204  -0.003991  -0.001424
    17  C   -0.074390  -0.001200   0.001637  -0.001215  -0.000877   0.009321
    18  C    0.020360  -0.003496   0.000469  -0.014916   0.000880  -0.007841
    19  O    0.000001  -0.000004   0.000040   0.000234   0.000008  -0.000191
    20  C   -0.000557   0.000039  -0.000814  -0.000747   0.000001   0.000216
    21  C    0.002165   0.000112  -0.000231   0.001324   0.000000   0.001494
    22  H   -0.009680  -0.000728   0.000682  -0.002117  -0.000009  -0.007704
    23  H   -0.001182  -0.000088   0.000078   0.000158  -0.000005   0.000097
    24  H    0.000072   0.000002  -0.000015   0.000021   0.000001  -0.000015
    25  C   -0.005901  -0.000128  -0.000002  -0.000186  -0.000038   0.000547
    26  H   -0.000007  -0.000006  -0.000015   0.000108   0.000004   0.000390
    27  O    0.000004   0.000000   0.000003   0.000001   0.000000   0.000000
    28  C   -0.000135  -0.000003   0.000013   0.000006   0.000000   0.000005
    29  H    0.000004   0.000000   0.000004  -0.000001   0.000000  -0.000004
    30  H    0.000001   0.000000  -0.000001   0.000000   0.000000   0.000000
    31  H   -0.000017  -0.000001   0.000002  -0.000001   0.000000  -0.000003
               7          8          9         10         11         12
     1  C    0.413324  -0.002928  -0.017130   0.064868   0.009490   0.627433
     2  H   -0.021061   0.004072  -0.002435   0.024972  -0.000965   0.039745
     3  H   -0.052642  -0.000633   0.003297  -0.018663  -0.003123  -0.009208
     4  C    0.011791   0.412396   0.414995  -0.007595  -0.040480  -0.123704
     5  H    0.001648  -0.032565  -0.065314  -0.055481   0.005494   0.043977
     6  N   -0.034084  -0.086638  -0.050756   0.226727  -0.069543  -0.285828
     7  H    0.536227  -0.002859  -0.001625   0.041206   0.003138  -0.075753
     8  H   -0.002859   0.528572  -0.020505   0.050476  -0.007661  -0.021294
     9  H   -0.001625  -0.020505   0.564206  -0.005215   0.000082   0.007747
    10  C    0.041206   0.050476  -0.005215  12.344598   0.206603   1.876947
    11  H    0.003138  -0.007661   0.000082   0.206603   0.473373   0.164195
    12  C   -0.075753  -0.021294   0.007747   1.876947   0.164195  25.980294
    13  C   -0.019155   0.018418   0.001110  -4.555506   0.142806   0.209900
    14  H    0.013612  -0.004778   0.001275  -0.051457   0.000722   1.154923
    15  O    0.000805   0.001127   0.000035   0.201300   0.008375  -0.371219
    16  C    0.016155   0.015367   0.000848  -1.271937  -0.091703 -12.847516
    17  C    0.003000   0.005037  -0.000133  -1.261925  -0.062065  -6.590955
    18  C   -0.008343  -0.003212   0.000413  -1.807424   0.045812  -0.136176
    19  O    0.000027  -0.000049  -0.000001   0.024150  -0.000122  -0.006103
    20  C   -0.000985   0.000255   0.000027  -0.525676  -0.008974  -0.994243
    21  C    0.000094  -0.000063  -0.000073   0.309755   0.000132  -0.710676
    22  H   -0.005099   0.000664  -0.000152  -0.175418   0.002852  -0.351021
    23  H   -0.000011   0.000064   0.000032  -0.009553   0.000486  -0.010467
    24  H   -0.000023   0.000001   0.000001  -0.001604  -0.000235   0.002948
    25  C   -0.000137   0.000162  -0.000004  -0.137413  -0.002247  -1.280380
    26  H    0.000062  -0.000009   0.000005   0.010499  -0.000295   0.035346
    27  O    0.000004   0.000000   0.000000   0.001199   0.000025   0.003379
    28  C    0.000006   0.000002   0.000000   0.002894  -0.000066  -0.019944
    29  H    0.000004   0.000000   0.000000  -0.000109   0.000011  -0.000796
    30  H   -0.000001   0.000000   0.000000   0.000113  -0.000002   0.000046
    31  H    0.000010   0.000000   0.000000  -0.000208   0.000010  -0.001776
              13         14         15         16         17         18
     1  C   -0.551559   0.053538  -0.001155  -0.393177  -0.074390   0.020360
     2  H   -0.029506   0.003360   0.000149  -0.011484  -0.001200  -0.003496
     3  H    0.029858  -0.013469   0.000021   0.013243   0.001637   0.000469
     4  C   -0.125465  -0.008124   0.001062   0.022204  -0.001215  -0.014916
     5  H    0.000144  -0.000211  -0.000148  -0.003991  -0.000877   0.000880
     6  N   -0.005416  -0.029645   0.003826  -0.001424   0.009321  -0.007841
     7  H   -0.019155   0.013612   0.000805   0.016155   0.003000  -0.008343
     8  H    0.018418  -0.004778   0.001127   0.015367   0.005037  -0.003212
     9  H    0.001110   0.001275   0.000035   0.000848  -0.000133   0.000413
    10  C   -4.555506  -0.051457   0.201300  -1.271937  -1.261925  -1.807424
    11  H    0.142806   0.000722   0.008375  -0.091703  -0.062065   0.045812
    12  C    0.209900   1.154923  -0.371219 -12.847516  -6.590955  -0.136176
    13  C   21.964211  -0.138492   0.926553  -0.330781  -4.800883   0.310034
    14  H   -0.138492   0.756237  -0.014854  -0.458555  -0.049347  -0.130339
    15  O    0.926553  -0.014854   8.141643  -0.142174  -0.172764  -0.234755
    16  C   -0.330781  -0.458555  -0.142174  25.981058   4.850911  -4.801872
    17  C   -4.800883  -0.049347  -0.172764   4.850911  17.343518  -5.048152
    18  C    0.310034  -0.130339  -0.234755  -4.801872  -5.048152  16.748087
    19  O   -0.034470  -0.000667   0.013432   0.167491   0.343421  -0.022608
    20  C   -1.721247   0.030481  -0.086228  -3.956036   1.820679   0.709454
    21  C   -1.643045  -0.141533   0.011565  -1.630634  -0.385734   2.079190
    22  H   -0.004078  -0.073491   0.000645  -0.019429  -0.009325   0.762541
    23  H    0.028420  -0.001466   0.067773  -0.174488   0.028022   0.050204
    24  H    0.002375   0.000843   0.000729  -0.148169  -0.069949  -0.007464
    25  C   -2.823322  -0.030513  -0.030153  -1.100651  -0.587746  -0.389712
    26  H    0.029990   0.012357   0.000545   0.091405   0.040206  -0.047138
    27  O   -0.001474  -0.000716  -0.000005   0.033928  -0.082787  -0.002883
    28  C   -0.078619  -0.002234   0.000140  -0.146427   0.066006  -0.215351
    29  H   -0.001268  -0.000707  -0.000013  -0.001415  -0.010080  -0.001527
    30  H   -0.001652   0.000000   0.000010  -0.008219   0.004184  -0.008016
    31  H   -0.002143  -0.000565  -0.000013  -0.001972  -0.011149   0.003029
              19         20         21         22         23         24
     1  C    0.000001  -0.000557   0.002165  -0.009680  -0.001182   0.000072
     2  H   -0.000004   0.000039   0.000112  -0.000728  -0.000088   0.000002
     3  H    0.000040  -0.000814  -0.000231   0.000682   0.000078  -0.000015
     4  C    0.000234  -0.000747   0.001324  -0.002117   0.000158   0.000021
     5  H    0.000008   0.000001   0.000000  -0.000009  -0.000005   0.000001
     6  N   -0.000191   0.000216   0.001494  -0.007704   0.000097  -0.000015
     7  H    0.000027  -0.000985   0.000094  -0.005099  -0.000011  -0.000023
     8  H   -0.000049   0.000255  -0.000063   0.000664   0.000064   0.000001
     9  H   -0.000001   0.000027  -0.000073  -0.000152   0.000032   0.000001
    10  C    0.024150  -0.525676   0.309755  -0.175418  -0.009553  -0.001604
    11  H   -0.000122  -0.008974   0.000132   0.002852   0.000486  -0.000235
    12  C   -0.006103  -0.994243  -0.710676  -0.351021  -0.010467   0.002948
    13  C   -0.034470  -1.721247  -1.643045  -0.004078   0.028420   0.002375
    14  H   -0.000667   0.030481  -0.141533  -0.073491  -0.001466   0.000843
    15  O    0.013432  -0.086228   0.011565   0.000645   0.067773   0.000729
    16  C    0.167491  -3.956036  -1.630634  -0.019429  -0.174488  -0.148169
    17  C    0.343421   1.820679  -0.385734  -0.009325   0.028022  -0.069949
    18  C   -0.022608   0.709454   2.079190   0.762541   0.050204  -0.007464
    19  O    8.101782  -0.502477   0.017501  -0.002552   0.255777  -0.027514
    20  C   -0.502477  14.191659  -3.130917   0.022316   0.080230   0.697119
    21  C    0.017501  -3.130917  10.850303   0.087479   0.015411  -0.069449
    22  H   -0.002552   0.022316   0.087479   0.641587   0.002078  -0.000165
    23  H    0.255777   0.080230   0.015411   0.002078   0.301208   0.003031
    24  H   -0.027514   0.697119  -0.069449  -0.000165   0.003031   0.460006
    25  C   -0.019232   0.492308   0.242295   0.112724  -0.005653  -0.075486
    26  H    0.000454  -0.003240   0.369388  -0.043614   0.000185   0.000137
    27  O   -0.001452  -0.672031   0.287229   0.001266  -0.000521  -0.019928
    28  C   -0.000503   0.109583  -0.231862   0.012758   0.000429   0.004389
    29  H    0.000003  -0.020454   0.035998   0.004201  -0.000039  -0.000742
    30  H    0.000035   0.016736  -0.013063   0.000027   0.000069   0.000501
    31  H   -0.000017  -0.021706   0.039518   0.003651  -0.000037  -0.000635
              25         26         27         28         29         30
     1  C   -0.005901  -0.000007   0.000004  -0.000135   0.000004   0.000001
     2  H   -0.000128  -0.000006   0.000000  -0.000003   0.000000   0.000000
     3  H   -0.000002  -0.000015   0.000003   0.000013   0.000004  -0.000001
     4  C   -0.000186   0.000108   0.000001   0.000006  -0.000001   0.000000
     5  H   -0.000038   0.000004   0.000000   0.000000   0.000000   0.000000
     6  N    0.000547   0.000390   0.000000   0.000005  -0.000004   0.000000
     7  H   -0.000137   0.000062   0.000004   0.000006   0.000004  -0.000001
     8  H    0.000162  -0.000009   0.000000   0.000002   0.000000   0.000000
     9  H   -0.000004   0.000005   0.000000   0.000000   0.000000   0.000000
    10  C   -0.137413   0.010499   0.001199   0.002894  -0.000109   0.000113
    11  H   -0.002247  -0.000295   0.000025  -0.000066   0.000011  -0.000002
    12  C   -1.280380   0.035346   0.003379  -0.019944  -0.000796   0.000046
    13  C   -2.823322   0.029990  -0.001474  -0.078619  -0.001268  -0.001652
    14  H   -0.030513   0.012357  -0.000716  -0.002234  -0.000707   0.000000
    15  O   -0.030153   0.000545  -0.000005   0.000140  -0.000013   0.000010
    16  C   -1.100651   0.091405   0.033928  -0.146427  -0.001415  -0.008219
    17  C   -0.587746   0.040206  -0.082787   0.066006  -0.010080   0.004184
    18  C   -0.389712  -0.047138  -0.002883  -0.215351  -0.001527  -0.008016
    19  O   -0.019232   0.000454  -0.001452  -0.000503   0.000003   0.000035
    20  C    0.492308  -0.003240  -0.672031   0.109583  -0.020454   0.016736
    21  C    0.242295   0.369388   0.287229  -0.231862   0.035998  -0.013063
    22  H    0.112724  -0.043614   0.001266   0.012758   0.004201   0.000027
    23  H   -0.005653   0.000185  -0.000521   0.000429  -0.000039   0.000069
    24  H   -0.075486   0.000137  -0.019928   0.004389  -0.000742   0.000501
    25  C   12.038093  -0.198776   0.351032   0.236853  -0.024339   0.051959
    26  H   -0.198776   0.527168  -0.022371  -0.026603  -0.015761   0.003889
    27  O    0.351032  -0.022371   8.188178   0.196164  -0.029609  -0.069933
    28  C    0.236853  -0.026603   0.196164   5.269848   0.409890   0.392760
    29  H   -0.024339  -0.015761  -0.029609   0.409890   0.577753  -0.019778
    30  H    0.051959   0.003889  -0.069933   0.392760  -0.019778   0.454719
    31  H   -0.025959  -0.015243  -0.030382   0.409342  -0.063226  -0.020527
              31
     1  C   -0.000017
     2  H   -0.000001
     3  H    0.000002
     4  C   -0.000001
     5  H    0.000000
     6  N   -0.000003
     7  H    0.000010
     8  H    0.000000
     9  H    0.000000
    10  C   -0.000208
    11  H    0.000010
    12  C   -0.001776
    13  C   -0.002143
    14  H   -0.000565
    15  O   -0.000013
    16  C   -0.001972
    17  C   -0.011149
    18  C    0.003029
    19  O   -0.000017
    20  C   -0.021706
    21  C    0.039518
    22  H    0.003651
    23  H   -0.000037
    24  H   -0.000635
    25  C   -0.025959
    26  H   -0.015243
    27  O   -0.030382
    28  C    0.409342
    29  H   -0.063226
    30  H   -0.020527
    31  H    0.579126
 Mulliken charges:
               1
     1  C   -0.437265
     2  H    0.189922
     3  H    0.190113
     4  C   -0.308428
     5  H    0.186874
     6  N    0.125009
     7  H    0.180665
     8  H    0.146581
     9  H    0.169272
    10  C    0.498877
    11  H    0.223873
    12  C   -0.309819
    13  C   -0.795737
    14  H    0.123814
    15  O   -0.326254
    16  C    2.349443
    17  C    0.704735
    18  C   -1.839246
    19  O   -0.306396
    20  C   -0.524773
    21  C   -0.393670
    22  H    0.049112
    23  H    0.369760
    24  H    0.249217
    25  C   -0.787991
    26  H    0.250938
    27  O   -0.128322
    28  C   -0.389338
    29  H    0.161999
    30  H    0.216143
    31  H    0.160893
 Sum of Mulliken charges =   0.00000
 Mulliken charges with hydrogens summed into heavy atoms:
               1
     1  C    0.123435
     4  C    0.194299
     6  N    0.125009
    10  C    0.722750
    12  C   -0.186005
    13  C   -0.795737
    15  O   -0.326254
    16  C    2.349443
    17  C    0.704735
    18  C   -1.790135
    19  O    0.063364
    20  C   -0.275556
    21  C   -0.142732
    25  C   -0.787991
    27  O   -0.128322
    28  C    0.149697
 Electronic spatial extent (au):  <R**2>=           5724.5416
 Charge=              0.0000 electrons
 Dipole moment (field-independent basis, Debye):
    X=             -4.4122    Y=             -6.0537    Z=             -0.1949  Tot=              7.4935
 Quadrupole moment (field-independent basis, Debye-Ang):
   XX=            -61.4339   YY=            -94.8002   ZZ=            -99.0752
   XY=             -4.4904   XZ=              0.6339   YZ=             -0.2855
 Traceless Quadrupole moment (field-independent basis, Debye-Ang):
   XX=             23.6692   YY=             -9.6971   ZZ=            -13.9721
   XY=             -4.4904   XZ=              0.6339   YZ=             -0.2855
 Octapole moment (field-independent basis, Debye-Ang**2):
  XXX=           -114.8132  YYY=            -31.9803  ZZZ=             -0.7013  XYY=              0.9298
  XXY=            -61.0379  XXZ=             -4.4041  XZZ=             -1.4895  YZZ=              2.6650
  YYZ=              0.3317  XYZ=              1.7108
 Hexadecapole moment (field-independent basis, Debye-Ang**3):
 XXXX=          -5108.1644 YYYY=          -1201.4446 ZZZZ=           -129.2383 XXXY=           -146.0208
 XXXZ=              7.7794 YYYX=            -34.7789 YYYZ=             -1.8164 ZZZX=              3.2860
 ZZZY=              0.6569 XXYY=          -1089.0665 XXZZ=          -1087.9465 YYZZ=           -219.9254
 XXYZ=             -4.7631 YYXZ=             -4.3739 ZZXY=             -1.7821
 N-N= 1.047396047356D+03 E-N=-3.837657906861D+03  KE= 7.437828358358D+02
 Calling FoFJK, ICntrl=  10005127 FMM=F ISym2X=0 I1Cent= 0 IOpClX= 0 NMat=1 NMatS=1 NMatT=0.
 ***** Axes restored to original set *****
 -------------------------------------------------------------------
 Center     Atomic                   Forces (Hartrees/Bohr)
 Number     Number              X              Y              Z
 -------------------------------------------------------------------
      1        6           0.002597769   -0.002696185    0.000995624
      2        1           0.000039501    0.000071839   -0.000140232
      3        1          -0.000565486    0.000568694   -0.001012261
      4        6          -0.002763075   -0.000259522    0.001186007
      5        1           0.000055877    0.000605089   -0.001011165
      6        7           0.008145997    0.008801046    0.001379262
      7        1          -0.000645815    0.000283941    0.000357362
      8        1          -0.000365571    0.000130382    0.000009693
      9        1           0.000114146    0.000689558    0.000165903
     10        6           0.013081852   -0.016800786   -0.004580980
     11        1          -0.001134023   -0.000001515    0.000222617
     12        6          -0.017925254    0.006468943    0.001485341
     13        6          -0.026346103    0.035437089    0.003429404
     14        1           0.000220900    0.000913222    0.001445439
     15        8           0.008019713   -0.042384129   -0.006585572
     16        6           0.040757002    0.004266322   -0.000884469
     17        6          -0.027067451   -0.015942644   -0.000537377
     18        6           0.005557743    0.011030822    0.003235388
     19        8          -0.004282326    0.012230670    0.002136252
     20        6           0.001851048   -0.007923407   -0.002842132
     21        6          -0.002191934   -0.000711285   -0.000005487
     22        1          -0.000328074   -0.000614549   -0.000216712
     23        1           0.013193891    0.000460182    0.000453614
     24        1           0.000210747   -0.000080512    0.000047339
     25        6          -0.006396379    0.004174263    0.001055681
     26        1          -0.000252323    0.000442954   -0.000303823
     27        8          -0.003330241    0.001793867    0.000595342
     28        6          -0.000516729   -0.001378954   -0.000145753
     29        1           0.000135260    0.000197225   -0.000308039
     30        1          -0.000006542    0.000116474    0.000025519
     31        1           0.000135883    0.000110907    0.000348217
 -------------------------------------------------------------------
 Cartesian Forces:  Max     0.042384129 RMS     0.009400550

 GradGradGradGradGradGradGradGradGradGradGradGradGradGradGradGradGradGrad
 Berny optimization.
 FormGI is forming the generalized inverse of G from B-inverse, IUseBI=4.
 Internal  Forces:  Max     0.043480961 RMS     0.005923205
 Search for a local minimum.
 Step number   1 out of a maximum of  150
 All quantities printed in internal units (Hartrees-Bohrs-Radians)
 Mixed Optimization -- RFO/linear search
 Second derivative matrix not updated -- first step.
 ITU=  0
     Eigenvalues ---    0.01035   0.01036   0.01068   0.01215   0.01388
     Eigenvalues ---    0.01464   0.01536   0.01679   0.01952   0.02009
     Eigenvalues ---    0.02108   0.02144   0.02178   0.02198   0.02222
     Eigenvalues ---    0.02235   0.02251   0.02329   0.02422   0.02524
     Eigenvalues ---    0.02583   0.02623   0.07389   0.07413   0.07601
     Eigenvalues ---    0.07635   0.10085   0.10703   0.16000   0.16000
     Eigenvalues ---    0.16000   0.16000   0.16000   0.16000   0.16000
     Eigenvalues ---    0.16000   0.16000   0.16000   0.16000   0.16000
     Eigenvalues ---    0.16000   0.16000   0.16000   0.22000   0.22000
     Eigenvalues ---    0.22368   0.23488   0.24535   0.24600   0.24697
     Eigenvalues ---    0.25000   0.25000   0.25000   0.25000   0.25000
     Eigenvalues ---    0.25000   0.33995   0.34085   0.34194   0.34198
     Eigenvalues ---    0.34379   0.34392   0.34619   0.34813   0.34831
     Eigenvalues ---    0.34970   0.35259   0.35702   0.35730   0.35878
     Eigenvalues ---    0.36091   0.37862   0.38292   0.38622   0.40329
     Eigenvalues ---    0.42735   0.43718   0.44191   0.46210   0.47362
     Eigenvalues ---    0.48241   0.49881   0.53029   0.54639   0.56141
     Eigenvalues ---    0.58888   0.85027
 RFO step:  Lambda=-1.14855424D-02 EMin= 1.03513350D-02
 Linear search not attempted -- first point.
 Iteration  1 RMS(Cart)=  0.08653098 RMS(Int)=  0.00168586
 Iteration  2 RMS(Cart)=  0.00350909 RMS(Int)=  0.00011172
 Iteration  3 RMS(Cart)=  0.00000808 RMS(Int)=  0.00011165
 Iteration  4 RMS(Cart)=  0.00000000 RMS(Int)=  0.00011165
 Variable       Old X    -DE/DX   Delta X   Delta X   Delta X     New X
                                 (Linear)    (Quad)   (Total)
    R1        2.05980   0.00004   0.00000   0.00010   0.00010   2.05991
    R2        2.07339   0.00128   0.00000   0.00365   0.00365   2.07705
    R3        2.73471  -0.00162   0.00000  -0.00407  -0.00407   2.73063
    R4        2.06694   0.00069   0.00000   0.00194   0.00194   2.06888
    R5        2.07187   0.00112   0.00000   0.00317   0.00317   2.07505
    R6        2.73942  -0.00313   0.00000  -0.00794  -0.00794   2.73149
    R7        2.05950  -0.00007   0.00000  -0.00020  -0.00020   2.05931
    R8        2.06674   0.00028   0.00000   0.00080   0.00080   2.06754
    R9        2.54132   0.00977   0.00000   0.01706   0.01706   2.55838
   R10        2.05257  -0.00009   0.00000  -0.00025  -0.00025   2.05232
   R11        2.56927   0.02058   0.00000   0.03799   0.03799   2.60726
   R12        2.74566   0.00003   0.00000   0.00007   0.00007   2.74573
   R13        2.03940   0.00117   0.00000   0.00313   0.00313   2.04253
   R14        2.35313   0.04348   0.00000   0.05046   0.05046   2.40358
   R15        2.79598  -0.01273   0.00000  -0.03560  -0.03560   2.76038
   R16        2.68684   0.01532   0.00000   0.03555   0.03556   2.72241
   R17        2.64292   0.00972   0.00000   0.02147   0.02152   2.66444
   R18        2.51831  -0.01206   0.00000  -0.02009  -0.02009   2.49822
   R19        2.62914  -0.00245   0.00000  -0.00565  -0.00568   2.62346
   R20        2.61151   0.01063   0.00000   0.02187   0.02190   2.63341
   R21        2.04551  -0.00066   0.00000  -0.00179  -0.00179   2.04371
   R22        1.86686   0.01282   0.00000   0.02513   0.02513   1.89199
   R23        2.04505  -0.00012   0.00000  -0.00032  -0.00032   2.04473
   R24        2.62053   0.00700   0.00000   0.01353   0.01348   2.63401
   R25        2.64930   0.00898   0.00000   0.01914   0.01912   2.66842
   R26        2.04273   0.00041   0.00000   0.00111   0.00111   2.04384
   R27        2.55454   0.00371   0.00000   0.00664   0.00664   2.56119
   R28        2.66794  -0.00090   0.00000  -0.00201  -0.00201   2.66593
   R29        2.06997   0.00039   0.00000   0.00109   0.00109   2.07107
   R30        2.05724   0.00002   0.00000   0.00005   0.00005   2.05729
   R31        2.07004   0.00039   0.00000   0.00109   0.00109   2.07113
    A1        1.89702   0.00002   0.00000  -0.00025  -0.00025   1.89676
    A2        1.90904   0.00015   0.00000   0.00140   0.00140   1.91044
    A3        1.89195   0.00013   0.00000   0.00213   0.00213   1.89408
    A4        1.94600  -0.00036   0.00000  -0.00279  -0.00279   1.94322
    A5        1.89339  -0.00012   0.00000  -0.00166  -0.00166   1.89172
    A6        1.92542   0.00019   0.00000   0.00126   0.00126   1.92669
    A7        1.94527  -0.00049   0.00000  -0.00347  -0.00348   1.94179
    A8        1.89304   0.00034   0.00000   0.00175   0.00175   1.89480
    A9        1.89505   0.00024   0.00000   0.00036   0.00035   1.89540
   A10        1.91115  -0.00027   0.00000  -0.00105  -0.00105   1.91010
   A11        1.92699  -0.00038   0.00000  -0.00212  -0.00212   1.92486
   A12        1.89121   0.00061   0.00000   0.00484   0.00484   1.89605
   A13        2.05763  -0.00085   0.00000  -0.00342  -0.00342   2.05421
   A14        2.09735   0.00275   0.00000   0.01057   0.01056   2.10791
   A15        2.11188  -0.00191   0.00000  -0.00759  -0.00759   2.10429
   A16        2.01721   0.00301   0.00000   0.01479   0.01479   2.03200
   A17        2.21885  -0.00370   0.00000  -0.01596  -0.01596   2.20289
   A18        2.04709   0.00068   0.00000   0.00119   0.00119   2.04828
   A19        2.06289   0.00251   0.00000   0.01085   0.01079   2.07368
   A20        2.11419  -0.00153   0.00000  -0.00701  -0.00707   2.10712
   A21        2.10608  -0.00097   0.00000  -0.00371  -0.00377   2.10231
   A22        2.10191  -0.00264   0.00000  -0.01007  -0.01058   2.09133
   A23        2.10100  -0.00235   0.00000  -0.00894  -0.00946   2.09153
   A24        2.08028   0.00499   0.00000   0.01913   0.01859   2.09887
   A25        2.08675  -0.01459   0.00000  -0.05680  -0.05683   2.02992
   A26        2.14986   0.01883   0.00000   0.07101   0.07098   2.22084
   A27        2.04657  -0.00423   0.00000  -0.01421  -0.01416   2.03241
   A28        2.13256  -0.01962   0.00000  -0.07475  -0.07472   2.05783
   A29        2.10033   0.00830   0.00000   0.03121   0.03116   2.13148
   A30        2.05030   0.01132   0.00000   0.04354   0.04357   2.09387
   A31        2.14415  -0.00567   0.00000  -0.02155  -0.02151   2.12263
   A32        2.08758   0.00254   0.00000   0.00905   0.00898   2.09656
   A33        2.05146   0.00312   0.00000   0.01245   0.01238   2.06383
   A34        1.85350  -0.00560   0.00000  -0.03264  -0.03264   1.82086
   A35        2.08440   0.00123   0.00000   0.00631   0.00635   2.09076
   A36        2.10378  -0.00285   0.00000  -0.01486  -0.01500   2.08878
   A37        2.09500   0.00162   0.00000   0.00857   0.00860   2.10360
   A38        2.07161   0.00613   0.00000   0.02750   0.02749   2.09910
   A39        2.08742  -0.00287   0.00000  -0.01263  -0.01263   2.07478
   A40        2.12415  -0.00326   0.00000  -0.01487  -0.01488   2.10928
   A41        2.09992  -0.00168   0.00000  -0.00802  -0.00812   2.09180
   A42        2.02040   0.00008   0.00000   0.00111   0.00116   2.02156
   A43        2.16287   0.00160   0.00000   0.00691   0.00695   2.16982
   A44        2.07187   0.00095   0.00000   0.00363   0.00363   2.07550
   A45        1.94453  -0.00008   0.00000  -0.00051  -0.00051   1.94402
   A46        1.84767   0.00018   0.00000   0.00112   0.00112   1.84879
   A47        1.94469  -0.00002   0.00000  -0.00015  -0.00015   1.94454
   A48        1.90659  -0.00004   0.00000  -0.00018  -0.00018   1.90642
   A49        1.91207   0.00002   0.00000   0.00004   0.00004   1.91211
   A50        1.90680  -0.00006   0.00000  -0.00030  -0.00030   1.90650
    D1       -0.30468  -0.00005   0.00000  -0.00239  -0.00239  -0.30707
    D2        3.02810   0.00026   0.00000   0.00106   0.00107   3.02917
    D3        1.79395  -0.00015   0.00000  -0.00356  -0.00356   1.79039
    D4       -1.15646   0.00015   0.00000  -0.00011  -0.00010  -1.15656
    D5       -2.38421  -0.00042   0.00000  -0.00664  -0.00665  -2.39086
    D6        0.94857  -0.00012   0.00000  -0.00320  -0.00319   0.94537
    D7       -1.11533  -0.00020   0.00000  -0.00557  -0.00558  -1.12091
    D8        1.83340   0.00003   0.00000  -0.00695  -0.00695   1.82646
    D9        3.07326  -0.00013   0.00000  -0.00486  -0.00487   3.06839
   D10       -0.26119   0.00010   0.00000  -0.00625  -0.00624  -0.26742
   D11        0.99237  -0.00048   0.00000  -0.00886  -0.00887   0.98350
   D12       -2.34208  -0.00025   0.00000  -0.01025  -0.01024  -2.35232
   D13        3.11131   0.00022   0.00000   0.00715   0.00714   3.11845
   D14       -0.04022   0.00033   0.00000   0.01006   0.01006  -0.03016
   D15        0.16693   0.00040   0.00000   0.01016   0.01016   0.17709
   D16       -2.98460   0.00050   0.00000   0.01307   0.01308  -2.97152
   D17       -3.11278   0.00034   0.00000   0.01069   0.01068  -3.10210
   D18        0.03582  -0.00028   0.00000  -0.00907  -0.00906   0.02676
   D19        0.01873   0.00046   0.00000   0.01370   0.01369   0.03242
   D20       -3.11585  -0.00017   0.00000  -0.00606  -0.00605  -3.12190
   D21        0.02912   0.00096   0.00000   0.04227   0.04200   0.07111
   D22       -3.11011  -0.00047   0.00000  -0.01827  -0.01802  -3.12813
   D23       -3.11945   0.00158   0.00000   0.06192   0.06167  -3.05779
   D24        0.02450   0.00015   0.00000   0.00138   0.00165   0.02616
   D25       -3.12572   0.00085   0.00000   0.03709   0.03728  -3.08844
[...]
 Alpha virt. eigenvalues --    2.10130   2.11658   2.12274   2.13705   2.15355
 Alpha virt. eigenvalues --    2.15565   2.17470   2.17945   2.19115   2.20366
 Alpha virt. eigenvalues --    2.20995   2.21130   2.23030   2.24220   2.25654
 Alpha virt. eigenvalues --    2.30588   2.31076   2.31909   2.34148   2.36864
 Alpha virt. eigenvalues --    2.39462   2.41373   2.43016   2.46721   2.48168
 Alpha virt. eigenvalues --    2.49962   2.50908   2.54247   2.56472   2.56754
 Alpha virt. eigenvalues --    2.57727   2.58528   2.60263   2.60502   2.60943
 Alpha virt. eigenvalues --    2.63201   2.63628   2.67072   2.67877   2.68750
 Alpha virt. eigenvalues --    2.69756   2.70759   2.73475   2.73999   2.75995
 Alpha virt. eigenvalues --    2.76648   2.79930   2.80374   2.83438   2.84533
 Alpha virt. eigenvalues --    2.85801   2.87415   2.88451   2.89831   2.90633
 Alpha virt. eigenvalues --    2.91890   2.93183   2.93432   2.94494   2.98405
 Alpha virt. eigenvalues --    3.00318   3.00428   3.01414   3.01985   3.05406
 Alpha virt. eigenvalues --    3.05984   3.07011   3.08753   3.12603   3.13420
 Alpha virt. eigenvalues --    3.15633   3.18610   3.20738   3.22133   3.23490
 Alpha virt. eigenvalues --    3.26233   3.26292   3.30181   3.32722   3.35453
 Alpha virt. eigenvalues --    3.38364   3.41273   3.45195   3.47316   3.51073
 Alpha virt. eigenvalues --    3.52431   3.55350   3.58577   3.59163   3.63261
 Alpha virt. eigenvalues --    3.66600   3.67902   3.74396   3.74945   3.80413
 Alpha virt. eigenvalues --    3.80522   3.83409   3.84702   3.87567   3.88198
 Alpha virt. eigenvalues --    3.89983   3.95092   3.96210   3.98960   4.03853
 Alpha virt. eigenvalues --    4.10703   4.20594   4.23707   4.28164   4.32169
 Alpha virt. eigenvalues --    4.34715   4.39803   4.49478   4.93680   4.97158
 Alpha virt. eigenvalues --    5.07339   5.16381   5.18420   5.29962   5.44298
 Alpha virt. eigenvalues --    5.52069   5.54506   5.80632   5.92996   5.98689
 Alpha virt. eigenvalues --   23.75096  23.87726  23.99989  24.01683  24.03379
 Alpha virt. eigenvalues --   24.06815  24.08410  24.13076  24.19982  24.24597
 Alpha virt. eigenvalues --   24.30245  24.35689  35.61298  50.03523  50.14015
 Alpha virt. eigenvalues --   50.27643
          Condensed to atoms (all electrons):
               1          2          3          4          5          6
     1  C    5.373853   0.370087   0.419415  -0.147907   0.018029   0.290060
     2  H    0.370087   0.493183  -0.027096   0.006612  -0.005119  -0.040532
     3  H    0.419415  -0.027096   0.496611  -0.022896   0.007126  -0.047685
     4  C   -0.147907   0.006612  -0.022896   5.287330   0.399606   0.255105
     5  H    0.018029  -0.005119   0.007126   0.399606   0.533754  -0.025602
     6  N    0.290060  -0.040532  -0.047685   0.255105  -0.025602   6.664116
     7  H    0.395395  -0.018454  -0.036949   0.016619  -0.000263  -0.029841
     8  H   -0.001899   0.002567  -0.001109   0.395041  -0.041685  -0.072852
     9  H   -0.024264   0.005055   0.000989   0.412175  -0.053770  -0.045825
    10  C   -0.357443   0.012546   0.021352  -0.142239  -0.084294   0.114434
    11  H    0.018826  -0.000196  -0.002044  -0.015113   0.007277  -0.054977
    12  C    0.408630   0.003493  -0.010457  -0.036990   0.050358  -0.087168
    13  C   -0.219344   0.000737   0.003283  -0.045074  -0.005425  -0.045932
    14  H    0.031619   0.002914  -0.007449   0.000466   0.002395  -0.027931
    15  O   -0.003479  -0.000237   0.000438  -0.001744  -0.000076  -0.000987
    16  C   -0.120984   0.001853  -0.003036  -0.002791  -0.002230  -0.011637
    17  C   -0.043301  -0.001081   0.001457  -0.006195   0.000012  -0.020147
    18  C    0.052658   0.001655  -0.003462   0.007509  -0.001369   0.022400
    19  O    0.002080   0.000265  -0.000239  -0.000449  -0.000021   0.000639
    20  C    0.006583  -0.000061  -0.002227  -0.000872   0.000074   0.000143
    21  C    0.001005   0.000383   0.000241   0.002133  -0.000663   0.005333
    22  H    0.000128   0.000234  -0.000818  -0.000233  -0.000258   0.000729
    23  H   -0.001437  -0.000016  -0.000010  -0.000660  -0.000076  -0.000852
    24  H    0.000207   0.000021  -0.000052  -0.000021   0.000000   0.000070
    25  C   -0.003358  -0.000006   0.000393   0.000181  -0.000089  -0.000186
    26  H   -0.000108  -0.000017   0.000014   0.000021   0.000012  -0.000024
    27  O   -0.000003   0.000000   0.000005  -0.000001   0.000000  -0.000001
    28  C    0.000017   0.000007  -0.000010   0.000000  -0.000002   0.000018
    29  H   -0.000007   0.000000   0.000005  -0.000001   0.000000   0.000001
    30  H    0.000003   0.000000  -0.000001   0.000000   0.000000   0.000001
    31  H   -0.000003  -0.000001  -0.000004   0.000002   0.000000  -0.000004
               7          8          9         10         11         12
     1  C    0.395395  -0.001899  -0.024264  -0.357443   0.018826   0.408630
     2  H   -0.018454   0.002567   0.005055   0.012546  -0.000196   0.003493
     3  H   -0.036949  -0.001109   0.000989   0.021352  -0.002044  -0.010457
     4  C    0.016619   0.395041   0.412175  -0.142239  -0.015113  -0.036990
     5  H   -0.000263  -0.041685  -0.053770  -0.084294   0.007277   0.050358
     6  N   -0.029841  -0.072852  -0.045825   0.114434  -0.054977  -0.087168
     7  H    0.491443  -0.002065  -0.000405   0.044901  -0.000263  -0.056930
     8  H   -0.002065   0.522760  -0.010203   0.070401  -0.008590  -0.047686
     9  H   -0.000405  -0.010203   0.528330   0.010629  -0.002335   0.007888
    10  C    0.044901   0.070401   0.010629  10.883577   0.362485  -5.354555
    11  H   -0.000263  -0.008590  -0.002335   0.362485   0.450865   0.159083
    12  C   -0.056930  -0.047686   0.007888  -5.354555   0.159083  18.830317
    13  C   -0.009049   0.025448  -0.003315  -0.053793  -0.112940  -2.529817
    14  H   -0.008935  -0.002700  -0.001077  -0.278261   0.009698   0.753357
    15  O    0.000418   0.001040   0.000070   0.062518  -0.000798  -0.553638
    16  C   -0.003049   0.007826  -0.001269   1.094180  -0.047313  -6.272197
    17  C    0.004959  -0.000803  -0.000969   0.941509   0.003530  -2.339192
    18  C    0.001746   0.001116   0.001711  -1.154535  -0.015478   3.270423
    19  O   -0.000503  -0.000119  -0.000005  -0.063054   0.002778   0.124673
    20  C   -0.001736  -0.000814   0.000023  -0.354707   0.008215   0.862665
    21  C    0.005320   0.000872   0.000164   0.249329  -0.010769  -0.217100
    22  H    0.000375   0.000259   0.000001   0.014707  -0.001102  -0.095912
    23  H    0.000208   0.000329  -0.000027  -0.004028  -0.002585   0.005130
    24  H   -0.000035  -0.000007   0.000001  -0.006416   0.000116   0.007412
    25  C    0.001480   0.000213  -0.000030   0.169405  -0.004056  -0.482101
    26  H    0.000004  -0.000015   0.000002  -0.007054   0.000106   0.011490
    27  O    0.000003   0.000000   0.000000   0.000392   0.000013   0.000024
    28  C    0.000042   0.000002   0.000000   0.002257  -0.000033  -0.012540
    29  H    0.000000   0.000001   0.000000   0.000470  -0.000005  -0.000630
    30  H    0.000003   0.000000   0.000000   0.000029  -0.000003  -0.000273
    31  H   -0.000001   0.000000   0.000000  -0.000058   0.000003  -0.000335
              13         14         15         16         17         18
     1  C   -0.219344   0.031619  -0.003479  -0.120984  -0.043301   0.052658
     2  H    0.000737   0.002914  -0.000237   0.001853  -0.001081   0.001655
     3  H    0.003283  -0.007449   0.000438  -0.003036   0.001457  -0.003462
     4  C   -0.045074   0.000466  -0.001744  -0.002791  -0.006195   0.007509
     5  H   -0.005425   0.002395  -0.000076  -0.002230   0.000012  -0.001369
     6  N   -0.045932  -0.027931  -0.000987  -0.011637  -0.020147   0.022400
     7  H   -0.009049  -0.008935   0.000418  -0.003049   0.004959   0.001746
     8  H    0.025448  -0.002700   0.001040   0.007826  -0.000803   0.001116
     9  H   -0.003315  -0.001077   0.000070  -0.001269  -0.000969   0.001711
    10  C   -0.053793  -0.278261   0.062518   1.094180   0.941509  -1.154535
    11  H   -0.112940   0.009698  -0.000798  -0.047313   0.003530  -0.015478
    12  C   -2.529817   0.753357  -0.553638  -6.272197  -2.339192   3.270423
    13  C   11.782479  -0.046348   0.568803  -0.242870   0.716395  -2.267417
    14  H   -0.046348   0.507361  -0.004313  -0.073372  -0.116108   0.068310
    15  O    0.568803  -0.004313   7.779757   0.293113   0.045788  -0.221665
    16  C   -0.242870  -0.073372   0.293113  19.289815   0.714406  -3.821202
    17  C    0.716395  -0.116108   0.045788   0.714406  14.742274  -7.731970
    18  C   -2.267417   0.068310  -0.221665  -3.821202  -7.731970  18.716628
    19  O    0.050205   0.006610  -0.004976  -0.061780   0.273696   0.086979
    20  C   -1.044675   0.079300   0.005835  -3.884184  -4.144487   5.316535
    21  C   -0.109549  -0.086221  -0.063245  -0.863169   1.232655  -1.964395
    22  H   -0.038293  -0.004286  -0.000369   0.055677   0.088459   0.157404
    23  H    0.074515  -0.001481   0.264234  -0.028503  -0.032511   0.006304
    24  H   -0.041986   0.001104  -0.000289  -0.045569  -0.145194   0.112810
    25  C   -0.007083  -0.040933  -0.006517  -0.836714   1.992557  -4.140248
    26  H    0.011826   0.001001  -0.000210   0.028012  -0.045728   0.093362
    27  O    0.002919  -0.000467  -0.000061   0.013821   0.019419   0.002779
    28  C   -0.030253  -0.001216  -0.000449  -0.110116   0.094447  -0.208760
    29  H   -0.004934  -0.000185   0.000033   0.011140   0.007977  -0.014042
    30  H   -0.002049  -0.000075  -0.000011  -0.009303   0.003038  -0.012171
    31  H    0.005501   0.000133   0.000008   0.006903  -0.004996  -0.000295
              19         20         21         22         23         24
     1  C    0.002080   0.006583   0.001005   0.000128  -0.001437   0.000207
     2  H    0.000265  -0.000061   0.000383   0.000234  -0.000016   0.000021
     3  H   -0.000239  -0.002227   0.000241  -0.000818  -0.000010  -0.000052
     4  C   -0.000449  -0.000872   0.002133  -0.000233  -0.000660  -0.000021
     5  H   -0.000021   0.000074  -0.000663  -0.000258  -0.000076   0.000000
     6  N    0.000639   0.000143   0.005333   0.000729  -0.000852   0.000070
     7  H   -0.000503  -0.001736   0.005320   0.000375   0.000208  -0.000035
     8  H   -0.000119  -0.000814   0.000872   0.000259   0.000329  -0.000007
     9  H   -0.000005   0.000023   0.000164   0.000001  -0.000027   0.000001
    10  C   -0.063054  -0.354707   0.249329   0.014707  -0.004028  -0.006416
    11  H    0.002778   0.008215  -0.010769  -0.001102  -0.002585   0.000116
    12  C    0.124673   0.862665  -0.217100  -0.095912   0.005130   0.007412
    13  C    0.050205  -1.044675  -0.109549  -0.038293   0.074515  -0.041986
    14  H    0.006610   0.079300  -0.086221  -0.004286  -0.001481   0.001104
    15  O   -0.004976   0.005835  -0.063245  -0.000369   0.264234  -0.000289
    16  C   -0.061780  -3.884184  -0.863169   0.055677  -0.028503  -0.045569
    17  C    0.273696  -4.144487   1.232655   0.088459  -0.032511  -0.145194
    18  C    0.086979   5.316535  -1.964395   0.157404   0.006304   0.112810
    19  O    8.341262  -0.252115  -0.057294  -0.001991  -0.010720  -0.016703
    20  C   -0.252115  18.995396  -5.551723   0.003285  -0.042739   0.769722
    21  C   -0.057294  -5.551723  11.813341   0.000740   0.024321  -0.120748
    22  H   -0.001991   0.003285   0.000740   0.557801   0.002102   0.001851
    23  H   -0.010720  -0.042739   0.024321   0.002102   0.378224  -0.000947
    24  H   -0.016703   0.769722  -0.120748   0.001851  -0.000947   0.484851
    25  C    0.049596  -3.801860   1.124451   0.088920   0.017317  -0.216194
    26  H    0.000254   0.028130   0.415948  -0.023534  -0.000739  -0.000519
    27  O   -0.001740  -0.640796   0.284362  -0.002269  -0.000084  -0.021095
    28  C   -0.001019   0.054925  -0.216454   0.009013   0.000391   0.005066
    29  H    0.000077  -0.055665   0.058941   0.001158   0.000104  -0.001058
    30  H   -0.000100   0.020825  -0.015966   0.000610   0.000021   0.000900
    31  H    0.000083   0.001446   0.010944  -0.000118  -0.000026  -0.000408
              25         26         27         28         29         30
     1  C   -0.003358  -0.000108  -0.000003   0.000017  -0.000007   0.000003
     2  H   -0.000006  -0.000017   0.000000   0.000007   0.000000   0.000000
     3  H    0.000393   0.000014   0.000005  -0.000010   0.000005  -0.000001
     4  C    0.000181   0.000021  -0.000001   0.000000  -0.000001   0.000000
     5  H   -0.000089   0.000012   0.000000  -0.000002   0.000000   0.000000
     6  N   -0.000186  -0.000024  -0.000001   0.000018   0.000001   0.000001
     7  H    0.001480   0.000004   0.000003   0.000042   0.000000   0.000003
     8  H    0.000213  -0.000015   0.000000   0.000002   0.000001   0.000000
     9  H   -0.000030   0.000002   0.000000   0.000000   0.000000   0.000000
    10  C    0.169405  -0.007054   0.000392   0.002257   0.000470   0.000029
    11  H   -0.004056   0.000106   0.000013  -0.000033  -0.000005  -0.000003
    12  C   -0.482101   0.011490   0.000024  -0.012540  -0.000630  -0.000273
    13  C   -0.007083   0.011826   0.002919  -0.030253  -0.004934  -0.002049
    14  H   -0.040933   0.001001  -0.000467  -0.001216  -0.000185  -0.000075
    15  O   -0.006517  -0.000210  -0.000061  -0.000449   0.000033  -0.000011
    16  C   -0.836714   0.028012   0.013821  -0.110116   0.011140  -0.009303
    17  C    1.992557  -0.045728   0.019419   0.094447   0.007977   0.003038
    18  C   -4.140248   0.093362   0.002779  -0.208760  -0.014042  -0.012171
    19  O    0.049596   0.000254  -0.001740  -0.001019   0.000077  -0.000100
    20  C   -3.801860   0.028130  -0.640796   0.054925  -0.055665   0.020825
    21  C    1.124451   0.415948   0.284362  -0.216454   0.058941  -0.015966
    22  H    0.088920  -0.023534  -0.002269   0.009013   0.001158   0.000610
    23  H    0.017317  -0.000739  -0.000084   0.000391   0.000104   0.000021
    24  H   -0.216194  -0.000519  -0.021095   0.005066  -0.001058   0.000900
    25  C   12.267836  -0.185807   0.209006   0.131229  -0.038227   0.057999
    26  H   -0.185807   0.546424  -0.017046  -0.015306  -0.010200   0.001848
    27  O    0.209006  -0.017046   8.219468   0.206975  -0.034982  -0.072533
    28  C    0.131229  -0.015306   0.206975   5.263471   0.416956   0.397060
    29  H   -0.038227  -0.010200  -0.034982   0.416956   0.593714  -0.020552
    30  H    0.057999   0.001848  -0.072533   0.397060  -0.020552   0.475415
    31  H   -0.034040  -0.007130  -0.035391   0.398799  -0.070696  -0.023327
              31
     1  C   -0.000003
     2  H   -0.000001
     3  H   -0.000004
     4  C    0.000002
     5  H    0.000000
     6  N   -0.000004
     7  H   -0.000001
     8  H    0.000000
     9  H    0.000000
    10  C   -0.000058
    11  H    0.000003
    12  C   -0.000335
    13  C    0.005501
    14  H    0.000133
    15  O    0.000008
    16  C    0.006903
    17  C   -0.004996
    18  C   -0.000295
    19  O    0.000083
    20  C    0.001446
    21  C    0.010944
    22  H   -0.000118
    23  H   -0.000026
    24  H   -0.000408
    25  C   -0.034040
    26  H   -0.007130
    27  O   -0.035391
    28  C    0.398799
    29  H   -0.070696
    30  H   -0.023327
    31  H    0.593734
 Mulliken charges:
               1
     1  C   -0.465058
     2  H    0.191202
     3  H    0.214214
     4  C   -0.359616
     5  H    0.202297
     6  N    0.159134
     7  H    0.205559
     8  H    0.162674
     9  H    0.176454
    10  C   -0.194683
    11  H    0.255606
    12  C   -0.397422
    13  C   -0.381967
    14  H    0.237087
    15  O   -0.158992
    16  C    0.924544
    17  C   -0.249898
    18  C   -0.363323
    19  O   -0.466369
    20  C   -0.374441
    21  C    0.046811
    22  H    0.185731
    23  H    0.354240
    24  H    0.233111
    25  C   -0.313134
    26  H    0.174982
    27  O   -0.132721
    28  C   -0.384518
    29  H    0.160606
    30  H    0.198612
    31  H    0.159277
 Sum of Mulliken charges =   0.00000
 Mulliken charges with hydrogens summed into heavy atoms:
               1
     1  C    0.145916
     4  C    0.181810
     6  N    0.159134
    10  C    0.060923
    12  C   -0.160335
    13  C   -0.381967
    15  O    0.195248
    16  C    0.924544
    17  C   -0.249898
    18  C   -0.177591
    19  O   -0.466369
    20  C   -0.141330
    21  C    0.221794
    25  C   -0.313134
    27  O   -0.132721
    28  C    0.133977
 Electronic spatial extent (au):  <R**2>=           5653.7503
 Charge=              0.0000 electrons
 Dipole moment (field-independent basis, Debye):
    X=            -11.8909    Y=             -5.4148    Z=             -3.5581  Tot=             13.5416
 Quadrupole moment (field-independent basis, Debye-Ang):
   XX=            -52.8517   YY=            -96.8539   ZZ=            -99.8856
   XY=             -0.5552   XZ=             -6.0032   YZ=            -10.0833
 Traceless Quadrupole moment (field-independent basis, Debye-Ang):
   XX=             30.3453   YY=            -13.6568   ZZ=            -16.6885
   XY=             -0.5552   XZ=             -6.0032   YZ=            -10.0833
 Octapole moment (field-independent basis, Debye-Ang**2):
  XXX=           -209.6936  YYY=             -9.6399  ZZZ=             -0.8538  XYY=            -18.4088
  XXY=            -63.3758  XXZ=            -14.0966  XZZ=            -18.0555  YZZ=            -12.7859
  YYZ=            -22.0919  XYZ=             12.0788
 Hexadecapole moment (field-independent basis, Debye-Ang**3):
 XXXX=          -4815.5531 YYYY=           -767.1692 ZZZZ=           -528.0171 XXXY=            -22.6315
 XXXZ=            -63.1415 YYYX=            -17.2154 YYYZ=            -79.3353 ZZZX=             -6.7190
 ZZZY=            -25.9024 XXYY=          -1069.5644 XXZZ=          -1097.1359 YYZZ=           -218.4655
 XXYZ=            -29.4328 YYXZ=            -17.0781 ZZXY=             16.2808
 N-N= 1.041772826619D+03 E-N=-3.826340860252D+03  KE= 7.435283516107D+02
 1\1\GINC-NXN36\FOpt\RwB97XD TD-FC\6-311++G(d,p)\C12H15N1O3\BTX008\21-O
 ct-2016\0\\# wb97xd 6-311++g** opt td=(nstates=1,root=1) geom=allcheck
 \\Geom Opt s0\\0,1\C,3.6177192169,0.9326553068,1.2267619915\H,4.617604
 056,1.0092920985,1.6563941365\H,3.3376614995,1.9158966666,0.8164704583
 \C,4.7950551052,-0.1908144021,-0.6028015464\H,4.9111403807,0.683767386
 4,-1.2604987329\N,3.6092917383,-0.1053905899,0.2243735084\H,2.92186320
 06,0.6833639597,2.0306080504\H,4.7407278945,-1.083948304,-1.2274243468
 \H,5.6820911478,-0.2707586479,0.0298207981\C,2.411772418,-0.4621094126
 ,-0.35388043\H,2.4908246509,-1.1936535995,-1.1484002843\C,1.166678561,
 -0.0163952887,0.0248949612\C,-0.024716432,-0.4743153306,-0.5173954434\
 H,1.070739086,0.7354287301,0.7988163141\O,0.0083676363,-1.3576345982,-
 1.5640687816\C,-1.3514964787,0.0292435156,-0.1050553244\C,-2.111687909
 3,-0.7293190447,0.8784043402\C,-1.9100126023,1.1740179431,-0.640213440
 9\O,-1.6698840428,-1.8145294334,1.3074738241\C,-3.3840042573,-0.210178
 0902,1.3049885524\C,-3.1476529741,1.6468412793,-0.216893297\H,-1.36224
 22944,1.7305972354,-1.3915981893\H,-0.7064381783,-1.98883909,-1.465813
 9508\H,-3.9410816903,-0.7590532755,2.0536216161\C,-3.8856289517,0.9480
 105941,0.7717613761\H,-3.5358245666,2.5603276511,-0.6471267\O,-5.09095
 56674,1.3646015221,1.2282399755\C,-5.6402980405,2.5638572877,0.7235972
 44\H,-5.8323110159,2.4990384544,-0.3530708745\H,-6.5853877901,2.699739
 4893,1.2457250616\H,-4.9912217101,3.421863267,0.9304254337\\Version=ES
 64L-G09RevD.01\State=1-A\HF=-746.5829274\RMSD=5.325e-09\RMSF=1.647e-05
 \Dipole=-0.1697046,1.8727471,-0.5336954\PG=C01 [X(C12H15N1O3)]\\@


 THE MOST INCOMPREHENSIBLE THING ABOUT THE WORLD
 IS THAT IT IS COMPREHENSIBLE. -- A. EINSTEIN
 Job cpu time:       4 days  8 hours 41 minutes 42.0 seconds.
 File lengths (MBytes):  RWF=    206 Int=      0 D2E=      0 Chk=     30 Scr=      1
 Normal termination of Gaussian 09 at Fri Oct 21 21:20:29 2016.
