 Entering Gaussian System, Link 0=g09
 Input=3_optS1_chainrotated.com
 Output=3_optS1_chainrotated.out
 Initial command:
 /share/apps/gaussian/g09_D01/g09/l1.exe "/tmp/4042854.1.chemistry.q/Gau-28995.inp" -scrdir="/tmp/4042854.1.chemistry.q/"
 Entering Link 1 = /share/apps/gaussian/g09_D01/g09/l1.exe PID=     28996.
  
 Copyright (c) 1988,1990,1992,1993,1995,1998,2003,2009,2013,
            Gaussian, Inc.  All Rights Reserved.
  
 This is part of the Gaussian(R) 09 program.  It is based on
 the Gaussian(R) 03 system (copyright 2003, Gaussian, Inc.),
 the Gaussian(R) 98 system (copyright 1998, Gaussian, Inc.),
 the Gaussian(R) 94 system (copyright 1995, Gaussian, Inc.),
 the Gaussian 92(TM) system (copyright 1992, Gaussian, Inc.),
 the Gaussian 90(TM) system (copyright 1990, Gaussian, Inc.),
 the Gaussian 88(TM) system (copyright 1988, Gaussian, Inc.),
 the Gaussian 86(TM) system (copyright 1986, Carnegie Mellon
 University), and the Gaussian 82(TM) system (copyright 1983,
 Carnegie Mellon University). Gaussian is a federally registered
 trademark of Gaussian, Inc.
  
 This software contains proprietary and confidential information,
 including trade secrets, belonging to Gaussian, Inc.
  
 This software is provided under written license and may be
 used, copied, transmitted, or stored only in accord with that
 written license.
  
 The following legend is applicable only to US Government
 contracts under FAR:
  
                    RESTRICTED RIGHTS LEGEND
  
 Use, reproduction and disclosure by the US Government is
 subject to restrictions as set forth in subparagraphs (a)
 and (c) of the Commercial Computer Software - Restricted
 Rights clause in FAR 52.227-19.
  
 Gaussian, Inc.
 340 Quinnipiac St., Bldg. 40, Wallingford CT 06492
  
  
 ---------------------------------------------------------------
 Warning -- This program may not be used in any manner that
 competes with the business of Gaussian, Inc. or will provide
 assistance to any competitor of Gaussian, Inc.  The licensee
 of this program is prohibited from giving any competitor of
 Gaussian, Inc. access to this program.  By using this program,
 the user acknowledges that Gaussian, Inc. is engaged in the
 business of creating and licensing software in the field of
 computational chemistry and represents and warrants to the
 licensee that it is not a competitor of Gaussian, Inc. and that
 it will not use this program in any manner prohibited above.
 ---------------------------------------------------------------
  

 Cite this work as:
 Gaussian 09, Revision D.01,
 M. J. Frisch, G. W. Trucks, H. B. Schlegel, G. E. Scuseria, 
 M. A. Robb, J. R. Cheeseman, G. Scalmani, V. Barone, B. Mennucci, 
 G. A. Petersson, H. Nakatsuji, M. Caricato, X. Li, H. P. Hratchian, 
 A. F. Izmaylov, J. Bloino, G. Zheng, J. L. Sonnenberg, M. Hada, 
 M. Ehara, K. Toyota, R. Fukuda, J. Hasegawa, M. Ishida, T. Nakajima, 
 Y. Honda, O. Kitao, H. Nakai, T. Vreven, J. A. Montgomery, Jr., 
 J. E. Peralta, F. Ogliaro, M. Bearpark, J. J. Heyd, E. Brothers, 
 K. N. Kudin, V. N. Staroverov, T. Keith, R. Kobayashi, J. Normand, 
 K. Raghavachari, A. Rendell, J. C. Burant, S. S. Iyengar, J. Tomasi, 
 M. Cossi, N. Rega, J. M. Millam, M. Klene, J. E. Knox, J. B. Cross, 
 V. Bakken, C. Adamo, J. Jaramillo, R. Gomperts, R. E. Stratmann, 
 O. Yazyev, A. J. Austin, R. Cammi, C. Pomelli, J. W. Ochterski, 
 R. L. Martin, K. Morokuma, V. G. Zakrzewski, G. A. Voth, 
 P. Salvador, J. J. Dannenberg, S. Dapprich, A. D. Daniels, 
 O. Farkas, J. B. Foresman, J. V. Ortiz, J. Cioslowski, 
 and D. J. Fox, Gaussian, Inc., Wallingford CT, 2013.
 
 ******************************************
 Gaussian 09:  ES64L-G09RevD.01 24-Apr-2013
                23-Aug-2017 
 ******************************************
 %chk=3_optS1_chainrotated.chk
 %mem=28GB
 %nproc=4
 Will use up to    4 processors via shared memory.
 ---------------------------------------------
 # wb97xd 6-311++g** opt td=(nstates=1,root=1)
 ---------------------------------------------
 1/14=-1,18=20,19=15,26=3,38=1/1,3;
 2/9=110,12=2,17=6,18=5,40=1/2;
 3/5=4,6=6,7=1111,11=9,16=1,25=1,30=1,71=1,74=-58/1,2,8,3;
 4//1;
 5/5=2,38=5/2;
 8/6=1,10=2,107=1,108=1/1;
 9/8=1,15=2,41=1,42=1,70=2/14;
 10/5=4/2;
 6/7=2,8=2,9=2,10=2/1;
 7/12=6,13=5,14=1/1,2,3,16;
 1/14=-1,18=20,19=15,26=3/3(2);
 2/9=110/2;
 99//99;
 2/9=110/2;
 3/5=4,6=6,7=1111,11=9,16=1,25=1,30=1,71=1,74=-58/1,2,8,3;
 4/5=5,16=3,69=1/1;
 5/5=2,38=5/2;
 8/6=1,10=2,107=1,108=1/1;
 9/8=1,15=2,41=1,42=1,49=4,70=2/14;
 10/5=4/2;
 7/12=6,13=5,14=1/1,2,3,16;
 1/14=-1,18=20,19=15,26=3/3(-8);
 2/9=110/2;
 6/7=2,8=2,9=2,10=2/1;
 99//99;
 ----------------------
 restarted optimization
 ----------------------
 Symbolic Z-matrix:
 Charge =  0 Multiplicity = 1
 C                    -0.13951   0.68677   6.03176 
 H                     0.50477   1.44135   5.58413 
 H                    -0.60693   1.10514   6.92637 
 C                    -1.18233   1.01626   3.79852 
 H                    -1.35115   2.08091   3.97851 
 N                    -1.15026   0.29371   5.05962 
 H                     0.46848  -0.17526   6.31416 
 H                    -1.98499   0.63123   3.17216 
 H                    -0.23188   0.89147   3.2737 
 C                    -2.01825  -0.67866   5.32103 
 H                    -2.7172   -0.9154    4.52657 
 C                    -2.11027  -1.39516   6.50375 
 C                    -3.01716  -2.54063   6.58075 
 H                    -1.36837  -1.25197   7.28803 
 O                    -2.30198  -3.5089    6.08453 
 C                    -4.31496  -2.59871   7.1363 
 C                    -5.0332   -3.82957   7.15499 
 C                    -4.95458  -1.45947   7.67525 
 O                    -4.48371  -4.96603   6.6644 
 C                    -6.31322  -3.88407   7.67584 
 C                    -6.23694  -1.52949   8.19492 
 H                    -4.42158  -0.51384   7.68139 
 H                    -3.58514  -4.76484   6.34945 
 H                    -6.8272   -4.83849   7.67127 
 C                    -6.92195  -2.74088   8.19551 
 H                    -6.70148  -0.63927   8.60431 
 O                    -8.25649  -2.8146    8.7314 
 C                    -8.93673  -1.60069   9.00456 
 H                    -9.85512  -1.50699   8.4106 
 H                    -9.18929  -1.50699   10.06872 
 H                    -8.2486   -0.80041   8.72824 
 

 GradGradGradGradGradGradGradGradGradGradGradGradGradGradGradGradGradGrad
 Berny optimization.
 Initialization pass.
                           ----------------------------
                           !    Initial Parameters    !
                           ! (Angstroms and Degrees)  !
 --------------------------                            --------------------------
 ! Name  Definition              Value          Derivative Info.                !
 --------------------------------------------------------------------------------
 ! R1    R(1,2)                  1.0885         estimate D2E/DX2                !
 ! R2    R(1,3)                  1.0926         estimate D2E/DX2                !
 ! R3    R(1,6)                  1.4564         estimate D2E/DX2                !
 ! R4    R(1,7)                  1.092          estimate D2E/DX2                !
 ! R5    R(4,5)                  1.0929         estimate D2E/DX2                !
 ! R6    R(4,6)                  1.4538         estimate D2E/DX2                !
 ! R7    R(4,8)                  1.0885         estimate D2E/DX2                !
 ! R8    R(4,9)                  1.0929         estimate D2E/DX2                !
 ! R9    R(6,10)                 1.3294         estimate D2E/DX2                !
 ! R10   R(10,11)                1.0843         estimate D2E/DX2                !
 ! R11   R(10,12)                1.3859         estimate D2E/DX2                !
 ! R12   R(12,13)                1.463          estimate D2E/DX2                !
 ! R13   R(12,14)                1.089          estimate D2E/DX2                !
 ! R14   R(13,15)                1.302          estimate D2E/DX2                !
 ! R15   R(13,16)                1.4129         estimate D2E/DX2                !
 ! R16   R(16,17)                1.4252         estimate D2E/DX2                !
 ! R17   R(16,18)                1.4133         estimate D2E/DX2                !
 ! R18   R(17,19)                1.3543         estimate D2E/DX2                !
 ! R19   R(17,20)                1.383          estimate D2E/DX2                !
 ! R20   R(18,21)                1.3854         estimate D2E/DX2                !
 ! R21   R(18,22)                1.0855         estimate D2E/DX2                !
 ! R22   R(19,23)                0.9732         estimate D2E/DX2                !
 ! R23   R(20,24)                1.084          estimate D2E/DX2                !
 ! R24   R(20,25)                1.3955         estimate D2E/DX2                !
 ! R25   R(21,25)                1.3917         estimate D2E/DX2                !
 ! R26   R(21,26)                1.0844         estimate D2E/DX2                !
 ! R27   R(25,27)                1.44           estimate D2E/DX2                !
 ! R28   R(27,28)                1.4181         estimate D2E/DX2                !
 ! R29   R(28,29)                1.0977         estimate D2E/DX2                !
 ! R30   R(28,30)                1.0977         estimate D2E/DX2                !
 ! R31   R(28,31)                1.091          estimate D2E/DX2                !
 ! A1    A(2,1,3)              108.9338         estimate D2E/DX2                !
 ! A2    A(2,1,6)              108.867          estimate D2E/DX2                !
 ! A3    A(2,1,7)              108.9076         estimate D2E/DX2                !
 ! A4    A(3,1,6)              110.6682         estimate D2E/DX2                !
 ! A5    A(3,1,7)              109.1899         estimate D2E/DX2                !
 ! A6    A(6,1,7)              110.2399         estimate D2E/DX2                !
 ! A7    A(5,4,6)              110.1648         estimate D2E/DX2                !
 ! A8    A(5,4,8)              108.9928         estimate D2E/DX2                !
 ! A9    A(5,4,9)              108.9453         estimate D2E/DX2                !
 ! A10   A(6,4,8)              109.8544         estimate D2E/DX2                !
 ! A11   A(6,4,9)              109.9156         estimate D2E/DX2                !
 ! A12   A(8,4,9)              108.9401         estimate D2E/DX2                !
 ! A13   A(1,6,4)              117.3994         estimate D2E/DX2                !
 ! A14   A(1,6,10)             121.2846         estimate D2E/DX2                !
 ! A15   A(4,6,10)             121.3125         estimate D2E/DX2                !
 ! A16   A(6,10,11)            115.8813         estimate D2E/DX2                !
 ! A17   A(6,10,12)            126.1088         estimate D2E/DX2                !
 ! A18   A(11,10,12)           118.0081         estimate D2E/DX2                !
 ! A19   A(10,12,13)           119.3966         estimate D2E/DX2                !
 ! A20   A(10,12,14)           120.0907         estimate D2E/DX2                !
 ! A21   A(13,12,14)           119.165          estimate D2E/DX2                !
 ! A22   A(12,13,15)           102.8087         estimate D2E/DX2                !
 ! A23   A(12,13,16)           128.4809         estimate D2E/DX2                !
 ! A24   A(15,13,16)           128.5956         estimate D2E/DX2                !
 ! A25   A(13,16,17)           120.2358         estimate D2E/DX2                !
 ! A26   A(13,16,18)           122.1746         estimate D2E/DX2                !
 ! A27   A(17,16,18)           117.5862         estimate D2E/DX2                !
 ! A28   A(16,17,19)           121.0301         estimate D2E/DX2                !
 ! A29   A(16,17,20)           120.3582         estimate D2E/DX2                !
 ! A30   A(19,17,20)           118.6116         estimate D2E/DX2                !
 ! A31   A(16,18,21)           121.4123         estimate D2E/DX2                !
 ! A32   A(16,18,22)           118.8255         estimate D2E/DX2                !
 ! A33   A(21,18,22)           119.7619         estimate D2E/DX2                !
 ! A34   A(17,19,23)           108.5654         estimate D2E/DX2                !
 ! A35   A(17,20,24)           118.1609         estimate D2E/DX2                !
 ! A36   A(17,20,25)           120.7753         estimate D2E/DX2                !
 ! A37   A(24,20,25)           121.0636         estimate D2E/DX2                !
 ! A38   A(18,21,25)           119.9847         estimate D2E/DX2                !
 ! A39   A(18,21,26)           119.7773         estimate D2E/DX2                !
 ! A40   A(25,21,26)           120.2374         estimate D2E/DX2                !
 ! A41   A(20,25,21)           119.8812         estimate D2E/DX2                !
 ! A42   A(20,25,27)           120.0594         estimate D2E/DX2                !
 ! A43   A(21,25,27)           120.0594         estimate D2E/DX2                !
 ! A44   A(25,27,28)           118.192          estimate D2E/DX2                !
 ! A45   A(27,28,29)           111.7263         estimate D2E/DX2                !
 ! A46   A(27,28,30)           111.7263         estimate D2E/DX2                !
 ! A47   A(27,28,31)           106.0557         estimate D2E/DX2                !
 ! A48   A(29,28,30)           108.9504         estimate D2E/DX2                !
 ! A49   A(29,28,31)           109.1492         estimate D2E/DX2                !
 ! A50   A(30,28,31)           109.1492         estimate D2E/DX2                !
 ! D1    D(2,1,6,4)             -4.923          estimate D2E/DX2                !
 ! D2    D(2,1,6,10)           175.7487         estimate D2E/DX2                !
 ! D3    D(3,1,6,4)            114.7731         estimate D2E/DX2                !
 ! D4    D(3,1,6,10)           -64.5552         estimate D2E/DX2                !
 ! D5    D(7,1,6,4)           -124.3281         estimate D2E/DX2                !
 ! D6    D(7,1,6,10)            56.3436         estimate D2E/DX2                !
 ! D7    D(5,4,6,1)            -59.3967         estimate D2E/DX2                !
 ! D8    D(5,4,6,10)           119.9315         estimate D2E/DX2                !
 ! D9    D(8,4,6,1)           -179.4772         estimate D2E/DX2                !
 ! D10   D(8,4,6,10)            -0.1491         estimate D2E/DX2                !
 ! D11   D(9,4,6,1)             60.6637         estimate D2E/DX2                !
 ! D12   D(9,4,6,10)          -120.0081         estimate D2E/DX2                !
 ! D13   D(1,6,10,11)         -178.5958         estimate D2E/DX2                !
 ! D14   D(1,6,10,12)            1.9001         estimate D2E/DX2                !
 ! D15   D(4,6,10,11)            2.1022         estimate D2E/DX2                !
 ! D16   D(4,6,10,12)         -177.4019         estimate D2E/DX2                !
 ! D17   D(6,10,12,13)        -172.9071         estimate D2E/DX2                !
 ! D18   D(6,10,12,14)          -6.2678         estimate D2E/DX2                !
 ! D19   D(11,10,12,13)          7.5982         estimate D2E/DX2                !
 ! D20   D(11,10,12,14)        174.2375         estimate D2E/DX2                !
 ! D21   D(10,12,13,15)         84.1857         estimate D2E/DX2                !
 ! D22   D(10,12,13,16)        -99.4827         estimate D2E/DX2                !
 ! D23   D(14,12,13,15)        -82.578          estimate D2E/DX2                !
 ! D24   D(14,12,13,16)         93.7536         estimate D2E/DX2                !
 ! D25   D(12,13,16,17)       -177.9842         estimate D2E/DX2                !
 ! D26   D(12,13,16,18)          2.7089         estimate D2E/DX2                !
 ! D27   D(15,13,16,17)         -2.5628         estimate D2E/DX2                !
 ! D28   D(15,13,16,18)        178.1303         estimate D2E/DX2                !
 ! D29   D(13,16,17,19)          1.0738         estimate D2E/DX2                !
 ! D30   D(13,16,17,20)       -178.808          estimate D2E/DX2                !
 ! D31   D(18,16,17,19)       -179.588          estimate D2E/DX2                !
 ! D32   D(18,16,17,20)          0.5301         estimate D2E/DX2                !
 ! D33   D(13,16,18,21)        178.8526         estimate D2E/DX2                !
 ! D34   D(13,16,18,22)         -1.3517         estimate D2E/DX2                !
 ! D35   D(17,16,18,21)         -0.4718         estimate D2E/DX2                !
 ! D36   D(17,16,18,22)        179.3239         estimate D2E/DX2                !
 ! D37   D(16,17,19,23)          0.8551         estimate D2E/DX2                !
 ! D38   D(20,17,19,23)       -179.261          estimate D2E/DX2                !
 ! D39   D(16,17,20,24)        179.937          estimate D2E/DX2                !
 ! D40   D(16,17,20,25)         -0.2385         estimate D2E/DX2                !
 ! D41   D(19,17,20,24)          0.0524         estimate D2E/DX2                !
 ! D42   D(19,17,20,25)        179.8769         estimate D2E/DX2                !
 ! D43   D(16,18,21,25)          0.1159         estimate D2E/DX2                !
 ! D44   D(16,18,21,26)        179.8359         estimate D2E/DX2                !
 ! D45   D(22,18,21,25)       -179.6779         estimate D2E/DX2                !
 ! D46   D(22,18,21,26)          0.042          estimate D2E/DX2                !
 ! D47   D(17,20,25,21)         -0.133          estimate D2E/DX2                !
 ! D48   D(17,20,25,27)        179.867          estimate D2E/DX2                !
 ! D49   D(24,20,25,21)        179.6863         estimate D2E/DX2                !
 ! D50   D(24,20,25,27)         -0.3137         estimate D2E/DX2                !
 ! D51   D(18,21,25,20)          0.1956         estimate D2E/DX2                !
 ! D52   D(18,21,25,27)       -179.8044         estimate D2E/DX2                !
 ! D53   D(26,21,25,20)       -179.523          estimate D2E/DX2                !
 ! D54   D(26,21,25,27)          0.477          estimate D2E/DX2                !
 ! D55   D(20,25,27,28)       -167.7917         estimate D2E/DX2                !
 ! D56   D(21,25,27,28)         12.2083         estimate D2E/DX2                !
 ! D57   D(25,27,28,29)        118.8245         estimate D2E/DX2                !
 ! D58   D(25,27,28,30)       -118.8245         estimate D2E/DX2                !
 ! D59   D(25,27,28,31)          0.0            estimate D2E/DX2                !
 --------------------------------------------------------------------------------
 Trust Radius=3.00D-01 FncErr=1.00D-07 GrdErr=1.00D-06
 Number of steps in this run=    150 maximum allowed number of steps=    186.
 GradGradGradGradGradGradGradGradGradGradGradGradGradGradGradGradGradGrad

                          Input orientation:                          
 ---------------------------------------------------------------------
 Center     Atomic      Atomic             Coordinates (Angstroms)
 Number     Number       Type             X           Y           Z
 ---------------------------------------------------------------------
      1          6           0       -0.139506    0.686774    6.031758
      2          1           0        0.504767    1.441350    5.584134
      3          1           0       -0.606934    1.105140    6.926365
      4          6           0       -1.182334    1.016260    3.798519
      5          1           0       -1.351153    2.080913    3.978507
      6          7           0       -1.150258    0.293709    5.059625
      7          1           0        0.468475   -0.175264    6.314161
      8          1           0       -1.984990    0.631233    3.172162
      9          1           0       -0.231880    0.891472    3.273698
     10          6           0       -2.018251   -0.678658    5.321027
     11          1           0       -2.717202   -0.915398    4.526570
     12          6           0       -2.110270   -1.395163    6.503753
     13          6           0       -3.017162   -2.540626    6.580753
     14          1           0       -1.368369   -1.251969    7.288027
     15          8           0       -2.301975   -3.508899    6.084526
     16          6           0       -4.314965   -2.598711    7.136301
     17          6           0       -5.033204   -3.829566    7.154992
     18          6           0       -4.954584   -1.459466    7.675255
     19          8           0       -4.483714   -4.966026    6.664402
     20          6           0       -6.313224   -3.884074    7.675835
     21          6           0       -6.236940   -1.529493    8.194919
     22          1           0       -4.421583   -0.513836    7.681391
     23          1           0       -3.585136   -4.764844    6.349450
     24          1           0       -6.827201   -4.838487    7.671272
     25          6           0       -6.921950   -2.740880    8.195513
     26          1           0       -6.701476   -0.639265    8.604307
     27          8           0       -8.256486   -2.814597    8.731404
     28          6           0       -8.936727   -1.600694    9.004558
     29          1           0       -9.855122   -1.506994    8.410603
     30          1           0       -9.189295   -1.506994   10.068721
     31          1           0       -8.248601   -0.800415    8.728238
 ---------------------------------------------------------------------
                    Distance matrix (angstroms):
                    1          2          3          4          5
     1  C    0.000000
     2  H    1.088504   0.000000
     3  H    1.092630   1.774965   0.000000
     4  C    2.486646   2.493077   3.181573   0.000000
     5  H    2.761802   2.536044   3.193096   1.092878   0.000000
     6  N    1.456421   2.081177   2.106737   1.453787   2.098398
     7  H    1.092017   1.774175   1.780655   3.236256   3.722454
     8  H    3.403849   3.559886   4.027116   1.088497   1.775814
     9  H    2.767188   2.486590   3.678083   1.092873   1.778847
    10  C    2.428832   3.305946   2.784037   2.426836   3.140480
    11  H    3.387781   4.129623   3.780849   2.572388   3.338314
    12  C    2.905366   3.966097   2.947904   3.740898   4.363053
    13  C    4.358717   5.408638   4.384091   4.874306   5.559307
    14  H    2.616685   3.696736   2.503307   4.166070   4.696948
    15  O    4.720459   5.712544   4.987105   5.191964   6.048585
    16  C    5.426683   6.477741   5.245196   5.832854   6.376106
    17  C    6.753315   7.805080   6.632907   7.041104   7.653843
    18  C    5.521993   6.526257   5.102950   5.948796   6.259788
    19  O    7.157271   8.191849   7.208128   7.409463   8.166169
    20  C    7.855599   8.900582   7.616804   8.085350   8.594967
    21  C    6.838845   7.816183   6.344091   7.166466   7.394868
    22  H    4.743304   5.700014   4.212208   5.283051   5.465493
    23  H    6.457045   7.471938   6.607513   6.760316   7.581322
    24  H    8.828464   9.876753   8.635584   9.007819   9.565653
    25  C    7.901405   8.914397   7.502135   8.148181   8.489205
    26  H    7.171878   8.085811   6.557582   7.503152   7.577820
    27  O    9.243000  10.236110   8.782833   9.436760   9.707712
    28  C    9.563532  10.492623   9.001437   9.699582   9.816127
    29  H   10.240347  11.135931   9.723949  10.141764  10.238849
    30  H   10.149304  11.080573   9.505502  10.478247  10.554632
    31  H    8.674108   9.567254   8.079168   8.805371   8.856454
                    6          7          8          9         10
     6  N    0.000000
     7  H    2.100974   0.000000
     8  H    2.091224   4.067196   0.000000
     9  H    2.095298   3.297399   1.775226   0.000000
    10  C    1.329376   2.724615   2.516852   3.138150   0.000000
    11  H    2.049732   3.727173   2.182343   3.318327   1.084316
    12  C    2.420623   2.859025   3.901471   4.380674   1.385889
    13  C    3.719222   4.220862   4.769126   5.520299   2.460012
    14  H    2.720748   2.341304   4.568043   4.690499   2.149447
    15  O    4.103255   4.340651   5.071788   5.616877   2.945114
    16  C    4.763827   5.424971   5.619228   6.616091   3.500960
    17  C    6.038976   6.658032   6.712173   7.772088   4.730919
    18  C    4.938425   5.736839   5.785098   6.870556   3.843709
    19  O    6.430556   6.899148   7.054691   7.992825   5.124909
    20  C    7.138252   7.848622   7.707443   8.897606   5.853768
    21  C    6.247277   7.094630   6.926464   8.132665   5.174989
    22  H    4.269350   5.088872   5.251792   6.241495   3.372609
    23  H    5.760316   6.123500   6.463225   7.259372   4.495520
    24  H    8.086273   8.764376   8.579443   9.781071   6.778925
    25  C    7.235672   8.046133   7.808891   9.065058   6.046627
    26  H    6.652160   7.541105   7.305313   8.521398   5.719622
    27  O    8.581492   9.430487   9.061489  10.388253   7.423509
    28  C    8.931985   9.885743   9.344784  10.715783   7.892012
    29  H    9.499802  10.618156   9.692897  11.169029   8.464524
    30  H    9.641561  10.447141  10.199831  11.496098   8.640059
    31  H    8.064881   9.066752   8.494258   9.842881   7.102195
                   11         12         13         14         15
    11  H    0.000000
    12  C    2.123156   0.000000
    13  C    2.636477   1.463034   0.000000
    14  H    3.091646   1.089040   2.208935   0.000000
    15  O    3.053832   2.163419   1.302032   2.722824   0.000000
    16  C    3.492433   2.590236   1.412905   3.243326   2.446794
    17  C    4.556846   3.859271   2.460801   4.482490   2.950989
    18  C    3.900783   3.076796   2.473953   3.613023   3.710381
    19  O    4.909020   4.290700   2.835549   4.887587   2.686905
    20  C    5.626925   5.023273   3.723987   5.615155   4.331644
    21  C    5.120786   4.461781   3.740975   4.960086   4.884235
    22  H    3.608194   2.739660   2.700311   3.165705   4.001639
    23  H    4.346773   3.681547   2.307215   4.258553   1.814961
    24  H    6.493987   5.955587   4.581025   6.542846   4.976267
    25  C    5.871408   5.274966   4.230239   5.820880   5.137148
    26  H    5.707769   5.105182   4.613471   5.527208   5.825779
    27  O    7.209109   6.689783   5.670174   7.209112   6.553184
    28  C    7.694446   7.273017   6.465257   7.768406   7.495850
    29  H    8.147736   7.976924   7.153632   8.564473   8.152809
    30  H    8.541277   7.926796   7.164464   8.304468   8.204670
    31  H    6.947202   6.556002   5.916754   7.043842   7.048933
                   16         17         18         19         20
    16  C    0.000000
    17  C    1.425209   0.000000
    18  C    1.413316   2.427803   0.000000
    19  O    2.419782   1.354311   3.679607   0.000000
    20  C    2.436451   1.383004   2.779321   2.353874   0.000000
    21  C    2.440878   2.796563   1.385421   4.150427   2.412326
    22  H    2.157590   3.412513   1.085515   4.567288   3.864821
    23  H    2.417420   1.902773   3.815583   0.973196   3.158721
    24  H    3.407950   2.122002   3.863223   2.553818   1.084019
    25  C    2.817537   2.415633   2.404832   3.638759   1.395530
    26  H    3.419050   3.880936   2.141845   5.234745   3.397291
    27  O    4.257529   3.728912   3.722148   4.809881   2.456476
    28  C    5.084005   4.860684   4.200530   6.052364   3.723183
    29  H    5.788699   5.497435   4.955630   6.623152   4.328445
    30  H    5.792239   5.581868   4.864537   6.759940   4.432629
    31  H    4.608864   4.689311   3.520465   5.982149   3.789748
                   21         22         23         24         25
    21  C    0.000000
    22  H    2.142613   0.000000
    23  H    4.572233   4.532635   0.000000
    24  H    3.401772   4.948708   3.501945   0.000000
    25  C    1.391653   3.387607   4.317257   2.164200   0.000000
    26  H    1.084388   2.462807   5.640599   4.303467   2.152326
    27  O    2.453136   4.593747   5.594522   2.694971   1.440000
    28  C    2.819474   4.828929   6.760249   4.087915   2.452326
    29  H    3.624675   5.571486   7.360344   4.562210   3.189395
    30  H    3.496862   5.423724   7.473497   4.735620   3.189395
    31  H    2.205168   3.977950   6.566829   4.409488   2.410229
                   26         27         28         29         30
    26  H    0.000000
    27  O    2.676990   0.000000
    28  C    2.465947   1.418062   0.000000
    29  H    3.276577   2.090066   1.097731   0.000000
    30  H    3.014416   2.090066   1.097731   1.786808   0.000000
    31  H    1.560424   2.014200   1.091017   1.783551   1.783551
                   31
    31  H    0.000000
 Stoichiometry    C12H15NO3
 Framework group  C1[X(C12H15NO3)]
 Deg. of freedom    87
 Full point group                 C1      NOp   1
 Largest Abelian subgroup         C1      NOp   1
 Largest concise Abelian subgroup C1      NOp   1
                         Standard orientation:                         
 ---------------------------------------------------------------------
 Center     Atomic      Atomic             Coordinates (Angstroms)
 Number     Number       Type             X           Y           Z
 ---------------------------------------------------------------------
      1          6           0        4.620477   -0.928393   -1.114812
      2          1           0        5.618940   -1.349517   -1.012023
      3          1           0        4.010623   -1.605180   -1.718036
      4          6           0        4.805780   -1.257890    1.342931
      5          1           0        4.978762   -2.331752    1.236733
      6          7           0        4.042012   -0.758956    0.211020
      7          1           0        4.693742    0.036371   -1.621136
      8          1           0        4.258982   -1.076783    2.266532
      9          1           0        5.770258   -0.746639    1.395625
     10          6           0        2.855679   -0.182820    0.378116
     11          1           0        2.519506   -0.080429    1.403906
     12          6           0        2.023600    0.280378   -0.628750
     13          6           0        0.818734    1.031565   -0.275931
     14          1           0        2.365617    0.280936   -1.662690
     15          8           0        1.267622    2.244963   -0.129466
     16          6           0       -0.514345    0.569695   -0.199269
     17          6           0       -1.569058    1.472084    0.123988
     18          6           0       -0.855794   -0.783781   -0.420582
     19          8           0       -1.321785    2.785707    0.341728
     20          6           0       -2.871540    1.017915    0.223845
     21          6           0       -2.165391   -1.224114   -0.318352
     22          1           0       -0.069692   -1.486354   -0.678998
     23          1           0       -0.369138    2.945479    0.223205
     24          1           0       -3.645675    1.734806    0.472600
     25          6           0       -3.177791   -0.326070    0.006088
     26          1           0       -2.397943   -2.268211   -0.496339
     27          8           0       -4.538930   -0.782820    0.116904
     28          6           0       -4.775913   -2.180535    0.150549
     29          1           0       -5.257800   -2.488544    1.087528
     30          1           0       -5.396317   -2.507937   -0.693798
     31          1           0       -3.795826   -2.654557    0.079497
 ---------------------------------------------------------------------
 Rotational constants (GHZ):      0.9786445      0.2280721      0.1956437
 Standard basis: 6-311++G(d,p) (5D, 7F)
 There are   473 symmetry adapted cartesian basis functions of A   symmetry.
 There are   457 symmetry adapted basis functions of A   symmetry.
   457 basis functions,   711 primitive gaussians,   473 cartesian basis functions
    59 alpha electrons       59 beta electrons
       nuclear repulsion energy      1045.0555787626 Hartrees.
 NAtoms=   31 NActive=   31 NUniq=   31 SFac= 1.00D+00 NAtFMM=   60 NAOKFM=F Big=F
 Integral buffers will be    131072 words long.
 Raffenetti 1 integral format.
 Two-electron integral symmetry is turned on.
 Nuclear repulsion after empirical dispersion term =     1045.0379365458 Hartrees.
 One-electron integrals computed using PRISM.
 NBasis=   457 RedAO= T EigKep=  1.24D-06  NBF=   457
 NBsUse=   455 1.00D-06 EigRej=  5.80D-07 NBFU=   455
 ExpMin= 3.60D-02 ExpMax= 8.59D+03 ExpMxC= 1.30D+03 IAcc=3 IRadAn=         5 AccDes= 0.00D+00
 Harris functional with IExCor= 4639 and IRadAn=       5 diagonalized for initial guess.
 HarFok:  IExCor= 4639 AccDes= 0.00D+00 IRadAn=         5 IDoV= 1 UseB2=F ITyADJ=14
 ICtDFT=  3500011 ScaDFX=  1.000000  1.000000  1.000000  1.000000
 FoFCou: FMM=F IPFlag=           0 FMFlag=      100000 FMFlg1=           0
         NFxFlg=           0 DoJE=T BraDBF=F KetDBF=T FulRan=T
         wScrn=  0.000000 ICntrl=     500 IOpCl=  0 I1Cent=   200000004 NGrid=           0
         NMat0=    1 NMatS0=      1 NMatT0=    0 NMatD0=    1 NMtDS0=    0 NMtDT0=    0
 Petite list used in FoFCou.
 Requested convergence on RMS density matrix=1.00D-08 within 128 cycles.
 Requested convergence on MAX density matrix=1.00D-06.
 Requested convergence on             energy=1.00D-06.
 No special actions if energy rises.
 SCF Done:  E(RwB97XD) =  -746.611523470     A.U. after   19 cycles
            NFock= 19  Conv=0.53D-08     -V/T= 2.0043
 DoSCS=F DFT=T ScalE2(SS,OS)=  1.000000  1.000000
 ExpMin= 3.60D-02 ExpMax= 8.59D+03 ExpMxC= 1.30D+03 IAcc=3 IRadAn=         5 AccDes= 0.00D+00
 HarFok:  IExCor=  205 AccDes= 0.00D+00 IRadAn=         5 IDoV=-2 UseB2=F ITyADJ=14
 ICtDFT= 12500011 ScaDFX=  1.000000  1.000000  1.000000  1.000000
 Range of M.O.s used for correlation:    17   455
 NBasis=   457 NAE=    59 NBE=    59 NFC=    16 NFV=     0
 NROrb=    439 NOA=    43 NOB=    43 NVA=   396 NVB=   396

 **** Warning!!: The largest alpha MO coefficient is  0.14606601D+03

 Would need an additional         29152300000 words for in-memory AO integral storage.
 Orbital symmetries:
       Occupied  (A) (A) (A) (A) (A) (A) (A) (A) (A) (A) (A) (A)
                 (A) (A) (A) (A) (A) (A) (A) (A) (A) (A) (A) (A)
                 (A) (A) (A) (A) (A) (A) (A) (A) (A) (A) (A) (A)
                 (A) (A) (A) (A) (A) (A) (A) (A) (A) (A) (A) (A)
                 (A) (A) (A) (A) (A) (A) (A) (A) (A) (A) (A)
       Virtual   (A) (A) (A) (A) (A) (A) (A) (A) (A) (A) (A) (A)
                 (A) (A) (A) (A) (A) (A) (A) (A) (A) (A) (A) (A)
                 (A) (A) (A) (A) (A) (A) (A) (A) (A) (A) (A) (A)
                 (A) (A) (A) (A) (A) (A) (A) (A) (A) (A) (A) (A)
                 (A) (A) (A) (A) (A) (A) (A) (A) (A) (A) (A) (A)
                 (A) (A) (A) (A) (A) (A) (A) (A) (A) (A) (A) (A)
                 (A) (A) (A) (A) (A) (A) (A) (A) (A) (A) (A) (A)
                 (A) (A) (A) (A) (A) (A) (A) (A) (A) (A) (A) (A)
                 (A) (A) (A) (A) (A) (A) (A) (A) (A) (A) (A) (A)
                 (A) (A) (A) (A) (A) (A) (A) (A) (A) (A) (A) (A)
                 (A) (A) (A) (A) (A) (A) (A) (A) (A) (A) (A) (A)
                 (A) (A) (A) (A) (A) (A) (A) (A) (A) (A) (A) (A)
                 (A) (A) (A) (A) (A) (A) (A) (A) (A) (A) (A) (A)
                 (A) (A) (A) (A) (A) (A) (A) (A) (A) (A) (A) (A)
                 (A) (A) (A) (A) (A) (A) (A) (A) (A) (A) (A) (A)
                 (A) (A) (A) (A) (A) (A) (A) (A) (A) (A) (A) (A)
                 (A) (A) (A) (A) (A) (A) (A) (A) (A) (A) (A) (A)
                 (A) (A) (A) (A) (A) (A) (A) (A) (A) (A) (A) (A)
                 (A) (A) (A) (A) (A) (A) (A) (A) (A) (A) (A) (A)
                 (A) (A) (A) (A) (A) (A) (A) (A) (A) (A) (A) (A)
                 (A) (A) (A) (A) (A) (A) (A) (A) (A) (A) (A) (A)
                 (A) (A) (A) (A) (A) (A) (A) (A) (A) (A) (A) (A)
                 (A) (A) (A) (A) (A) (A) (A) (A) (A) (A) (A) (A)
                 (A) (A) (A) (A) (A) (A) (A) (A) (A) (A) (A) (A)
                 (A) (A) (A) (A) (A) (A) (A) (A) (A) (A) (A) (A)
                 (A) (A) (A) (A) (A) (A) (A) (A) (A) (A) (A) (A)
                 (A) (A) (A) (A) (A) (A) (A) (A) (A) (A) (A) (A)
                 (A) (A) (A) (A) (A) (A) (A) (A) (A) (A) (A) (A)
                 (A) (A) (A) (A) (A) (A) (A) (A) (A) (A) (A) (A)
                 (A) (A) (A) (A) (A) (A) (A) (A) (A) (A) (A) (A)
                 (A) (A) (A) (A) (A) (A) (A) (A) (A) (A) (A) (A)
                 (A) (A) (A) (A) (A) (A) (A) (A) (A) (A) (A) (A)
                 (A) (A) (A) (A) (A) (A) (A) (A) (A) (A) (A) (A)
     8 initial guesses have been made.
 Convergence on wavefunction:    0.000001000000000
 Iteration     1 Dimension     8 NMult     0 NNew      8
 CISAX will form     8 AO SS matrices at one time.
 Iteration     2 Dimension    12 NMult     8 NNew      4
 Iteration     3 Dimension    16 NMult    12 NNew      4
 Iteration     4 Dimension    20 NMult    16 NNew      4
 Iteration     5 Dimension    24 NMult    20 NNew      4
 Iteration     6 Dimension    28 NMult    24 NNew      4
 Iteration     7 Dimension    32 NMult    28 NNew      4
 Iteration     8 Dimension    36 NMult    32 NNew      4
 Iteration     9 Dimension    40 NMult    36 NNew      4
 Iteration    10 Dimension    44 NMult    40 NNew      4
 Iteration    11 Dimension    48 NMult    44 NNew      4
 ***********************************************************************
 Excited states from <AA,BB:AA,BB> singles matrix:
 ***********************************************************************
 
 Ground to excited state transition densities written to RWF  633
 Ground to excited state transition electric dipole moments (Au):
       state          X           Y           Z        Dip. S.      Osc.
         1        -0.0325     -0.0340      0.0146      0.0024      0.0001
 Ground to excited state transition velocity dipole moments (Au):
       state          X           Y           Z        Dip. S.      Osc.
         1         0.0035      0.0058      0.0023      0.0001      0.0004
 Ground to excited state transition magnetic dipole moments (Au):
       state          X           Y           Z
         1        -0.2140     -0.3346     -0.0410
 Ground to excited state transition velocity quadrupole moments (Au):
       state          XX          YY          ZZ          XY          XZ          YZ
         1        -0.0093      0.0083     -0.0106      0.0211      0.0040     -0.0023
 <0|del|b> * <b|rxdel|0> + <0|del|b> * <b|delr+rdel|0>
 Rotatory Strengths (R) in cgs (10**-40 erg-esu-cm/Gauss)
       state          XX          YY          ZZ    R(velocity)    E-M Angle
         1        -7.8923     -3.5700    -10.4833     -7.3152      167.39
 1/2[<0|r|b>*<b|rxdel|0> + (<0|rxdel|b>*<b|r|0>)*]
 Rotatory Strengths (R) in cgs (10**-40 erg-esu-cm/Gauss)
       state          XX          YY          ZZ     R(length)
         1        -4.9245     -8.0387      0.4226     -4.1802
  1/2[<0|del|b>*<b|r|0> + (<0|r|b>*<b|del|0>)*] (Au)
       state          X           Y           Z        Dip. S.   Osc.(frdel)
         1        -0.0001     -0.0002      0.0000      0.0003      0.0002

 Excitation energies and oscillator strengths:
 
 Excited State   1:      Singlet-A      2.4412 eV  507.88 nm  f=0.0001  <S**2>=0.000
      56 -> 60         0.16873
      59 -> 60         0.65945
 This state for optimization and/or second-order correction.
 Total Energy, E(TD-HF/TD-KS) =  -746.521810048    
 Copying the excited state density for this state as the 1-particle RhoCI density.
 SavETr:  write IOETrn=   770 NScale= 10 NData=  16 NLR=1 NState=    1 LETran=      28.
          IDoAtm=1111111111111111111111111111111
          Differentiating once with respect to electric field.
                with respect to dipole field.
          Differentiating once with respect to nuclear coordinates.
          There are     1 degrees of freedom in the 1st order CPHF.  IDoFFX=0 NUNeed=     1.
 LinEq1:  Iter=  0 NonCon=     1 RMS=5.13D-03 Max=1.20D-01 NDo=     1
 AX will form     1 AO Fock derivatives at one time.
 LinEq1:  Iter=  1 NonCon=     1 RMS=2.24D-03 Max=9.85D-02 NDo=     1
 LinEq1:  Iter=  2 NonCon=     1 RMS=1.63D-03 Max=4.66D-02 NDo=     1
 LinEq1:  Iter=  3 NonCon=     1 RMS=6.74D-04 Max=5.03D-02 NDo=     1
 LinEq1:  Iter=  4 NonCon=     1 RMS=4.49D-04 Max=1.63D-02 NDo=     1
 LinEq1:  Iter=  5 NonCon=     1 RMS=2.22D-04 Max=1.40D-02 NDo=     1
 LinEq1:  Iter=  6 NonCon=     1 RMS=1.14D-04 Max=5.70D-03 NDo=     1
 LinEq1:  Iter=  7 NonCon=     1 RMS=5.07D-05 Max=2.72D-03 NDo=     1
 LinEq1:  Iter=  8 NonCon=     1 RMS=2.60D-05 Max=1.50D-03 NDo=     1
 LinEq1:  Iter=  9 NonCon=     1 RMS=1.32D-05 Max=7.60D-04 NDo=     1
 LinEq1:  Iter= 10 NonCon=     1 RMS=6.20D-06 Max=2.43D-04 NDo=     1
 LinEq1:  Iter= 11 NonCon=     1 RMS=3.37D-06 Max=1.49D-04 NDo=     1
 LinEq1:  Iter= 12 NonCon=     1 RMS=1.45D-06 Max=7.04D-05 NDo=     1
 LinEq1:  Iter= 13 NonCon=     1 RMS=7.76D-07 Max=6.19D-05 NDo=     1
 LinEq1:  Iter= 14 NonCon=     1 RMS=3.40D-07 Max=1.79D-05 NDo=     1
 LinEq1:  Iter= 15 NonCon=     1 RMS=1.56D-07 Max=9.33D-06 NDo=     1
 LinEq1:  Iter= 16 NonCon=     1 RMS=7.14D-08 Max=2.58D-06 NDo=     1
 LinEq1:  Iter= 17 NonCon=     1 RMS=4.00D-08 Max=1.87D-06 NDo=     1
 LinEq1:  Iter= 18 NonCon=     1 RMS=1.63D-08 Max=6.95D-07 NDo=     1
 LinEq1:  Iter= 19 NonCon=     1 RMS=7.97D-09 Max=2.48D-07 NDo=     1
 LinEq1:  Iter= 20 NonCon=     1 RMS=3.55D-09 Max=1.40D-07 NDo=     1
 LinEq1:  Iter= 21 NonCon=     1 RMS=1.76D-09 Max=6.71D-08 NDo=     1
 LinEq1:  Iter= 22 NonCon=     1 RMS=6.81D-10 Max=2.10D-08 NDo=     1
 LinEq1:  Iter= 23 NonCon=     1 RMS=2.77D-10 Max=7.24D-09 NDo=     1
 LinEq1:  Iter= 24 NonCon=     1 RMS=1.06D-10 Max=2.48D-09 NDo=     1
 LinEq1:  Iter= 25 NonCon=     0 RMS=3.92D-11 Max=9.39D-10 NDo=     1
 Linear equations converged to 1.000D-10 1.000D-09 after    25 iterations.
 End of Minotr F.D. properties file   721 does not exist.
 End of Minotr F.D. properties file   722 does not exist.
 End of Minotr F.D. properties file   788 does not exist.

 **********************************************************************

            Population analysis using the SCF density.

 **********************************************************************

 Orbital symmetries:
       Occupied  (A) (A) (A) (A) (A) (A) (A) (A) (A) (A) (A) (A)
                 (A) (A) (A) (A) (A) (A) (A) (A) (A) (A) (A) (A)
                 (A) (A) (A) (A) (A) (A) (A) (A) (A) (A) (A) (A)
                 (A) (A) (A) (A) (A) (A) (A) (A) (A) (A) (A) (A)
                 (A) (A) (A) (A) (A) (A) (A) (A) (A) (A) (A)
       Virtual   (A) (A) (A) (A) (A) (A) (A) (A) (A) (A) (A) (A)
                 (A) (A) (A) (A) (A) (A) (A) (A) (A) (A) (A) (A)
                 (A) (A) (A) (A) (A) (A) (A) (A) (A) (A) (A) (A)
                 (A) (A) (A) (A) (A) (A) (A) (A) (A) (A) (A) (A)
                 (A) (A) (A) (A) (A) (A) (A) (A) (A) (A) (A) (A)
                 (A) (A) (A) (A) (A) (A) (A) (A) (A) (A) (A) (A)
                 (A) (A) (A) (A) (A) (A) (A) (A) (A) (A) (A) (A)
                 (A) (A) (A) (A) (A) (A) (A) (A) (A) (A) (A) (A)
                 (A) (A) (A) (A) (A) (A) (A) (A) (A) (A) (A) (A)
                 (A) (A) (A) (A) (A) (A) (A) (A) (A) (A) (A) (A)
                 (A) (A) (A) (A) (A) (A) (A) (A) (A) (A) (A) (A)
                 (A) (A) (A) (A) (A) (A) (A) (A) (A) (A) (A) (A)
                 (A) (A) (A) (A) (A) (A) (A) (A) (A) (A) (A) (A)
                 (A) (A) (A) (A) (A) (A) (A) (A) (A) (A) (A) (A)
                 (A) (A) (A) (A) (A) (A) (A) (A) (A) (A) (A) (A)
                 (A) (A) (A) (A) (A) (A) (A) (A) (A) (A) (A) (A)
                 (A) (A) (A) (A) (A) (A) (A) (A) (A) (A) (A) (A)
                 (A) (A) (A) (A) (A) (A) (A) (A) (A) (A) (A) (A)
                 (A) (A) (A) (A) (A) (A) (A) (A) (A) (A) (A) (A)
                 (A) (A) (A) (A) (A) (A) (A) (A) (A) (A) (A) (A)
                 (A) (A) (A) (A) (A) (A) (A) (A) (A) (A) (A) (A)
                 (A) (A) (A) (A) (A) (A) (A) (A) (A) (A) (A) (A)
                 (A) (A) (A) (A) (A) (A) (A) (A) (A) (A) (A) (A)
                 (A) (A) (A) (A) (A) (A) (A) (A) (A) (A) (A) (A)
                 (A) (A) (A) (A) (A) (A) (A) (A) (A) (A) (A) (A)
                 (A) (A) (A) (A) (A) (A) (A) (A) (A) (A) (A) (A)
                 (A) (A) (A) (A) (A) (A) (A) (A) (A) (A) (A) (A)
                 (A) (A) (A) (A) (A) (A) (A) (A) (A) (A) (A) (A)
                 (A) (A) (A) (A) (A) (A) (A) (A) (A) (A) (A) (A)
                 (A) (A) (A) (A) (A) (A) (A) (A) (A) (A) (A) (A)
                 (A) (A) (A) (A) (A) (A) (A) (A) (A) (A) (A) (A)
                 (A) (A) (A) (A) (A) (A) (A) (A) (A) (A) (A) (A)
                 (A) (A) (A) (A) (A) (A) (A) (A) (A) (A) (A) (A)
 The electronic state is 1-A.
 Alpha  occ. eigenvalues --  -19.28970 -19.27162 -19.22840 -14.45837 -10.38063
 Alpha  occ. eigenvalues --  -10.37740 -10.37487 -10.34195 -10.32398 -10.32076
 Alpha  occ. eigenvalues --  -10.32004 -10.31900 -10.30556 -10.29869 -10.29433
 Alpha  occ. eigenvalues --  -10.26263  -1.16859  -1.16154  -1.10794  -1.06427
 Alpha  occ. eigenvalues --   -0.97600  -0.89125  -0.86508  -0.86089  -0.83443
 Alpha  occ. eigenvalues --   -0.81449  -0.78289  -0.74350  -0.71674  -0.68914
 Alpha  occ. eigenvalues --   -0.65564  -0.62840  -0.61654  -0.60232  -0.59431
 Alpha  occ. eigenvalues --   -0.58055  -0.56632  -0.56024  -0.54813  -0.53799
 Alpha  occ. eigenvalues --   -0.52288  -0.51968  -0.50676  -0.50292  -0.49986
 Alpha  occ. eigenvalues --   -0.49363  -0.48402  -0.48102  -0.47136  -0.45524
 Alpha  occ. eigenvalues --   -0.45001  -0.43218  -0.41611  -0.40499  -0.39720
 Alpha  occ. eigenvalues --   -0.34560  -0.32652  -0.31437  -0.25421
 Alpha virt. eigenvalues --   -0.00872   0.03213   0.03906   0.04917   0.05180
 Alpha virt. eigenvalues --    0.05503   0.05919   0.06564   0.06782   0.07354
 Alpha virt. eigenvalues --    0.07709   0.08263   0.09002   0.09113   0.09252
 Alpha virt. eigenvalues --    0.09797   0.09974   0.10725   0.11075   0.12094
 Alpha virt. eigenvalues --    0.12345   0.12855   0.13929   0.14549   0.14841
 Alpha virt. eigenvalues --    0.15035   0.15123   0.15666   0.16145   0.16419
 Alpha virt. eigenvalues --    0.16634   0.16901   0.17277   0.17657   0.17866
 Alpha virt. eigenvalues --    0.18295   0.18559   0.18815   0.18898   0.19437
 Alpha virt. eigenvalues --    0.19705   0.19991   0.20184   0.20482   0.21019
 Alpha virt. eigenvalues --    0.21235   0.21752   0.22391   0.22478   0.23052
 Alpha virt. eigenvalues --    0.23161   0.23418   0.23716   0.24074   0.24719
 Alpha virt. eigenvalues --    0.24852   0.25527   0.25720   0.26038   0.27210
 Alpha virt. eigenvalues --    0.27847   0.28181   0.28511   0.29179   0.29266
 Alpha virt. eigenvalues --    0.29902   0.30296   0.30578   0.31300   0.31644
 Alpha virt. eigenvalues --    0.32377   0.32517   0.33358   0.33479   0.34233
 Alpha virt. eigenvalues --    0.34402   0.34683   0.35187   0.35811   0.35968
 Alpha virt. eigenvalues --    0.36523   0.36937   0.37107   0.37519   0.38011
 Alpha virt. eigenvalues --    0.38022   0.38562   0.39247   0.39547   0.40046
 Alpha virt. eigenvalues --    0.40332   0.41077   0.41263   0.42081   0.42253
 Alpha virt. eigenvalues --    0.43082   0.43591   0.44570   0.45147   0.45631
 Alpha virt. eigenvalues --    0.45729   0.47342   0.48014   0.48598   0.49286
 Alpha virt. eigenvalues --    0.51241   0.51564   0.52210   0.52822   0.53652
 Alpha virt. eigenvalues --    0.54076   0.54819   0.55120   0.56227   0.57617
 Alpha virt. eigenvalues --    0.59434   0.60744   0.61575   0.62846   0.64140
 Alpha virt. eigenvalues --    0.65002   0.65536   0.65915   0.67010   0.67587
 Alpha virt. eigenvalues --    0.68386   0.68744   0.69194   0.69329   0.70752
 Alpha virt. eigenvalues --    0.71397   0.71829   0.72466   0.72777   0.73457
 Alpha virt. eigenvalues --    0.73625   0.74329   0.74980   0.75731   0.75980
 Alpha virt. eigenvalues --    0.77250   0.77529   0.77649   0.79464   0.79913
 Alpha virt. eigenvalues --    0.80787   0.81370   0.81675   0.83111   0.83602
 Alpha virt. eigenvalues --    0.84509   0.85208   0.86018   0.87026   0.88615
 Alpha virt. eigenvalues --    0.90313   0.92553   0.95430   0.96173   0.96687
 Alpha virt. eigenvalues --    0.97631   0.97989   0.98696   0.98886   1.00494
 Alpha virt. eigenvalues --    1.01902   1.03437   1.04822   1.05618   1.06148
 Alpha virt. eigenvalues --    1.07126   1.08211   1.08932   1.09549   1.10362
 Alpha virt. eigenvalues --    1.11859   1.12143   1.13777   1.15726   1.16892
 Alpha virt. eigenvalues --    1.17578   1.18626   1.18973   1.19931   1.22284
 Alpha virt. eigenvalues --    1.23262   1.23921   1.26241   1.29157   1.29227
 Alpha virt. eigenvalues --    1.30678   1.30947   1.33626   1.36175   1.36781
 Alpha virt. eigenvalues --    1.38534   1.39150   1.40058   1.40227   1.42521
 Alpha virt. eigenvalues --    1.46439   1.46741   1.50555   1.51507   1.51972
 Alpha virt. eigenvalues --    1.53031   1.53307   1.53791   1.55056   1.56122
 Alpha virt. eigenvalues --    1.58236   1.59763   1.60729   1.61996   1.62602
 Alpha virt. eigenvalues --    1.63487   1.63813   1.63884   1.64715   1.65164
 Alpha virt. eigenvalues --    1.66427   1.67648   1.68637   1.70395   1.71310
 Alpha virt. eigenvalues --    1.71854   1.73927   1.74832   1.76260   1.77362
 Alpha virt. eigenvalues --    1.78793   1.78825   1.80329   1.80631   1.81353
 Alpha virt. eigenvalues --    1.83159   1.84408   1.85204   1.86071   1.87744
 Alpha virt. eigenvalues --    1.90196   1.91248   1.93639   1.93990   1.96670
 Alpha virt. eigenvalues --    1.97033   1.98780   1.99394   2.01184   2.02493
 Alpha virt. eigenvalues --    2.04430   2.04796   2.05656   2.07424   2.08020
 Alpha virt. eigenvalues --    2.08444   2.10655   2.10912   2.13264   2.14062
 Alpha virt. eigenvalues --    2.16091   2.17052   2.18062   2.20257   2.22072
 Alpha virt. eigenvalues --    2.23700   2.24612   2.25885   2.26973   2.28428
 Alpha virt. eigenvalues --    2.30458   2.31948   2.34271   2.36992   2.39655
 Alpha virt. eigenvalues --    2.41326   2.44244   2.45173   2.50796   2.51891
 Alpha virt. eigenvalues --    2.52369   2.53001   2.55141   2.56706   2.57175
 Alpha virt. eigenvalues --    2.57532   2.58305   2.60282   2.60966   2.63251
 Alpha virt. eigenvalues --    2.64177   2.66199   2.67083   2.67875   2.69732
 Alpha virt. eigenvalues --    2.70526   2.71476   2.73329   2.74808   2.76201
 Alpha virt. eigenvalues --    2.78427   2.79055   2.80558   2.82017   2.82575
 Alpha virt. eigenvalues --    2.83471   2.84937   2.86250   2.86873   2.88877
 Alpha virt. eigenvalues --    2.91908   2.92484   2.93359   2.95983   2.97029
 Alpha virt. eigenvalues --    2.99208   3.01547   3.02872   3.03478   3.06468
 Alpha virt. eigenvalues --    3.07316   3.09398   3.11217   3.11647   3.14993
 Alpha virt. eigenvalues --    3.16322   3.16799   3.17570   3.18569   3.20330
 Alpha virt. eigenvalues --    3.21171   3.24747   3.28512   3.29524   3.29986
 Alpha virt. eigenvalues --    3.32626   3.35532   3.38790   3.39698   3.43484
 Alpha virt. eigenvalues --    3.48817   3.51353   3.57772   3.61087   3.65377
 Alpha virt. eigenvalues --    3.68293   3.71810   3.74849   3.75536   3.78329
 Alpha virt. eigenvalues --    3.83589   3.84343   3.86295   3.87668   3.91947
 Alpha virt. eigenvalues --    3.93671   3.95677   3.96384   4.03438   4.12557
 Alpha virt. eigenvalues --    4.15154   4.16356   4.18612   4.22020   4.27972
 Alpha virt. eigenvalues --    4.31179   4.37073   4.53948   4.93702   4.99736
 Alpha virt. eigenvalues --    5.13429   5.14926   5.18824   5.20988   5.44365
 Alpha virt. eigenvalues --    5.46289   5.57636   5.81066   5.83914   5.92541
 Alpha virt. eigenvalues --   23.68611  23.96219  24.01863  24.02569  24.04535
 Alpha virt. eigenvalues --   24.06805  24.08336  24.10087  24.15528  24.22945
 Alpha virt. eigenvalues --   24.27679  24.30099  35.72266  50.05975  50.10760
 Alpha virt. eigenvalues --   50.13895
          Condensed to atoms (all electrons):
               1          2          3          4          5          6
     1  C    5.164630   0.385696   0.386523  -0.069494   0.003702   0.230929
     2  H    0.385696   0.505229  -0.029823   0.008804  -0.007124  -0.055710
     3  H    0.386523  -0.029823   0.558757  -0.005874   0.001947  -0.070232
     4  C   -0.069494   0.008804  -0.005874   5.162080   0.406173   0.253953
     5  H    0.003702  -0.007124   0.001947   0.406173   0.588890  -0.063498
     6  N    0.230929  -0.055710  -0.070232   0.253953  -0.063498   6.928477
     7  H    0.442192  -0.010629  -0.051296   0.006393   0.001241  -0.047110
     8  H   -0.005440   0.004140  -0.002343   0.390915  -0.032181  -0.095046
     9  H    0.000520  -0.003281   0.001936   0.432249  -0.070899  -0.062200
    10  C   -0.291732   0.039676   0.009709  -0.057394  -0.032941   0.266860
    11  H    0.008332  -0.001041   0.001171  -0.031507   0.008066  -0.078512
    12  C    0.343621   0.009084   0.000001  -0.215076   0.014897  -0.310977
    13  C   -0.083091  -0.015144   0.022330  -0.008113   0.012653  -0.068303
    14  H    0.020362  -0.001794  -0.002785  -0.011994   0.003125  -0.044485
    15  O   -0.005789  -0.000496   0.000265  -0.001471  -0.000051   0.000052
    16  C   -0.142569  -0.010706   0.016441   0.051866   0.004778  -0.050210
    17  C   -0.016458  -0.001464   0.000955   0.010035   0.000965  -0.016838
    18  C    0.037057   0.001621  -0.004490   0.004665  -0.001161   0.049011
    19  O    0.000034   0.000001   0.000046  -0.000183   0.000001  -0.000281
    20  C   -0.003848  -0.000314  -0.001541   0.001175   0.000278  -0.013015
    21  C    0.018539   0.001869   0.001745  -0.008918  -0.001127   0.045666
    22  H    0.003737   0.000400  -0.006197  -0.000456  -0.000793   0.009987
    23  H   -0.000688  -0.000068   0.000042   0.000117  -0.000013   0.000988
    24  H   -0.000088  -0.000004  -0.000009  -0.000035   0.000000  -0.000051
    25  C    0.001959   0.000185   0.000103  -0.000805  -0.000081   0.004597
    26  H   -0.000629  -0.000066   0.000470   0.000139   0.000040  -0.000999
    27  O    0.000003   0.000000   0.000001   0.000002   0.000000   0.000000
    28  C    0.000028   0.000001   0.000014   0.000014  -0.000002   0.000093
    29  H    0.000001   0.000000  -0.000001   0.000000   0.000000  -0.000002
    30  H   -0.000001   0.000000   0.000002   0.000001   0.000000   0.000003
    31  H   -0.000010   0.000002  -0.000028  -0.000029  -0.000002   0.000073
               7          8          9         10         11         12
     1  C    0.442192  -0.005440   0.000520  -0.291732   0.008332   0.343621
     2  H   -0.010629   0.004140  -0.003281   0.039676  -0.001041   0.009084
     3  H   -0.051296  -0.002343   0.001936   0.009709   0.001171   0.000001
     4  C    0.006393   0.390915   0.432249  -0.057394  -0.031507  -0.215076
     5  H    0.001241  -0.032181  -0.070899  -0.032941   0.008066   0.014897
     6  N   -0.047110  -0.095046  -0.062200   0.266860  -0.078512  -0.310977
     7  H    0.519725  -0.000873  -0.000845  -0.006197  -0.004943   0.028577
     8  H   -0.000873   0.552950  -0.018570   0.101544  -0.008778  -0.007917
     9  H   -0.000845  -0.018570   0.572505  -0.005112  -0.001974  -0.009542
    10  C   -0.006197   0.101544  -0.005112   8.561255   0.194550  -1.764481
    11  H   -0.004943  -0.008778  -0.001974   0.194550   0.549913   0.212514
    12  C    0.028577  -0.007917  -0.009542  -1.764481   0.212514  17.724565
    13  C   -0.058634  -0.013422  -0.006007  -1.346501   0.038526   1.127838
    14  H   -0.006455  -0.003110  -0.001756  -0.222698   0.026349   0.616503
    15  O   -0.000732   0.001801   0.000093   0.007587  -0.007813  -0.660289
    16  C   -0.005367  -0.005463   0.002304   1.015995   0.021670  -6.440971
    17  C   -0.001143  -0.002227   0.000671   0.084779   0.035541  -1.430346
    18  C    0.005204   0.002716  -0.001851   0.083033  -0.074626  -2.245884
    19  O   -0.000110   0.000080  -0.000007  -0.004713  -0.001373  -0.020235
    20  C    0.000013  -0.001828   0.000223  -0.205668   0.025978  -1.990479
    21  C    0.000392   0.006098  -0.001113   0.236474  -0.050406   1.327238
    22  H    0.002012   0.000538   0.000121  -0.024166  -0.004960  -0.017742
    23  H    0.000250   0.000128   0.000004   0.009277  -0.002597   0.003454
    24  H    0.000009   0.000003   0.000000  -0.001984   0.000043  -0.016792
    25  C   -0.000028   0.000598  -0.000096   0.029089  -0.007229  -0.043598
    26  H   -0.000062   0.000011   0.000000   0.008686   0.000107  -0.034543
    27  O   -0.000001  -0.000001   0.000000   0.000052   0.000011   0.001535
    28  C   -0.000004   0.000010  -0.000001   0.000452  -0.000257  -0.002051
    29  H    0.000000   0.000000   0.000000   0.000054  -0.000006  -0.000014
    30  H    0.000000   0.000000   0.000000  -0.000032   0.000005  -0.000258
    31  H    0.000010   0.000002  -0.000001  -0.000605   0.000016   0.006955
              13         14         15         16         17         18
     1  C   -0.083091   0.020362  -0.005789  -0.142569  -0.016458   0.037057
     2  H   -0.015144  -0.001794  -0.000496  -0.010706  -0.001464   0.001621
     3  H    0.022330  -0.002785   0.000265   0.016441   0.000955  -0.004490
     4  C   -0.008113  -0.011994  -0.001471   0.051866   0.010035   0.004665
     5  H    0.012653   0.003125  -0.000051   0.004778   0.000965  -0.001161
     6  N   -0.068303  -0.044485   0.000052  -0.050210  -0.016838   0.049011
     7  H   -0.058634  -0.006455  -0.000732  -0.005367  -0.001143   0.005204
     8  H   -0.013422  -0.003110   0.001801  -0.005463  -0.002227   0.002716
     9  H   -0.006007  -0.001756   0.000093   0.002304   0.000671  -0.001851
    10  C   -1.346501  -0.222698   0.007587   1.015995   0.084779   0.083033
    11  H    0.038526   0.026349  -0.007813   0.021670   0.035541  -0.074626
    12  C    1.127838   0.616503  -0.660289  -6.440971  -1.430346  -2.245884
    13  C   16.243057   0.062789   0.745581  -2.611583   0.099256  -2.808533
    14  H    0.062789   0.540700   0.006431   0.008500   0.033136  -0.164379
    15  O    0.745581   0.006431   8.088951   0.053114   0.206234  -0.178714
    16  C   -2.611583   0.008500   0.053114  18.594021   1.361325  -1.585877
    17  C    0.099256   0.033136   0.206234   1.361325  23.913027  -9.574815
    18  C   -2.808533  -0.164379  -0.178714  -1.585877  -9.574815  22.393994
    19  O   -0.061152  -0.000374  -0.031874   0.087854   0.360584   0.039679
    20  C   -4.228436   0.028289  -0.088467  -2.229234 -11.746038   8.473733
    21  C   -0.058012  -0.079753   0.001673  -1.779847   3.564152  -6.104775
    22  H   -0.012987  -0.013473  -0.003906  -0.295741  -0.117856   0.652458
    23  H    0.009218  -0.002499   0.096999  -0.197889   0.143237  -0.015646
    24  H   -0.042884  -0.000032  -0.000373  -0.080232  -0.317332   0.130601
    25  C   -1.008767  -0.010004   0.012026  -0.891274  -0.708715  -2.204905
    26  H   -0.026230   0.000888   0.000292   0.146373   0.055146   0.071342
    27  O    0.001651  -0.000031  -0.000023   0.021684   0.093891  -0.133249
    28  C   -0.016783  -0.000195   0.000014  -0.050098   0.111755  -0.168976
    29  H    0.001383   0.000011   0.000002   0.008349   0.013957  -0.015143
    30  H   -0.001468  -0.000004   0.000000   0.005776  -0.013452   0.025933
    31  H    0.007372  -0.000209   0.000043  -0.057899   0.015624  -0.142448
              19         20         21         22         23         24
     1  C    0.000034  -0.003848   0.018539   0.003737  -0.000688  -0.000088
     2  H    0.000001  -0.000314   0.001869   0.000400  -0.000068  -0.000004
     3  H    0.000046  -0.001541   0.001745  -0.006197   0.000042  -0.000009
     4  C   -0.000183   0.001175  -0.008918  -0.000456   0.000117  -0.000035
     5  H    0.000001   0.000278  -0.001127  -0.000793  -0.000013   0.000000
     6  N   -0.000281  -0.013015   0.045666   0.009987   0.000988  -0.000051
     7  H   -0.000110   0.000013   0.000392   0.002012   0.000250   0.000009
     8  H    0.000080  -0.001828   0.006098   0.000538   0.000128   0.000003
     9  H   -0.000007   0.000223  -0.001113   0.000121   0.000004   0.000000
    10  C   -0.004713  -0.205668   0.236474  -0.024166   0.009277  -0.001984
    11  H   -0.001373   0.025978  -0.050406  -0.004960  -0.002597   0.000043
    12  C   -0.020235  -1.990479   1.327238  -0.017742   0.003454  -0.016792
    13  C   -0.061152  -4.228436  -0.058012  -0.012987   0.009218  -0.042884
    14  H   -0.000374   0.028289  -0.079753  -0.013473  -0.002499  -0.000032
    15  O   -0.031874  -0.088467   0.001673  -0.003906   0.096999  -0.000373
    16  C    0.087854  -2.229234  -1.779847  -0.295741  -0.197889  -0.080232
    17  C    0.360584 -11.746038   3.564152  -0.117856   0.143237  -0.317332
    18  C    0.039679   8.473733  -6.104775   0.652458  -0.015646   0.130601
    19  O    8.028757  -0.440578   0.028472  -0.000606   0.233667  -0.026429
    20  C   -0.440578  31.843560 -11.772323   0.217710   0.006860   0.991789
    21  C    0.028472 -11.772323  19.420754  -0.170889   0.031622  -0.189182
    22  H   -0.000606   0.217710  -0.170889   0.487811  -0.000539   0.003272
    23  H    0.233667   0.006860   0.031622  -0.000539   0.371436   0.002249
    24  H   -0.026429   0.991789  -0.189182   0.003272   0.002249   0.461375
    25  C    0.048505  -1.353150   0.387460   0.097200  -0.004589  -0.150970
    26  H    0.000487  -0.302760   0.782483  -0.042373   0.000651  -0.003695
    27  O   -0.000870  -0.723334   0.238778  -0.000521  -0.000108  -0.024833
    28  C   -0.000071  -0.296486   0.207398  -0.004181   0.000463  -0.002270
    29  H   -0.000003   0.067142  -0.069368   0.000349   0.000006  -0.000376
    30  H   -0.000023  -0.088104   0.122855  -0.001586  -0.000014  -0.001152
    31  H   -0.000062   0.126239  -0.160197   0.012160  -0.000062   0.002592
              25         26         27         28         29         30
     1  C    0.001959  -0.000629   0.000003   0.000028   0.000001  -0.000001
     2  H    0.000185  -0.000066   0.000000   0.000001   0.000000   0.000000
     3  H    0.000103   0.000470   0.000001   0.000014  -0.000001   0.000002
     4  C   -0.000805   0.000139   0.000002   0.000014   0.000000   0.000001
     5  H   -0.000081   0.000040   0.000000  -0.000002   0.000000   0.000000
     6  N    0.004597  -0.000999   0.000000   0.000093  -0.000002   0.000003
     7  H   -0.000028  -0.000062  -0.000001  -0.000004   0.000000   0.000000
     8  H    0.000598   0.000011  -0.000001   0.000010   0.000000   0.000000
     9  H   -0.000096   0.000000   0.000000  -0.000001   0.000000   0.000000
    10  C    0.029089   0.008686   0.000052   0.000452   0.000054  -0.000032
    11  H   -0.007229   0.000107   0.000011  -0.000257  -0.000006   0.000005
    12  C   -0.043598  -0.034543   0.001535  -0.002051  -0.000014  -0.000258
    13  C   -1.008767  -0.026230   0.001651  -0.016783   0.001383  -0.001468
    14  H   -0.010004   0.000888  -0.000031  -0.000195   0.000011  -0.000004
    15  O    0.012026   0.000292  -0.000023   0.000014   0.000002   0.000000
    16  C   -0.891274   0.146373   0.021684  -0.050098   0.008349   0.005776
    17  C   -0.708715   0.055146   0.093891   0.111755   0.013957  -0.013452
    18  C   -2.204905   0.071342  -0.133249  -0.168976  -0.015143   0.025933
    19  O    0.048505   0.000487  -0.000870  -0.000071  -0.000003  -0.000023
    20  C   -1.353150  -0.302760  -0.723334  -0.296486   0.067142  -0.088104
    21  C    0.387460   0.782483   0.238778   0.207398  -0.069368   0.122855
    22  H    0.097200  -0.042373  -0.000521  -0.004181   0.000349  -0.001586
    23  H   -0.004589   0.000651  -0.000108   0.000463   0.000006  -0.000014
    24  H   -0.150970  -0.003695  -0.024833  -0.002270  -0.000376  -0.001152
    25  C   12.317242  -0.436418   0.504520  -0.062843   0.031920  -0.061673
    26  H   -0.436418   0.622289  -0.020870   0.027350  -0.007779   0.015658
    27  O    0.504520  -0.020870   8.103711   0.206490  -0.053117  -0.066182
    28  C   -0.062843   0.027350   0.206490   5.174711   0.375540   0.425823
    29  H    0.031920  -0.007779  -0.053117   0.375540   0.535588  -0.049454
    30  H   -0.061673   0.015658  -0.066182   0.425823  -0.049454   0.568323
    31  H    0.182873  -0.051131  -0.021802   0.382277  -0.019316  -0.058736
              31
     1  C   -0.000010
     2  H    0.000002
     3  H   -0.000028
     4  C   -0.000029
     5  H   -0.000002
     6  N    0.000073
     7  H    0.000010
     8  H    0.000002
     9  H   -0.000001
    10  C   -0.000605
    11  H    0.000016
    12  C    0.006955
    13  C    0.007372
    14  H   -0.000209
    15  O    0.000043
    16  C   -0.057899
    17  C    0.015624
    18  C   -0.142448
    19  O   -0.000062
    20  C    0.126239
    21  C   -0.160197
    22  H    0.012160
    23  H   -0.000062
    24  H    0.002592
    25  C    0.182873
    26  H   -0.051131
    27  O   -0.021802
    28  C    0.382277
    29  H   -0.019316
    30  H   -0.058736
    31  H    0.649626
 Mulliken charges:
               1
     1  C   -0.428026
     2  H    0.180960
     3  H    0.172163
     4  C   -0.317234
     5  H    0.163119
     6  N    0.186780
     7  H    0.188410
     8  H    0.135665
     9  H    0.172628
    10  C   -0.684849
    11  H    0.153230
    12  C   -0.205587
    13  C    0.104395
    14  H    0.218950
    15  O   -0.241158
    16  C    1.034908
    17  C   -0.157588
    18  C   -0.545574
    19  O   -0.239222
    20  C   -0.297385
    21  C    0.022244
    22  H    0.231218
    23  H    0.314045
    24  H    0.266789
    25  C   -0.673131
    26  H    0.195144
    27  O   -0.127387
    28  C   -0.308214
    29  H    0.180277
    30  H    0.177760
    31  H    0.126673
 Sum of Mulliken charges =   0.00000
 Mulliken charges with hydrogens summed into heavy atoms:
               1
     1  C    0.113507
     4  C    0.154178
     6  N    0.186780
    10  C   -0.531619
    12  C    0.013363
    13  C    0.104395
    15  O   -0.241158
    16  C    1.034908
    17  C   -0.157588
    18  C   -0.314356
    19  O    0.074822
    20  C   -0.030596
    21  C    0.217387
    25  C   -0.673131
    27  O   -0.127387
    28  C    0.176495
 Electronic spatial extent (au):  <R**2>=           5517.4537
 Charge=              0.0000 electrons
 Dipole moment (field-independent basis, Debye):
    X=              1.9883    Y=             -6.0096    Z=              0.2027  Tot=              6.3332
 Quadrupole moment (field-independent basis, Debye-Ang):
   XX=            -77.5791   YY=            -98.4806   ZZ=            -93.1997
   XY=              1.1439   XZ=              1.2091   YZ=             -0.3065
 Traceless Quadrupole moment (field-independent basis, Debye-Ang):
   XX=             12.1740   YY=             -8.7275   ZZ=             -3.4466
   XY=              1.1439   XZ=              1.2091   YZ=             -0.3065
 Octapole moment (field-independent basis, Debye-Ang**2):
  XXX=             80.8761  YYY=            -35.0588  ZZZ=              6.0702  XYY=            -28.1047
  XXY=            -70.8399  XXZ=              6.5997  XZZ=             15.1861  YZZ=              0.1665
  YYZ=             -0.8609  XYZ=             -1.0900
 Hexadecapole moment (field-independent basis, Debye-Ang**3):
 XXXX=          -5218.4779 YYYY=          -1250.8831 ZZZZ=           -324.4325 XXXY=             48.0618
 XXXZ=             -4.2535 YYYX=             63.2629 YYYZ=              1.8325 ZZZX=              3.4263
 ZZZY=             -5.6722 XXYY=          -1046.4631 XXZZ=           -964.5000 YYZZ=           -260.0354
 XXYZ=             -7.6065 YYXZ=              4.4306 ZZXY=              2.6635
 N-N= 1.045037936546D+03 E-N=-3.832285364599D+03  KE= 7.434405873107D+02
 Calling FoFJK, ICntrl=  10005127 FMM=F ISym2X=0 I1Cent= 0 IOpClX= 0 NMat=1 NMatS=1 NMatT=0.
 ***** Axes restored to original set *****
 -------------------------------------------------------------------
 Center     Atomic                   Forces (Hartrees/Bohr)
 Number     Number              X              Y              Z
 -------------------------------------------------------------------
      1        6          -0.000186357   -0.000198569   -0.000328282
      2        1          -0.000000944    0.000128536    0.000059139
      3        1           0.000118857   -0.000085079    0.000148970
      4        6           0.000143374   -0.000106785    0.000013468
      5        1          -0.000053063   -0.000010623    0.000064336
      6        7           0.000145643    0.000486540   -0.000141589
      7        1           0.000029673    0.000032115    0.000097823
      8        1          -0.000005274   -0.000017277   -0.000005239
      9        1          -0.000008346    0.000124361   -0.000071762
     10        6          -0.000024147   -0.000444475    0.000221995
     11        1           0.000001599   -0.000055768   -0.000006327
     12        6          -0.000473532   -0.000791874   -0.000087728
     13        6          -0.000085187    0.002380596   -0.000134563
     14        1           0.000366818    0.000267142    0.000158505
     15        8           0.001298041   -0.001938982   -0.000835757
     16        6           0.000782000    0.002987437    0.000462210
     17        6          -0.000273252    0.002661903    0.001575531
     18        6           0.002623296   -0.005495098   -0.002515810
     19        8          -0.002938901    0.001613346    0.001518361
     20        6          -0.008820824   -0.005116895    0.002973805
     21        6           0.002547060   -0.000095631    0.000572837
     22        1          -0.000880400   -0.000249458    0.000528727
     23        1           0.000387552    0.000671863   -0.000132873
     24        1          -0.001390177    0.001237374    0.000584854
     25        6          -0.030263352    0.015786281    0.013508715
     26        1           0.010502021   -0.001330374   -0.001799275
     27        8           0.026467855   -0.012116849   -0.013218076
     28        6           0.012291715    0.002361540   -0.005050334
     29        1           0.003194051   -0.005223407   -0.000186253
     30        1           0.002710934   -0.004224807   -0.002057549
     31        1          -0.018206733    0.006762914    0.004082138
 -------------------------------------------------------------------
 Cartesian Forces:  Max     0.030263352 RMS     0.005995759

 GradGradGradGradGradGradGradGradGradGradGradGradGradGradGradGradGradGrad
 Berny optimization.
 FormGI is forming the generalized inverse of G from B-inverse, IUseBI=4.
 Internal  Forces:  Max     0.045177357 RMS     0.007806041
 Search for a local minimum.
 Step number   1 out of a maximum of  150
 All quantities printed in internal units (Hartrees-Bohrs-Radians)
 Mixed Optimization -- RFO/linear search
 Second derivative matrix not updated -- first step.
 ITU=  0
     Eigenvalues ---    0.00945   0.00980   0.01163   0.01255   0.01403
     Eigenvalues ---    0.01453   0.01671   0.01845   0.01882   0.01906
     Eigenvalues ---    0.01918   0.02015   0.02060   0.02108   0.02179
     Eigenvalues ---    0.02197   0.02239   0.02245   0.02275   0.02296
     Eigenvalues ---    0.02448   0.02626   0.07444   0.07541   0.07575
     Eigenvalues ---    0.07650   0.10007   0.10623   0.15748   0.16000
     Eigenvalues ---    0.16000   0.16000   0.16000   0.16000   0.16000
     Eigenvalues ---    0.16000   0.16000   0.16000   0.16000   0.16000
     Eigenvalues ---    0.16000   0.16000   0.16000   0.22000   0.22060
     Eigenvalues ---    0.22366   0.23486   0.24600   0.24966   0.24998
     Eigenvalues ---    0.24998   0.24999   0.25000   0.25000   0.25000
     Eigenvalues ---    0.25000   0.33934   0.33934   0.34482   0.34483
     Eigenvalues ---    0.34510   0.34581   0.34695   0.34924   0.34986
     Eigenvalues ---    0.34987   0.35336   0.35469   0.35478   0.35513
     Eigenvalues ---    0.36587   0.37416   0.37753   0.39585   0.39974
     Eigenvalues ---    0.41442   0.42754   0.43547   0.44953   0.45433
     Eigenvalues ---    0.47202   0.48041   0.48363   0.52729   0.54114
     Eigenvalues ---    0.59653   0.66632
 RFO step:  Lambda=-3.39117497D-02 EMin= 9.45438002D-03
 Linear search not attempted -- first point.
 Maximum step size (   0.300) exceeded in Quadratic search.
    -- Step size scaled by   0.863
 Iteration  1 RMS(Cart)=  0.13744972 RMS(Int)=  0.01392031
 Iteration  2 RMS(Cart)=  0.05524006 RMS(Int)=  0.00180042
 Iteration  3 RMS(Cart)=  0.00261905 RMS(Int)=  0.00055272
 Iteration  4 RMS(Cart)=  0.00000913 RMS(Int)=  0.00055270
 Iteration  5 RMS(Cart)=  0.00000001 RMS(Int)=  0.00055270
 Variable       Old X    -DE/DX   Delta X   Delta X   Delta X     New X
                                 (Linear)    (Quad)   (Total)
    R1        2.05697   0.00007   0.00000   0.00015   0.00015   2.05712
    R2        2.06477   0.00004   0.00000   0.00008   0.00008   2.06486
    R3        2.75224  -0.00008   0.00000  -0.00017  -0.00017   2.75206
    R4        2.06361   0.00002   0.00000   0.00003   0.00003   2.06365
    R5        2.06524   0.00000   0.00000   0.00000   0.00000   2.06524
    R6        2.74726  -0.00001   0.00000  -0.00001  -0.00001   2.74725
    R7        2.05696   0.00002   0.00000   0.00004   0.00004   2.05700
    R8        2.06523   0.00002   0.00000   0.00004   0.00004   2.06527
    R9        2.51216   0.00040   0.00000   0.00054   0.00054   2.51270
   R10        2.04906   0.00002   0.00000   0.00004   0.00004   2.04909
   R11        2.61895  -0.00010   0.00000  -0.00017  -0.00017   2.61878
   R12        2.76473  -0.00052   0.00000  -0.00112  -0.00112   2.76361
   R13        2.05799   0.00040   0.00000   0.00090   0.00090   2.05889
   R14        2.46048   0.00247   0.00000   0.00305   0.00305   2.46353
   R15        2.67000   0.00150   0.00000   0.00276   0.00276   2.67276
   R16        2.69325  -0.00225   0.00000  -0.00492  -0.00493   2.68832
   R17        2.67078  -0.00485   0.00000  -0.00900  -0.00902   2.66176
   R18        2.55928  -0.00346   0.00000  -0.00519  -0.00519   2.55409
   R19        2.61350  -0.00206   0.00000  -0.00386  -0.00386   2.60964
   R20        2.61807   0.00282   0.00000   0.00517   0.00517   2.62323
   R21        2.05133  -0.00065   0.00000  -0.00144  -0.00144   2.04989
   R22        1.83907   0.00054   0.00000   0.00083   0.00083   1.83990
   R23        2.04850  -0.00043   0.00000  -0.00096  -0.00096   2.04754
   R24        2.63717  -0.00526   0.00000  -0.00903  -0.00902   2.62815
   R25        2.62984   0.00674   0.00000   0.01208   0.01210   2.64194
   R26        2.04920  -0.00627   0.00000  -0.01392  -0.01392   2.03528
   R27        2.72121  -0.03000   0.00000  -0.06023  -0.06023   2.66097
   R28        2.67975  -0.00088   0.00000  -0.00164  -0.00164   2.67811
   R29        2.07441  -0.00301   0.00000  -0.00697  -0.00697   2.06744
   R30        2.07441  -0.00298   0.00000  -0.00689  -0.00689   2.06752
   R31        2.06172  -0.00755   0.00000  -0.01712  -0.01712   2.04461
    A1        1.90125  -0.00010   0.00000  -0.00040  -0.00040   1.90085
    A2        1.90009   0.00005   0.00000   0.00029   0.00029   1.90038
    A3        1.90080  -0.00002   0.00000   0.00004   0.00004   1.90083
    A4        1.93152   0.00017   0.00000   0.00068   0.00068   1.93221
    A5        1.90572  -0.00019   0.00000  -0.00099  -0.00099   1.90473
    A6        1.92405   0.00009   0.00000   0.00037   0.00037   1.92442
    A7        1.92274  -0.00013   0.00000  -0.00067  -0.00067   1.92207
    A8        1.90228   0.00002   0.00000  -0.00008  -0.00008   1.90220
    A9        1.90145  -0.00003   0.00000  -0.00013  -0.00013   1.90133
   A10        1.91732  -0.00003   0.00000  -0.00016  -0.00016   1.91716
   A11        1.91839   0.00022   0.00000   0.00107   0.00107   1.91945
   A12        1.90136  -0.00004   0.00000  -0.00003  -0.00003   1.90133
   A13        2.04901   0.00006   0.00000   0.00017   0.00017   2.04918
   A14        2.11682  -0.00013   0.00000  -0.00039  -0.00039   2.11642
   A15        2.11730   0.00007   0.00000   0.00022   0.00022   2.11752
   A16        2.02251  -0.00002   0.00000  -0.00002  -0.00002   2.02249
   A17        2.20101   0.00011   0.00000   0.00036   0.00036   2.20138
   A18        2.05963  -0.00009   0.00000  -0.00036  -0.00036   2.05927
   A19        2.08386  -0.00025   0.00000  -0.00080  -0.00080   2.08306
   A20        2.09598  -0.00016   0.00000  -0.00080  -0.00080   2.09518
   A21        2.07982   0.00041   0.00000   0.00178   0.00178   2.08160
   A22        1.79435  -0.00017   0.00000  -0.00053  -0.00053   1.79382
   A23        2.24242   0.00065   0.00000   0.00196   0.00196   2.24438
   A24        2.24442  -0.00049   0.00000  -0.00150  -0.00150   2.24291
   A25        2.09851   0.00071   0.00000   0.00286   0.00287   2.10138
   A26        2.13235   0.00286   0.00000   0.00939   0.00940   2.14175
   A27        2.05227  -0.00356   0.00000  -0.01220  -0.01222   2.04004
   A28        2.11237  -0.00054   0.00000  -0.00062  -0.00062   2.11175
   A29        2.10065   0.00337   0.00000   0.00820   0.00820   2.10885
   A30        2.07016  -0.00283   0.00000  -0.00759  -0.00758   2.06258
   A31        2.11904   0.00313   0.00000   0.01112   0.01110   2.13015
   A32        2.07390  -0.00073   0.00000  -0.00187  -0.00187   2.07202
   A33        2.09024  -0.00240   0.00000  -0.00927  -0.00927   2.08097
   A34        1.89482  -0.00103   0.00000  -0.00459  -0.00459   1.89023
   A35        2.06230   0.00084   0.00000   0.00539   0.00538   2.06767
   A36        2.10793   0.00220   0.00000   0.00644   0.00645   2.11438
   A37        2.11296  -0.00303   0.00000  -0.01181  -0.01182   2.10113
   A38        2.09413  -0.00169   0.00000  -0.00402  -0.00403   2.09010
   A39        2.09051  -0.00767   0.00000  -0.03590  -0.03597   2.05454
   A40        2.09854   0.00935   0.00000   0.03985   0.03980   2.13833
   A41        2.09232  -0.00346   0.00000  -0.00962  -0.00971   2.08261
   A42        2.09543  -0.04036   0.00000  -0.12311  -0.12321   1.97222
   A43        2.09543   0.04382   0.00000   0.13274   0.13251   2.22794
   A44        2.06284   0.04518   0.00000   0.13732   0.13732   2.20015
   A45        1.94999  -0.01272   0.00000  -0.06247  -0.06348   1.88652
   A46        1.94999  -0.01000   0.00000  -0.04799  -0.04955   1.90044
   A47        1.85102   0.03182   0.00000   0.15044   0.15052   2.00154
   A48        1.90154   0.00231   0.00000  -0.00514  -0.00801   1.89353
   A49        1.90501  -0.00666   0.00000  -0.02354  -0.02294   1.88207
   A50        1.90501  -0.00420   0.00000  -0.00738  -0.00779   1.89722
    D1       -0.08592   0.00007   0.00000   0.00116   0.00116  -0.08476
    D2        3.06739   0.00009   0.00000   0.00157   0.00157   3.06896
    D3        2.00317   0.00008   0.00000   0.00126   0.00126   2.00443
    D4       -1.12670   0.00010   0.00000   0.00167   0.00167  -1.12503
    D5       -2.16993   0.00001   0.00000   0.00071   0.00071  -2.16922
    D6        0.98338   0.00003   0.00000   0.00112   0.00112   0.98450
    D7       -1.03667  -0.00006   0.00000  -0.00085  -0.00085  -1.03752
    D8        2.09320  -0.00008   0.00000  -0.00127  -0.00127   2.09193
    D9       -3.13247   0.00002   0.00000  -0.00023  -0.00023  -3.13270
   D10       -0.00260  -0.00001   0.00000  -0.00065  -0.00065  -0.00325
   D11        1.05878  -0.00005   0.00000  -0.00075  -0.00075   1.05803
   D12       -2.09454  -0.00007   0.00000  -0.00117  -0.00117  -2.09571
   D13       -3.11708   0.00002   0.00000   0.00021   0.00021  -3.11687
   D14        0.03316   0.00015   0.00000   0.00208   0.00208   0.03525
   D15        0.03669   0.00004   0.00000   0.00064   0.00064   0.03734
   D16       -3.09625   0.00017   0.00000   0.00251   0.00251  -3.09373
   D17       -3.01780  -0.00018   0.00000  -0.00263  -0.00263  -3.02043
   D18       -0.10939  -0.00009   0.00000  -0.00154  -0.00154  -0.11094
   D19        0.13261  -0.00006   0.00000  -0.00073  -0.00073   0.13189
   D20        3.04102   0.00004   0.00000   0.00036   0.00036   3.04138
   D21        1.46932   0.00002   0.00000   0.00038   0.00039   1.46970
   D22       -1.73630  -0.00006   0.00000  -0.00077  -0.00077  -1.73707
[...]
 Alpha virt. eigenvalues --    2.16717   2.18474   2.18510   2.20164   2.20746
 Alpha virt. eigenvalues --    2.23459   2.24497   2.25917   2.27032   2.27907
 Alpha virt. eigenvalues --    2.28587   2.32156   2.34371   2.37322   2.39510
 Alpha virt. eigenvalues --    2.41350   2.42655   2.45662   2.50930   2.51691
 Alpha virt. eigenvalues --    2.52546   2.54330   2.55182   2.56654   2.57494
 Alpha virt. eigenvalues --    2.58081   2.59001   2.60342   2.60857   2.62738
 Alpha virt. eigenvalues --    2.64149   2.66105   2.66618   2.67559   2.70520
 Alpha virt. eigenvalues --    2.70892   2.73553   2.74521   2.75316   2.76339
 Alpha virt. eigenvalues --    2.79266   2.80438   2.81028   2.82303   2.82907
 Alpha virt. eigenvalues --    2.83304   2.84598   2.86059   2.86974   2.88909
 Alpha virt. eigenvalues --    2.90728   2.92595   2.93468   2.95726   2.96595
 Alpha virt. eigenvalues --    2.98921   2.99800   3.02610   3.03685   3.06142
 Alpha virt. eigenvalues --    3.09626   3.11929   3.13885   3.14060   3.15561
 Alpha virt. eigenvalues --    3.17246   3.18379   3.18654   3.20832   3.21645
 Alpha virt. eigenvalues --    3.23245   3.29133   3.29667   3.30603   3.32953
 Alpha virt. eigenvalues --    3.33209   3.35987   3.39224   3.42093   3.46585
 Alpha virt. eigenvalues --    3.50129   3.53726   3.58419   3.60243   3.66076
 Alpha virt. eigenvalues --    3.68423   3.71867   3.74586   3.75301   3.79031
 Alpha virt. eigenvalues --    3.83556   3.84461   3.86034   3.87669   3.91599
 Alpha virt. eigenvalues --    3.93144   3.95917   3.96555   4.04031   4.12684
 Alpha virt. eigenvalues --    4.15937   4.18300   4.19889   4.24894   4.28883
 Alpha virt. eigenvalues --    4.32258   4.37364   4.54872   4.93859   4.99969
 Alpha virt. eigenvalues --    5.13277   5.13871   5.18949   5.21190   5.44442
 Alpha virt. eigenvalues --    5.50928   5.58378   5.82958   5.86828   5.95220
 Alpha virt. eigenvalues --   23.71335  23.96515  24.02534  24.03173  24.04957
 Alpha virt. eigenvalues --   24.06936  24.08466  24.11097  24.16518  24.23710
 Alpha virt. eigenvalues --   24.27688  24.30400  35.72374  50.08943  50.11217
 Alpha virt. eigenvalues --   50.14180
          Condensed to atoms (all electrons):
               1          2          3          4          5          6
     1  C    5.168788   0.386386   0.384405  -0.067538   0.000515   0.232911
     2  H    0.386386   0.505352  -0.029144   0.009599  -0.007451  -0.054907
     3  H    0.384405  -0.029144   0.560186  -0.006038   0.001631  -0.069075
     4  C   -0.067538   0.009599  -0.006038   5.163152   0.405116   0.254110
     5  H    0.000515  -0.007451   0.001631   0.405116   0.588906  -0.063142
     6  N    0.232911  -0.054907  -0.069075   0.254110  -0.063142   6.930808
     7  H    0.443249  -0.011794  -0.051503   0.006275   0.001446  -0.049646
     8  H   -0.004450   0.004260  -0.002256   0.392564  -0.031618  -0.094588
     9  H    0.003534  -0.003061   0.001820   0.432790  -0.071147  -0.062812
    10  C   -0.270779   0.038977   0.010311  -0.046334  -0.031372   0.276456
    11  H    0.006505  -0.001110   0.001115  -0.032415   0.007677  -0.079890
    12  C    0.339487   0.007619  -0.000007  -0.229163   0.016847  -0.305424
    13  C   -0.108133  -0.015516   0.022809  -0.014556   0.012845  -0.086016
    14  H    0.016590  -0.002068  -0.002477  -0.013485   0.003213  -0.045545
    15  O   -0.005434  -0.000419   0.000266  -0.000971  -0.000087   0.001360
    16  C   -0.140698  -0.010558   0.016331   0.053450   0.004124  -0.045500
    17  C   -0.023187  -0.001744   0.001398   0.008160   0.000756  -0.020193
    18  C    0.044896   0.002424  -0.004941   0.007049  -0.001139   0.052741
    19  O    0.000090   0.000004   0.000044  -0.000186   0.000001  -0.000233
    20  C   -0.005480  -0.000338  -0.001119   0.000077   0.000218  -0.012522
    21  C    0.022835   0.001874   0.000816  -0.003527  -0.001014   0.043662
    22  H    0.004631   0.000493  -0.005603   0.000414  -0.000881   0.009783
    23  H   -0.000670  -0.000072   0.000022   0.000224  -0.000010   0.000957
    24  H   -0.000090  -0.000004  -0.000005  -0.000044   0.000000  -0.000048
    25  C    0.002889   0.000208   0.000036   0.000312  -0.000089   0.003577
    26  H   -0.000895  -0.000077   0.000376  -0.000009   0.000047  -0.000715
    27  O    0.000002   0.000000   0.000000   0.000000   0.000000   0.000000
    28  C    0.000053   0.000004  -0.000007  -0.000005  -0.000003   0.000105
    29  H    0.000002   0.000000  -0.000001  -0.000001   0.000000   0.000002
    30  H    0.000007   0.000000  -0.000006   0.000006   0.000000  -0.000001
    31  H    0.000006   0.000001  -0.000001  -0.000003   0.000000   0.000008
               7          8          9         10         11         12
     1  C    0.443249  -0.004450   0.003534  -0.270779   0.006505   0.339487
     2  H   -0.011794   0.004260  -0.003061   0.038977  -0.001110   0.007619
     3  H   -0.051503  -0.002256   0.001820   0.010311   0.001115  -0.000007
     4  C    0.006275   0.392564   0.432790  -0.046334  -0.032415  -0.229163
     5  H    0.001446  -0.031618  -0.071147  -0.031372   0.007677   0.016847
     6  N   -0.049646  -0.094588  -0.062812   0.276456  -0.079890  -0.305424
     7  H    0.519685  -0.001137  -0.000637  -0.009608  -0.004602   0.026572
     8  H   -0.001137   0.552151  -0.019160   0.098141  -0.008692  -0.004872
     9  H   -0.000637  -0.019160   0.573759  -0.007039  -0.001526  -0.009315
    10  C   -0.009608   0.098141  -0.007039   8.511934   0.199606  -1.750754
    11  H   -0.004602  -0.008692  -0.001526   0.199606   0.550554   0.195235
    12  C    0.026572  -0.004872  -0.009315  -1.750754   0.195235  17.297906
    13  C   -0.052458  -0.016016  -0.006822  -1.456676   0.051250   0.959210
    14  H   -0.006364  -0.002966  -0.001773  -0.218545   0.025903   0.639886
    15  O   -0.000876   0.001845   0.000051   0.008033  -0.008062  -0.646079
    16  C   -0.002599  -0.004037   0.001867   1.136037   0.022895  -5.618455
    17  C   -0.000320  -0.001656   0.000536   0.083723   0.037950  -1.574995
    18  C    0.002790   0.001874  -0.001440   0.056195  -0.076023  -2.178496
    19  O   -0.000108   0.000077  -0.000009  -0.005505  -0.001357  -0.018720
    20  C    0.000058  -0.001540   0.000163  -0.222006   0.025927  -1.815103
    21  C   -0.000289   0.005097  -0.000801   0.235421  -0.050338   0.990842
    22  H    0.001326   0.000612   0.000175  -0.022773  -0.005538  -0.076137
    23  H    0.000234   0.000086   0.000013   0.007687  -0.002403  -0.003240
    24  H    0.000006   0.000005  -0.000001  -0.002279   0.000020  -0.013214
    25  C   -0.000117   0.000415  -0.000034   0.048335  -0.007116  -0.027380
    26  H    0.000016  -0.000002  -0.000008   0.008347   0.000445  -0.009250
    27  O   -0.000001  -0.000001   0.000000  -0.000285   0.000006   0.000459
    28  C   -0.000001   0.000020  -0.000001   0.000726  -0.000422   0.004681
    29  H    0.000000   0.000001   0.000000  -0.000019  -0.000022   0.000128
    30  H    0.000000  -0.000003   0.000000  -0.000112   0.000028  -0.000759
    31  H    0.000000   0.000003   0.000000  -0.000023  -0.000027   0.000717
              13         14         15         16         17         18
     1  C   -0.108133   0.016590  -0.005434  -0.140698  -0.023187   0.044896
     2  H   -0.015516  -0.002068  -0.000419  -0.010558  -0.001744   0.002424
     3  H    0.022809  -0.002477   0.000266   0.016331   0.001398  -0.004941
     4  C   -0.014556  -0.013485  -0.000971   0.053450   0.008160   0.007049
     5  H    0.012845   0.003213  -0.000087   0.004124   0.000756  -0.001139
     6  N   -0.086016  -0.045545   0.001360  -0.045500  -0.020193   0.052741
     7  H   -0.052458  -0.006364  -0.000876  -0.002599  -0.000320   0.002790
     8  H   -0.016016  -0.002966   0.001845  -0.004037  -0.001656   0.001874
     9  H   -0.006822  -0.001773   0.000051   0.001867   0.000536  -0.001440
    10  C   -1.456676  -0.218545   0.008033   1.136037   0.083723   0.056195
    11  H    0.051250   0.025903  -0.008062   0.022895   0.037950  -0.076023
    12  C    0.959210   0.639886  -0.646079  -5.618455  -1.574995  -2.178496
    13  C   16.678779   0.067010   0.707705  -2.633588  -0.375490  -2.567737
    14  H    0.067010   0.539885   0.007090  -0.008066   0.029423  -0.171320
    15  O    0.707705   0.007090   8.099720   0.071383   0.215394  -0.194462
    16  C   -2.633588  -0.008066   0.071383  18.996133   1.805275  -2.547919
    17  C   -0.375490   0.029423   0.215394   1.805275  21.194088  -8.436392
    18  C   -2.567737  -0.171320  -0.194462  -2.547919  -8.436392  21.013554
    19  O   -0.071350  -0.000690  -0.031238   0.145166   0.390563   0.047031
    20  C   -3.266043   0.023030  -0.094924  -3.799848  -9.460847   7.653644
    21  C   -0.667428  -0.072082   0.006548  -1.045650   2.549942  -4.535838
    22  H   -0.055337  -0.012698  -0.003508  -0.257778  -0.113378   0.668303
    23  H    0.004830  -0.001998   0.096327  -0.214222   0.143645  -0.016389
    24  H   -0.027924  -0.000026  -0.000523  -0.114678  -0.241843   0.098070
    25  C   -1.164435  -0.010836   0.012053  -0.887268  -0.392806  -1.810773
    26  H    0.011588   0.000101   0.000488   0.107334   0.075869  -0.059050
    27  O   -0.005418   0.000031  -0.000012   0.015116   0.022029  -0.081226
    28  C   -0.020311  -0.000409   0.000066  -0.123357   0.186858  -0.437213
    29  H   -0.001147  -0.000017  -0.000002  -0.008687   0.005060  -0.014902
    30  H   -0.000882   0.000076   0.000000   0.007228  -0.017606   0.024066
    31  H    0.000115  -0.000038   0.000003   0.000699   0.003801  -0.025772
              19         20         21         22         23         24
     1  C    0.000090  -0.005480   0.022835   0.004631  -0.000670  -0.000090
     2  H    0.000004  -0.000338   0.001874   0.000493  -0.000072  -0.000004
     3  H    0.000044  -0.001119   0.000816  -0.005603   0.000022  -0.000005
     4  C   -0.000186   0.000077  -0.003527   0.000414   0.000224  -0.000044
     5  H    0.000001   0.000218  -0.001014  -0.000881  -0.000010   0.000000
     6  N   -0.000233  -0.012522   0.043662   0.009783   0.000957  -0.000048
     7  H   -0.000108   0.000058  -0.000289   0.001326   0.000234   0.000006
     8  H    0.000077  -0.001540   0.005097   0.000612   0.000086   0.000005
     9  H   -0.000009   0.000163  -0.000801   0.000175   0.000013  -0.000001
    10  C   -0.005505  -0.222006   0.235421  -0.022773   0.007687  -0.002279
    11  H   -0.001357   0.025927  -0.050338  -0.005538  -0.002403   0.000020
    12  C   -0.018720  -1.815103   0.990842  -0.076137  -0.003240  -0.013214
    13  C   -0.071350  -3.266043  -0.667428  -0.055337   0.004830  -0.027924
    14  H   -0.000690   0.023030  -0.072082  -0.012698  -0.001998  -0.000026
    15  O   -0.031238  -0.094924   0.006548  -0.003508   0.096327  -0.000523
    16  C    0.145166  -3.799848  -1.045650  -0.257778  -0.214222  -0.114678
    17  C    0.390563  -9.460847   2.549942  -0.113378   0.143645  -0.241843
    18  C    0.047031   7.653644  -4.535838   0.668303  -0.016389   0.098070
    19  O    8.042157  -0.537793   0.033027   0.000068   0.234163  -0.028877
    20  C   -0.537793  28.045251  -9.087639   0.157451   0.046427   0.896299
    21  C    0.033027  -9.087639  16.533539  -0.082377   0.022734  -0.148316
    22  H    0.000068   0.157451  -0.082377   0.482388  -0.000419   0.002400
    23  H    0.234163   0.046427   0.022734  -0.000419   0.369971   0.003012
    24  H   -0.028877   0.896299  -0.148316   0.002400   0.003012   0.457513
    25  C    0.047373  -1.277446   0.609440   0.097379  -0.006824  -0.117000
    26  H   -0.000252  -0.069494   0.494819  -0.022699   0.000455  -0.000894
    27  O   -0.001385  -0.788044   0.363511  -0.000469  -0.000311  -0.023182
    28  C    0.000084  -0.034732  -0.125127   0.008939   0.000579   0.001595
    29  H    0.000043   0.016989  -0.011704   0.000500   0.000064   0.000353
    30  H    0.000044  -0.010878   0.017510   0.000873  -0.000034  -0.000670
    31  H   -0.000002  -0.028871   0.039532   0.001316  -0.000038  -0.000743
              25         26         27         28         29         30
     1  C    0.002889  -0.000895   0.000002   0.000053   0.000002   0.000007
     2  H    0.000208  -0.000077   0.000000   0.000004   0.000000   0.000000
     3  H    0.000036   0.000376   0.000000  -0.000007  -0.000001  -0.000006
     4  C    0.000312  -0.000009   0.000000  -0.000005  -0.000001   0.000006
     5  H   -0.000089   0.000047   0.000000  -0.000003   0.000000   0.000000
     6  N    0.003577  -0.000715   0.000000   0.000105   0.000002  -0.000001
     7  H   -0.000117   0.000016  -0.000001  -0.000001   0.000000   0.000000
     8  H    0.000415  -0.000002  -0.000001   0.000020   0.000001  -0.000003
     9  H   -0.000034  -0.000008   0.000000  -0.000001   0.000000   0.000000
    10  C    0.048335   0.008347  -0.000285   0.000726  -0.000019  -0.000112
    11  H   -0.007116   0.000445   0.000006  -0.000422  -0.000022   0.000028
    12  C   -0.027380  -0.009250   0.000459   0.004681   0.000128  -0.000759
    13  C   -1.164435   0.011588  -0.005418  -0.020311  -0.001147  -0.000882
    14  H   -0.010836   0.000101   0.000031  -0.000409  -0.000017   0.000076
    15  O    0.012053   0.000488  -0.000012   0.000066  -0.000002   0.000000
    16  C   -0.887268   0.107334   0.015116  -0.123357  -0.008687   0.007228
    17  C   -0.392806   0.075869   0.022029   0.186858   0.005060  -0.017606
    18  C   -1.810773  -0.059050  -0.081226  -0.437213  -0.014902   0.024066
    19  O    0.047373  -0.000252  -0.001385   0.000084   0.000043   0.000044
    20  C   -1.277446  -0.069494  -0.788044  -0.034732   0.016989  -0.010878
    21  C    0.609440   0.494819   0.363511  -0.125127  -0.011704   0.017510
    22  H    0.097379  -0.022699  -0.000469   0.008939   0.000500   0.000873
    23  H   -0.006824   0.000455  -0.000311   0.000579   0.000064  -0.000034
    24  H   -0.117000  -0.000894  -0.023182   0.001595   0.000353  -0.000670
    25  C   11.063492  -0.210105   0.401755   0.253101   0.052930  -0.038430
    26  H   -0.210105   0.503582  -0.020599  -0.018634   0.002307  -0.009904
    27  O    0.401755  -0.020599   8.163104   0.199120  -0.066647  -0.029252
    28  C    0.253101  -0.018634   0.199120   5.283376   0.395638   0.402476
    29  H    0.052930   0.002307  -0.066647   0.395638   0.448800  -0.019916
    30  H   -0.038430  -0.009904  -0.029252   0.402476  -0.019916   0.571383
    31  H   -0.016389  -0.011526  -0.030397   0.406022  -0.019463  -0.063607
              31
     1  C    0.000006
     2  H    0.000001
     3  H   -0.000001
     4  C   -0.000003
     5  H    0.000000
     6  N    0.000008
     7  H    0.000000
     8  H    0.000003
     9  H    0.000000
    10  C   -0.000023
    11  H   -0.000027
    12  C    0.000717
    13  C    0.000115
    14  H   -0.000038
    15  O    0.000003
    16  C    0.000699
    17  C    0.003801
    18  C   -0.025772
    19  O   -0.000002
    20  C   -0.028871
    21  C    0.039532
    22  H    0.001316
    23  H   -0.000038
    24  H   -0.000743
    25  C   -0.016389
    26  H   -0.011526
    27  O   -0.030397
    28  C    0.406022
    29  H   -0.019463
    30  H   -0.063607
    31  H    0.577391
 Mulliken charges:
               1
     1  C   -0.430426
     2  H    0.181061
     3  H    0.170616
     4  C   -0.319024
     5  H    0.164613
     6  N    0.183778
     7  H    0.190406
     8  H    0.135843
     9  H    0.170879
    10  C   -0.675818
    11  H    0.154426
    12  C   -0.198223
    13  C    0.097142
    14  H    0.219167
    15  O   -0.241738
    16  C    1.079869
    17  C   -0.094013
    18  C   -0.511606
    19  O   -0.242233
    20  C   -0.350863
    21  C   -0.139019
    22  H    0.222544
    23  H    0.315203
    24  H    0.261085
    25  C   -0.626246
    26  H    0.228338
    27  O   -0.117901
    28  C   -0.383218
    29  H    0.219710
    30  H    0.168362
    31  H    0.167288
 Sum of Mulliken charges =   0.00000
 Mulliken charges with hydrogens summed into heavy atoms:
               1
     1  C    0.111657
     4  C    0.152311
     6  N    0.183778
    10  C   -0.521392
    12  C    0.020943
    13  C    0.097142
    15  O   -0.241738
    16  C    1.079869
    17  C   -0.094013
    18  C   -0.289061
    19  O    0.072969
    20  C   -0.089778
    21  C    0.089319
    25  C   -0.626246
    27  O   -0.117901
    28  C    0.172141
 Electronic spatial extent (au):  <R**2>=           5523.6133
 Charge=              0.0000 electrons
 Dipole moment (field-independent basis, Debye):
    X=              1.3023    Y=             -6.1627    Z=              0.0984  Tot=              6.2995
 Quadrupole moment (field-independent basis, Debye-Ang):
   XX=            -72.0875   YY=            -99.3323   ZZ=            -93.4032
   XY=              2.3811   XZ=              2.4628   YZ=              0.3165
 Traceless Quadrupole moment (field-independent basis, Debye-Ang):
   XX=             16.1868   YY=            -11.0580   ZZ=             -5.1289
   XY=              2.3811   XZ=              2.4628   YZ=              0.3165
 Octapole moment (field-independent basis, Debye-Ang**2):
  XXX=             45.7269  YYY=            -33.8828  ZZZ=              5.0185  XYY=            -26.4720
  XXY=            -74.5653  XXZ=              2.9649  XZZ=             16.6125  YZZ=              0.8210
  YYZ=             -0.4737  XYZ=             -1.1515
 Hexadecapole moment (field-independent basis, Debye-Ang**3):
 XXXX=          -5042.5732 YYYY=          -1200.1084 ZZZZ=           -323.5720 XXXY=             80.9230
 XXXZ=             16.7443 YYYX=             57.6071 YYYZ=              1.2285 ZZZX=              6.9108
 ZZZY=             -4.0253 XXYY=          -1060.6148 XXZZ=           -986.6306 YYZZ=           -252.1753
 XXYZ=              0.1950 YYXZ=              4.9346 ZZXY=             -1.3358
 N-N= 1.047446386494D+03 E-N=-3.837323342704D+03  KE= 7.435890972835D+02
 1\1\GINC-NXN36\FOpt\RwB97XD TD-FC\6-311++G(d,p)\C12H15N1O3\BTX008\24-A
 ug-2017\0\\# wb97xd 6-311++g** opt td=(nstates=1,root=1)\\restarted op
 timization\\0,1\C,-0.1077885463,0.6798378704,6.0730535082\H,0.52919426
 92,1.4566418564,5.6537010332\H,-0.5984823566,1.0706353762,6.9675132968
 \C,-1.0699094121,0.9841032355,3.7998085956\H,-1.2479168446,2.051888669
 8,3.9508679082\N,-1.0925156317,0.286908997,5.0750986921\H,0.5115871114
 ,-0.1760081083,6.3511439839\H,-1.8445130503,0.5850230222,3.1473540619\
 H,-0.0977280968,0.8511360112,3.318616366\C,-1.9783068212,-0.6739243199
 ,5.3223040882\H,-2.6536613854,-0.9156288756,4.5091729578\C,-2.11581785
 25,-1.3720927506,6.5114318193\C,-3.0415252888,-2.5005972788,6.57495356
 01\H,-1.3944011596,-1.2250899661,7.3151346217\O,-2.3212004981,-3.48738
 21852,6.1135140737\C,-4.3518034545,-2.5432423496,7.108415311\C,-5.0843
 564129,-3.7695289789,7.113064599\C,-4.9995526009,-1.4099987482,7.62888
 67512\O,-4.5324828225,-4.908223212,6.6381758075\C,-6.3728744317,-3.817
 4034685,7.5979201244\C,-6.3026476075,-1.458123048,8.1192939119\H,-4.46
 82733876,-0.4642095002,7.6527176693\H,-3.6234830709,-4.7128298754,6.34
 71851997\H,-6.912099778,-4.7563563215,7.5904899362\C,-6.9900946103,-2.
 6664614093,8.1001388605\H,-6.7530579344,-0.5553887382,8.509643841\O,-8
 .2672943097,-2.838665975,8.5498414004\C,-8.9324640759,-1.7200120136,9.
 0801839652\H,-9.921695952,-2.0656432286,9.3780198878\H,-8.4116981859,-
 1.3199275527,9.9588619413\H,-9.0403859078,-0.9229041726,8.3342377039\\
 Version=ES64L-G09RevD.01\State=1-A\HF=-746.6284373\RMSD=4.445e-09\RMSF
 =6.013e-06\Dipole=2.3680069,4.2180746,-1.230087\PG=C01 [X(C12H15N1O3)]
 \\@


 EXPERIENCE IS A WONDERFUL THING.  IT ENABLES
 YOU TO RECOGNIZE A MISTAKE WHEN YOU MAKE IT AGAIN.
           - BACK OF A SUGAR PACKET
 Job cpu time:       1 days 15 hours 23 minutes 51.6 seconds.
 File lengths (MBytes):  RWF=    206 Int=      0 D2E=      0 Chk=     29 Scr=      1
 Normal termination of Gaussian 09 at Thu Aug 24 00:24:47 2017.
