 Entering Gaussian System, Link 0=g09
 Input=4_optS1.com
 Output=4_optS1.out
 Initial command:
 /share/apps/gaussian/g09_D01/g09/l1.exe "/tmp/3820738.1.chemistry.q/Gau-23787.inp" -scrdir="/tmp/3820738.1.chemistry.q/"
 Entering Link 1 = /share/apps/gaussian/g09_D01/g09/l1.exe PID=     23788.
  
 Copyright (c) 1988,1990,1992,1993,1995,1998,2003,2009,2013,
            Gaussian, Inc.  All Rights Reserved.
  
 This is part of the Gaussian(R) 09 program.  It is based on
 the Gaussian(R) 03 system (copyright 2003, Gaussian, Inc.),
 the Gaussian(R) 98 system (copyright 1998, Gaussian, Inc.),
 the Gaussian(R) 94 system (copyright 1995, Gaussian, Inc.),
 the Gaussian 92(TM) system (copyright 1992, Gaussian, Inc.),
 the Gaussian 90(TM) system (copyright 1990, Gaussian, Inc.),
 the Gaussian 88(TM) system (copyright 1988, Gaussian, Inc.),
 the Gaussian 86(TM) system (copyright 1986, Carnegie Mellon
 University), and the Gaussian 82(TM) system (copyright 1983,
 Carnegie Mellon University). Gaussian is a federally registered
 trademark of Gaussian, Inc.
  
 This software contains proprietary and confidential information,
 including trade secrets, belonging to Gaussian, Inc.
  
 This software is provided under written license and may be
 used, copied, transmitted, or stored only in accord with that
 written license.
  
 The following legend is applicable only to US Government
 contracts under FAR:
  
                    RESTRICTED RIGHTS LEGEND
  
 Use, reproduction and disclosure by the US Government is
 subject to restrictions as set forth in subparagraphs (a)
 and (c) of the Commercial Computer Software - Restricted
 Rights clause in FAR 52.227-19.
  
 Gaussian, Inc.
 340 Quinnipiac St., Bldg. 40, Wallingford CT 06492
  
  
 ---------------------------------------------------------------
 Warning -- This program may not be used in any manner that
 competes with the business of Gaussian, Inc. or will provide
 assistance to any competitor of Gaussian, Inc.  The licensee
 of this program is prohibited from giving any competitor of
 Gaussian, Inc. access to this program.  By using this program,
 the user acknowledges that Gaussian, Inc. is engaged in the
 business of creating and licensing software in the field of
 computational chemistry and represents and warrants to the
 licensee that it is not a competitor of Gaussian, Inc. and that
 it will not use this program in any manner prohibited above.
 ---------------------------------------------------------------
  

 Cite this work as:
 Gaussian 09, Revision D.01,
 M. J. Frisch, G. W. Trucks, H. B. Schlegel, G. E. Scuseria, 
 M. A. Robb, J. R. Cheeseman, G. Scalmani, V. Barone, B. Mennucci, 
 G. A. Petersson, H. Nakatsuji, M. Caricato, X. Li, H. P. Hratchian, 
 A. F. Izmaylov, J. Bloino, G. Zheng, J. L. Sonnenberg, M. Hada, 
 M. Ehara, K. Toyota, R. Fukuda, J. Hasegawa, M. Ishida, T. Nakajima, 
 Y. Honda, O. Kitao, H. Nakai, T. Vreven, J. A. Montgomery, Jr., 
 J. E. Peralta, F. Ogliaro, M. Bearpark, J. J. Heyd, E. Brothers, 
 K. N. Kudin, V. N. Staroverov, T. Keith, R. Kobayashi, J. Normand, 
 K. Raghavachari, A. Rendell, J. C. Burant, S. S. Iyengar, J. Tomasi, 
 M. Cossi, N. Rega, J. M. Millam, M. Klene, J. E. Knox, J. B. Cross, 
 V. Bakken, C. Adamo, J. Jaramillo, R. Gomperts, R. E. Stratmann, 
 O. Yazyev, A. J. Austin, R. Cammi, C. Pomelli, J. W. Ochterski, 
 R. L. Martin, K. Morokuma, V. G. Zakrzewski, G. A. Voth, 
 P. Salvador, J. J. Dannenberg, S. Dapprich, A. D. Daniels, 
 O. Farkas, J. B. Foresman, J. V. Ortiz, J. Cioslowski, 
 and D. J. Fox, Gaussian, Inc., Wallingford CT, 2013.
 
 ******************************************
 Gaussian 09:  ES64L-G09RevD.01 24-Apr-2013
                19-Oct-2016 
 ******************************************
 %chk=4_optS1.chk
 %mem=4GB
 %nproc=2
 Will use up to    2 processors via shared memory.
 -----------------------------------------------------------
 # wb97xd 6-311++g** opt td=(nstates=1,root=1) geom=allcheck
 -----------------------------------------------------------
 1/14=-1,18=20,19=15,26=3,29=7,38=1/1,3;
 2/9=110,12=2,40=1/2;
 3/5=4,6=6,7=1111,11=9,14=-4,16=1,25=1,30=1,71=1,74=-58/1,2,8,3;
 4//1;
 5/5=2,38=5/2;
 8/6=1,10=2,107=1,108=1/1;
 9/8=1,15=2,41=1,42=1,70=2/14;
 10/5=4/2;
 6/7=2,8=2,9=2,10=2/1;
 7/12=6,13=5,14=1/1,2,3,16;
 1/14=-1,18=20,19=15,26=3/3(2);
 2/9=110/2;
 99//99;
 2/9=110/2;
 3/5=4,6=6,7=1111,11=9,14=-2,16=1,25=1,30=1,71=1,74=-58/1,2,8,3;
 4/5=5,16=3,69=1/1;
 5/5=2,38=5/2;
 8/6=1,10=2,107=1,108=1/1;
 9/8=1,15=2,41=1,42=1,49=4,70=2/14;
 10/5=4/2;
 7/12=6,13=5,14=1/1,2,3,16;
 1/14=-1,18=20,19=15,26=3/3(-8);
 2/9=110/2;
 6/7=2,8=2,9=2,10=2/1;
 99//99;
 Structure from the checkpoint file:  "4_optS1.chk"
 -----------
 Geom Opt s0
 -----------
 Charge =  0 Multiplicity = 1
 Redundant internal coordinates found in file.
 C,0,3.7258294492,1.62933391,0.0388803616
 H,0,4.7716429543,1.9109124145,0.1590965558
 H,0,3.3527545931,2.0546958853,-0.900288319
 C,0,4.8274435036,-0.5930007168,-0.1071421671
 H,0,5.2893230647,-0.4223774307,-1.0860020054
 N,0,3.6131077784,0.185238516,0.0451065197
 H,0,3.1544165777,2.0591259971,0.8667502471
 H,0,4.5940297005,-1.6534127598,-0.0149777758
 H,0,5.5497076541,-0.3295344559,0.6705765778
 C,0,2.405736796,-0.3983735005,0.0231845294
 H,0,2.4097345163,-1.4843556063,0.0095746013
 C,0,1.1944146642,0.224664468,0.0246105127
 C,0,0.0029598556,-0.5982664822,0.0258384722
 H,0,1.1210187086,1.3010414712,0.0145754652
 O,0,0.0823141017,-1.8390656265,0.0393526665
 C,0,-1.3449843936,0.0343407579,0.0066468483
 C,0,-2.494892808,-0.7874697099,-0.0024101143
 C,0,-1.5208207665,1.4277498079,-0.0021808315
 O,0,-2.4344097293,-2.1211407658,0.0059824838
 C,0,-3.7682565639,-0.202946337,-0.0209021523
 C,0,-2.7822063024,1.9656782596,-0.0198454521
 H,0,-0.6781480329,2.1051203476,0.004943002
 H,0,-1.4763027031,-2.3541803795,0.0214584798
 H,0,-4.629147815,-0.8598453737,-0.0276256429
 C,0,-3.9181024983,1.1679214838,-0.0296434176
 F,0,-2.9265312338,3.3098796281,-0.0278542549
 H,0,-4.8986803512,1.6281254376,-0.0439384603
 Recover connectivity data from disk.

 GradGradGradGradGradGradGradGradGradGradGradGradGradGradGradGradGradGrad
 Berny optimization.
 Initialization pass.
                           ----------------------------
                           !    Initial Parameters    !
                           ! (Angstroms and Degrees)  !
 --------------------------                            --------------------------
 ! Name  Definition              Value          Derivative Info.                !
 --------------------------------------------------------------------------------
 ! R1    R(1,2)                  1.0897         estimate D2E/DX2                !
 ! R2    R(1,3)                  1.0964         estimate D2E/DX2                !
 ! R3    R(1,6)                  1.4485         estimate D2E/DX2                !
 ! R4    R(1,7)                  1.0939         estimate D2E/DX2                !
 ! R5    R(4,5)                  1.0957         estimate D2E/DX2                !
 ! R6    R(4,6)                  1.4503         estimate D2E/DX2                !
 ! R7    R(4,8)                  1.0897         estimate D2E/DX2                !
 ! R8    R(4,9)                  1.0936         estimate D2E/DX2                !
 ! R9    R(6,10)                 1.3412         estimate D2E/DX2                !
 ! R10   R(10,11)                1.0861         estimate D2E/DX2                !
 ! R11   R(10,12)                1.3622         estimate D2E/DX2                !
 ! R12   R(12,13)                1.448          estimate D2E/DX2                !
 ! R13   R(12,14)                1.0789         estimate D2E/DX2                !
 ! R14   R(13,15)                1.2434         estimate D2E/DX2                !
 ! R15   R(13,16)                1.4891         estimate D2E/DX2                !
 ! R16   R(16,17)                1.4134         estimate D2E/DX2                !
 ! R17   R(16,18)                1.4045         estimate D2E/DX2                !
 ! R18   R(17,19)                1.3351         estimate D2E/DX2                !
 ! R19   R(17,20)                1.4012         estimate D2E/DX2                !
 ! R20   R(18,21)                1.3714         estimate D2E/DX2                !
 ! R21   R(18,22)                1.0812         estimate D2E/DX2                !
 ! R22   R(19,23)                0.9862         estimate D2E/DX2                !
 ! R23   R(20,24)                1.0829         estimate D2E/DX2                !
 ! R24   R(20,25)                1.3791         estimate D2E/DX2                !
 ! R25   R(21,25)                1.3881         estimate D2E/DX2                !
 ! R26   R(21,26)                1.352          estimate D2E/DX2                !
 ! R27   R(25,27)                1.0833         estimate D2E/DX2                !
 ! A1    A(2,1,3)              108.7118         estimate D2E/DX2                !
 ! A2    A(2,1,6)              109.3794         estimate D2E/DX2                !
 ! A3    A(2,1,7)              108.4398         estimate D2E/DX2                !
 ! A4    A(3,1,6)              111.3445         estimate D2E/DX2                !
 ! A5    A(3,1,7)              108.5476         estimate D2E/DX2                !
 ! A6    A(6,1,7)              110.353          estimate D2E/DX2                !
 ! A7    A(5,4,6)              111.2945         estimate D2E/DX2                !
 ! A8    A(5,4,8)              108.5046         estimate D2E/DX2                !
 ! A9    A(5,4,9)              108.6266         estimate D2E/DX2                !
 ! A10   A(6,4,8)              109.5086         estimate D2E/DX2                !
 ! A11   A(6,4,9)              110.4297         estimate D2E/DX2                !
 ! A12   A(8,4,9)              108.407          estimate D2E/DX2                !
 ! A13   A(1,6,4)              117.9925         estimate D2E/DX2                !
 ! A14   A(1,6,10)             120.2518         estimate D2E/DX2                !
 ! A15   A(4,6,10)             121.2334         estimate D2E/DX2                !
 ! A16   A(6,10,11)            115.5942         estimate D2E/DX2                !
 ! A17   A(6,10,12)            126.9762         estimate D2E/DX2                !
 ! A18   A(11,10,12)           117.4282         estimate D2E/DX2                !
 ! A19   A(10,12,13)           118.1486         estimate D2E/DX2                !
 ! A20   A(10,12,14)           121.1175         estimate D2E/DX2                !
 ! A21   A(13,12,14)           120.7308         estimate D2E/DX2                !
 ! A22   A(12,13,15)           120.9719         estimate D2E/DX2                !
 ! A23   A(12,13,16)           120.2226         estimate D2E/DX2                !
 ! A24   A(15,13,16)           118.8053         estimate D2E/DX2                !
 ! A25   A(13,16,17)           119.3084         estimate D2E/DX2                !
 ! A26   A(13,16,18)           122.3352         estimate D2E/DX2                !
 ! A27   A(17,16,18)           118.3563         estimate D2E/DX2                !
 ! A28   A(16,17,19)           122.9516         estimate D2E/DX2                !
 ! A29   A(16,17,20)           119.7927         estimate D2E/DX2                !
 ! A30   A(19,17,20)           117.2558         estimate D2E/DX2                !
 ! A31   A(16,18,21)           120.2904         estimate D2E/DX2                !
 ! A32   A(16,18,22)           121.5971         estimate D2E/DX2                !
 ! A33   A(21,18,22)           118.1125         estimate D2E/DX2                !
 ! A34   A(17,19,23)           106.2707         estimate D2E/DX2                !
 ! A35   A(17,20,24)           117.9998         estimate D2E/DX2                !
 ! A36   A(17,20,25)           120.897          estimate D2E/DX2                !
 ! A37   A(24,20,25)           121.1032         estimate D2E/DX2                !
 ! A38   A(18,21,25)           121.8251         estimate D2E/DX2                !
 ! A39   A(18,21,26)           119.2263         estimate D2E/DX2                !
 ! A40   A(25,21,26)           118.9486         estimate D2E/DX2                !
 ! A41   A(20,25,21)           118.8385         estimate D2E/DX2                !
 ! A42   A(20,25,27)           121.3815         estimate D2E/DX2                !
 ! A43   A(21,25,27)           119.78           estimate D2E/DX2                !
 ! D1    D(2,1,6,4)            -13.7628         estimate D2E/DX2                !
 ! D2    D(2,1,6,10)           174.4247         estimate D2E/DX2                !
 ! D3    D(3,1,6,4)            106.4079         estimate D2E/DX2                !
 ! D4    D(3,1,6,10)           -65.4046         estimate D2E/DX2                !
 ! D5    D(7,1,6,4)           -132.98           estimate D2E/DX2                !
 ! D6    D(7,1,6,10)            55.2075         estimate D2E/DX2                !
 ! D7    D(5,4,6,1)            -63.8697         estimate D2E/DX2                !
 ! D8    D(5,4,6,10)           107.8584         estimate D2E/DX2                !
 ! D9    D(8,4,6,1)            176.165          estimate D2E/DX2                !
 ! D10   D(8,4,6,10)           -12.1069         estimate D2E/DX2                !
 ! D11   D(9,4,6,1)             56.8606         estimate D2E/DX2                !
 ! D12   D(9,4,6,10)          -131.4113         estimate D2E/DX2                !
 ! D13   D(1,6,10,11)          178.821          estimate D2E/DX2                !
 ! D14   D(1,6,10,12)           -1.6117         estimate D2E/DX2                !
 ! D15   D(4,6,10,11)            7.278          estimate D2E/DX2                !
 ! D16   D(4,6,10,12)         -173.1547         estimate D2E/DX2                !
 ! D17   D(6,10,12,13)        -178.7595         estimate D2E/DX2                !
 ! D18   D(6,10,12,14)           1.8762         estimate D2E/DX2                !
 ! D19   D(11,10,12,13)          0.8008         estimate D2E/DX2                !
 ! D20   D(11,10,12,14)       -178.5635         estimate D2E/DX2                !
 ! D21   D(10,12,13,15)          0.7392         estimate D2E/DX2                !
 ! D22   D(10,12,13,16)       -179.0751         estimate D2E/DX2                !
 ! D23   D(14,12,13,15)       -179.894          estimate D2E/DX2                !
 ! D24   D(14,12,13,16)          0.2918         estimate D2E/DX2                !
 ! D25   D(12,13,16,17)        179.507          estimate D2E/DX2                !
 ! D26   D(12,13,16,18)         -0.5277         estimate D2E/DX2                !
 ! D27   D(15,13,16,17)         -0.3112         estimate D2E/DX2                !
 ! D28   D(15,13,16,18)        179.6541         estimate D2E/DX2                !
 ! D29   D(13,16,17,19)          0.0265         estimate D2E/DX2                !
 ! D30   D(13,16,17,20)       -179.9796         estimate D2E/DX2                !
 ! D31   D(18,16,17,19)       -179.9402         estimate D2E/DX2                !
 ! D32   D(18,16,17,20)          0.0537         estimate D2E/DX2                !
 ! D33   D(13,16,18,21)       -179.9984         estimate D2E/DX2                !
 ! D34   D(13,16,18,22)         -0.0188         estimate D2E/DX2                !
 ! D35   D(17,16,18,21)         -0.0328         estimate D2E/DX2                !
 ! D36   D(17,16,18,22)        179.9468         estimate D2E/DX2                !
 ! D37   D(16,17,19,23)          0.1606         estimate D2E/DX2                !
 ! D38   D(20,17,19,23)       -179.8335         estimate D2E/DX2                !
 ! D39   D(16,17,20,24)        179.9893         estimate D2E/DX2                !
 ! D40   D(16,17,20,25)         -0.0391         estimate D2E/DX2                !
 ! D41   D(19,17,20,24)         -0.0165         estimate D2E/DX2                !
 ! D42   D(19,17,20,25)        179.9551         estimate D2E/DX2                !
 ! D43   D(16,18,21,25)         -0.0039         estimate D2E/DX2                !
 ! D44   D(16,18,21,26)        179.9901         estimate D2E/DX2                !
 ! D45   D(22,18,21,25)       -179.9842         estimate D2E/DX2                !
 ! D46   D(22,18,21,26)          0.0098         estimate D2E/DX2                !
 ! D47   D(17,20,25,21)          0.0022         estimate D2E/DX2                !
 ! D48   D(17,20,25,27)        179.9997         estimate D2E/DX2                !
 ! D49   D(24,20,25,21)        179.9729         estimate D2E/DX2                !
 ! D50   D(24,20,25,27)         -0.0295         estimate D2E/DX2                !
 ! D51   D(18,21,25,20)          0.0197         estimate D2E/DX2                !
 ! D52   D(18,21,25,27)       -179.9779         estimate D2E/DX2                !
 ! D53   D(26,21,25,20)       -179.9743         estimate D2E/DX2                !
 ! D54   D(26,21,25,27)          0.0281         estimate D2E/DX2                !
 --------------------------------------------------------------------------------
 Trust Radius=3.00D-01 FncErr=1.00D-07 GrdErr=1.00D-06
 Number of steps in this run=    134 maximum allowed number of steps=    162.
 GradGradGradGradGradGradGradGradGradGradGradGradGradGradGradGradGradGrad

                          Input orientation:                          
 ---------------------------------------------------------------------
 Center     Atomic      Atomic             Coordinates (Angstroms)
 Number     Number       Type             X           Y           Z
 ---------------------------------------------------------------------
      1          6           0        3.725829    1.629334    0.038880
      2          1           0        4.771643    1.910912    0.159097
      3          1           0        3.352755    2.054696   -0.900288
      4          6           0        4.827444   -0.593001   -0.107142
      5          1           0        5.289323   -0.422377   -1.086002
      6          7           0        3.613108    0.185239    0.045107
      7          1           0        3.154417    2.059126    0.866750
      8          1           0        4.594030   -1.653413   -0.014978
      9          1           0        5.549708   -0.329534    0.670577
     10          6           0        2.405737   -0.398374    0.023185
     11          1           0        2.409735   -1.484356    0.009575
     12          6           0        1.194415    0.224664    0.024611
     13          6           0        0.002960   -0.598266    0.025838
     14          1           0        1.121019    1.301041    0.014575
     15          8           0        0.082314   -1.839066    0.039353
     16          6           0       -1.344984    0.034341    0.006647
     17          6           0       -2.494893   -0.787470   -0.002410
     18          6           0       -1.520821    1.427750   -0.002181
     19          8           0       -2.434410   -2.121141    0.005982
     20          6           0       -3.768257   -0.202946   -0.020902
     21          6           0       -2.782206    1.965678   -0.019845
     22          1           0       -0.678148    2.105120    0.004943
     23          1           0       -1.476303   -2.354180    0.021458
     24          1           0       -4.629148   -0.859845   -0.027626
     25          6           0       -3.918102    1.167921   -0.029643
     26          9           0       -2.926531    3.309880   -0.027854
     27          1           0       -4.898680    1.628125   -0.043938
 ---------------------------------------------------------------------
                    Distance matrix (angstroms):
                    1          2          3          4          5
     1  C    0.000000
     2  H    1.089708   0.000000
     3  H    1.096429   1.776574   0.000000
     4  C    2.484683   2.518646   3.132744   0.000000
     5  H    2.814141   2.694903   3.149711   1.095724   0.000000
     6  N    1.448501   2.081621   2.111025   1.450327   2.111469
     7  H    1.093893   1.771486   1.778140   3.283483   3.811683
     8  H    3.396042   3.572991   4.009315   1.089702   1.773689
     9  H    2.750043   2.426231   3.602607   1.093584   1.778198
    10  C    2.419605   3.308895   2.786969   2.433008   3.089651
    11  H    3.380537   4.138697   3.773860   2.579429   3.258852
    12  C    2.895058   3.957029   2.977060   3.726236   4.291899
    13  C    4.338448   5.390183   4.372304   4.826319   5.404883
    14  H    2.625530   3.704036   2.526978   4.164108   4.642866
    15  O    5.030408   6.005537   5.171082   4.908196   5.512383
    16  C    5.315844   6.399835   5.193565   6.205270   6.739177
    17  C    6.673832   7.753057   6.563465   7.325667   7.867749
    18  C    5.250682   6.313047   4.995137   6.662950   7.139727
    19  O    7.212190   8.258819   7.193762   7.421760   7.983375
    20  C    7.715060   8.799471   7.521906   8.604978   9.122628
    21  C    6.516986   7.556167   6.198455   8.028775   8.484638
    22  H    4.429734   5.455429   4.131605   6.132207   6.571843
    23  H    6.552165   7.566161   6.603605   6.546412   7.122642
    24  H    8.718147   9.802389   8.542064   9.460690   9.984368
    25  C    7.658152   8.723493   7.376297   8.921403   9.403278
    26  F    6.861675   7.826490   6.462666   8.681180   9.085686
    27  H    8.624908   9.676587   8.306713   9.976717  10.444418
                    6          7          8          9         10
     6  N    0.000000
     7  H    2.096891   0.000000
     8  H    2.084816   4.078342   0.000000
     9  H    2.099196   3.388451   1.770864   0.000000
    10  C    1.341204   2.703965   2.522936   3.210671   0.000000
    11  H    2.058377   3.720963   2.190965   3.410274   1.086075
    12  C    2.419101   2.813549   3.884086   4.437678   1.362160
    13  C    3.694241   4.207202   4.710936   5.590556   2.411079
    14  H    2.730651   2.331438   4.559767   4.764704   2.130396
    15  O    4.069932   5.031729   4.515861   5.706971   2.733889
    16  C    4.960537   5.008407   6.174210   6.936136   3.775636
    17  C    6.185151   6.385393   7.141627   8.085679   4.916119
    18  C    5.282357   4.797033   6.847271   7.316626   4.330499
    19  O    6.472510   7.032107   7.044017   8.209608   5.137630
    20  C    7.391859   7.336777   8.487150   9.344444   6.177243
    21  C    6.638842   6.003189   8.216246   8.669802   5.701346
    22  H    4.701323   3.928534   6.474784   6.719881   3.972173
    23  H    5.687821   6.452546   6.110756   7.340665   4.346886
    24  H    8.308566   8.360872   9.257263  10.216546   7.050187
    25  C    7.595418   7.184587   8.967527   9.611041   6.515137
    26  F    7.248143   6.272370   9.010731   9.250933   6.495139
    27  H    8.633678   8.115879  10.043947  10.654191   7.580614
                   11         12         13         14         15
    11  H    0.000000
    12  C    2.097136   0.000000
    13  C    2.564758   1.448027   0.000000
    14  H    3.069080   1.078923   2.203986   0.000000
    15  O    2.354483   2.344348   1.243408   3.307536   0.000000
    16  C    4.050230   2.546585   1.489132   2.772321   2.355399
    17  C    4.953904   3.825720   2.505167   4.175761   2.783809
    18  C    4.891805   2.969955   2.535239   2.644929   3.639210
    19  O    4.885820   4.321055   2.874076   4.934823   2.532702
    20  C    6.309557   4.981268   3.792168   5.115491   4.184186
    21  C    6.233767   4.341269   3.785902   3.959557   4.762883
    22  H    4.734911   2.653864   2.787946   1.970694   4.016975
    23  H    3.982213   3.712571   2.295968   4.484058   1.641630
    24  H    7.066630   5.923915   4.639796   6.142933   4.812612
    25  C    6.861314   5.199087   4.300840   5.041073   5.005004
    26  F    7.173690   5.148155   4.884507   4.518837   5.964001
    27  H    7.943760   6.253016   5.384029   6.028863   6.069486
                   16         17         18         19         20
    16  C    0.000000
    17  C    1.413416   0.000000
    18  C    1.404488   2.419920   0.000000
    19  O    2.415150   1.335068   3.664606   0.000000
    20  C    2.435018   1.401237   2.776777   2.336523   0.000000
    21  C    2.407566   2.768154   1.371413   4.101673   2.382274
    22  H    2.175500   3.415800   1.081193   4.576652   3.857021
    23  H    2.392174   1.868871   3.782266   0.986162   3.143669
    24  H    3.403891   2.135631   3.859461   2.531575   1.082911
    25  C    2.811985   2.418641   2.411478   3.608399   1.379061
    26  F    3.637532   4.120101   2.349275   5.453376   3.612270
    27  H    3.895056   3.408081   3.384055   4.486883   2.152025
                   21         22         23         24         25
    21  C    0.000000
    22  H    2.108820   0.000000
    23  H    4.513122   4.530197   0.000000
    24  H    3.375624   4.939887   3.489395   0.000000
    25  C    1.388082   3.372958   4.286047   2.148820   0.000000
    26  F    1.351951   2.551029   5.846980   4.503944   2.360339
    27  H    2.143358   4.247682   5.251257   2.502581   1.083294
                   26         27
    26  F    0.000000
    27  H    2.591897   0.000000
 Stoichiometry    C11H12FNO2
 Framework group  C1[X(C11H12FNO2)]
 Deg. of freedom    75
 Full point group                 C1      NOp   1
 Largest Abelian subgroup         C1      NOp   1
 Largest concise Abelian subgroup C1      NOp   1
                         Standard orientation:                         
 ---------------------------------------------------------------------
 Center     Atomic      Atomic             Coordinates (Angstroms)
 Number     Number       Type             X           Y           Z
 ---------------------------------------------------------------------
      1          6           0       -3.773285    1.787664   -0.045334
      2          1           0       -4.784385    2.175603   -0.166344
      3          1           0       -3.357886    2.174860    0.892577
      4          6           0       -5.098908   -0.308309    0.107211
      5          1           0       -5.540329   -0.087964    1.085581
      6          7           0       -3.810608    0.339644   -0.047344
      7          1           0       -3.160737    2.153612   -0.874472
      8          1           0       -4.976511   -1.387445    0.018139
      9          1           0       -5.790287    0.026225   -0.671254
     10          6           0       -2.670105   -0.365710   -0.023750
     11          1           0       -2.786457   -1.445404   -0.006967
     12          6           0       -1.400814    0.128626   -0.027030
     13          6           0       -0.300914   -0.813182   -0.025887
     14          1           0       -1.216423    1.191654   -0.020142
     15          8           0       -0.508247   -2.039141   -0.035773
     16          6           0        1.105263   -0.323406   -0.008581
     17          6           0        2.163958   -1.259770    0.002846
     18          6           0        1.424351    1.044346   -0.003829
     19          8           0        1.965786   -2.580041   -0.001648
     20          6           0        3.490979   -0.810104    0.019595
     21          6           0        2.734636    1.448904    0.012229
     22          1           0        0.656295    1.805258   -0.012909
     23          1           0        0.988703   -2.712726   -0.016417
     24          1           0        4.279274   -1.552541    0.028214
     25          6           0        3.781884    0.537917    0.024326
     26          9           0        3.017289    2.770971    0.016306
     27          1           0        4.804825    0.894217    0.037250
 ---------------------------------------------------------------------
 Rotational constants (GHZ):      1.0613074      0.2927851      0.2302107
 Standard basis: 6-311++G(d,p) (5D, 7F)
 There are   429 symmetry adapted cartesian basis functions of A   symmetry.
 There are   414 symmetry adapted basis functions of A   symmetry.
   414 basis functions,   648 primitive gaussians,   429 cartesian basis functions
    55 alpha electrons       55 beta electrons
       nuclear repulsion energy       944.2035352832 Hartrees.
 NAtoms=   27 NActive=   27 NUniq=   27 SFac= 1.00D+00 NAtFMM=   60 NAOKFM=F Big=F
 Integral buffers will be    131072 words long.
 Raffenetti 1 integral format.
 Two-electron integral symmetry is turned on.
 Nuclear repulsion after empirical dispersion term =      944.1883931646 Hartrees.
 One-electron integrals computed using PRISM.
 NBasis=   414 RedAO= T EigKep=  1.73D-06  NBF=   414
 NBsUse=   411 1.00D-06 EigRej=  7.34D-07 NBFU=   411
 ExpMin= 3.60D-02 ExpMax= 1.14D+04 ExpMxC= 1.72D+03 IAcc=3 IRadAn=         5 AccDes= 0.00D+00
 Harris functional with IExCor= 4639 and IRadAn=       5 diagonalized for initial guess.
 HarFok:  IExCor= 4639 AccDes= 0.00D+00 IRadAn=         5 IDoV= 1 UseB2=F ITyADJ=14
 ICtDFT=  3500011 ScaDFX=  1.000000  1.000000  1.000000  1.000000
 FoFCou: FMM=F IPFlag=           0 FMFlag=      100000 FMFlg1=           0
         NFxFlg=           0 DoJE=T BraDBF=F KetDBF=T FulRan=T
         wScrn=  0.000000 ICntrl=     500 IOpCl=  0 I1Cent=   200000004 NGrid=           0
         NMat0=    1 NMatS0=      1 NMatT0=    0 NMatD0=    1 NMtDS0=    0 NMtDT0=    0
 Petite list used in FoFCou.
 Requested convergence on RMS density matrix=1.00D-08 within 128 cycles.
 Requested convergence on MAX density matrix=1.00D-06.
 Requested convergence on             energy=1.00D-06.
 No special actions if energy rises.
 SCF Done:  E(RwB97XD) =  -731.392711833     A.U. after   16 cycles
            NFock= 16  Conv=0.77D-08     -V/T= 2.0037
 DoSCS=F DFT=T ScalE2(SS,OS)=  1.000000  1.000000
 ExpMin= 3.60D-02 ExpMax= 1.14D+04 ExpMxC= 1.72D+03 IAcc=3 IRadAn=         5 AccDes= 0.00D+00
 HarFok:  IExCor=  205 AccDes= 0.00D+00 IRadAn=         5 IDoV=-2 UseB2=F ITyADJ=14
 ICtDFT= 12500011 ScaDFX=  1.000000  1.000000  1.000000  1.000000
 Range of M.O.s used for correlation:    16   411
 NBasis=   414 NAE=    55 NBE=    55 NFC=    15 NFV=     0
 NROrb=    396 NOA=    40 NOB=    40 NVA=   356 NVB=   356

 **** Warning!!: The largest alpha MO coefficient is  0.14155605D+03

 Would need an additional         21642200000 words for in-memory AO integral storage.
 Orbital symmetries:
       Occupied  (A) (A) (A) (A) (A) (A) (A) (A) (A) (A) (A) (A)
                 (A) (A) (A) (A) (A) (A) (A) (A) (A) (A) (A) (A)
                 (A) (A) (A) (A) (A) (A) (A) (A) (A) (A) (A) (A)
                 (A) (A) (A) (A) (A) (A) (A) (A) (A) (A) (A) (A)
                 (A) (A) (A) (A) (A) (A) (A)
       Virtual   (A) (A) (A) (A) (A) (A) (A) (A) (A) (A) (A) (A)
                 (A) (A) (A) (A) (A) (A) (A) (A) (A) (A) (A) (A)
                 (A) (A) (A) (A) (A) (A) (A) (A) (A) (A) (A) (A)
                 (A) (A) (A) (A) (A) (A) (A) (A) (A) (A) (A) (A)
                 (A) (A) (A) (A) (A) (A) (A) (A) (A) (A) (A) (A)
                 (A) (A) (A) (A) (A) (A) (A) (A) (A) (A) (A) (A)
                 (A) (A) (A) (A) (A) (A) (A) (A) (A) (A) (A) (A)
                 (A) (A) (A) (A) (A) (A) (A) (A) (A) (A) (A) (A)
                 (A) (A) (A) (A) (A) (A) (A) (A) (A) (A) (A) (A)
                 (A) (A) (A) (A) (A) (A) (A) (A) (A) (A) (A) (A)
                 (A) (A) (A) (A) (A) (A) (A) (A) (A) (A) (A) (A)
                 (A) (A) (A) (A) (A) (A) (A) (A) (A) (A) (A) (A)
                 (A) (A) (A) (A) (A) (A) (A) (A) (A) (A) (A) (A)
                 (A) (A) (A) (A) (A) (A) (A) (A) (A) (A) (A) (A)
                 (A) (A) (A) (A) (A) (A) (A) (A) (A) (A) (A) (A)
                 (A) (A) (A) (A) (A) (A) (A) (A) (A) (A) (A) (A)
                 (A) (A) (A) (A) (A) (A) (A) (A) (A) (A) (A) (A)
                 (A) (A) (A) (A) (A) (A) (A) (A) (A) (A) (A) (A)
                 (A) (A) (A) (A) (A) (A) (A) (A) (A) (A) (A) (A)
                 (A) (A) (A) (A) (A) (A) (A) (A) (A) (A) (A) (A)
                 (A) (A) (A) (A) (A) (A) (A) (A) (A) (A) (A) (A)
                 (A) (A) (A) (A) (A) (A) (A) (A) (A) (A) (A) (A)
                 (A) (A) (A) (A) (A) (A) (A) (A) (A) (A) (A) (A)
                 (A) (A) (A) (A) (A) (A) (A) (A) (A) (A) (A) (A)
                 (A) (A) (A) (A) (A) (A) (A) (A) (A) (A) (A) (A)
                 (A) (A) (A) (A) (A) (A) (A) (A) (A) (A) (A) (A)
                 (A) (A) (A) (A) (A) (A) (A) (A) (A) (A) (A) (A)
                 (A) (A) (A) (A) (A) (A) (A) (A) (A) (A) (A) (A)
                 (A) (A) (A) (A) (A) (A) (A) (A) (A) (A) (A) (A)
                 (A) (A) (A) (A) (A) (A) (A) (A)
     8 initial guesses have been made.
 Convergence on wavefunction:    0.000001000000000
 Iteration     1 Dimension     8 NMult     0 NNew      8
 CISAX will form     8 AO SS matrices at one time.
 New state      1 was old state      6
 Iteration     2 Dimension    12 NMult     8 NNew      4
 New state      1 was old state      2
 Iteration     3 Dimension    16 NMult    12 NNew      4
 Iteration     4 Dimension    20 NMult    16 NNew      4
 Iteration     5 Dimension    24 NMult    20 NNew      4
 Iteration     6 Dimension    28 NMult    24 NNew      4
 Iteration     7 Dimension    32 NMult    28 NNew      4
 Iteration     8 Dimension    36 NMult    32 NNew      4
 Iteration     9 Dimension    40 NMult    36 NNew      4
 Iteration    10 Dimension    44 NMult    40 NNew      4
 Iteration    11 Dimension    48 NMult    44 NNew      4
 Iteration    12 Dimension    52 NMult    48 NNew      4
 Iteration    13 Dimension    56 NMult    52 NNew      4
 ***********************************************************************
 Excited states from <AA,BB:AA,BB> singles matrix:
 ***********************************************************************
 
 Ground to excited state transition densities written to RWF  633
 Ground to excited state transition electric dipole moments (Au):
       state          X           Y           Z        Dip. S.      Osc.
         1        -2.0777      0.4865      0.0097      4.5535      0.4502
 Ground to excited state transition velocity dipole moments (Au):
       state          X           Y           Z        Dip. S.      Osc.
         1         0.3078     -0.0771     -0.0015      0.1007      0.4527
 Ground to excited state transition magnetic dipole moments (Au):
       state          X           Y           Z
         1        -0.0179     -0.0658     -0.2877
 Ground to excited state transition velocity quadrupole moments (Au):
       state          XX          YY          ZZ          XY          XZ          YZ
         1        -0.1162      0.1839     -0.0431     -0.1501      0.0314     -0.0001
 <0|del|b> * <b|rxdel|0> + <0|del|b> * <b|delr+rdel|0>
 Rotatory Strengths (R) in cgs (10**-40 erg-esu-cm/Gauss)
       state          XX          YY          ZZ    R(velocity)    E-M Angle
         1        19.4449    -12.7422     -6.7287     -0.0086       90.00
 1/2[<0|r|b>*<b|rxdel|0> + (<0|rxdel|b>*<b|r|0>)*]
 Rotatory Strengths (R) in cgs (10**-40 erg-esu-cm/Gauss)
       state          XX          YY          ZZ     R(length)
         1       -26.3012     22.6285      1.9657     -0.5690
  1/2[<0|del|b>*<b|r|0> + (<0|r|b>*<b|del|0>)*] (Au)
       state          X           Y           Z        Dip. S.   Osc.(frdel)
         1        -0.6396     -0.0375      0.0000      0.6771      0.4514

 Excitation energies and oscillator strengths:
 
 Excited State   1:      Singlet-A      4.0351 eV  307.26 nm  f=0.4502  <S**2>=0.000
      55 -> 56         0.67584
 This state for optimization and/or second-order correction.
 Total Energy, E(TD-HF/TD-KS) =  -731.244423109    
 Copying the excited state density for this state as the 1-particle RhoCI density.
 SavETr:  write IOETrn=   770 NScale= 10 NData=  16 NLR=1 NState=    1 LETran=      28.
          IDoAtm=111111111111111111111111111
          Differentiating once with respect to electric field.
                with respect to dipole field.
          Differentiating once with respect to nuclear coordinates.
          There are     1 degrees of freedom in the 1st order CPHF.  IDoFFX=0 NUNeed=     1.
 LinEq1:  Iter=  0 NonCon=     1 RMS=4.52D-03 Max=3.16D-01 NDo=     1
 AX will form     1 AO Fock derivatives at one time.
 LinEq1:  Iter=  1 NonCon=     1 RMS=1.69D-03 Max=8.41D-02 NDo=     1
 LinEq1:  Iter=  2 NonCon=     1 RMS=1.15D-03 Max=7.64D-02 NDo=     1
 LinEq1:  Iter=  3 NonCon=     1 RMS=4.12D-04 Max=1.79D-02 NDo=     1
 LinEq1:  Iter=  4 NonCon=     1 RMS=2.84D-04 Max=1.46D-02 NDo=     1
 LinEq1:  Iter=  5 NonCon=     1 RMS=1.38D-04 Max=6.69D-03 NDo=     1
 LinEq1:  Iter=  6 NonCon=     1 RMS=7.32D-05 Max=2.51D-03 NDo=     1
 LinEq1:  Iter=  7 NonCon=     1 RMS=3.02D-05 Max=1.01D-03 NDo=     1
 LinEq1:  Iter=  8 NonCon=     1 RMS=1.62D-05 Max=5.69D-04 NDo=     1
 LinEq1:  Iter=  9 NonCon=     1 RMS=7.08D-06 Max=1.67D-04 NDo=     1
 LinEq1:  Iter= 10 NonCon=     1 RMS=2.81D-06 Max=8.65D-05 NDo=     1
 LinEq1:  Iter= 11 NonCon=     1 RMS=1.39D-06 Max=3.83D-05 NDo=     1
 LinEq1:  Iter= 12 NonCon=     1 RMS=6.42D-07 Max=2.23D-05 NDo=     1
 LinEq1:  Iter= 13 NonCon=     1 RMS=2.73D-07 Max=9.60D-06 NDo=     1
 LinEq1:  Iter= 14 NonCon=     1 RMS=9.90D-08 Max=2.32D-06 NDo=     1
 LinEq1:  Iter= 15 NonCon=     1 RMS=4.56D-08 Max=1.84D-06 NDo=     1
 LinEq1:  Iter= 16 NonCon=     1 RMS=1.71D-08 Max=4.22D-07 NDo=     1
 LinEq1:  Iter= 17 NonCon=     1 RMS=7.25D-09 Max=1.87D-07 NDo=     1
 LinEq1:  Iter= 18 NonCon=     1 RMS=3.39D-09 Max=1.32D-07 NDo=     1
 LinEq1:  Iter= 19 NonCon=     1 RMS=1.38D-09 Max=5.69D-08 NDo=     1
 LinEq1:  Iter= 20 NonCon=     1 RMS=5.82D-10 Max=1.83D-08 NDo=     1
 LinEq1:  Iter= 21 NonCon=     1 RMS=2.22D-10 Max=1.46D-08 NDo=     1
 LinEq1:  Iter= 22 NonCon=     1 RMS=1.06D-10 Max=3.31D-09 NDo=     1
 LinEq1:  Iter= 23 NonCon=     1 RMS=4.59D-11 Max=1.21D-09 NDo=     1
 LinEq1:  Iter= 24 NonCon=     0 RMS=2.48D-11 Max=8.51D-10 NDo=     1
 Linear equations converged to 1.000D-10 1.000D-09 after    24 iterations.
 End of Minotr F.D. properties file   721 does not exist.
 End of Minotr F.D. properties file   722 does not exist.
 End of Minotr F.D. properties file   788 does not exist.

 **********************************************************************

            Population analysis using the SCF density.

 **********************************************************************

 Orbital symmetries:
       Occupied  (A) (A) (A) (A) (A) (A) (A) (A) (A) (A) (A) (A)
                 (A) (A) (A) (A) (A) (A) (A) (A) (A) (A) (A) (A)
                 (A) (A) (A) (A) (A) (A) (A) (A) (A) (A) (A) (A)
                 (A) (A) (A) (A) (A) (A) (A) (A) (A) (A) (A) (A)
                 (A) (A) (A) (A) (A) (A) (A)
       Virtual   (A) (A) (A) (A) (A) (A) (A) (A) (A) (A) (A) (A)
                 (A) (A) (A) (A) (A) (A) (A) (A) (A) (A) (A) (A)
                 (A) (A) (A) (A) (A) (A) (A) (A) (A) (A) (A) (A)
                 (A) (A) (A) (A) (A) (A) (A) (A) (A) (A) (A) (A)
                 (A) (A) (A) (A) (A) (A) (A) (A) (A) (A) (A) (A)
                 (A) (A) (A) (A) (A) (A) (A) (A) (A) (A) (A) (A)
                 (A) (A) (A) (A) (A) (A) (A) (A) (A) (A) (A) (A)
                 (A) (A) (A) (A) (A) (A) (A) (A) (A) (A) (A) (A)
                 (A) (A) (A) (A) (A) (A) (A) (A) (A) (A) (A) (A)
                 (A) (A) (A) (A) (A) (A) (A) (A) (A) (A) (A) (A)
                 (A) (A) (A) (A) (A) (A) (A) (A) (A) (A) (A) (A)
                 (A) (A) (A) (A) (A) (A) (A) (A) (A) (A) (A) (A)
                 (A) (A) (A) (A) (A) (A) (A) (A) (A) (A) (A) (A)
                 (A) (A) (A) (A) (A) (A) (A) (A) (A) (A) (A) (A)
                 (A) (A) (A) (A) (A) (A) (A) (A) (A) (A) (A) (A)
                 (A) (A) (A) (A) (A) (A) (A) (A) (A) (A) (A) (A)
                 (A) (A) (A) (A) (A) (A) (A) (A) (A) (A) (A) (A)
                 (A) (A) (A) (A) (A) (A) (A) (A) (A) (A) (A) (A)
                 (A) (A) (A) (A) (A) (A) (A) (A) (A) (A) (A) (A)
                 (A) (A) (A) (A) (A) (A) (A) (A) (A) (A) (A) (A)
                 (A) (A) (A) (A) (A) (A) (A) (A) (A) (A) (A) (A)
                 (A) (A) (A) (A) (A) (A) (A) (A) (A) (A) (A) (A)
                 (A) (A) (A) (A) (A) (A) (A) (A) (A) (A) (A) (A)
                 (A) (A) (A) (A) (A) (A) (A) (A) (A) (A) (A) (A)
                 (A) (A) (A) (A) (A) (A) (A) (A) (A) (A) (A) (A)
                 (A) (A) (A) (A) (A) (A) (A) (A) (A) (A) (A) (A)
                 (A) (A) (A) (A) (A) (A) (A) (A) (A) (A) (A) (A)
                 (A) (A) (A) (A) (A) (A) (A) (A) (A) (A) (A) (A)
                 (A) (A) (A) (A) (A) (A) (A) (A) (A) (A) (A) (A)
                 (A) (A) (A) (A) (A) (A) (A) (A)
 The electronic state is 1-A.
 Alpha  occ. eigenvalues --  -24.81218 -19.25560 -19.22705 -14.49457 -10.37852
 Alpha  occ. eigenvalues --  -10.36622 -10.35634 -10.35006 -10.34226 -10.33938
 Alpha  occ. eigenvalues --  -10.30309 -10.30248 -10.30232 -10.29080 -10.27764
 Alpha  occ. eigenvalues --   -1.32636  -1.16641  -1.13167  -1.09190  -0.96982
 Alpha  occ. eigenvalues --   -0.89921  -0.87437  -0.85593  -0.84445  -0.80660
 Alpha  occ. eigenvalues --   -0.75400  -0.71360  -0.69762  -0.65792  -0.64109
 Alpha  occ. eigenvalues --   -0.62917  -0.60697  -0.59902  -0.58816  -0.58377
 Alpha  occ. eigenvalues --   -0.55803  -0.54844  -0.53070  -0.52506  -0.52038
 Alpha  occ. eigenvalues --   -0.51733  -0.51646  -0.50664  -0.49835  -0.49757
 Alpha  occ. eigenvalues --   -0.47503  -0.47242  -0.45465  -0.43770  -0.42073
 Alpha  occ. eigenvalues --   -0.42003  -0.34622  -0.34348  -0.30347  -0.29003
 Alpha virt. eigenvalues --   -0.00387   0.02610   0.04317   0.05142   0.05199
 Alpha virt. eigenvalues --    0.05691   0.05911   0.06871   0.07666   0.08019
 Alpha virt. eigenvalues --    0.08227   0.08450   0.08476   0.10250   0.11122
 Alpha virt. eigenvalues --    0.11660   0.11934   0.12685   0.12941   0.13828
 Alpha virt. eigenvalues --    0.14391   0.14588   0.14870   0.15438   0.15854
 Alpha virt. eigenvalues --    0.15981   0.16503   0.16825   0.16846   0.17392
 Alpha virt. eigenvalues --    0.17710   0.17918   0.18576   0.19087   0.19284
 Alpha virt. eigenvalues --    0.19717   0.20204   0.20438   0.20855   0.21314
 Alpha virt. eigenvalues --    0.21689   0.21902   0.21983   0.22816   0.23166
 Alpha virt. eigenvalues --    0.23640   0.24002   0.24631   0.25313   0.25902
 Alpha virt. eigenvalues --    0.26155   0.26538   0.27198   0.27448   0.27818
 Alpha virt. eigenvalues --    0.28029   0.28530   0.28944   0.29520   0.30365
 Alpha virt. eigenvalues --    0.30615   0.31105   0.32122   0.32243   0.33018
 Alpha virt. eigenvalues --    0.33277   0.34270   0.34853   0.35189   0.35574
 Alpha virt. eigenvalues --    0.36590   0.36993   0.37084   0.38113   0.38621
 Alpha virt. eigenvalues --    0.38680   0.39308   0.39576   0.39843   0.40149
 Alpha virt. eigenvalues --    0.41156   0.42389   0.43011   0.43075   0.43314
 Alpha virt. eigenvalues --    0.43942   0.45256   0.45929   0.47082   0.47725
 Alpha virt. eigenvalues --    0.48819   0.49371   0.50602   0.51219   0.51517
 Alpha virt. eigenvalues --    0.52106   0.53425   0.55450   0.56093   0.57503
 Alpha virt. eigenvalues --    0.58647   0.60651   0.61429   0.62191   0.62474
 Alpha virt. eigenvalues --    0.63262   0.63520   0.65561   0.65712   0.65978
 Alpha virt. eigenvalues --    0.66864   0.67103   0.68875   0.69432   0.69841
 Alpha virt. eigenvalues --    0.70081   0.70475   0.70664   0.71687   0.71995
 Alpha virt. eigenvalues --    0.73359   0.73819   0.74532   0.76089   0.76327
 Alpha virt. eigenvalues --    0.77823   0.78190   0.79442   0.79529   0.80691
 Alpha virt. eigenvalues --    0.82027   0.83379   0.85375   0.86664   0.87630
 Alpha virt. eigenvalues --    0.87786   0.89161   0.92644   0.93796   0.94348
 Alpha virt. eigenvalues --    0.94738   0.95047   0.96923   0.98262   0.99013
 Alpha virt. eigenvalues --    0.99679   1.01689   1.02023   1.03010   1.04459
 Alpha virt. eigenvalues --    1.05204   1.05964   1.07572   1.07690   1.10754
 Alpha virt. eigenvalues --    1.11836   1.12724   1.13808   1.14651   1.15472
 Alpha virt. eigenvalues --    1.16776   1.17825   1.18841   1.19772   1.20076
 Alpha virt. eigenvalues --    1.21600   1.24111   1.25106   1.28001   1.31814
 Alpha virt. eigenvalues --    1.32638   1.33116   1.34241   1.36529   1.38028
 Alpha virt. eigenvalues --    1.38514   1.42451   1.45149   1.46533   1.50330
 Alpha virt. eigenvalues --    1.51291   1.52051   1.52272   1.53207   1.54452
 Alpha virt. eigenvalues --    1.55504   1.57488   1.58566   1.59404   1.60472
 Alpha virt. eigenvalues --    1.61470   1.62606   1.63914   1.64833   1.65561
 Alpha virt. eigenvalues --    1.65594   1.67542   1.68940   1.69096   1.70209
 Alpha virt. eigenvalues --    1.71652   1.72705   1.73485   1.76003   1.76600
 Alpha virt. eigenvalues --    1.77222   1.79134   1.80313   1.81657   1.82328
 Alpha virt. eigenvalues --    1.83101   1.84555   1.86517   1.86762   1.89751
 Alpha virt. eigenvalues --    1.92837   1.94456   1.96096   1.96240   1.98931
 Alpha virt. eigenvalues --    2.00271   2.02715   2.03906   2.04066   2.04385
 Alpha virt. eigenvalues --    2.06614   2.06879   2.08024   2.09020   2.11811
 Alpha virt. eigenvalues --    2.13107   2.13651   2.15661   2.18496   2.18884
 Alpha virt. eigenvalues --    2.20877   2.21405   2.23961   2.24155   2.26149
 Alpha virt. eigenvalues --    2.28566   2.31029   2.31739   2.36138   2.40376
 Alpha virt. eigenvalues --    2.41447   2.43279   2.46650   2.47564   2.50597
 Alpha virt. eigenvalues --    2.51030   2.52375   2.54882   2.56041   2.57512
 Alpha virt. eigenvalues --    2.58747   2.61885   2.63737   2.66203   2.69585
 Alpha virt. eigenvalues --    2.70710   2.71151   2.73526   2.74010   2.75632
 Alpha virt. eigenvalues --    2.76917   2.78594   2.79642   2.81567   2.81879
 Alpha virt. eigenvalues --    2.83588   2.84597   2.84963   2.86953   2.87646
 Alpha virt. eigenvalues --    2.89114   2.90511   2.93942   2.94386   2.95564
 Alpha virt. eigenvalues --    2.96107   2.98693   3.02307   3.03563   3.07980
 Alpha virt. eigenvalues --    3.10240   3.12971   3.16523   3.18505   3.20398
 Alpha virt. eigenvalues --    3.22267   3.23751   3.24816   3.26922   3.30786
 Alpha virt. eigenvalues --    3.31164   3.32930   3.38345   3.42974   3.46953
 Alpha virt. eigenvalues --    3.51513   3.56946   3.61101   3.62725   3.66785
 Alpha virt. eigenvalues --    3.68791   3.71542   3.75130   3.80021   3.80717
 Alpha virt. eigenvalues --    3.83120   3.83311   3.84819   3.88615   3.89339
 Alpha virt. eigenvalues --    3.92739   3.94459   3.96705   4.03969   4.08446
 Alpha virt. eigenvalues --    4.08580   4.13216   4.17867   4.22671   4.28835
 Alpha virt. eigenvalues --    4.29754   4.39783   4.64479   4.95544   4.97704
 Alpha virt. eigenvalues --    4.98283   5.14077   5.17680   5.18492   5.43496
 Alpha virt. eigenvalues --    5.62581   5.90194   5.94195   6.45027   6.59131
 Alpha virt. eigenvalues --    6.88775  23.70880  23.94255  24.02466  24.03411
 Alpha virt. eigenvalues --   24.04536  24.06827  24.09363  24.15842  24.24235
 Alpha virt. eigenvalues --   24.29643  24.32844  35.70191  50.14067  50.19792
 Alpha virt. eigenvalues --   66.96490
          Condensed to atoms (all electrons):
               1          2          3          4          5          6
     1  C    5.244886   0.386334   0.416722  -0.071435   0.013444   0.243824
     2  H    0.386334   0.488724  -0.019326   0.005597  -0.006569  -0.048386
     3  H    0.416722  -0.019326   0.524063  -0.007171   0.000593  -0.054185
     4  C   -0.071435   0.005597  -0.007171   5.179068   0.395636   0.271564
     5  H    0.013444  -0.006569   0.000593   0.395636   0.559873  -0.049175
     6  N    0.243824  -0.048386  -0.054185   0.271564  -0.049175   6.852728
     7  H    0.418283  -0.021266  -0.051522   0.009241   0.001895  -0.036115
     8  H   -0.002402   0.003539  -0.000633   0.411649  -0.029900  -0.093363
     9  H   -0.013589  -0.003303   0.003169   0.411371  -0.064328  -0.049339
    10  C    0.166137   0.015383  -0.007141  -0.063843  -0.033361   0.183383
    11  H    0.005971  -0.001327  -0.002196  -0.036658   0.004389  -0.065949
    12  C    0.143466   0.030594  -0.001171  -0.059249   0.014306  -0.245352
    13  C   -0.292207  -0.016799   0.014485  -0.114619   0.003373   0.005508
    14  H    0.011950   0.001369  -0.015153  -0.002886   0.000462  -0.006767
    15  O   -0.000766   0.000105   0.000205   0.000710  -0.000099   0.003924
    16  C   -0.191937  -0.003835  -0.000570   0.000044  -0.000864  -0.004151
    17  C   -0.022339   0.000886  -0.001781  -0.004479  -0.000358   0.006646
    18  C   -0.006816  -0.004689   0.006598  -0.013162   0.000528  -0.030493
    19  O   -0.000092  -0.000007   0.000048   0.000268   0.000008  -0.000170
    20  C    0.006474   0.000337  -0.000789  -0.000489   0.000020  -0.000361
    21  C   -0.011665  -0.000699   0.000702   0.001849  -0.000069   0.004480
    22  H    0.004503   0.000056   0.001869  -0.002795   0.000009  -0.014815
    23  H   -0.000940  -0.000082   0.000086  -0.000145   0.000006  -0.000247
    24  H    0.000104   0.000004  -0.000010   0.000008   0.000000  -0.000032
    25  C   -0.011192  -0.000446  -0.000180  -0.000193  -0.000017   0.003380
    26  F   -0.000200  -0.000012  -0.000062  -0.000001   0.000000   0.000006
    27  H   -0.000207  -0.000009   0.000008   0.000005   0.000000   0.000031
               7          8          9         10         11         12
     1  C    0.418283  -0.002402  -0.013589   0.166137   0.005971   0.143466
     2  H   -0.021266   0.003539  -0.003303   0.015383  -0.001327   0.030594
     3  H   -0.051522  -0.000633   0.003169  -0.007141  -0.002196  -0.001171
     4  C    0.009241   0.411649   0.411371  -0.063843  -0.036658  -0.059249
     5  H    0.001895  -0.029900  -0.064328  -0.033361   0.004389   0.014306
     6  N   -0.036115  -0.093363  -0.049339   0.183383  -0.065949  -0.245352
     7  H    0.532870  -0.003190  -0.001464   0.028132   0.003093  -0.036196
     8  H   -0.003190   0.534999  -0.021430   0.056197  -0.008394   0.002904
     9  H   -0.001464  -0.021430   0.559432  -0.004675   0.000525   0.006796
    10  C    0.028132   0.056197  -0.004675  11.819419   0.304540   3.270490
    11  H    0.003093  -0.008394   0.000525   0.304540   0.465849   0.055506
    12  C   -0.036196   0.002904   0.006796   3.270490   0.055506  12.283744
    13  C   -0.026653   0.004235   0.000918  -3.936354   0.107682   0.957219
    14  H    0.006220  -0.001544   0.000592   0.132832  -0.002209   0.553590
    15  O    0.000680   0.000136   0.000073   0.009843   0.012005  -0.225089
    16  C   -0.007881   0.005741   0.000892  -2.858898  -0.058958  -4.312615
    17  C   -0.001881   0.003838  -0.000264  -1.671136  -0.066076  -3.418376
    18  C    0.001128  -0.004302   0.000515  -1.569768   0.052981  -1.520949
    19  O    0.000034  -0.000104   0.000002   0.005477   0.000246  -0.039321
    20  C   -0.000728   0.000106  -0.000014  -0.134550  -0.002891   0.119598
    21  C    0.002226  -0.000037  -0.000005   0.194815  -0.000399  -0.321497
    22  H   -0.002116   0.000104  -0.000018  -0.160517   0.003976  -0.092228
    23  H   -0.000010   0.000013   0.000034  -0.017700   0.001053   0.001134
    24  H   -0.000014   0.000002   0.000000   0.001274  -0.000113   0.010459
    25  C   -0.000094   0.000093   0.000009  -0.220414  -0.004463  -0.797519
    26  F   -0.000085   0.000000   0.000000  -0.001480  -0.000056   0.003380
    27  H    0.000010   0.000001   0.000000  -0.002366  -0.000060  -0.016297
              13         14         15         16         17         18
     1  C   -0.292207   0.011950  -0.000766  -0.191937  -0.022339  -0.006816
     2  H   -0.016799   0.001369   0.000105  -0.003835   0.000886  -0.004689
     3  H    0.014485  -0.015153   0.000205  -0.000570  -0.001781   0.006598
     4  C   -0.114619  -0.002886   0.000710   0.000044  -0.004479  -0.013162
     5  H    0.003373   0.000462  -0.000099  -0.000864  -0.000358   0.000528
     6  N    0.005508  -0.006767   0.003924  -0.004151   0.006646  -0.030493
     7  H   -0.026653   0.006220   0.000680  -0.007881  -0.001881   0.001128
     8  H    0.004235  -0.001544   0.000136   0.005741   0.003838  -0.004302
     9  H    0.000918   0.000592   0.000073   0.000892  -0.000264   0.000515
    10  C   -3.936354   0.132832   0.009843  -2.858898  -1.671136  -1.569768
    11  H    0.107682  -0.002209   0.012005  -0.058958  -0.066076   0.052981
    12  C    0.957219   0.553590  -0.225089  -4.312615  -3.418376  -1.520949
    13  C   13.579855  -0.026846   0.906133   1.616452  -4.136292  -0.163158
    14  H   -0.026846   0.875611  -0.020097   0.125052   0.030885  -0.699678
    15  O    0.906133  -0.020097   8.136463  -0.160033  -0.196744  -0.149604
    16  C    1.616452   0.125052  -0.160033  18.949484   1.421037  -6.968829
    17  C   -4.136292   0.030885  -0.196744   1.421037  16.107545  -4.147746
    18  C   -0.163158  -0.699678  -0.149604  -6.968829  -4.147746  22.092790
    19  O   -0.064648  -0.002050  -0.000942   0.092537   0.344644   0.006204
    20  C   -0.599735  -0.008132  -0.034835  -2.816522   0.732520   1.180661
    21  C   -0.253613  -0.038783   0.006858  -1.361094   0.389916   0.974815
    22  H   -0.039027  -0.173035   0.006160  -0.540791   0.010300   1.581878
    23  H    0.023854  -0.004748   0.071634  -0.151892   0.002433   0.067930
    24  H    0.015897  -0.000778   0.001316  -0.093477  -0.127165   0.059949
    25  C   -1.064847   0.144513  -0.036659   1.230050   0.575565  -2.704659
    26  F    0.011246   0.017930  -0.000003   0.123510   0.011869  -0.163830
    27  H   -0.014670   0.002035  -0.000344   0.122773   0.059706  -0.175273
              19         20         21         22         23         24
     1  C   -0.000092   0.006474  -0.011665   0.004503  -0.000940   0.000104
     2  H   -0.000007   0.000337  -0.000699   0.000056  -0.000082   0.000004
     3  H    0.000048  -0.000789   0.000702   0.001869   0.000086  -0.000010
     4  C    0.000268  -0.000489   0.001849  -0.002795  -0.000145   0.000008
     5  H    0.000008   0.000020  -0.000069   0.000009   0.000006   0.000000
     6  N   -0.000170  -0.000361   0.004480  -0.014815  -0.000247  -0.000032
     7  H    0.000034  -0.000728   0.002226  -0.002116  -0.000010  -0.000014
     8  H   -0.000104   0.000106  -0.000037   0.000104   0.000013   0.000002
     9  H    0.000002  -0.000014  -0.000005  -0.000018   0.000034   0.000000
    10  C    0.005477  -0.134550   0.194815  -0.160517  -0.017700   0.001274
    11  H    0.000246  -0.002891  -0.000399   0.003976   0.001053  -0.000113
    12  C   -0.039321   0.119598  -0.321497  -0.092228   0.001134   0.010459
    13  C   -0.064648  -0.599735  -0.253613  -0.039027   0.023854   0.015897
    14  H   -0.002050  -0.008132  -0.038783  -0.173035  -0.004748  -0.000778
    15  O   -0.000942  -0.034835   0.006858   0.006160   0.071634   0.001316
    16  C    0.092537  -2.816522  -1.361094  -0.540791  -0.151892  -0.093477
    17  C    0.344644   0.732520   0.389916   0.010300   0.002433  -0.127165
    18  C    0.006204   1.180661   0.974815   1.581878   0.067930   0.059949
    19  O    8.089312  -0.388872   0.005613  -0.001002   0.261020  -0.025524
    20  C   -0.388872   7.969631  -0.094361   0.086790   0.068378   0.533657
    21  C    0.005613  -0.094361   8.906515  -0.073964   0.011846   0.042172
    22  H   -0.001002   0.086790  -0.073964   0.727592   0.005167   0.004183
    23  H    0.261020   0.068378   0.011846   0.005167   0.303329   0.001630
    24  H   -0.025524   0.533657   0.042172   0.004183   0.001630   0.462403
    25  C    0.015954  -0.137418  -1.929438  -0.414145  -0.005686  -0.111559
    26  F    0.000152   0.006084   0.352613  -0.078763   0.000146   0.001136
    27  H    0.001122  -0.068813  -0.214030  -0.011410  -0.000470  -0.014824
              25         26         27
     1  C   -0.011192  -0.000200  -0.000207
     2  H   -0.000446  -0.000012  -0.000009
     3  H   -0.000180  -0.000062   0.000008
     4  C   -0.000193  -0.000001   0.000005
     5  H   -0.000017   0.000000   0.000000
     6  N    0.003380   0.000006   0.000031
     7  H   -0.000094  -0.000085   0.000010
     8  H    0.000093   0.000000   0.000001
     9  H    0.000009   0.000000   0.000000
    10  C   -0.220414  -0.001480  -0.002366
    11  H   -0.004463  -0.000056  -0.000060
    12  C   -0.797519   0.003380  -0.016297
    13  C   -1.064847   0.011246  -0.014670
    14  H    0.144513   0.017930   0.002035
    15  O   -0.036659  -0.000003  -0.000344
    16  C    1.230050   0.123510   0.122773
    17  C    0.575565   0.011869   0.059706
    18  C   -2.704659  -0.163830  -0.175273
    19  O    0.015954   0.000152   0.001122
    20  C   -0.137418   0.006084  -0.068813
    21  C   -1.929438   0.352613  -0.214030
    22  H   -0.414145  -0.078763  -0.011410
    23  H   -0.005686   0.000146  -0.000470
    24  H   -0.111559   0.001136  -0.014824
    25  C   10.935207  -0.228758   0.635019
    26  F   -0.228758   9.130482  -0.022380
    27  H    0.635019  -0.022380   0.473146
 Mulliken charges:
               1
     1  C   -0.436310
     2  H    0.193829
     3  H    0.193343
     4  C   -0.309884
     5  H    0.190197
     6  N    0.123426
     7  H    0.185401
     8  H    0.141744
     9  H    0.174102
    10  C    0.494282
    11  H    0.231933
    12  C   -0.367327
    13  C   -0.497391
    14  H    0.099664
    15  O   -0.331030
    16  C    1.844775
    17  C    0.096847
    18  C   -1.703020
    19  O   -0.299908
    20  C   -0.415745
    21  C   -0.594766
    22  H    0.172040
    23  H    0.362229
    24  H    0.239301
    25  C    0.127896
    26  F   -0.162923
    27  H    0.247295
 Sum of Mulliken charges =   0.00000
 Mulliken charges with hydrogens summed into heavy atoms:
               1
     1  C    0.136263
     4  C    0.196158
     6  N    0.123426
    10  C    0.726215
    12  C   -0.267662
    13  C   -0.497391
    15  O   -0.331030
    16  C    1.844775
    17  C    0.096847
    18  C   -1.530980
    19  O    0.062321
    20  C   -0.176444
    21  C   -0.594766
    25  C    0.375192
    26  F   -0.162923
 Electronic spatial extent (au):  <R**2>=           4477.1797
 Charge=              0.0000 electrons
 Dipole moment (field-independent basis, Debye):
    X=             -6.0177    Y=              2.5153    Z=              0.1343  Tot=              6.5236
 Quadrupole moment (field-independent basis, Debye-Ang):
   XX=            -59.0216   YY=            -96.6252   ZZ=            -90.9145
   XY=             -4.7948   XZ=             -0.4457   YZ=             -0.2835
 Traceless Quadrupole moment (field-independent basis, Debye-Ang):
   XX=             23.1655   YY=            -14.4381   ZZ=             -8.7274
   XY=             -4.7948   XZ=             -0.4457   YZ=             -0.2835
 Octapole moment (field-independent basis, Debye-Ang**2):
  XXX=            -89.3988  YYY=             14.8681  ZZZ=              0.5392  XYY=            -38.9534
  XXY=              2.2458  XXZ=              2.2468  XZZ=             -2.4612  YZZ=              2.6463
  YYZ=             -0.4197  XYZ=              0.7570
 Hexadecapole moment (field-independent basis, Debye-Ang**3):
 XXXX=          -3672.8970 YYYY=          -1230.4843 ZZZZ=           -110.5520 XXXY=            -12.0919
 XXXZ=             -0.0032 YYYX=              0.5312 YYYZ=             -0.8231 ZZZX=             -3.0151
 ZZZY=              0.7515 XXYY=           -971.3152 XXZZ=           -802.2780 YYZZ=           -209.7825
 XXYZ=             -4.1458 YYXZ=              1.5449 ZZXY=             12.3613
 N-N= 9.441883931646D+02 E-N=-3.599353940226D+03  KE= 7.286941234696D+02
 Calling FoFJK, ICntrl=  10005127 FMM=F ISym2X=0 I1Cent= 0 IOpClX= 0 NMat=1 NMatS=1 NMatT=0.
 ***** Axes restored to original set *****
 -------------------------------------------------------------------
 Center     Atomic                   Forces (Hartrees/Bohr)
 Number     Number              X              Y              Z
 -------------------------------------------------------------------
      1        6           0.001366113   -0.003271449    0.000558456
      2        1           0.000154389    0.000163156   -0.000061141
      3        1          -0.000470176    0.000546942   -0.000810993
      4        6          -0.002754388    0.001092906    0.000474424
      5        1           0.000501335    0.000000456   -0.000807214
      6        7           0.010612699    0.007470444    0.000741392
      7        1          -0.000523314    0.000386651    0.000343861
      8        1          -0.000216485    0.000044905   -0.000009287
      9        1           0.000473579    0.000275957    0.000145316
     10        6           0.000301089   -0.010032295   -0.000508741
     11        1          -0.000892896    0.000268876    0.000155378
     12        6          -0.007047183    0.002699793   -0.000363234
     13        6          -0.024191946    0.035626344   -0.001479664
     14        1           0.000658887    0.000996630    0.000292458
     15        8           0.000960305   -0.041257878    0.000603102
     16        6           0.053309051    0.008720310    0.000597720
     17        6          -0.028106721   -0.022320410   -0.000039297
     18        6           0.013288769    0.000307342    0.000608786
     19        8          -0.008423342    0.021722461   -0.000208399
     20        6          -0.003167091   -0.010766073   -0.000554193
     21        6          -0.008308097    0.011339773    0.000042243
     22        1          -0.000274351   -0.001102169   -0.000101829
     23        1           0.019179690    0.000181901    0.000560835
     24        1           0.000138849   -0.000026254    0.000092666
     25        6          -0.019056779    0.011068163   -0.000254607
     26        9           0.001781432   -0.013908281   -0.000069500
     27        1           0.000706581   -0.000228202    0.000051464
 -------------------------------------------------------------------
 Cartesian Forces:  Max     0.053309051 RMS     0.011231156

 GradGradGradGradGradGradGradGradGradGradGradGradGradGradGradGradGradGrad
 Berny optimization.
 FormGI is forming the generalized inverse of G from B-inverse, IUseBI=4.
 Internal  Forces:  Max     0.041238290 RMS     0.007349787
 Search for a local minimum.
 Step number   1 out of a maximum of  134
 All quantities printed in internal units (Hartrees-Bohrs-Radians)
 Mixed Optimization -- RFO/linear search
 Second derivative matrix not updated -- first step.
 ITU=  0
     Eigenvalues ---    0.00910   0.01026   0.01050   0.01188   0.01442
     Eigenvalues ---    0.01453   0.01653   0.01981   0.02024   0.02091
     Eigenvalues ---    0.02202   0.02212   0.02234   0.02307   0.02332
     Eigenvalues ---    0.02379   0.02470   0.02530   0.02551   0.02589
     Eigenvalues ---    0.07402   0.07419   0.07595   0.07625   0.15999
     Eigenvalues ---    0.16000   0.16000   0.16000   0.16000   0.16000
     Eigenvalues ---    0.16000   0.16000   0.16000   0.16000   0.16000
     Eigenvalues ---    0.16000   0.22000   0.22000   0.22367   0.23499
     Eigenvalues ---    0.24600   0.24737   0.24830   0.25000   0.25000
     Eigenvalues ---    0.25000   0.25000   0.25000   0.33545   0.34080
     Eigenvalues ---    0.34159   0.34367   0.34402   0.34846   0.34847
     Eigenvalues ---    0.35270   0.35599   0.35645   0.35851   0.36125
     Eigenvalues ---    0.38202   0.38442   0.38505   0.41335   0.42212
     Eigenvalues ---    0.44722   0.46710   0.48220   0.49900   0.50206
     Eigenvalues ---    0.52513   0.54608   0.56936   0.58324   0.85721
 RFO step:  Lambda=-1.64875684D-02 EMin= 9.09711025D-03
 Linear search not attempted -- first point.
 Iteration  1 RMS(Cart)=  0.10231261 RMS(Int)=  0.00329638
 Iteration  2 RMS(Cart)=  0.00665841 RMS(Int)=  0.00003711
 Iteration  3 RMS(Cart)=  0.00003550 RMS(Int)=  0.00003262
 Iteration  4 RMS(Cart)=  0.00000000 RMS(Int)=  0.00003262
 Variable       Old X    -DE/DX   Delta X   Delta X   Delta X     New X
                                 (Linear)    (Quad)   (Total)
    R1        2.05925   0.00018   0.00000   0.00051   0.00051   2.05976
    R2        2.07195   0.00106   0.00000   0.00297   0.00297   2.07492
    R3        2.73727  -0.00215   0.00000  -0.00536  -0.00536   2.73191
    R4        2.06716   0.00068   0.00000   0.00190   0.00190   2.06906
    R5        2.07062   0.00093   0.00000   0.00260   0.00260   2.07322
    R6        2.74072  -0.00240   0.00000  -0.00602  -0.00602   2.73470
    R7        2.05924   0.00001   0.00000   0.00002   0.00002   2.05926
    R8        2.06657   0.00048   0.00000   0.00133   0.00133   2.06790
    R9        2.53451   0.01114   0.00000   0.01901   0.01901   2.55352
   R10        2.05238  -0.00027   0.00000  -0.00073  -0.00073   2.05165
   R11        2.57411   0.00903   0.00000   0.01667   0.01667   2.59078
   R12        2.73637   0.00211   0.00000   0.00525   0.00525   2.74163
   R13        2.03887   0.00095   0.00000   0.00250   0.00250   2.04137
   R14        2.34970   0.04124   0.00000   0.04720   0.04720   2.39690
   R15        2.81405  -0.01694   0.00000  -0.04812  -0.04812   2.76593
   R16        2.67097   0.01957   0.00000   0.04250   0.04255   2.71352
   R17        2.65410  -0.00064   0.00000  -0.00159  -0.00153   2.65256
   R18        2.52291  -0.02140   0.00000  -0.03568  -0.03568   2.48723
   R19        2.64795   0.00431   0.00000   0.00855   0.00854   2.65649
   R20        2.59159   0.02029   0.00000   0.03932   0.03933   2.63092
   R21        2.04316  -0.00090   0.00000  -0.00240  -0.00240   2.04076
   R22        1.86358   0.01859   0.00000   0.03586   0.03586   1.89944
   R23        2.04640  -0.00010   0.00000  -0.00026  -0.00026   2.04614
   R24        2.60605   0.00955   0.00000   0.01897   0.01891   2.62495
   R25        2.62310   0.01222   0.00000   0.02559   0.02555   2.64864
   R26        2.55482  -0.01401   0.00000  -0.02491  -0.02491   2.52991
   R27        2.04713  -0.00074   0.00000  -0.00197  -0.00197   2.04515
    A1        1.89738  -0.00010   0.00000  -0.00040  -0.00040   1.89697
    A2        1.90903   0.00018   0.00000   0.00139   0.00138   1.91042
    A3        1.89263   0.00000   0.00000   0.00055   0.00055   1.89318
    A4        1.94333   0.00008   0.00000   0.00020   0.00020   1.94353
    A5        1.89451  -0.00026   0.00000  -0.00214  -0.00214   1.89237
    A6        1.92602   0.00008   0.00000   0.00039   0.00039   1.92641
    A7        1.94246   0.00026   0.00000   0.00134   0.00134   1.94380
    A8        1.89376  -0.00001   0.00000  -0.00035  -0.00035   1.89341
    A9        1.89589  -0.00021   0.00000  -0.00115  -0.00115   1.89474
   A10        1.91129  -0.00036   0.00000  -0.00207  -0.00207   1.90921
   A11        1.92736   0.00014   0.00000   0.00091   0.00091   1.92828
   A12        1.89206   0.00018   0.00000   0.00131   0.00131   1.89337
   A13        2.05936  -0.00045   0.00000  -0.00185  -0.00185   2.05751
   A14        2.09879   0.00125   0.00000   0.00457   0.00457   2.10336
   A15        2.11592  -0.00082   0.00000  -0.00330  -0.00330   2.11262
   A16        2.01750   0.00165   0.00000   0.00828   0.00828   2.02578
   A17        2.21615  -0.00146   0.00000  -0.00617  -0.00617   2.20998
   A18        2.04951  -0.00019   0.00000  -0.00211  -0.00211   2.04740
   A19        2.06208   0.00231   0.00000   0.00980   0.00979   2.07187
   A20        2.11390  -0.00190   0.00000  -0.00907  -0.00907   2.10482
   A21        2.10715  -0.00042   0.00000  -0.00067  -0.00068   2.10647
   A22        2.11136   0.00153   0.00000   0.00575   0.00574   2.11710
   A23        2.09828   0.00088   0.00000   0.00331   0.00330   2.10158
   A24        2.07354  -0.00241   0.00000  -0.00904  -0.00905   2.06449
   A25        2.08232  -0.01676   0.00000  -0.06257  -0.06263   2.01970
   A26        2.13515   0.02459   0.00000   0.09261   0.09256   2.22771
   A27        2.06571  -0.00783   0.00000  -0.03004  -0.02993   2.03578
   A28        2.14591  -0.02622   0.00000  -0.09774  -0.09776   2.04815
   A29        2.09078   0.01406   0.00000   0.05145   0.05147   2.14225
   A30        2.04650   0.01216   0.00000   0.04630   0.04628   2.09278
   A31        2.09946  -0.00502   0.00000  -0.01903  -0.01895   2.08051
   A32        2.12227   0.00181   0.00000   0.00554   0.00550   2.12777
   A33        2.06145   0.00321   0.00000   0.01349   0.01345   2.07490
   A34        1.85477  -0.00878   0.00000  -0.04975  -0.04975   1.80503
   A35        2.05949   0.00243   0.00000   0.00977   0.00981   2.06929
   A36        2.11005  -0.00505   0.00000  -0.02067  -0.02076   2.08929
   A37        2.11365   0.00263   0.00000   0.01091   0.01094   2.12459
   A38        2.12625   0.01119   0.00000   0.04580   0.04577   2.17202
   A39        2.08089  -0.00597   0.00000  -0.02429  -0.02428   2.05661
   A40        2.07604  -0.00522   0.00000  -0.02151  -0.02150   2.05455
   A41        2.07412  -0.00735   0.00000  -0.02751  -0.02762   2.04650
   A42        2.11851   0.00378   0.00000   0.01435   0.01441   2.13291
   A43        2.09055   0.00357   0.00000   0.01316   0.01321   2.10377
    D1       -0.24021  -0.00007   0.00000  -0.00218  -0.00218  -0.24239
    D2        3.04429   0.00014   0.00000   0.00257   0.00258   3.04686
    D3        1.85717  -0.00003   0.00000  -0.00164  -0.00165   1.85552
    D4       -1.14153   0.00019   0.00000   0.00310   0.00311  -1.13842
    D5       -2.32094  -0.00024   0.00000  -0.00395  -0.00396  -2.32490
    D6        0.96355  -0.00002   0.00000   0.00080   0.00080   0.96435
    D7       -1.11474  -0.00010   0.00000  -0.00174  -0.00175  -1.11649
    D8        1.88248  -0.00014   0.00000  -0.00586  -0.00586   1.87663
    D9        3.07466  -0.00002   0.00000  -0.00080  -0.00081   3.07385
   D10       -0.21131  -0.00006   0.00000  -0.00492  -0.00492  -0.21622
   D11        0.99241  -0.00010   0.00000  -0.00168  -0.00169   0.99072
   D12       -2.29356  -0.00014   0.00000  -0.00580  -0.00580  -2.29936
   D13        3.12102   0.00006   0.00000   0.00130   0.00130   3.12231
   D14       -0.02813   0.00006   0.00000   0.00132   0.00132  -0.02681
   D15        0.12703   0.00024   0.00000   0.00606   0.00606   0.13308
   D16       -3.02212   0.00024   0.00000   0.00608   0.00608  -3.01604
   D17       -3.11994   0.00010   0.00000   0.00266   0.00265  -3.11729
   D18        0.03275  -0.00010   0.00000  -0.00263  -0.00262   0.03013
   D19        0.01398   0.00010   0.00000   0.00272   0.00272   0.01669
   D20       -3.11652  -0.00010   0.00000  -0.00257  -0.00256  -3.11908
   D21        0.01290   0.00010   0.00000   0.00404   0.00405   0.01695
   D22       -3.12545  -0.00013   0.00000  -0.00419  -0.00422  -3.12967
   D23       -3.13974   0.00029   0.00000   0.00925   0.00928  -3.13047
   D24        0.00509   0.00006   0.00000   0.00102   0.00101   0.00610
   D25        3.13299   0.00024   0.00000   0.00898   0.00893  -3.14126
   D26       -0.00921   0.00028   0.00000   0.01034   0.01035   0.00114
   D27       -0.00543   0.00001   0.00000   0.00089   0.00088  -0.00455
   D28        3.13556   0.00005   0.00000   0.00225   0.00230   3.13785
   D29        0.00046   0.00033   0.00000   0.00909   0.00902   0.00949
   D30       -3.14124   0.00029   0.00000   0.00783   0.00784  -3.13340
   D31       -3.14055   0.00028   0.00000   0.00774   0.00773  -3.13282
   D32        0.00094   0.00024   0.00000   0.00648   0.00654   0.00748
   D33       -3.14156  -0.00019   0.00000  -0.00563  -0.00561   3.13601
   D34       -0.00033  -0.00001   0.00000  -0.00086  -0.00087  -0.00120
   D35       -0.00057  -0.00016   0.00000  -0.00429  -0.00420  -0.00477
   D36        3.14066   0.00002   0.00000   0.00047   0.00055   3.14121
   D37        0.00280   0.00023   0.00000   0.00526   0.00530   0.00811
   D38       -3.13869   0.00027   0.00000   0.00649   0.00645  -3.13223
   D39        3.14141  -0.00002   0.00000  -0.00059  -0.00062   3.14078
   D40       -0.00068  -0.00018   0.00000  -0.00488  -0.00491  -0.00559
   D41       -0.00029  -0.00006   0.00000  -0.00178  -0.00185  -0.00213
   D42        3.14081  -0.00022   0.00000  -0.00608  -0.00613   3.13468
   D43       -0.00007   0.00002   0.00000   0.00043   0.00049   0.00042
   D44        3.14142   0.00015   0.00000   0.00395   0.00397  -3.13780
   D45       -3.14132  -0.00015   0.00000  -0.00417  -0.00411   3.13776
   D46        0.00017  -0.00002   0.00000  -0.00064  -0.00063  -0.00046
   D47        0.00004   0.00003   0.00000   0.00093   0.00086   0.00089
   D48        3.14159   0.00007   0.00000   0.00186   0.00183  -3.13976
   D49        3.14112  -0.00014   0.00000  -0.00350  -0.00357   3.13755
   D50       -0.00052  -0.00010   0.00000  -0.00257  -0.00259  -0.00311
   D51        0.00034   0.00005   0.00000   0.00133   0.00132   0.00167
   D52       -3.14121   0.00001   0.00000   0.00041   0.00036  -3.14084
   D53       -3.14114  -0.00009   0.00000  -0.00219  -0.00215   3.13989
   D54        0.00049  -0.00012   0.00000  -0.00311  -0.00311  -0.00262
         Item               Value     Threshold  Converged?
 Maximum Force            0.041238     0.000450     NO 
 RMS     Force            0.007350     0.000300     NO 
 Maximum Displacement     0.488730     0.001800     NO 
 RMS     Displacement     0.106207     0.001200     NO 
 Predicted change in Energy=-8.657677D-03
 GradGradGradGradGradGradGradGradGradGradGradGradGradGradGradGradGradGrad

                          Input orientation:                          
 ---------------------------------------------------------------------
 Center     Atomic      Atomic             Coordinates (Angstroms)
 Number     Number       Type             X           Y           Z
 ---------------------------------------------------------------------
      1          6           0        3.783222    1.587143    0.053149
      2          1           0        4.835719    1.842814    0.175329
      3          1           0        3.419964    2.030234   -0.883507
      4          6           0        4.827251   -0.654145   -0.113659
      5          1           0        5.291478   -0.488102   -1.093737
      6          7           0        3.634416    0.149166    0.047759
      7          1           0        3.221028    2.025449    0.884188
      8          1           0        4.567272   -1.708982   -0.028765
      9          1           0        5.558990   -0.413569    0.663611
     10          6           0        2.406170   -0.413384    0.018301
     11          1           0        2.378793   -1.498524   -0.002588
     12          6           0        1.204266    0.246172    0.020586
     13          6           0       -0.018869   -0.534061    0.016531
     14          1           0        1.169553    1.325862    0.019904
     15          8           0        0.008335   -1.802089    0.029340
     16          6           0       -1.322320    0.131649    0.003739
     17          6           0       -2.465701   -0.737011    0.001162
     18          6           0       -1.580083    1.511413   -0.007117
     19          8           0       -2.240138   -2.033564    0.021498
     20          6           0       -3.786266   -0.255563   -0.020339
     21          6           0       -2.899323    1.955893   -0.025323
     22          1           0       -0.783827    2.240937   -0.005786
     23          1           0       -1.237140   -2.095556    0.042814
     24          1           0       -4.598398   -0.971686   -0.021702
     25          6           0       -4.019646    1.113694   -0.033416
     26          9           0       -3.113599    3.277324   -0.039825
     27          1           0       -5.019197    1.528346   -0.048379
 ---------------------------------------------------------------------
                    Distance matrix (angstroms):
                    1          2          3          4          5
     1  C    0.000000
     2  H    1.089976   0.000000
     3  H    1.098003   1.777815   0.000000
     4  C    2.478143   2.513640   3.127141   0.000000
     5  H    2.810129   2.692845   3.144643   1.097101   0.000000
     6  N    1.445666   2.080347   2.109896   1.447142   2.110682
     7  H    1.094897   1.772869   1.778860   3.279615   3.810103
     8  H    3.389084   3.567769   4.003578   1.089715   1.774595
     9  H    2.743878   2.419257   3.597385   1.094288   1.779154
    10  C    2.428908   3.319306   2.795050   2.436598   3.093091
    11  H    3.390704   4.151227   3.783146   2.592346   3.270366
    12  C    2.906936   3.969970   2.984891   3.735587   4.299555
    13  C    4.353934   5.407567   4.383064   4.849355   5.425365
    14  H    2.626906   3.705694   2.525201   4.161372   4.639065
    15  O    5.073187   6.050642   5.211449   4.955822   5.558729
    16  C    5.309186   6.393667   5.184697   6.200684   6.732820
    17  C    6.667341   7.745745   6.563637   7.294327   7.838022
    18  C    5.364177   6.426945   5.102715   6.764238   7.238588
    19  O    7.027901   8.069556   7.026396   7.202018   7.769006
    20  C    7.790899   8.875815   7.609183   8.623239   9.143943
    21  C    6.693171   7.738471   6.377726   8.155982   8.614165
    22  H    4.613984   5.636542   4.299610   6.314850   6.748379
    23  H    6.226268   7.239333   6.290376   6.235302   6.818982
    24  H    8.763832   9.846969   8.605135   9.431444   9.959556
    25  C    7.817697   8.887783   7.543904   9.022155   9.507211
    26  F    7.101513   8.080580   6.704810   8.861095   9.270086
    27  H    8.803200   9.862470   8.495220  10.085636  10.557881
                    6          7          8          9         10
     6  N    0.000000
     7  H    2.095457   0.000000
     8  H    2.080575   4.073307   0.000000
     9  H    2.097600   3.385783   1.772282   0.000000
    10  C    1.351266   2.713238   2.520149   3.218182   0.000000
    11  H    2.072199   3.730163   2.198731   3.425580   1.085687
    12  C    2.432237   2.824705   3.890356   4.451108   1.370983
    13  C    3.716755   4.219105   4.734467   5.616559   2.428041
    14  H    2.731472   2.333443   4.556001   4.765200   2.134058
    15  O    4.117791   5.069734   4.560258   5.756740   2.770963
    16  C    4.956963   5.000368   6.170598   6.934344   3.768145
    17  C    6.164326   6.383557   7.099883   8.058481   4.882639
    18  C    5.389780   4.910124   6.939840   7.424405   4.426704
    19  O    6.267009   6.858874   6.815329   7.991439   4.920689
    20  C    7.432023   7.424510   8.479038   9.371582   6.194568
    21  C    6.779333   6.187951   8.317533   8.810904   5.810649
    22  H    4.888685   4.108205   6.651063   6.908387   4.149950
    23  H    5.363848   6.129099   5.817711   7.028645   4.012981
    24  H    8.309053   8.422996   9.195279  10.195767   7.026897
    25  C    7.715022   7.355314   9.038953   9.724641   6.604980
    26  F    7.438330   6.522920   9.157464   9.451524   6.640223
    27  H    8.763356   8.307713  10.118353  10.778497   7.675340
                   11         12         13         14         15
    11  H    0.000000
    12  C    2.103335   0.000000
    13  C    2.584441   1.450806   0.000000
    14  H    3.072446   1.080248   2.207186   0.000000
    15  O    2.390030   2.371856   1.268385   3.336554   0.000000
    16  C    4.044224   2.529236   1.463666   2.763302   2.347476
    17  C    4.903982   3.799432   2.455283   4.179817   2.693704
    18  C    4.973172   3.058464   2.573308   2.756022   3.674738
    19  O    4.649879   4.130511   2.680032   4.786621   2.260371
    20  C    6.289135   5.015857   3.777857   5.202179   4.097951
    21  C    6.308092   4.445750   3.807708   4.117613   4.751830
    22  H    4.897524   2.816433   2.878589   2.157247   4.120050
    23  H    3.665171   3.382994   1.980692   4.183156   1.279653
    24  H    6.997079   5.929239   4.600550   6.208842   4.681257
    25  C    6.911198   5.295731   4.327102   5.193808   4.972963
    26  F    7.278495   5.275935   4.909907   4.707140   5.962524
    27  H    7.993391   6.354543   5.409345   6.192438   6.031079
                   16         17         18         19         20
    16  C    0.000000
    17  C    1.435931   0.000000
    18  C    1.403677   2.416568   0.000000
    19  O    2.351777   1.316185   3.606017   0.000000
    20  C    2.494302   1.405754   2.826592   2.356597   0.000000
[...]
 Alpha virt. eigenvalues --   -0.06578   0.01162   0.03171   0.03908   0.04454
 Alpha virt. eigenvalues --    0.05953   0.06219   0.06559   0.06750   0.07142
 Alpha virt. eigenvalues --    0.07506   0.07890   0.08517   0.09161   0.09783
 Alpha virt. eigenvalues --    0.10783   0.11104   0.11686   0.12089   0.12663
 Alpha virt. eigenvalues --    0.13111   0.13482   0.13818   0.14343   0.14945
 Alpha virt. eigenvalues --    0.15349   0.15447   0.16224   0.16565   0.16646
 Alpha virt. eigenvalues --    0.17068   0.17188   0.17918   0.18376   0.18595
 Alpha virt. eigenvalues --    0.19464   0.19947   0.20080   0.20462   0.20745
 Alpha virt. eigenvalues --    0.21067   0.21333   0.21702   0.22124   0.22242
 Alpha virt. eigenvalues --    0.22750   0.23441   0.23732   0.23916   0.24343
 Alpha virt. eigenvalues --    0.24731   0.25422   0.26336   0.26832   0.27175
 Alpha virt. eigenvalues --    0.27532   0.27921   0.28218   0.28758   0.29163
 Alpha virt. eigenvalues --    0.29462   0.29820   0.30286   0.30854   0.31051
 Alpha virt. eigenvalues --    0.31806   0.32160   0.32733   0.33033   0.33511
 Alpha virt. eigenvalues --    0.34292   0.34526   0.34698   0.35252   0.36001
 Alpha virt. eigenvalues --    0.36617   0.37214   0.37820   0.38358   0.38615
 Alpha virt. eigenvalues --    0.38811   0.40039   0.41201   0.41783   0.43347
 Alpha virt. eigenvalues --    0.43964   0.44584   0.45324   0.45755   0.46237
 Alpha virt. eigenvalues --    0.46886   0.47032   0.48237   0.48743   0.50018
 Alpha virt. eigenvalues --    0.50380   0.50529   0.51887   0.52641   0.53312
 Alpha virt. eigenvalues --    0.53664   0.55312   0.56055   0.56837   0.58977
 Alpha virt. eigenvalues --    0.61654   0.62848   0.63156   0.64397   0.65588
 Alpha virt. eigenvalues --    0.66052   0.66585   0.67291   0.67312   0.68247
 Alpha virt. eigenvalues --    0.68809   0.69661   0.69909   0.70359   0.70853
 Alpha virt. eigenvalues --    0.71619   0.72723   0.73156   0.73288   0.74062
 Alpha virt. eigenvalues --    0.74746   0.76352   0.76719   0.77728   0.78456
 Alpha virt. eigenvalues --    0.78822   0.80552   0.81291   0.82819   0.83147
 Alpha virt. eigenvalues --    0.83878   0.85188   0.86142   0.88065   0.88807
 Alpha virt. eigenvalues --    0.90998   0.91677   0.92756   0.93740   0.94636
 Alpha virt. eigenvalues --    0.95788   0.96435   0.96749   0.98046   0.99500
 Alpha virt. eigenvalues --    1.02106   1.02782   1.03769   1.04843   1.06301
 Alpha virt. eigenvalues --    1.07157   1.08148   1.08650   1.11169   1.13173
 Alpha virt. eigenvalues --    1.13708   1.15196   1.16044   1.16568   1.18767
 Alpha virt. eigenvalues --    1.19609   1.21204   1.22864   1.26630   1.26956
 Alpha virt. eigenvalues --    1.29616   1.30978   1.32974   1.33857   1.35806
 Alpha virt. eigenvalues --    1.37327   1.39078   1.40008   1.42989   1.44523
 Alpha virt. eigenvalues --    1.45873   1.46476   1.49408   1.50435   1.52319
 Alpha virt. eigenvalues --    1.53711   1.55009   1.55687   1.56517   1.58086
 Alpha virt. eigenvalues --    1.58577   1.58831   1.60540   1.61393   1.63170
 Alpha virt. eigenvalues --    1.63649   1.64854   1.65806   1.66717   1.68124
 Alpha virt. eigenvalues --    1.68547   1.68715   1.70990   1.72588   1.72945
 Alpha virt. eigenvalues --    1.74322   1.74967   1.75558   1.77114   1.78167
 Alpha virt. eigenvalues --    1.80002   1.80627   1.81898   1.84507   1.84695
 Alpha virt. eigenvalues --    1.84807   1.87537   1.89269   1.90818   1.94213
 Alpha virt. eigenvalues --    1.94946   1.98449   1.99597   2.01379   2.02257
 Alpha virt. eigenvalues --    2.04410   2.04896   2.05677   2.06294   2.08641
 Alpha virt. eigenvalues --    2.09939   2.10817   2.11516   2.14193   2.16532
 Alpha virt. eigenvalues --    2.16899   2.17912   2.18960   2.19665   2.21357
 Alpha virt. eigenvalues --    2.21820   2.22208   2.24304   2.30449   2.31208
 Alpha virt. eigenvalues --    2.32782   2.36788   2.38996   2.41164   2.42181
 Alpha virt. eigenvalues --    2.45134   2.46320   2.47674   2.50487   2.53887
 Alpha virt. eigenvalues --    2.56211   2.56734   2.57372   2.59745   2.62934
 Alpha virt. eigenvalues --    2.63884   2.66580   2.68119   2.69319   2.71444
 Alpha virt. eigenvalues --    2.72316   2.74010   2.74700   2.75753   2.79894
 Alpha virt. eigenvalues --    2.80539   2.83210   2.83407   2.85273   2.87460
 Alpha virt. eigenvalues --    2.88261   2.89270   2.89451   2.91139   2.93000
 Alpha virt. eigenvalues --    2.94739   2.95508   2.98660   3.00795   3.01816
 Alpha virt. eigenvalues --    3.03633   3.06291   3.06944   3.08391   3.11601
 Alpha virt. eigenvalues --    3.13561   3.15414   3.19703   3.21854   3.25520
 Alpha virt. eigenvalues --    3.27378   3.29450   3.32303   3.35748   3.40816
 Alpha virt. eigenvalues --    3.45248   3.46580   3.50748   3.51999   3.58447
 Alpha virt. eigenvalues --    3.60787   3.62238   3.64520   3.66833   3.74520
 Alpha virt. eigenvalues --    3.76686   3.79546   3.80313   3.82877   3.86498
 Alpha virt. eigenvalues --    3.87152   3.87929   3.92003   3.94209   3.96612
 Alpha virt. eigenvalues --    4.01009   4.03164   4.09753   4.13426   4.19947
 Alpha virt. eigenvalues --    4.27769   4.29885   4.30838   4.35961   4.48482
 Alpha virt. eigenvalues --    4.93295   4.95252   5.02233   5.07115   5.17133
 Alpha virt. eigenvalues --    5.29396   5.43910   5.50967   5.80097   5.95752
 Alpha virt. eigenvalues --    6.48941   6.60644   6.93115  23.73216  23.85438
 Alpha virt. eigenvalues --   23.99573  24.01276  24.02978  24.07730  24.11496
 Alpha virt. eigenvalues --   24.14886  24.23059  24.30676  24.37423  35.60863
 Alpha virt. eigenvalues --   50.03239  50.27206  66.99592
          Condensed to atoms (all electrons):
               1          2          3          4          5          6
     1  C    5.355129   0.372153   0.420734  -0.141080   0.016004   0.285151
     2  H    0.372153   0.492531  -0.025942   0.005440  -0.005135  -0.039986
     3  H    0.420734  -0.025942   0.492001  -0.021648   0.006443  -0.047975
     4  C   -0.141080   0.005440  -0.021648   5.280643   0.402563   0.250588
     5  H    0.016004  -0.005135   0.006443   0.402563   0.528778  -0.026817
     6  N    0.285151  -0.039986  -0.047975   0.250588  -0.026817   6.657646
     7  H    0.397831  -0.019048  -0.037703   0.015169  -0.000019  -0.028793
     8  H    0.000916   0.002411  -0.001188   0.393602  -0.039429  -0.072221
     9  H   -0.025376   0.004916   0.001265   0.411307  -0.053986  -0.044177
    10  C   -0.180588   0.011263   0.010975  -0.158135  -0.063430   0.118413
    11  H    0.016526  -0.000261  -0.001832  -0.011815   0.007041  -0.053572
    12  C    0.170808   0.005464   0.006909  -0.009529   0.025349  -0.081736
    13  C   -0.134094   0.000676  -0.003340  -0.057869  -0.003122  -0.028505
    14  H    0.017227   0.002000  -0.005310   0.005288   0.001747  -0.025249
    15  O   -0.003087  -0.000158   0.000388  -0.003443  -0.000070  -0.001066
    16  C   -0.105448   0.000388  -0.007341  -0.000757  -0.000618  -0.024143
    17  C   -0.025073  -0.000794  -0.002054  -0.008000   0.000568  -0.016131
    18  C    0.022971   0.000822  -0.001263   0.008090  -0.001519   0.018699
    19  O    0.001995   0.000223  -0.000202  -0.000218  -0.000018   0.000709
    20  C    0.002785   0.000155  -0.001077  -0.000359  -0.000023   0.001004
    21  C    0.004788   0.000260   0.001730   0.000790  -0.000454   0.000918
    22  H    0.000231   0.000204  -0.001128  -0.000323  -0.000063   0.000501
    23  H   -0.000951  -0.000024  -0.000057  -0.000696  -0.000044  -0.000906
    24  H    0.000150   0.000022  -0.000036  -0.000016  -0.000001   0.000076
    25  C   -0.003675  -0.000315   0.000932   0.000375   0.000005  -0.000963
    26  F    0.000015   0.000000   0.000022   0.000001  -0.000001   0.000003
    27  H   -0.000041   0.000000   0.000012   0.000005   0.000001  -0.000014
               7          8          9         10         11         12
     1  C    0.397831   0.000916  -0.025376  -0.180588   0.016526   0.170808
     2  H   -0.019048   0.002411   0.004916   0.011263  -0.000261   0.005464
     3  H   -0.037703  -0.001188   0.001265   0.010975  -0.001832   0.006909
     4  C    0.015169   0.393602   0.411307  -0.158135  -0.011815  -0.009529
     5  H   -0.000019  -0.039429  -0.053986  -0.063430   0.007041   0.025349
     6  N   -0.028793  -0.072221  -0.044177   0.118413  -0.053572  -0.081736
     7  H    0.490158  -0.002497  -0.000262   0.017487  -0.000110  -0.020766
     8  H   -0.002497   0.520654  -0.011239   0.040402  -0.007875  -0.007543
     9  H   -0.000262  -0.011239   0.527949   0.011285  -0.002318   0.006213
    10  C    0.017487   0.040402   0.011285   8.527720   0.390198  -1.209725
    11  H   -0.000110  -0.007875  -0.002318   0.390198   0.449431   0.114170
    12  C   -0.020766  -0.007543   0.006213  -1.209725   0.114170  11.546949
    13  C   -0.016223   0.012841  -0.001233  -1.310629  -0.095752  -0.571533
    14  H   -0.006683  -0.001377  -0.001114  -0.101337   0.009359   0.472811
    15  O    0.000459   0.000924   0.000024   0.012863  -0.000478  -0.514525
    16  C   -0.003479   0.006064  -0.001091   0.303134  -0.051806  -4.469333
    17  C   -0.000428  -0.001556  -0.000725  -0.106552   0.001778  -0.715940
    18  C    0.005211   0.002912   0.001072  -0.280011  -0.019943   1.207269
    19  O   -0.000399  -0.000112  -0.000006  -0.020098   0.002758   0.053995
    20  C   -0.000242  -0.000661  -0.000020   0.024947   0.008638   0.101931
    21  C    0.002152   0.000363   0.000155   0.152956  -0.001590   0.346090
    22  H    0.000139   0.000151  -0.000015  -0.025145  -0.000773  -0.047339
    23  H    0.000142   0.000196  -0.000009  -0.018403  -0.002604   0.036078
    24  H   -0.000009  -0.000004  -0.000001  -0.001426   0.000109  -0.002418
    25  C    0.000332   0.000163   0.000006   0.013301  -0.002977   0.024816
    26  F    0.000015   0.000000   0.000000   0.000213  -0.000023   0.001583
    27  H   -0.000003   0.000001   0.000000   0.001304   0.000000  -0.003077
              13         14         15         16         17         18
     1  C   -0.134094   0.017227  -0.003087  -0.105448  -0.025073   0.022971
     2  H    0.000676   0.002000  -0.000158   0.000388  -0.000794   0.000822
     3  H   -0.003340  -0.005310   0.000388  -0.007341  -0.002054  -0.001263
     4  C   -0.057869   0.005288  -0.003443  -0.000757  -0.008000   0.008090
     5  H   -0.003122   0.001747  -0.000070  -0.000618   0.000568  -0.001519
     6  N   -0.028505  -0.025249  -0.001066  -0.024143  -0.016131   0.018699
     7  H   -0.016223  -0.006683   0.000459  -0.003479  -0.000428   0.005211
     8  H    0.012841  -0.001377   0.000924   0.006064  -0.001556   0.002912
     9  H   -0.001233  -0.001114   0.000024  -0.001091  -0.000725   0.001072
    10  C   -1.310629  -0.101337   0.012863   0.303134  -0.106552  -0.280011
    11  H   -0.095752   0.009359  -0.000478  -0.051806   0.001778  -0.019943
    12  C   -0.571533   0.472811  -0.514525  -4.469333  -0.715940   1.207269
    13  C   11.104932  -0.000518   0.453964  -0.235800  -1.939708  -2.013464
    14  H   -0.000518   0.490555  -0.005162  -0.035649  -0.009673  -0.033833
    15  O    0.453964  -0.005162   7.793781   0.341526   0.069742  -0.180652
    16  C   -0.235800  -0.035649   0.341526  16.306790  -0.788956  -4.070790
    17  C   -1.939708  -0.009673   0.069742  -0.788956  16.405541  -1.927936
    18  C   -2.013464  -0.033833  -0.180652  -4.070790  -1.927936  16.790981
    19  O    0.229650   0.004005  -0.007379  -0.122377   0.071430  -0.034829
    20  C    0.754639   0.028875  -0.026333  -1.227316  -5.116943   0.290385
    21  C    0.877548  -0.030318  -0.045775  -0.404549  -2.402963  -1.818653
    22  H   -0.046110   0.000769  -0.000078   0.098935   0.103235   0.526440
    23  H    0.095051  -0.000610   0.263228  -0.047631  -0.066790   0.026113
    24  H   -0.001907   0.000337  -0.000707  -0.025981  -0.165735   0.085260
    25  C   -0.635365  -0.014317   0.017267  -0.499247   3.164709  -2.240210
    26  F    0.015572  -0.001399   0.000125   0.063126  -0.043401  -0.409741
    27  H   -0.004404  -0.000170   0.000139   0.061824   0.055712  -0.124926
              19         20         21         22         23         24
     1  C    0.001995   0.002785   0.004788   0.000231  -0.000951   0.000150
     2  H    0.000223   0.000155   0.000260   0.000204  -0.000024   0.000022
     3  H   -0.000202  -0.001077   0.001730  -0.001128  -0.000057  -0.000036
     4  C   -0.000218  -0.000359   0.000790  -0.000323  -0.000696  -0.000016
     5  H   -0.000018  -0.000023  -0.000454  -0.000063  -0.000044  -0.000001
     6  N    0.000709   0.001004   0.000918   0.000501  -0.000906   0.000076
     7  H   -0.000399  -0.000242   0.002152   0.000139   0.000142  -0.000009
     8  H   -0.000112  -0.000661   0.000363   0.000151   0.000196  -0.000004
     9  H   -0.000006  -0.000020   0.000155  -0.000015  -0.000009  -0.000001
    10  C   -0.020098   0.024947   0.152956  -0.025145  -0.018403  -0.001426
    11  H    0.002758   0.008638  -0.001590  -0.000773  -0.002604   0.000109
    12  C    0.053995   0.101931   0.346090  -0.047339   0.036078  -0.002418
    13  C    0.229650   0.754639   0.877548  -0.046110   0.095051  -0.001907
    14  H    0.004005   0.028875  -0.030318   0.000769  -0.000610   0.000337
    15  O   -0.007379  -0.026333  -0.045775  -0.000078   0.263228  -0.000707
    16  C   -0.122377  -1.227316  -0.404549   0.098935  -0.047631  -0.025981
    17  C    0.071430  -5.116943  -2.402963   0.103235  -0.066790  -0.165735
    18  C   -0.034829   0.290385  -1.818653   0.526440   0.026113   0.085260
    19  O    8.367697  -0.045847   0.016088  -0.001911  -0.007970  -0.012972
    20  C   -0.045847  13.442183   1.568873   0.002111  -0.021422   0.574462
    21  C    0.016088   1.568873   9.835912  -0.237377   0.014247   0.048171
    22  H   -0.001911   0.002111  -0.237377   0.520525   0.000318   0.002270
    23  H   -0.007970  -0.021422   0.014247   0.000318   0.377930  -0.000517
    24  H   -0.012972   0.574462   0.048171   0.002270  -0.000517   0.485919
    25  C   -0.031825  -4.196118  -1.599575  -0.091503   0.002121  -0.192591
    26  F    0.000123   0.038557   0.669400  -0.026255  -0.000019   0.000798
    27  H    0.001247  -0.061695  -0.136279  -0.002787   0.000028  -0.015076
              25         26         27
     1  C   -0.003675   0.000015  -0.000041
     2  H   -0.000315   0.000000   0.000000
     3  H    0.000932   0.000022   0.000012
     4  C    0.000375   0.000001   0.000005
     5  H    0.000005  -0.000001   0.000001
     6  N   -0.000963   0.000003  -0.000014
     7  H    0.000332   0.000015  -0.000003
     8  H    0.000163   0.000000   0.000001
     9  H    0.000006   0.000000   0.000000
    10  C    0.013301   0.000213   0.001304
    11  H   -0.002977  -0.000023   0.000000
    12  C    0.024816   0.001583  -0.003077
    13  C   -0.635365   0.015572  -0.004404
    14  H   -0.014317  -0.001399  -0.000170
    15  O    0.017267   0.000125   0.000139
    16  C   -0.499247   0.063126   0.061824
    17  C    3.164709  -0.043401   0.055712
    18  C   -2.240210  -0.409741  -0.124926
    19  O   -0.031825   0.000123   0.001247
    20  C   -4.196118   0.038557  -0.061695
    21  C   -1.599575   0.669400  -0.136279
    22  H   -0.091503  -0.026255  -0.002787
    23  H    0.002121  -0.000019   0.000028
    24  H   -0.192591   0.000798  -0.015076
    25  C   11.788725  -0.312197   0.530756
    26  F   -0.312197   9.192115  -0.024108
    27  H    0.530756  -0.024108   0.496957
 Mulliken charges:
               1
     1  C   -0.466000
     2  H    0.192735
     3  H    0.216684
     4  C   -0.359970
     5  H    0.206250
     6  N    0.158548
     7  H    0.207571
     8  H    0.164101
     9  H    0.177380
    10  C   -0.160982
    11  H    0.253722
    12  C   -0.466970
    13  C   -0.445299
    14  H    0.239749
    15  O   -0.165517
    16  C    0.940525
    17  C   -0.533355
    18  C    0.171546
    19  O   -0.463757
    20  C   -0.141490
    21  C   -0.862908
    22  H    0.224975
    23  H    0.353200
    24  H    0.221822
    25  C    0.277369
    26  F   -0.164524
    27  H    0.224594
 Sum of Mulliken charges =   0.00000
 Mulliken charges with hydrogens summed into heavy atoms:
               1
     1  C    0.150991
     4  C    0.187761
     6  N    0.158548
    10  C    0.092740
    12  C   -0.227221
    13  C   -0.445299
    15  O    0.187683
    16  C    0.940525
    17  C   -0.533355
    18  C    0.396522
    19  O   -0.463757
    20  C    0.080333
    21  C   -0.862908
    25  C    0.501963
    26  F   -0.164524
 Electronic spatial extent (au):  <R**2>=           4450.8844
 Charge=              0.0000 electrons
 Dipole moment (field-independent basis, Debye):
    X=            -13.2646    Y=              3.4588    Z=              1.2182  Tot=             13.7621
 Quadrupole moment (field-independent basis, Debye-Ang):
   XX=            -60.5699   YY=           -102.5740   ZZ=            -84.4992
   XY=             -6.8817   XZ=              1.3202   YZ=             -9.2762
 Traceless Quadrupole moment (field-independent basis, Debye-Ang):
   XX=             21.9778   YY=            -20.0263   ZZ=             -1.9515
   XY=             -6.8817   XZ=              1.3202   YZ=             -9.2762
 Octapole moment (field-independent basis, Debye-Ang**2):
  XXX=           -195.6496  YYY=             33.7646  ZZZ=              5.3011  XYY=            -38.7916
  XXY=              2.0371  XXZ=            -17.4648  XZZ=            -17.4443  YZZ=              0.9896
  YYZ=             20.7419  XYZ=              1.7983
 Hexadecapole moment (field-independent basis, Debye-Ang**3):
 XXXX=          -3690.3558 YYYY=           -878.2784 ZZZZ=           -479.4759 XXXY=           -138.5260
 XXXZ=            -53.7194 YYYX=             36.0387 YYYZ=            -54.3208 ZZZX=             44.4905
 ZZZY=            -26.3463 XXYY=           -951.0395 XXZZ=           -774.4460 YYZZ=           -190.6498
 XXYZ=            -34.3085 YYXZ=              8.2918 ZZXY=             -0.0143
 N-N= 9.385910119553D+02 E-N=-3.588164663723D+03  KE= 7.285136951613D+02
 1\1\GINC-NXN36\FOpt\RwB97XD TD-FC\6-311++G(d,p)\C11H12F1N1O2\BTX008\21
 -Oct-2016\0\\# wb97xd 6-311++g** opt td=(nstates=1,root=1) geom=allche
 ck\\Geom Opt s0\\0,1\C,3.5881665097,1.1873786501,1.0641399436\H,4.5768
 743053,1.3431649269,1.4975321884\H,3.3485166616,2.0487382006,0.4212996
 649\C,4.7984084989,-0.3952570489,-0.3665553367\H,4.9924364071,0.278729
 1817,-1.2140901593\N,3.5781347334,-0.0599195319,0.3379234939\H,2.86268
 9403,1.1528587047,1.8799113169\H,4.7302534501,-1.4151419829,-0.7486337
 647\H,5.6472298978,-0.3451122277,0.3190404291\C,2.3948535464,-0.510854
 7404,-0.196207227\H,2.477388055,-1.4092280234,-0.7949916519\C,1.152596
 7066,0.0477048435,0.0036008837\C,-0.0272603393,-0.4871005122,-0.488371
 2061\H,1.0543741345,0.9610968484,0.5778649426\O,0.0146046504,-1.581320
 3262,-1.3120764753\C,-1.3525506673,0.1381590479,-0.283695042\C,-2.1904
 059475,-0.3624705595,0.7945077608\C,-1.8212598516,1.1383511995,-1.1139
 541594\O,-1.8269877115,-1.3317490853,1.4864687779\C,-3.4731780084,0.28
 0372116,1.0027201864\C,-3.0641318098,1.696758331,-0.86720223\H,-1.2233
 041246,1.5084676401,-1.9371220906\H,-0.6852863876,-2.1893065064,-1.065
 7920042\H,-4.0796681776,-0.0781478682,1.8255263737\C,-3.8985148085,1.2
 859206189,0.187121625\F,-3.4961772754,2.6831950722,-1.6561937569\H,-4.
 8558511304,1.7745722715,0.320994247\\Version=ES64L-G09RevD.01\State=1-
 A\HF=-731.2991935\RMSD=4.977e-09\RMSF=1.273e-05\Dipole=0.3560458,0.813
 936,-0.1607742\PG=C01 [X(C11H12F1N1O2)]\\@


 BE NOT THE FIRST BY WHOM THE NEW ARE TRIED,
 NOR YET THE THE LAST TO LAY THE OLD ASIDE.

                          -- ALEXANDER POPE
 Job cpu time:       3 days  6 hours  8 minutes 17.4 seconds.
 File lengths (MBytes):  RWF=    172 Int=      0 D2E=      0 Chk=     25 Scr=      1
 Normal termination of Gaussian 09 at Fri Oct 21 08:04:27 2016.
