 Entering Gaussian System, Link 0=g09
 Input=4_optS1_chainrotated.com
 Output=4_optS1_chainrotated.out
 Initial command:
 /share/apps/gaussian/g09_D01/g09/l1.exe "/tmp/4045104.1.chemistry.q/Gau-6663.inp" -scrdir="/tmp/4045104.1.chemistry.q/"
 Entering Link 1 = /share/apps/gaussian/g09_D01/g09/l1.exe PID=      6664.
  
 Copyright (c) 1988,1990,1992,1993,1995,1998,2003,2009,2013,
            Gaussian, Inc.  All Rights Reserved.
  
 This is part of the Gaussian(R) 09 program.  It is based on
 the Gaussian(R) 03 system (copyright 2003, Gaussian, Inc.),
 the Gaussian(R) 98 system (copyright 1998, Gaussian, Inc.),
 the Gaussian(R) 94 system (copyright 1995, Gaussian, Inc.),
 the Gaussian 92(TM) system (copyright 1992, Gaussian, Inc.),
 the Gaussian 90(TM) system (copyright 1990, Gaussian, Inc.),
 the Gaussian 88(TM) system (copyright 1988, Gaussian, Inc.),
 the Gaussian 86(TM) system (copyright 1986, Carnegie Mellon
 University), and the Gaussian 82(TM) system (copyright 1983,
 Carnegie Mellon University). Gaussian is a federally registered
 trademark of Gaussian, Inc.
  
 This software contains proprietary and confidential information,
 including trade secrets, belonging to Gaussian, Inc.
  
 This software is provided under written license and may be
 used, copied, transmitted, or stored only in accord with that
 written license.
  
 The following legend is applicable only to US Government
 contracts under FAR:
  
                    RESTRICTED RIGHTS LEGEND
  
 Use, reproduction and disclosure by the US Government is
 subject to restrictions as set forth in subparagraphs (a)
 and (c) of the Commercial Computer Software - Restricted
 Rights clause in FAR 52.227-19.
  
 Gaussian, Inc.
 340 Quinnipiac St., Bldg. 40, Wallingford CT 06492
  
  
 ---------------------------------------------------------------
 Warning -- This program may not be used in any manner that
 competes with the business of Gaussian, Inc. or will provide
 assistance to any competitor of Gaussian, Inc.  The licensee
 of this program is prohibited from giving any competitor of
 Gaussian, Inc. access to this program.  By using this program,
 the user acknowledges that Gaussian, Inc. is engaged in the
 business of creating and licensing software in the field of
 computational chemistry and represents and warrants to the
 licensee that it is not a competitor of Gaussian, Inc. and that
 it will not use this program in any manner prohibited above.
 ---------------------------------------------------------------
  

 Cite this work as:
 Gaussian 09, Revision D.01,
 M. J. Frisch, G. W. Trucks, H. B. Schlegel, G. E. Scuseria, 
 M. A. Robb, J. R. Cheeseman, G. Scalmani, V. Barone, B. Mennucci, 
 G. A. Petersson, H. Nakatsuji, M. Caricato, X. Li, H. P. Hratchian, 
 A. F. Izmaylov, J. Bloino, G. Zheng, J. L. Sonnenberg, M. Hada, 
 M. Ehara, K. Toyota, R. Fukuda, J. Hasegawa, M. Ishida, T. Nakajima, 
 Y. Honda, O. Kitao, H. Nakai, T. Vreven, J. A. Montgomery, Jr., 
 J. E. Peralta, F. Ogliaro, M. Bearpark, J. J. Heyd, E. Brothers, 
 K. N. Kudin, V. N. Staroverov, T. Keith, R. Kobayashi, J. Normand, 
 K. Raghavachari, A. Rendell, J. C. Burant, S. S. Iyengar, J. Tomasi, 
 M. Cossi, N. Rega, J. M. Millam, M. Klene, J. E. Knox, J. B. Cross, 
 V. Bakken, C. Adamo, J. Jaramillo, R. Gomperts, R. E. Stratmann, 
 O. Yazyev, A. J. Austin, R. Cammi, C. Pomelli, J. W. Ochterski, 
 R. L. Martin, K. Morokuma, V. G. Zakrzewski, G. A. Voth, 
 P. Salvador, J. J. Dannenberg, S. Dapprich, A. D. Daniels, 
 O. Farkas, J. B. Foresman, J. V. Ortiz, J. Cioslowski, 
 and D. J. Fox, Gaussian, Inc., Wallingford CT, 2013.
 
 ******************************************
 Gaussian 09:  ES64L-G09RevD.01 24-Apr-2013
                 4-Sep-2017 
 ******************************************
 %chk=optS1_chainrotated_4.chk
 %mem=16GB
 %nproc=4
 Will use up to    4 processors via shared memory.
 ---------------------------------------------
 # wb97xd 6-311++g** opt td=(nstates=1,root=1)
 ---------------------------------------------
 1/14=-1,18=20,19=15,26=3,38=1/1,3;
 2/9=110,12=2,17=6,18=5,40=1/2;
 3/5=4,6=6,7=1111,11=9,16=1,25=1,30=1,71=1,74=-58/1,2,8,3;
 4//1;
 5/5=2,38=5/2;
 8/6=1,10=2,107=1,108=1/1;
 9/8=1,15=2,41=1,42=1,70=2/14;
 10/5=4/2;
 6/7=2,8=2,9=2,10=2/1;
 7/12=6,13=5,14=1/1,2,3,16;
 1/14=-1,18=20,19=15,26=3/3(2);
 2/9=110/2;
 99//99;
 2/9=110/2;
 3/5=4,6=6,7=1111,11=9,16=1,25=1,30=1,71=1,74=-58/1,2,8,3;
 4/5=5,16=3,69=1/1;
 5/5=2,38=5/2;
 8/6=1,10=2,107=1,108=1/1;
 9/8=1,15=2,41=1,42=1,49=4,70=2/14;
 10/5=4/2;
 7/12=6,13=5,14=1/1,2,3,16;
 1/14=-1,18=20,19=15,26=3/3(-8);
 2/9=110/2;
 6/7=2,8=2,9=2,10=2/1;
 99//99;
 -----
 title
 -----
 Symbolic Z-matrix:
 Charge =  0 Multiplicity = 1
 C                     0.33454   0.0418    8.57942 
 H                     1.14446   0.77042   8.5239 
 H                    -0.45031   0.44813   9.23923 
 C                     0.31766   0.67425   6.18232 
 H                     0.10594   1.71662   6.42048 
 N                    -0.20644  -0.18469   7.244 
 H                     0.72187  -0.88838   9.00572 
 H                    -0.14581   0.41366   5.22531 
 H                     1.40419   0.53261   6.10535 
 C                    -1.09565  -1.18087   6.99973 
 H                    -1.41906  -1.19081   5.94091 
 C                    -1.62704  -2.0779    7.898 
 C                    -2.74503  -2.88442   7.48692 
 H                    -1.33004  -1.98677   8.94735 
 O                    -1.74913  -3.76512   7.39897 
 C                    -4.15596  -2.7896    7.57986 
 C                    -4.95079  -3.88687   7.20807 
 C                    -4.74473  -1.54668   7.92894 
 O                    -4.38497  -5.07467   6.85956 
 C                    -6.3213   -3.7222    7.20669 
 C                    -6.10582  -1.44442   7.90992 
 H                    -4.12277  -0.69408   8.21831 
 H                    -3.42424  -5.00817   6.92181 
 H                    -6.90339  -4.58308   6.92916 
 C                    -6.91786  -2.52121   7.55049 
 H                    -8.00401  -2.40767   7.55892 
 F                    -6.65068  -0.27395   8.25285 
 

 GradGradGradGradGradGradGradGradGradGradGradGradGradGradGradGradGradGrad
 Berny optimization.
 Initialization pass.
                           ----------------------------
                           !    Initial Parameters    !
                           ! (Angstroms and Degrees)  !
 --------------------------                            --------------------------
 ! Name  Definition              Value          Derivative Info.                !
 --------------------------------------------------------------------------------
 ! R1    R(1,2)                  1.0909         estimate D2E/DX2                !
 ! R2    R(1,3)                  1.1029         estimate D2E/DX2                !
 ! R3    R(1,6)                  1.4585         estimate D2E/DX2                !
 ! R4    R(1,7)                  1.0941         estimate D2E/DX2                !
 ! R5    R(4,5)                  1.09           estimate D2E/DX2                !
 ! R6    R(4,6)                  1.4627         estimate D2E/DX2                !
 ! R7    R(4,8)                  1.0948         estimate D2E/DX2                !
 ! R8    R(4,9)                  1.0984         estimate D2E/DX2                !
 ! R9    R(6,10)                 1.3575         estimate D2E/DX2                !
 ! R10   R(10,11)                1.1072         estimate D2E/DX2                !
 ! R11   R(10,12)                1.3762         estimate D2E/DX2                !
 ! R12   R(12,13)                1.4385         estimate D2E/DX2                !
 ! R13   R(12,14)                1.0944         estimate D2E/DX2                !
 ! R14   R(13,15)                1.3324         estimate D2E/DX2                !
 ! R15   R(13,16)                1.4172         estimate D2E/DX2                !
 ! R16   R(16,17)                1.405          estimate D2E/DX2                !
 ! R17   R(16,18)                1.4189         estimate D2E/DX2                !
 ! R18   R(17,19)                1.3611         estimate D2E/DX2                !
 ! R19   R(17,20)                1.3804         estimate D2E/DX2                !
 ! R20   R(18,21)                1.3651         estimate D2E/DX2                !
 ! R21   R(18,22)                1.0943         estimate D2E/DX2                !
 ! R22   R(19,23)                0.965          estimate D2E/DX2                !
 ! R23   R(20,24)                1.0756         estimate D2E/DX2                !
 ! R24   R(20,25)                1.3844         estimate D2E/DX2                !
 ! R25   R(21,25)                1.3957         estimate D2E/DX2                !
 ! R26   R(21,27)                1.3358         estimate D2E/DX2                !
 ! R27   R(25,26)                1.0921         estimate D2E/DX2                !
 ! A1    A(2,1,3)              108.2231         estimate D2E/DX2                !
 ! A2    A(2,1,6)              109.4212         estimate D2E/DX2                !
 ! A3    A(2,1,7)              108.9569         estimate D2E/DX2                !
 ! A4    A(3,1,6)              109.9388         estimate D2E/DX2                !
 ! A5    A(3,1,7)              109.393          estimate D2E/DX2                !
 ! A6    A(6,1,7)              110.8578         estimate D2E/DX2                !
 ! A7    A(5,4,6)              109.4736         estimate D2E/DX2                !
 ! A8    A(5,4,8)              109.6576         estimate D2E/DX2                !
 ! A9    A(5,4,9)              109.3145         estimate D2E/DX2                !
 ! A10   A(6,4,8)              110.0609         estimate D2E/DX2                !
 ! A11   A(6,4,9)              109.2422         estimate D2E/DX2                !
 ! A12   A(8,4,9)              109.0748         estimate D2E/DX2                !
 ! A13   A(1,6,4)              116.1341         estimate D2E/DX2                !
 ! A14   A(1,6,10)             121.4442         estimate D2E/DX2                !
 ! A15   A(4,6,10)             122.3455         estimate D2E/DX2                !
 ! A16   A(6,10,11)            111.7168         estimate D2E/DX2                !
 ! A17   A(6,10,12)            127.8663         estimate D2E/DX2                !
 ! A18   A(11,10,12)           120.3694         estimate D2E/DX2                !
 ! A19   A(10,12,13)           118.6209         estimate D2E/DX2                !
 ! A20   A(10,12,14)           117.8259         estimate D2E/DX2                !
 ! A21   A(13,12,14)           122.1148         estimate D2E/DX2                !
 ! A22   A(12,13,15)            78.962          estimate D2E/DX2                !
 ! A23   A(12,13,16)           135.8494         estimate D2E/DX2                !
 ! A24   A(15,13,16)           142.4417         estimate D2E/DX2                !
 ! A25   A(13,16,17)           119.5795         estimate D2E/DX2                !
 ! A26   A(13,16,18)           119.1993         estimate D2E/DX2                !
 ! A27   A(17,16,18)           120.9622         estimate D2E/DX2                !
 ! A28   A(16,17,19)           120.9398         estimate D2E/DX2                !
 ! A29   A(16,17,20)           117.9553         estimate D2E/DX2                !
 ! A30   A(19,17,20)           121.1049         estimate D2E/DX2                !
 ! A31   A(16,18,21)           118.4189         estimate D2E/DX2                !
 ! A32   A(16,18,22)           120.7774         estimate D2E/DX2                !
 ! A33   A(21,18,22)           120.7995         estimate D2E/DX2                !
 ! A34   A(17,19,23)           109.7074         estimate D2E/DX2                !
 ! A35   A(17,20,24)           116.2375         estimate D2E/DX2                !
 ! A36   A(17,20,25)           122.0794         estimate D2E/DX2                !
 ! A37   A(24,20,25)           121.6819         estimate D2E/DX2                !
 ! A38   A(18,21,25)           121.7298         estimate D2E/DX2                !
 ! A39   A(18,21,27)           117.9528         estimate D2E/DX2                !
 ! A40   A(25,21,27)           120.317          estimate D2E/DX2                !
 ! A41   A(20,25,21)           118.8507         estimate D2E/DX2                !
 ! A42   A(20,25,26)           121.3783         estimate D2E/DX2                !
 ! A43   A(21,25,26)           119.765          estimate D2E/DX2                !
 ! D1    D(2,1,6,4)             -6.2508         estimate D2E/DX2                !
 ! D2    D(2,1,6,10)           170.646          estimate D2E/DX2                !
 ! D3    D(3,1,6,4)            112.4756         estimate D2E/DX2                !
 ! D4    D(3,1,6,10)           -70.6277         estimate D2E/DX2                !
 ! D5    D(7,1,6,4)           -126.4461         estimate D2E/DX2                !
 ! D6    D(7,1,6,10)            50.4506         estimate D2E/DX2                !
 ! D7    D(5,4,6,1)            -59.9882         estimate D2E/DX2                !
 ! D8    D(5,4,6,10)           123.1456         estimate D2E/DX2                !
 ! D9    D(8,4,6,1)            179.4156         estimate D2E/DX2                !
 ! D10   D(8,4,6,10)             2.5495         estimate D2E/DX2                !
 ! D11   D(9,4,6,1)             59.6822         estimate D2E/DX2                !
 ! D12   D(9,4,6,10)          -117.184          estimate D2E/DX2                !
 ! D13   D(1,6,10,11)          178.533          estimate D2E/DX2                !
 ! D14   D(1,6,10,12)            1.0621         estimate D2E/DX2                !
 ! D15   D(4,6,10,11)           -4.765          estimate D2E/DX2                !
 ! D16   D(4,6,10,12)          177.7641         estimate D2E/DX2                !
 ! D17   D(6,10,12,13)         168.0311         estimate D2E/DX2                !
 ! D18   D(6,10,12,14)           1.4184         estimate D2E/DX2                !
 ! D19   D(11,10,12,13)         -9.2454         estimate D2E/DX2                !
 ! D20   D(11,10,12,14)       -175.8582         estimate D2E/DX2                !
 ! D21   D(10,12,13,15)        102.7995         estimate D2E/DX2                !
 ! D22   D(10,12,13,16)        -93.7441         estimate D2E/DX2                !
 ! D23   D(14,12,13,15)        -91.1904         estimate D2E/DX2                !
 ! D24   D(14,12,13,16)         72.2659         estimate D2E/DX2                !
 ! D25   D(12,13,16,17)       -171.4029         estimate D2E/DX2                !
 ! D26   D(12,13,16,18)         14.3863         estimate D2E/DX2                !
 ! D27   D(15,13,16,17)        -18.6923         estimate D2E/DX2                !
 ! D28   D(15,13,16,18)        167.0968         estimate D2E/DX2                !
 ! D29   D(13,16,17,19)          5.1866         estimate D2E/DX2                !
 ! D30   D(13,16,17,20)       -174.7756         estimate D2E/DX2                !
 ! D31   D(18,16,17,19)        179.293          estimate D2E/DX2                !
 ! D32   D(18,16,17,20)         -0.6692         estimate D2E/DX2                !
 ! D33   D(13,16,18,21)        174.8477         estimate D2E/DX2                !
 ! D34   D(13,16,18,22)         -5.8873         estimate D2E/DX2                !
 ! D35   D(17,16,18,21)          0.7192         estimate D2E/DX2                !
 ! D36   D(17,16,18,22)        179.9842         estimate D2E/DX2                !
 ! D37   D(16,17,19,23)          0.3137         estimate D2E/DX2                !
 ! D38   D(20,17,19,23)       -179.7254         estimate D2E/DX2                !
 ! D39   D(16,17,20,24)       -179.2877         estimate D2E/DX2                !
 ! D40   D(16,17,20,25)          0.3184         estimate D2E/DX2                !
 ! D41   D(19,17,20,24)          0.7502         estimate D2E/DX2                !
 ! D42   D(19,17,20,25)       -179.6437         estimate D2E/DX2                !
 ! D43   D(16,18,21,25)         -0.4121         estimate D2E/DX2                !
 ! D44   D(16,18,21,27)        179.3562         estimate D2E/DX2                !
 ! D45   D(22,18,21,25)       -179.6769         estimate D2E/DX2                !
 ! D46   D(22,18,21,27)          0.0914         estimate D2E/DX2                !
 ! D47   D(17,20,25,21)         -0.0205         estimate D2E/DX2                !
 ! D48   D(17,20,25,26)       -179.136          estimate D2E/DX2                !
 ! D49   D(24,20,25,21)        179.5643         estimate D2E/DX2                !
 ! D50   D(24,20,25,26)          0.4488         estimate D2E/DX2                !
 ! D51   D(18,21,25,20)          0.0702         estimate D2E/DX2                !
 ! D52   D(18,21,25,26)        179.2003         estimate D2E/DX2                !
 ! D53   D(27,21,25,20)       -179.6926         estimate D2E/DX2                !
 ! D54   D(27,21,25,26)         -0.5625         estimate D2E/DX2                !
 --------------------------------------------------------------------------------
 Trust Radius=3.00D-01 FncErr=1.00D-07 GrdErr=1.00D-06
 Number of steps in this run=    134 maximum allowed number of steps=    162.
 GradGradGradGradGradGradGradGradGradGradGradGradGradGradGradGradGradGrad

                          Input orientation:                          
 ---------------------------------------------------------------------
 Center     Atomic      Atomic             Coordinates (Angstroms)
 Number     Number       Type             X           Y           Z
 ---------------------------------------------------------------------
      1          6           0        0.334537    0.041796    8.579416
      2          1           0        1.144463    0.770420    8.523899
      3          1           0       -0.450311    0.448125    9.239231
      4          6           0        0.317655    0.674246    6.182321
      5          1           0        0.105939    1.716617    6.420483
      6          7           0       -0.206439   -0.184690    7.243996
      7          1           0        0.721870   -0.888384    9.005722
      8          1           0       -0.145809    0.413657    5.225305
      9          1           0        1.404185    0.532613    6.105349
     10          6           0       -1.095649   -1.180865    6.999734
     11          1           0       -1.419057   -1.190809    5.940912
     12          6           0       -1.627035   -2.077905    7.897997
     13          6           0       -2.745030   -2.884416    7.486916
     14          1           0       -1.330036   -1.986766    8.947347
     15          8           0       -1.749132   -3.765120    7.398970
     16          6           0       -4.155963   -2.789603    7.579856
     17          6           0       -4.950794   -3.886872    7.208074
     18          6           0       -4.744728   -1.546676    7.928942
     19          8           0       -4.384967   -5.074666    6.859555
     20          6           0       -6.321296   -3.722204    7.206685
     21          6           0       -6.105821   -1.444424    7.909916
     22          1           0       -4.122769   -0.694079    8.218305
     23          1           0       -3.424243   -5.008170    6.921808
     24          1           0       -6.903394   -4.583075    6.929162
     25          6           0       -6.917863   -2.521207    7.550491
     26          1           0       -8.004014   -2.407674    7.558923
     27          9           0       -6.650678   -0.273947    8.252846
 ---------------------------------------------------------------------
                    Distance matrix (angstroms):
                    1          2          3          4          5
     1  C    0.000000
     2  H    1.090851   0.000000
     3  H    1.102926   1.777323   0.000000
     4  C    2.479182   2.485125   3.160000   0.000000
     5  H    2.741947   2.529462   3.140673   1.089992   0.000000
     6  N    1.458526   2.091727   2.107342   1.462737   2.095405
     7  H    1.094074   1.778305   1.792984   3.252199   3.721406
     8  H    3.408676   3.559888   4.025607   1.094799   1.785926
     9  H    2.739718   2.444052   3.642459   1.098423   1.785110
    10  C    2.456772   3.338966   2.843487   2.471240   3.189788
    11  H    3.399428   4.133990   3.808344   2.559859   3.317940
    12  C    2.967361   4.023172   3.092639   3.781494   4.425454
    13  C    4.386343   5.437032   4.409328   4.872995   5.516775
    14  H    2.649762   3.728878   2.605342   4.176271   4.707665
    15  O    4.497526   5.496315   4.777544   5.045772   5.869256
    16  C    5.401901   6.454417   5.193098   5.827917   6.309831
    17  C    6.726792   7.782925   6.570551   7.043616   7.588803
    18  C    5.361464   6.356530   4.913055   5.797491   6.037673
    19  O    7.170064   8.216427   7.186487   7.458102   8.153683
    20  C    7.768668   8.812280   7.482737   8.028310   8.456254
    21  C    6.643440   7.605861   6.110124   6.981002   7.127170
    22  H    4.532051   5.475571   3.979179   5.072959   5.188987
    23  H    6.509858   7.538692   6.632185   6.843865   7.611588
    24  H    8.746452   9.796484   8.502451   8.963300   9.437988
    25  C    7.760475   8.762616   7.314233   8.027174   8.280692
    26  H    8.750585   9.732733   8.248482   8.980169   9.169360
    27  F    6.999969   7.869460   6.319723   7.331017   7.278171
                    6          7          8          9         10
     6  N    0.000000
     7  H    2.112018   0.000000
     8  H    2.106373   4.091422   0.000000
     9  H    2.098845   3.301053   1.786368   0.000000
    10  C    1.357469   2.722666   2.567741   3.159921   0.000000
    11  H    2.044687   3.750745   2.169692   3.311785   1.107157
    12  C    2.455621   2.856461   3.942739   4.383684   1.376201
    13  C    3.713755   4.279055   4.769499   5.549847   2.420721
    14  H    2.722380   2.328126   4.584542   4.679764   2.120757
    15  O    3.901717   4.118630   4.975705   5.485196   2.695330
    16  C    4.743112   5.425955   5.646780   6.642781   3.505724
    17  C    6.018002   6.663451   6.746392   7.818798   4.714660
    18  C    4.787507   5.610392   5.683539   6.742260   3.783256
    19  O    6.443583   6.943398   7.124810   8.094732   5.099113
    20  C    7.064480   7.802132   7.692064   8.888164   5.814518
    21  C    6.069027   6.937387   6.795686   7.972787   5.098992
    22  H    4.067726   4.912057   5.099151   6.042895   3.299293
    23  H    5.807239   6.205287   6.559151   7.394633   4.480702
    24  H    8.018361   8.723961   8.575279   9.791057   6.731264
    25  C    7.113119   7.946655   7.738258   8.981689   5.999835
    26  H    8.114371   8.974549   8.669318   9.963552   7.038697
    27  F    6.523340   7.436318   7.207782   8.375148   5.766380
                   11         12         13         14         15
    11  H    0.000000
    12  C    2.158790   0.000000
    13  C    2.648894   1.438527   0.000000
    14  H    3.111290   1.094372   2.222801   0.000000
    15  O    2.976904   1.763698   1.332361   2.394923   0.000000
    16  C    3.568324   2.646357   1.417166   3.240439   2.603303
    17  C    4.620349   3.846522   2.438866   4.443575   3.209658
    18  C    3.890886   3.162779   2.446166   3.590397   3.765098
    19  O    4.972411   4.202990   2.807164   4.819399   2.992241
    20  C    5.660573   5.021725   3.683761   5.563661   4.576407
    21  C    5.089897   4.523380   3.680682   4.917166   4.962604
    22  H    3.569778   2.871630   2.688991   3.162578   3.966958
    23  H    4.422123   3.573423   2.300219   4.197308   2.139826
    24  H    6.523960   5.920683   4.526425   6.471183   5.239865
    25  C    5.881970   5.320727   4.189093   5.784518   5.318464
    26  H    6.889149   6.394496   5.281040   6.829851   6.402483
    27  F    5.792714   5.349502   4.759757   5.632523   6.078038
                   16         17         18         19         20
    16  C    0.000000
    17  C    1.404983   0.000000
    18  C    1.418934   2.457363   0.000000
    19  O    2.406821   1.361059   3.704015   0.000000
    20  C    2.386979   1.380360   2.782111   2.387263   0.000000
    21  C    2.391734   2.791455   1.365061   4.152500   2.393584
    22  H    2.190876   3.449655   1.094297   4.593963   3.876395
    23  H    2.427031   1.915624   3.839263   0.965033   3.182417
    24  H    3.344895   2.091683   3.857346   2.566901   1.075619
    25  C    2.775066   2.419019   2.411525   3.662391   1.384373
    26  H    3.867015   3.410759   3.391339   4.549666   2.164163
    27  F    3.606251   4.127273   2.314605   5.488316   3.618483
                   21         22         23         24         25
    21  C    0.000000
    22  H    2.142572   0.000000
    23  H    4.568096   4.558533   0.000000
    24  H    3.383656   4.951571   3.505032   0.000000
    25  C    1.395729   3.405425   4.334237   2.153499   0.000000
    26  H    2.157356   4.293630   5.304979   2.518002   1.092101
    27  F    1.335847   2.562816   5.881701   4.514930   2.369571
                   26         27
    26  H    0.000000
    27  F    2.620274   0.000000
 Stoichiometry    C11H12FNO2
 Framework group  C1[X(C11H12FNO2)]
 Deg. of freedom    75
 Full point group                 C1      NOp   1
 Largest Abelian subgroup         C1      NOp   1
 Largest concise Abelian subgroup C1      NOp   1
                         Standard orientation:                         
 ---------------------------------------------------------------------
 Center     Atomic      Atomic             Coordinates (Angstroms)
 Number     Number       Type             X           Y           Z
 ---------------------------------------------------------------------
      1          6           0       -4.076336    0.610321   -1.130945
      2          1           0       -5.110262    0.947559   -1.045957
      3          1           0       -3.497358    1.398315   -1.641137
      4          6           0       -4.385899    0.763065    1.324087
      5          1           0       -4.598178    1.830731    1.268337
      6          7           0       -3.531386    0.376517    0.201595
      7          1           0       -4.049189   -0.305369   -1.729087
      8          1           0       -3.886836    0.535779    2.271644
      9          1           0       -5.328712    0.201950    1.271313
     10          6           0       -2.327762   -0.225650    0.378813
     11          1           0       -2.059822   -0.298178    1.450608
     12          6           0       -1.456475   -0.672941   -0.587995
     13          6           0       -0.123433   -1.044808   -0.195471
     14          1           0       -1.732717   -0.518406   -1.635591
     15          8           0       -0.690029   -2.241964   -0.340291
     16          6           0        1.136035   -0.398076   -0.133518
     17          6           0        2.289287   -1.150853    0.144537
     18          6           0        1.193420    1.016349   -0.230887
     19          8           0        2.231071   -2.506417    0.251947
     20          6           0        3.481023   -0.473258    0.305851
     21          6           0        2.400762    1.630674   -0.062592
     22          1           0        0.293338    1.599673   -0.447844
     23          1           0        1.325325   -2.805820    0.106106
     24          1           0        4.348192   -1.077345    0.505984
     25          6           0        3.562049    0.905281    0.208103
     26          1           0        4.513556    1.428622    0.324005
     27          9           0        2.446444    2.961477   -0.169189
 ---------------------------------------------------------------------
 Rotational constants (GHZ):      0.9273868      0.3165815      0.2525641
 Standard basis: 6-311++G(d,p) (5D, 7F)
 There are   429 symmetry adapted cartesian basis functions of A   symmetry.
 There are   414 symmetry adapted basis functions of A   symmetry.
   414 basis functions,   648 primitive gaussians,   429 cartesian basis functions
    55 alpha electrons       55 beta electrons
       nuclear repulsion energy       947.2029559412 Hartrees.
 NAtoms=   27 NActive=   27 NUniq=   27 SFac= 1.00D+00 NAtFMM=   60 NAOKFM=F Big=F
 Integral buffers will be    131072 words long.
 Raffenetti 1 integral format.
 Two-electron integral symmetry is turned on.
 Nuclear repulsion after empirical dispersion term =      947.1873291790 Hartrees.
 One-electron integrals computed using PRISM.
 NBasis=   414 RedAO= T EigKep=  1.63D-06  NBF=   414
 NBsUse=   412 1.00D-06 EigRej=  9.55D-07 NBFU=   412
 ExpMin= 3.60D-02 ExpMax= 1.14D+04 ExpMxC= 1.72D+03 IAcc=3 IRadAn=         5 AccDes= 0.00D+00
 Harris functional with IExCor= 4639 and IRadAn=       5 diagonalized for initial guess.
 HarFok:  IExCor= 4639 AccDes= 0.00D+00 IRadAn=         5 IDoV= 1 UseB2=F ITyADJ=14
 ICtDFT=  3500011 ScaDFX=  1.000000  1.000000  1.000000  1.000000
 FoFCou: FMM=F IPFlag=           0 FMFlag=      100000 FMFlg1=           0
         NFxFlg=           0 DoJE=T BraDBF=F KetDBF=T FulRan=T
         wScrn=  0.000000 ICntrl=     500 IOpCl=  0 I1Cent=   200000004 NGrid=           0
         NMat0=    1 NMatS0=      1 NMatT0=    0 NMatD0=    1 NMtDS0=    0 NMtDT0=    0
 Petite list used in FoFCou.
 Requested convergence on RMS density matrix=1.00D-08 within 128 cycles.
 Requested convergence on MAX density matrix=1.00D-06.
 Requested convergence on             energy=1.00D-06.
 No special actions if energy rises.
 Restarting incremental Fock formation.
 SCF Done:  E(RwB97XD) =  -731.230910000     A.U. after   26 cycles
            NFock= 26  Conv=0.98D-08     -V/T= 2.0036
 DoSCS=F DFT=T ScalE2(SS,OS)=  1.000000  1.000000
 ExpMin= 3.60D-02 ExpMax= 1.14D+04 ExpMxC= 1.72D+03 IAcc=3 IRadAn=         5 AccDes= 0.00D+00
 HarFok:  IExCor=  205 AccDes= 0.00D+00 IRadAn=         5 IDoV=-2 UseB2=F ITyADJ=14
 ICtDFT= 12500011 ScaDFX=  1.000000  1.000000  1.000000  1.000000
 Range of M.O.s used for correlation:    16   412
 NBasis=   414 NAE=    55 NBE=    55 NFC=    15 NFV=     0
 NROrb=    397 NOA=    40 NOB=    40 NVA=   357 NVB=   357

 **** Warning!!: The largest alpha MO coefficient is  0.13378975D+03

 Would need an additional         20031600000 words for in-memory AO integral storage.
 Orbital symmetries:
       Occupied  (A) (A) (A) (A) (A) (A) (A) (A) (A) (A) (A) (A)
                 (A) (A) (A) (A) (A) (A) (A) (A) (A) (A) (A) (A)
                 (A) (A) (A) (A) (A) (A) (A) (A) (A) (A) (A) (A)
                 (A) (A) (A) (A) (A) (A) (A) (A) (A) (A) (A) (A)
                 (A) (A) (A) (A) (A) (A) (A)
       Virtual   (A) (A) (A) (A) (A) (A) (A) (A) (A) (A) (A) (A)
                 (A) (A) (A) (A) (A) (A) (A) (A) (A) (A) (A) (A)
                 (A) (A) (A) (A) (A) (A) (A) (A) (A) (A) (A) (A)
                 (A) (A) (A) (A) (A) (A) (A) (A) (A) (A) (A) (A)
                 (A) (A) (A) (A) (A) (A) (A) (A) (A) (A) (A) (A)
                 (A) (A) (A) (A) (A) (A) (A) (A) (A) (A) (A) (A)
                 (A) (A) (A) (A) (A) (A) (A) (A) (A) (A) (A) (A)
                 (A) (A) (A) (A) (A) (A) (A) (A) (A) (A) (A) (A)
                 (A) (A) (A) (A) (A) (A) (A) (A) (A) (A) (A) (A)
                 (A) (A) (A) (A) (A) (A) (A) (A) (A) (A) (A) (A)
                 (A) (A) (A) (A) (A) (A) (A) (A) (A) (A) (A) (A)
                 (A) (A) (A) (A) (A) (A) (A) (A) (A) (A) (A) (A)
                 (A) (A) (A) (A) (A) (A) (A) (A) (A) (A) (A) (A)
                 (A) (A) (A) (A) (A) (A) (A) (A) (A) (A) (A) (A)
                 (A) (A) (A) (A) (A) (A) (A) (A) (A) (A) (A) (A)
                 (A) (A) (A) (A) (A) (A) (A) (A) (A) (A) (A) (A)
                 (A) (A) (A) (A) (A) (A) (A) (A) (A) (A) (A) (A)
                 (A) (A) (A) (A) (A) (A) (A) (A) (A) (A) (A) (A)
                 (A) (A) (A) (A) (A) (A) (A) (A) (A) (A) (A) (A)
                 (A) (A) (A) (A) (A) (A) (A) (A) (A) (A) (A) (A)
                 (A) (A) (A) (A) (A) (A) (A) (A) (A) (A) (A) (A)
                 (A) (A) (A) (A) (A) (A) (A) (A) (A) (A) (A) (A)
                 (A) (A) (A) (A) (A) (A) (A) (A) (A) (A) (A) (A)
                 (A) (A) (A) (A) (A) (A) (A) (A) (A) (A) (A) (A)
                 (A) (A) (A) (A) (A) (A) (A) (A) (A) (A) (A) (A)
                 (A) (A) (A) (A) (A) (A) (A) (A) (A) (A) (A) (A)
                 (A) (A) (A) (A) (A) (A) (A) (A) (A) (A) (A) (A)
                 (A) (A) (A) (A) (A) (A) (A) (A) (A) (A) (A) (A)
                 (A) (A) (A) (A) (A) (A) (A) (A) (A) (A) (A) (A)
                 (A) (A) (A) (A) (A) (A) (A) (A) (A)
     8 initial guesses have been made.
 Convergence on wavefunction:    0.000001000000000
 Iteration     1 Dimension     8 NMult     0 NNew      8
 CISAX will form     8 AO SS matrices at one time.
 Iteration     2 Dimension    12 NMult     8 NNew      4
 Iteration     3 Dimension    16 NMult    12 NNew      4
 Iteration     4 Dimension    20 NMult    16 NNew      4
 Iteration     5 Dimension    24 NMult    20 NNew      4
 Iteration     6 Dimension    28 NMult    24 NNew      4
 Iteration     7 Dimension    32 NMult    28 NNew      4
 Iteration     8 Dimension    36 NMult    32 NNew      4
 Iteration     9 Dimension    40 NMult    36 NNew      4
 Iteration    10 Dimension    44 NMult    40 NNew      4
 Iteration    11 Dimension    48 NMult    44 NNew      4
 Iteration    12 Dimension    52 NMult    48 NNew      4
 ***********************************************************************
 Excited states from <AA,BB:AA,BB> singles matrix:
 ***********************************************************************
 
 Ground to excited state transition densities written to RWF  633
 Ground to excited state transition electric dipole moments (Au):
       state          X           Y           Z        Dip. S.      Osc.
         1        -0.5095     -0.0098     -0.0383      0.2612      0.0008
 Ground to excited state transition velocity dipole moments (Au):
       state          X           Y           Z        Dip. S.      Osc.
         1        -0.0037      0.0041     -0.0023      0.0000      0.0054
 Ground to excited state transition magnetic dipole moments (Au):
       state          X           Y           Z
         1        -0.2512     -0.4056     -0.0133
 Ground to excited state transition velocity quadrupole moments (Au):
       state          XX          YY          ZZ          XY          XZ          YZ
         1         0.0120     -0.0068     -0.0008     -0.0126     -0.0042      0.0123
 <0|del|b> * <b|rxdel|0> + <0|del|b> * <b|delr+rdel|0>
 Rotatory Strengths (R) in cgs (10**-40 erg-esu-cm/Gauss)
       state          XX          YY          ZZ    R(velocity)    E-M Angle
         1      -127.1383     70.6409    -56.8525    -37.7833      104.38
 1/2[<0|r|b>*<b|rxdel|0> + (<0|rxdel|b>*<b|r|0>)*]
 Rotatory Strengths (R) in cgs (10**-40 erg-esu-cm/Gauss)
       state          XX          YY          ZZ     R(length)
         1       -90.4987     -2.8169     -0.3604    -31.2253
  1/2[<0|del|b>*<b|r|0> + (<0|r|b>*<b|del|0>)*] (Au)
       state          X           Y           Z        Dip. S.   Osc.(frdel)
         1         0.0019      0.0000      0.0001     -0.0019     -0.0013

 Excitation energies and oscillator strengths:
 
 Excited State   1:      Singlet-A      0.1212 eV 10231.67 nm  f=0.0008  <S**2>=0.000
      53 -> 56         0.11451
      55 -> 56        -0.69109
      55 -> 64         0.11217
      55 <- 56         0.15309
 This state for optimization and/or second-order correction.
 Total Energy, E(TD-HF/TD-KS) =  -731.226456832    
 Copying the excited state density for this state as the 1-particle RhoCI density.
 SavETr:  write IOETrn=   770 NScale= 10 NData=  16 NLR=1 NState=    1 LETran=      28.
          IDoAtm=111111111111111111111111111
          Differentiating once with respect to electric field.
                with respect to dipole field.
          Differentiating once with respect to nuclear coordinates.
          There are     1 degrees of freedom in the 1st order CPHF.  IDoFFX=0 NUNeed=     1.
 LinEq1:  Iter=  0 NonCon=     1 RMS=7.86D-03 Max=5.45D-01 NDo=     1
 AX will form     1 AO Fock derivatives at one time.
 LinEq1:  Iter=  1 NonCon=     1 RMS=4.39D-03 Max=3.72D-01 NDo=     1
 LinEq1:  Iter=  2 NonCon=     1 RMS=4.26D-03 Max=2.94D-01 NDo=     1
 LinEq1:  Iter=  3 NonCon=     1 RMS=2.86D-03 Max=1.09D-01 NDo=     1
 LinEq1:  Iter=  4 NonCon=     1 RMS=2.21D-03 Max=8.88D-02 NDo=     1
 LinEq1:  Iter=  5 NonCon=     1 RMS=8.67D-04 Max=2.24D-02 NDo=     1
 LinEq1:  Iter=  6 NonCon=     1 RMS=4.38D-04 Max=2.71D-02 NDo=     1
 LinEq1:  Iter=  7 NonCon=     1 RMS=1.69D-04 Max=5.99D-03 NDo=     1
 LinEq1:  Iter=  8 NonCon=     1 RMS=9.15D-05 Max=5.32D-03 NDo=     1
 LinEq1:  Iter=  9 NonCon=     1 RMS=4.16D-05 Max=8.73D-04 NDo=     1
 LinEq1:  Iter= 10 NonCon=     1 RMS=1.52D-05 Max=7.34D-04 NDo=     1
 LinEq1:  Iter= 11 NonCon=     1 RMS=6.50D-06 Max=1.79D-04 NDo=     1
 LinEq1:  Iter= 12 NonCon=     1 RMS=2.62D-06 Max=9.40D-05 NDo=     1
 LinEq1:  Iter= 13 NonCon=     1 RMS=1.26D-06 Max=2.66D-05 NDo=     1
 LinEq1:  Iter= 14 NonCon=     1 RMS=6.21D-07 Max=1.83D-05 NDo=     1
 LinEq1:  Iter= 15 NonCon=     1 RMS=3.22D-07 Max=8.64D-06 NDo=     1
 LinEq1:  Iter= 16 NonCon=     1 RMS=1.38D-07 Max=3.88D-06 NDo=     1
 LinEq1:  Iter= 17 NonCon=     1 RMS=5.02D-08 Max=1.66D-06 NDo=     1
 LinEq1:  Iter= 18 NonCon=     1 RMS=2.73D-08 Max=7.96D-07 NDo=     1
 LinEq1:  Iter= 19 NonCon=     1 RMS=1.12D-08 Max=2.94D-07 NDo=     1
 LinEq1:  Iter= 20 NonCon=     1 RMS=5.37D-09 Max=1.21D-07 NDo=     1
 LinEq1:  Iter= 21 NonCon=     1 RMS=2.19D-09 Max=7.51D-08 NDo=     1
 LinEq1:  Iter= 22 NonCon=     1 RMS=9.11D-10 Max=2.88D-08 NDo=     1
 LinEq1:  Iter= 23 NonCon=     1 RMS=3.52D-10 Max=1.24D-08 NDo=     1
 LinEq1:  Iter= 24 NonCon=     1 RMS=1.88D-10 Max=4.81D-09 NDo=     1
 LinEq1:  Iter= 25 NonCon=     1 RMS=6.86D-11 Max=2.02D-09 NDo=     1
 LinEq1:  Iter= 26 NonCon=     0 RMS=3.29D-11 Max=7.37D-10 NDo=     1
 Linear equations converged to 1.000D-10 1.000D-09 after    26 iterations.
 End of Minotr F.D. properties file   721 does not exist.
 End of Minotr F.D. properties file   722 does not exist.
 End of Minotr F.D. properties file   788 does not exist.

 **********************************************************************

            Population analysis using the SCF density.

 **********************************************************************

 Orbital symmetries:
       Occupied  (A) (A) (A) (A) (A) (A) (A) (A) (A) (A) (A) (A)
                 (A) (A) (A) (A) (A) (A) (A) (A) (A) (A) (A) (A)
                 (A) (A) (A) (A) (A) (A) (A) (A) (A) (A) (A) (A)
                 (A) (A) (A) (A) (A) (A) (A) (A) (A) (A) (A) (A)
                 (A) (A) (A) (A) (A) (A) (A)
       Virtual   (A) (A) (A) (A) (A) (A) (A) (A) (A) (A) (A) (A)
                 (A) (A) (A) (A) (A) (A) (A) (A) (A) (A) (A) (A)
                 (A) (A) (A) (A) (A) (A) (A) (A) (A) (A) (A) (A)
                 (A) (A) (A) (A) (A) (A) (A) (A) (A) (A) (A) (A)
                 (A) (A) (A) (A) (A) (A) (A) (A) (A) (A) (A) (A)
                 (A) (A) (A) (A) (A) (A) (A) (A) (A) (A) (A) (A)
                 (A) (A) (A) (A) (A) (A) (A) (A) (A) (A) (A) (A)
                 (A) (A) (A) (A) (A) (A) (A) (A) (A) (A) (A) (A)
                 (A) (A) (A) (A) (A) (A) (A) (A) (A) (A) (A) (A)
                 (A) (A) (A) (A) (A) (A) (A) (A) (A) (A) (A) (A)
                 (A) (A) (A) (A) (A) (A) (A) (A) (A) (A) (A) (A)
                 (A) (A) (A) (A) (A) (A) (A) (A) (A) (A) (A) (A)
                 (A) (A) (A) (A) (A) (A) (A) (A) (A) (A) (A) (A)
                 (A) (A) (A) (A) (A) (A) (A) (A) (A) (A) (A) (A)
                 (A) (A) (A) (A) (A) (A) (A) (A) (A) (A) (A) (A)
                 (A) (A) (A) (A) (A) (A) (A) (A) (A) (A) (A) (A)
                 (A) (A) (A) (A) (A) (A) (A) (A) (A) (A) (A) (A)
                 (A) (A) (A) (A) (A) (A) (A) (A) (A) (A) (A) (A)
                 (A) (A) (A) (A) (A) (A) (A) (A) (A) (A) (A) (A)
                 (A) (A) (A) (A) (A) (A) (A) (A) (A) (A) (A) (A)
                 (A) (A) (A) (A) (A) (A) (A) (A) (A) (A) (A) (A)
                 (A) (A) (A) (A) (A) (A) (A) (A) (A) (A) (A) (A)
                 (A) (A) (A) (A) (A) (A) (A) (A) (A) (A) (A) (A)
                 (A) (A) (A) (A) (A) (A) (A) (A) (A) (A) (A) (A)
                 (A) (A) (A) (A) (A) (A) (A) (A) (A) (A) (A) (A)
                 (A) (A) (A) (A) (A) (A) (A) (A) (A) (A) (A) (A)
                 (A) (A) (A) (A) (A) (A) (A) (A) (A) (A) (A) (A)
                 (A) (A) (A) (A) (A) (A) (A) (A) (A) (A) (A) (A)
                 (A) (A) (A) (A) (A) (A) (A) (A) (A) (A) (A) (A)
                 (A) (A) (A) (A) (A) (A) (A) (A) (A)
 The electronic state is 1-A.
 Alpha  occ. eigenvalues --  -24.83826 -19.30269 -19.26027 -14.42740 -10.39726
 Alpha  occ. eigenvalues --  -10.39656 -10.39383 -10.34109 -10.33977 -10.33409
 Alpha  occ. eigenvalues --  -10.32219 -10.30803 -10.30533 -10.28941 -10.28697
 Alpha  occ. eigenvalues --   -1.35798  -1.19493  -1.15054  -1.02997  -1.00542
 Alpha  occ. eigenvalues --   -0.91500  -0.88363  -0.85197  -0.81209  -0.79976
 Alpha  occ. eigenvalues --   -0.76723  -0.74048  -0.70442  -0.67008  -0.65357
 Alpha  occ. eigenvalues --   -0.62979  -0.62747  -0.59607  -0.58757  -0.57811
 Alpha  occ. eigenvalues --   -0.55987  -0.55154  -0.54638  -0.54437  -0.53515
 Alpha  occ. eigenvalues --   -0.53205  -0.49971  -0.48870  -0.48564  -0.48135
 Alpha  occ. eigenvalues --   -0.46794  -0.46293  -0.46108  -0.45019  -0.42536
 Alpha  occ. eigenvalues --   -0.41552  -0.37385  -0.34463  -0.33316  -0.20185
 Alpha virt. eigenvalues --   -0.04566   0.03639   0.03791   0.04143   0.05407
 Alpha virt. eigenvalues --    0.05666   0.05944   0.06799   0.07599   0.07742
 Alpha virt. eigenvalues --    0.08153   0.08492   0.09461   0.09706   0.10137
 Alpha virt. eigenvalues --    0.11108   0.11506   0.11701   0.12895   0.13337
 Alpha virt. eigenvalues --    0.14038   0.14204   0.14458   0.15269   0.15369
 Alpha virt. eigenvalues --    0.16175   0.16370   0.16703   0.16971   0.17393
 Alpha virt. eigenvalues --    0.17992   0.18118   0.18397   0.18460   0.18716
 Alpha virt. eigenvalues --    0.18947   0.19168   0.20098   0.20404   0.20480
 Alpha virt. eigenvalues --    0.20692   0.20957   0.21277   0.21624   0.22295
 Alpha virt. eigenvalues --    0.22924   0.23562   0.23813   0.24152   0.24626
 Alpha virt. eigenvalues --    0.24842   0.25240   0.25731   0.27030   0.27259
 Alpha virt. eigenvalues --    0.27690   0.28286   0.28376   0.28689   0.29165
 Alpha virt. eigenvalues --    0.30186   0.30783   0.31376   0.31688   0.31969
 Alpha virt. eigenvalues --    0.32830   0.33100   0.33607   0.34416   0.34706
 Alpha virt. eigenvalues --    0.35256   0.35827   0.36139   0.36330   0.37148
 Alpha virt. eigenvalues --    0.37563   0.37772   0.38573   0.38612   0.39383
 Alpha virt. eigenvalues --    0.39484   0.40527   0.41287   0.42414   0.42807
 Alpha virt. eigenvalues --    0.43332   0.43515   0.43785   0.45091   0.45557
 Alpha virt. eigenvalues --    0.46996   0.47584   0.48647   0.49012   0.50348
 Alpha virt. eigenvalues --    0.51446   0.52766   0.53002   0.54201   0.55020
 Alpha virt. eigenvalues --    0.55550   0.57394   0.58179   0.58432   0.59799
 Alpha virt. eigenvalues --    0.60184   0.61731   0.62273   0.63827   0.64782
 Alpha virt. eigenvalues --    0.65537   0.65887   0.66979   0.67655   0.68310
 Alpha virt. eigenvalues --    0.69057   0.69365   0.70621   0.71245   0.72062
 Alpha virt. eigenvalues --    0.72771   0.73494   0.73930   0.74205   0.74899
 Alpha virt. eigenvalues --    0.75705   0.76467   0.76764   0.78937   0.79387
 Alpha virt. eigenvalues --    0.80672   0.81900   0.82827   0.83129   0.84671
 Alpha virt. eigenvalues --    0.84866   0.87266   0.88473   0.89046   0.90392
 Alpha virt. eigenvalues --    0.91102   0.92220   0.94806   0.95705   0.96470
 Alpha virt. eigenvalues --    0.97847   0.98221   0.98733   1.00418   1.00687
 Alpha virt. eigenvalues --    1.02471   1.03730   1.05578   1.06591   1.07792
 Alpha virt. eigenvalues --    1.08668   1.09493   1.10540   1.12729   1.14206
 Alpha virt. eigenvalues --    1.15372   1.16848   1.18318   1.19319   1.19997
 Alpha virt. eigenvalues --    1.21665   1.22972   1.24367   1.26357   1.27455
 Alpha virt. eigenvalues --    1.28289   1.29791   1.31826   1.32606   1.35063
 Alpha virt. eigenvalues --    1.36894   1.40296   1.42093   1.43548   1.48146
 Alpha virt. eigenvalues --    1.49014   1.50565   1.50815   1.52614   1.53319
 Alpha virt. eigenvalues --    1.54268   1.54827   1.55224   1.57344   1.58441
 Alpha virt. eigenvalues --    1.59013   1.61955   1.62972   1.63079   1.64245
 Alpha virt. eigenvalues --    1.64908   1.65968   1.66592   1.66919   1.68770
 Alpha virt. eigenvalues --    1.69777   1.71786   1.72224   1.73360   1.73981
 Alpha virt. eigenvalues --    1.76067   1.77056   1.77791   1.80779   1.81726
 Alpha virt. eigenvalues --    1.82171   1.83521   1.86217   1.88452   1.88962
 Alpha virt. eigenvalues --    1.91087   1.92182   1.92797   1.95224   1.96374
 Alpha virt. eigenvalues --    1.96861   1.97918   2.00397   2.00968   2.02246
 Alpha virt. eigenvalues --    2.05616   2.06222   2.07254   2.08351   2.09917
 Alpha virt. eigenvalues --    2.10432   2.12366   2.14058   2.14670   2.15604
 Alpha virt. eigenvalues --    2.17026   2.20481   2.23769   2.23985   2.25770
 Alpha virt. eigenvalues --    2.26083   2.27949   2.30429   2.33402   2.37069
 Alpha virt. eigenvalues --    2.37636   2.39852   2.42221   2.44907   2.47228
 Alpha virt. eigenvalues --    2.52019   2.52946   2.53973   2.55500   2.58657
 Alpha virt. eigenvalues --    2.59838   2.61985   2.64177   2.66237   2.67724
 Alpha virt. eigenvalues --    2.68004   2.69106   2.71059   2.72068   2.73646
 Alpha virt. eigenvalues --    2.74713   2.75671   2.77578   2.78686   2.80342
 Alpha virt. eigenvalues --    2.80778   2.81793   2.82419   2.83121   2.85037
 Alpha virt. eigenvalues --    2.85629   2.88234   2.89652   2.92617   2.94067
 Alpha virt. eigenvalues --    2.95803   2.97989   2.99231   3.02758   3.04798
 Alpha virt. eigenvalues --    3.07610   3.10949   3.12484   3.14843   3.15516
 Alpha virt. eigenvalues --    3.17062   3.17335   3.20390   3.21946   3.25640
 Alpha virt. eigenvalues --    3.26247   3.29014   3.30819   3.32570   3.37215
 Alpha virt. eigenvalues --    3.42674   3.47182   3.51082   3.55957   3.59826
 Alpha virt. eigenvalues --    3.65272   3.68544   3.70386   3.74135   3.76367
 Alpha virt. eigenvalues --    3.80535   3.83966   3.84989   3.86254   3.88793
 Alpha virt. eigenvalues --    3.91902   3.93930   3.94868   3.95415   4.01556
 Alpha virt. eigenvalues --    4.07389   4.08948   4.13137   4.15669   4.21038
 Alpha virt. eigenvalues --    4.23215   4.25462   4.27030   4.54170   4.90951
 Alpha virt. eigenvalues --    4.96157   5.00211   5.10696   5.18104   5.19388
 Alpha virt. eigenvalues --    5.36365   5.53805   5.72625   5.88287   6.42788
 Alpha virt. eigenvalues --    6.55947   6.87677  23.65788  23.92274  23.97134
 Alpha virt. eigenvalues --   24.04483  24.07043  24.08561  24.11725  24.15765
 Alpha virt. eigenvalues --   24.21679  24.29523  24.30570  35.72709  50.07744
 Alpha virt. eigenvalues --   50.10498  66.93540
          Condensed to atoms (all electrons):
               1          2          3          4          5          6
     1  C    5.162872   0.396733   0.370647  -0.068949  -0.003457   0.267170
     2  H    0.396733   0.518245  -0.032122   0.011762  -0.004998  -0.055733
     3  H    0.370647  -0.032122   0.612150  -0.003924   0.007407  -0.112959
     4  C   -0.068949   0.011762  -0.003924   5.130467   0.407967   0.234894
     5  H   -0.003457  -0.004998   0.007407   0.407967   0.609286  -0.085292
     6  N    0.267170  -0.055733  -0.112959   0.234894  -0.085292   7.118298
     7  H    0.446023  -0.014643  -0.069910   0.006591  -0.001205  -0.043956
     8  H   -0.003627   0.003746  -0.002323   0.400342  -0.028210  -0.088940
     9  H    0.007260  -0.003222  -0.000692   0.433201  -0.079013  -0.066602
    10  C   -0.382986   0.025545   0.090620   0.027311   0.012874  -0.140374
    11  H   -0.000172  -0.002659   0.003813  -0.037770   0.010758  -0.107892
    12  C    0.482524   0.012222  -0.032788  -0.149046  -0.008310   0.073675
    13  C   -0.037771  -0.006928   0.001181  -0.068481   0.002265   0.012016
    14  H    0.012532  -0.003143  -0.003987  -0.016015   0.001559  -0.025532
    15  O   -0.026414  -0.001621   0.005502  -0.004039   0.000897  -0.031344
    16  C   -0.273203  -0.017230   0.025394  -0.011660   0.003567  -0.186478
    17  C   -0.017136  -0.000604   0.000716  -0.000820  -0.000552  -0.016306
    18  C    0.036033   0.001949  -0.006765   0.010946   0.001714   0.035684
    19  O   -0.000193  -0.000007   0.000104  -0.000055   0.000006  -0.000462
    20  C    0.009351   0.000590  -0.002092  -0.000607  -0.000374   0.004014
    21  C    0.017936   0.000750   0.006616   0.005043   0.000302   0.021283
    22  H    0.005132   0.000692  -0.008253   0.000769  -0.001053   0.015022
    23  H    0.000715   0.000025  -0.000385   0.000162  -0.000040   0.001949
    24  H    0.000079   0.000005  -0.000032  -0.000007  -0.000010   0.000140
    25  C   -0.009794  -0.000595   0.004172   0.000529   0.000415  -0.012006
    26  H   -0.000171  -0.000011   0.000062   0.000017   0.000007  -0.000075
    27  F   -0.000107  -0.000003   0.000202  -0.000034  -0.000005  -0.000007
               7          8          9         10         11         12
     1  C    0.446023  -0.003627   0.007260  -0.382986  -0.000172   0.482524
     2  H   -0.014643   0.003746  -0.003222   0.025545  -0.002659   0.012222
     3  H   -0.069910  -0.002323  -0.000692   0.090620   0.003813  -0.032788
     4  C    0.006591   0.400342   0.433201   0.027311  -0.037770  -0.149046
     5  H   -0.001205  -0.028210  -0.079013   0.012874   0.010758  -0.008310
     6  N   -0.043956  -0.088940  -0.066602  -0.140374  -0.107892   0.073675
     7  H    0.579337  -0.001006   0.001536  -0.049140  -0.005736   0.032998
     8  H   -0.001006   0.563403  -0.023953   0.081562  -0.004810  -0.012295
     9  H    0.001536  -0.023953   0.598477  -0.035460  -0.003816   0.016134
    10  C   -0.049140   0.081562  -0.035460  10.740356   0.317764  -4.051149
    11  H   -0.005736  -0.004810  -0.003816   0.317764   0.602305  -0.032531
    12  C    0.032998  -0.012295   0.016134  -4.051149  -0.032531  17.055350
    13  C   -0.032373  -0.004650  -0.002398  -1.594813   0.028213   4.112108
    14  H   -0.000708  -0.002086  -0.000313  -0.300421   0.020010   0.582515
    15  O   -0.006980   0.000895  -0.000630   0.219767   0.016986  -1.262247
    16  C    0.000860  -0.006443   0.001088   1.662953   0.148668  -8.960008
    17  C    0.000009   0.000486   0.000575   0.214864   0.026696  -1.639784
    18  C   -0.000957   0.001455  -0.002742  -0.117252  -0.044901  -0.874843
    19  O   -0.000075   0.000098  -0.000008   0.020980  -0.000845   0.011739
    20  C   -0.000887   0.000468  -0.000002  -0.206505  -0.001789   0.592362
    21  C    0.000025   0.002333  -0.000318   0.035546  -0.049932   1.043605
    22  H    0.001660   0.001040   0.000096  -0.052737  -0.006657  -0.011600
    23  H    0.000195  -0.000103   0.000030  -0.055835  -0.003153   0.050900
    24  H    0.000001   0.000023   0.000002  -0.002974  -0.000406   0.008427
    25  C    0.000148  -0.000522  -0.000031   0.200746   0.014765  -0.663358
    26  H    0.000008  -0.000016   0.000000   0.002575   0.000246  -0.016421
    27  F    0.000007  -0.000003   0.000001   0.000084   0.000081   0.000241
              13         14         15         16         17         18
     1  C   -0.037771   0.012532  -0.026414  -0.273203  -0.017136   0.036033
     2  H   -0.006928  -0.003143  -0.001621  -0.017230  -0.000604   0.001949
     3  H    0.001181  -0.003987   0.005502   0.025394   0.000716  -0.006765
     4  C   -0.068481  -0.016015  -0.004039  -0.011660  -0.000820   0.010946
     5  H    0.002265   0.001559   0.000897   0.003567  -0.000552   0.001714
     6  N    0.012016  -0.025532  -0.031344  -0.186478  -0.016306   0.035684
     7  H   -0.032373  -0.000708  -0.006980   0.000860   0.000009  -0.000957
     8  H   -0.004650  -0.002086   0.000895  -0.006443   0.000486   0.001455
     9  H   -0.002398  -0.000313  -0.000630   0.001088   0.000575  -0.002742
    10  C   -1.594813  -0.300421   0.219767   1.662953   0.214864  -0.117252
    11  H    0.028213   0.020010   0.016986   0.148668   0.026696  -0.044901
    12  C    4.112108   0.582515  -1.262247  -8.960008  -1.639784  -0.874843
    13  C   16.093687   0.147808   0.242499  -6.224464  -1.384096  -5.641740
    14  H    0.147808   0.517307  -0.029105   0.025335   0.043445  -0.174803
    15  O    0.242499  -0.029105   8.466981   0.456786   0.101074  -0.016445
    16  C   -6.224464   0.025335   0.456786  25.059686  -0.247168  -2.338301
    17  C   -1.384096   0.043445   0.101074  -0.247168  17.683141  -6.641694
    18  C   -5.641740  -0.174803  -0.016445  -2.338301  -6.641694  24.940891
    19  O    0.004640  -0.002235  -0.024524   0.084169   0.242737   0.055154
    20  C   -0.779305  -0.002283  -0.040597  -3.943279  -2.131498   2.662671
    21  C    2.769127  -0.007960  -0.018273  -2.029942   0.144864  -5.091592
    22  H   -0.127104  -0.011143  -0.003585  -0.278267  -0.034588   1.080339
    23  H    0.030348   0.003161   0.054282  -0.248714   0.090104   0.038437
    24  H    0.001756  -0.000188  -0.000471  -0.135120  -0.198772   0.080944
    25  C   -1.735470  -0.010397   0.016023   2.019223   0.199780  -1.198752
    26  H   -0.027529  -0.000059   0.000183   0.135419   0.090638  -0.135088
    27  F    0.003907  -0.000314  -0.000049   0.031857   0.004030  -0.148025
              19         20         21         22         23         24
     1  C   -0.000193   0.009351   0.017936   0.005132   0.000715   0.000079
     2  H   -0.000007   0.000590   0.000750   0.000692   0.000025   0.000005
     3  H    0.000104  -0.002092   0.006616  -0.008253  -0.000385  -0.000032
     4  C   -0.000055  -0.000607   0.005043   0.000769   0.000162  -0.000007
     5  H    0.000006  -0.000374   0.000302  -0.001053  -0.000040  -0.000010
     6  N   -0.000462   0.004014   0.021283   0.015022   0.001949   0.000140
     7  H   -0.000075  -0.000887   0.000025   0.001660   0.000195   0.000001
     8  H    0.000098   0.000468   0.002333   0.001040  -0.000103   0.000023
     9  H   -0.000008  -0.000002  -0.000318   0.000096   0.000030   0.000002
    10  C    0.020980  -0.206505   0.035546  -0.052737  -0.055835  -0.002974
    11  H   -0.000845  -0.001789  -0.049932  -0.006657  -0.003153  -0.000406
    12  C    0.011739   0.592362   1.043605  -0.011600   0.050900   0.008427
    13  C    0.004640  -0.779305   2.769127  -0.127104   0.030348   0.001756
    14  H   -0.002235  -0.002283  -0.007960  -0.011143   0.003161  -0.000188
    15  O   -0.024524  -0.040597  -0.018273  -0.003585   0.054282  -0.000471
    16  C    0.084169  -3.943279  -2.029942  -0.278267  -0.248714  -0.135120
    17  C    0.242737  -2.131498   0.144864  -0.034588   0.090104  -0.198772
    18  C    0.055154   2.662671  -5.091592   1.080339   0.038437   0.080944
    19  O    7.970253  -0.384966   0.009389  -0.001229   0.231015  -0.023771
    20  C   -0.384966  10.489730  -0.113167   0.160904   0.104964   0.622147
    21  C    0.009389  -0.113167  11.736403  -0.252605   0.013409   0.043556
    22  H   -0.001229   0.160904  -0.252605   0.485308   0.002507   0.004893
    23  H    0.231015   0.104964   0.013409   0.002507   0.419380   0.002862
    24  H   -0.023771   0.622147   0.043556   0.004893   0.002862   0.451674
    25  C    0.008184  -0.622072  -2.002056  -0.211635  -0.025400  -0.093339
    26  H    0.001191  -0.127157  -0.190772  -0.007393  -0.000290  -0.015073
    27  F    0.000157   0.002554   0.398033  -0.035363   0.000124   0.001193
              25         26         27
     1  C   -0.009794  -0.000171  -0.000107
     2  H   -0.000595  -0.000011  -0.000003
     3  H    0.004172   0.000062   0.000202
     4  C    0.000529   0.000017  -0.000034
     5  H    0.000415   0.000007  -0.000005
     6  N   -0.012006  -0.000075  -0.000007
     7  H    0.000148   0.000008   0.000007
     8  H   -0.000522  -0.000016  -0.000003
     9  H   -0.000031   0.000000   0.000001
    10  C    0.200746   0.002575   0.000084
    11  H    0.014765   0.000246   0.000081
    12  C   -0.663358  -0.016421   0.000241
    13  C   -1.735470  -0.027529   0.003907
    14  H   -0.010397  -0.000059  -0.000314
    15  O    0.016023   0.000183  -0.000049
    16  C    2.019223   0.135419   0.031857
    17  C    0.199780   0.090638   0.004030
    18  C   -1.198752  -0.135088  -0.148025
    19  O    0.008184   0.001191   0.000157
    20  C   -0.622072  -0.127157   0.002554
    21  C   -2.002056  -0.190772   0.398033
    22  H   -0.211635  -0.007393  -0.035363
    23  H   -0.025400  -0.000290   0.000124
    24  H   -0.093339  -0.015073   0.001193
    25  C    9.737934   0.591320  -0.215092
    26  H    0.591320   0.451190  -0.020330
    27  F   -0.215092  -0.020330   9.127119
 Mulliken charges:
               1
     1  C   -0.391027
     2  H    0.171256
     3  H    0.147647
     4  C   -0.308592
     5  H    0.153494
     6  N    0.189813
     7  H    0.158180
     8  H    0.123135
     9  H    0.160800
    10  C   -0.663901
    11  H    0.112765
    12  C   -0.360421
    13  C    0.217565
    14  H    0.237023
    15  O   -0.115548
    16  C    1.245273
    17  C   -0.530139
    18  C   -0.512316
    19  O   -0.201448
    20  C   -0.293176
    21  C   -0.491604
    22  H    0.284851
    23  H    0.289353
    24  H    0.252460
    25  C    0.007281
    26  H    0.267530
    27  F   -0.150254
 Sum of Mulliken charges =   0.00000
 Mulliken charges with hydrogens summed into heavy atoms:
               1
     1  C    0.086057
     4  C    0.128836
     6  N    0.189813
    10  C   -0.551136
    12  C   -0.123398
    13  C    0.217565
    15  O   -0.115548
    16  C    1.245273
    17  C   -0.530139
    18  C   -0.227465
    19  O    0.087905
    20  C   -0.040716
    21  C   -0.491604
    25  C    0.274810
    27  F   -0.150254
 Electronic spatial extent (au):  <R**2>=           4238.6898
 Charge=              0.0000 electrons
 Dipole moment (field-independent basis, Debye):
    X=              0.8907    Y=              2.1184    Z=              0.2943  Tot=              2.3168
 Quadrupole moment (field-independent basis, Debye-Ang):
   XX=            -72.2750   YY=           -100.3660   ZZ=            -86.4618
   XY=             -3.6081   XZ=              1.0297   YZ=              0.0263
 Traceless Quadrupole moment (field-independent basis, Debye-Ang):
   XX=             14.0926   YY=            -13.9984   ZZ=             -0.0942
   XY=             -3.6081   XZ=              1.0297   YZ=              0.0263
 Octapole moment (field-independent basis, Debye-Ang**2):
  XXX=             26.0975  YYY=             12.7278  ZZZ=              0.2469  XYY=             -5.1537
  XXY=             25.4066  XXZ=              7.2227  XZZ=             -8.3733  YZZ=              2.0834
  YYZ=              0.9887  XYZ=              1.9552
 Hexadecapole moment (field-independent basis, Debye-Ang**3):
 XXXX=          -3622.4075 YYYY=          -1206.5128 ZZZZ=           -306.2144 XXXY=             26.7483
 XXXZ=             40.7467 YYYX=             -5.3509 YYYZ=             -1.3129 ZZZX=            -11.1789
 ZZZY=             -0.0341 XXYY=           -921.1211 XXZZ=           -733.3413 YYZZ=           -239.7548
 XXYZ=              8.6678 YYXZ=             -0.0239 ZZXY=             12.0613
 N-N= 9.471873291790D+02 E-N=-3.604494978007D+03  KE= 7.286022325132D+02
 Calling FoFJK, ICntrl=  10005127 FMM=F ISym2X=0 I1Cent= 0 IOpClX= 0 NMat=1 NMatS=1 NMatT=0.
 ***** Axes restored to original set *****
 -------------------------------------------------------------------
 Center     Atomic                   Forces (Hartrees/Bohr)
 Number     Number              X              Y              Z
 -------------------------------------------------------------------
      1        6          -0.012239186    0.001987371   -0.009637688
      2        1           0.000081209   -0.000886171    0.000009456
      3        1           0.003294124   -0.002999906    0.000042698
      4        6           0.002238102   -0.016893558    0.007206340
      5        1          -0.000455165    0.002929677   -0.001099627
      6        7           0.033820591    0.003051657   -0.000526478
      7        1          -0.000393639   -0.002552968    0.001282479
      8        1           0.000951369    0.001471757    0.003067651
      9        1          -0.000740616    0.003465442   -0.004024655
     10        6          -0.035678416    0.048695339    0.017177317
     11        1          -0.002035409    0.001329273    0.015176926
     12        6          -0.002569689    0.146893961   -0.017328854
     13        6           0.109192578   -0.030459137   -0.044413568
     14        1           0.007153512   -0.031520005   -0.009088406
     15        8          -0.104090103   -0.098125629    0.025014242
     16        6           0.005410045   -0.014704564    0.020850893
     17        6           0.015309082   -0.003833421    0.000817805
     18        6           0.015642509   -0.003579597   -0.000634063
     19        8          -0.017228111    0.011164657    0.005987985
     20        6          -0.007495663   -0.008754261   -0.010497510
     21        6          -0.002803026   -0.005050868   -0.009436486
     22        1          -0.003650171   -0.008946233    0.002371748
     23        1           0.005956495   -0.000346943    0.002464415
     24        1          -0.007219872   -0.002667540   -0.001063326
     25        6          -0.000519917    0.006353565    0.003087789
     26        1           0.006203460   -0.001767131    0.001597512
     27        9          -0.008134094    0.005745233    0.001595405
 -------------------------------------------------------------------
 Cartesian Forces:  Max     0.146893961 RMS     0.028831192

 GradGradGradGradGradGradGradGradGradGradGradGradGradGradGradGradGradGrad
 Berny optimization.
 FormGI is forming the generalized inverse of G from B-inverse, IUseBI=4.
 Internal  Forces:  Max     0.196546580 RMS     0.026231203
 Search for a local minimum.
 Step number   1 out of a maximum of  134
 All quantities printed in internal units (Hartrees-Bohrs-Radians)
 Mixed Optimization -- RFO/linear search
 Second derivative matrix not updated -- first step.
 ITU=  0
     Eigenvalues ---    0.00862   0.00918   0.01265   0.01579   0.01862
     Eigenvalues ---    0.01928   0.01999   0.02021   0.02092   0.02160
     Eigenvalues ---    0.02196   0.02207   0.02218   0.02254   0.02276
     Eigenvalues ---    0.02306   0.02322   0.02338   0.02389   0.02404
     Eigenvalues ---    0.07402   0.07517   0.07603   0.07615   0.15729
     Eigenvalues ---    0.15993   0.15998   0.15999   0.16000   0.16000
     Eigenvalues ---    0.16000   0.16000   0.16000   0.16000   0.16000
     Eigenvalues ---    0.16000   0.22003   0.22062   0.22365   0.23499
     Eigenvalues ---    0.23574   0.24578   0.24871   0.24958   0.24976
     Eigenvalues ---    0.25000   0.25000   0.25000   0.32903   0.33361
     Eigenvalues ---    0.33857   0.34264   0.34312   0.34321   0.34346
     Eigenvalues ---    0.34571   0.34715   0.34814   0.36529   0.36624
     Eigenvalues ---    0.37149   0.39788   0.40518   0.42699   0.42890
     Eigenvalues ---    0.45677   0.46318   0.48306   0.49803   0.51106
     Eigenvalues ---    0.52734   0.53462   0.54405   0.58146   0.58951
 RFO step:  Lambda=-2.03607282D-01 EMin= 8.61890757D-03
 Linear search not attempted -- first point.
 Maximum step size (   0.300) exceeded in Quadratic search.
    -- Step size scaled by   0.497
 Iteration  1 RMS(Cart)=  0.10432698 RMS(Int)=  0.00466378
 Iteration  2 RMS(Cart)=  0.00843542 RMS(Int)=  0.00048252
 Iteration  3 RMS(Cart)=  0.00005426 RMS(Int)=  0.00048100
 Iteration  4 RMS(Cart)=  0.00000010 RMS(Int)=  0.00048100
 Variable       Old X    -DE/DX   Delta X   Delta X   Delta X     New X
                                 (Linear)    (Quad)   (Total)
    R1        2.06141  -0.00053   0.00000  -0.00048  -0.00048   2.06093
    R2        2.08423  -0.00343   0.00000  -0.00317  -0.00317   2.08106
    R3        2.75621  -0.01174   0.00000  -0.01014  -0.01014   2.74607
    R4        2.06750   0.00253   0.00000   0.00230   0.00230   2.06980
    R5        2.05979   0.00264   0.00000   0.00238   0.00238   2.06216
    R6        2.76417  -0.00832   0.00000  -0.00725  -0.00725   2.75692
    R7        2.06887  -0.00343   0.00000  -0.00312  -0.00312   2.06575
    R8        2.07572  -0.00089   0.00000  -0.00082  -0.00082   2.07490
    R9        2.56525   0.00906   0.00000   0.00610   0.00610   2.57134
   R10        2.09222  -0.01393   0.00000  -0.01299  -0.01299   2.07923
   R11        2.60064   0.00280   0.00000   0.00198   0.00198   2.60262
   R12        2.71842   0.08240   0.00000   0.06805   0.06805   2.78648
   R13        2.06806  -0.00939   0.00000  -0.00854  -0.00854   2.05953
   R14        2.51780  -0.01459   0.00000  -0.00914  -0.00914   2.50866
   R15        2.67806  -0.00209   0.00000  -0.00164  -0.00164   2.67642
   R16        2.65503   0.00525   0.00000   0.00408   0.00408   2.65911
   R17        2.68140  -0.00963   0.00000  -0.00767  -0.00767   2.67373
   R18        2.57203  -0.01630   0.00000  -0.01108  -0.01108   2.56095
   R19        2.60850   0.00861   0.00000   0.00630   0.00630   2.61480
   R20        2.57959   0.01047   0.00000   0.00706   0.00706   2.58665
   R21        2.06792  -0.00842   0.00000  -0.00764  -0.00764   2.06028
   R22        1.82365   0.00606   0.00000   0.00403   0.00403   1.82768
   R23        2.03263   0.00631   0.00000   0.00551   0.00551   2.03814
   R24        2.61609   0.00008   0.00000   0.00012   0.00012   2.61621
   R25        2.63755  -0.00316   0.00000  -0.00243  -0.00243   2.63511
   R26        2.52438   0.00877   0.00000   0.00555   0.00555   2.52993
   R27        2.06377  -0.00634   0.00000  -0.00573  -0.00573   2.05804
    A1        1.88885  -0.00010   0.00000   0.00039   0.00039   1.88924
    A2        1.90976   0.00025   0.00000   0.00054   0.00054   1.91030
    A3        1.90166   0.00027   0.00000   0.00025   0.00025   1.90191
    A4        1.91879   0.00319   0.00000   0.00442   0.00442   1.92321
    A5        1.90927  -0.00207   0.00000  -0.00322  -0.00322   1.90605
    A6        1.93483  -0.00153   0.00000  -0.00236  -0.00236   1.93248
    A7        1.91068   0.00091   0.00000   0.00113   0.00112   1.91180
    A8        1.91389  -0.00160   0.00000  -0.00285  -0.00285   1.91103
    A9        1.90790  -0.00305   0.00000  -0.00369  -0.00371   1.90418
   A10        1.92093  -0.00177   0.00000  -0.00265  -0.00266   1.91827
   A11        1.90664   0.00813   0.00000   0.01144   0.01143   1.91807
   A12        1.90371  -0.00261   0.00000  -0.00335  -0.00335   1.90036
   A13        2.02692   0.00766   0.00000   0.00838   0.00838   2.03530
   A14        2.11960  -0.00862   0.00000  -0.00947  -0.00947   2.11014
   A15        2.13533   0.00091   0.00000   0.00097   0.00097   2.13630
   A16        1.94983   0.00550   0.00000   0.00733   0.00721   1.95704
   A17        2.23169  -0.00341   0.00000  -0.00388  -0.00399   2.22769
   A18        2.10084  -0.00160   0.00000  -0.00237  -0.00249   2.09835
   A19        2.07032   0.05705   0.00000   0.06714   0.06708   2.13741
   A20        2.05645  -0.01927   0.00000  -0.02028  -0.02031   2.03614
   A21        2.13130  -0.03540   0.00000  -0.04260  -0.04269   2.08862
   A22        1.37815   0.19655   0.00000   0.21487   0.21355   1.59169
   A23        2.37102  -0.07263   0.00000  -0.07897  -0.08018   2.29084
   A24        2.48608  -0.13556   0.00000  -0.15431  -0.15408   2.33200
   A25        2.08706   0.00162   0.00000   0.00157   0.00156   2.08861
   A26        2.08042   0.00065   0.00000   0.00051   0.00050   2.08092
   A27        2.11119  -0.00267   0.00000  -0.00297  -0.00299   2.10820
   A28        2.11080   0.00292   0.00000   0.00299   0.00299   2.11379
   A29        2.05871   0.00655   0.00000   0.00760   0.00760   2.06631
   A30        2.11368  -0.00948   0.00000  -0.01059  -0.01059   2.10309
   A31        2.06680  -0.00006   0.00000  -0.00030  -0.00031   2.06649
   A32        2.10796  -0.00168   0.00000  -0.00219  -0.00218   2.10578
   A33        2.10835   0.00175   0.00000   0.00251   0.00251   2.11086
   A34        1.91476   0.00019   0.00000   0.00026   0.00026   1.91502
   A35        2.02873   0.00895   0.00000   0.01117   0.01117   2.03989
   A36        2.13069  -0.00870   0.00000  -0.00978  -0.00977   2.12092
   A37        2.12375  -0.00026   0.00000  -0.00141  -0.00142   2.12233
   A38        2.12459   0.00125   0.00000   0.00115   0.00115   2.12573
   A39        2.05866   0.00567   0.00000   0.00632   0.00632   2.06499
   A40        2.09993  -0.00693   0.00000  -0.00748  -0.00748   2.09245
   A41        2.07434   0.00365   0.00000   0.00437   0.00437   2.07871
   A42        2.11845  -0.00242   0.00000  -0.00301  -0.00301   2.11544
   A43        2.09029  -0.00124   0.00000  -0.00139  -0.00139   2.08891
    D1       -0.10910  -0.00037   0.00000  -0.00038  -0.00038  -0.10948
    D2        2.97833  -0.00131   0.00000  -0.00264  -0.00264   2.97569
    D3        1.96307   0.00158   0.00000   0.00309   0.00309   1.96616
    D4       -1.23269   0.00064   0.00000   0.00083   0.00083  -1.23185
    D5       -2.20690   0.00010   0.00000   0.00045   0.00044  -2.20646
    D6        0.88053  -0.00084   0.00000  -0.00182  -0.00182   0.87871
    D7       -1.04699  -0.00196   0.00000  -0.00361  -0.00362  -1.05061
    D8        2.14930  -0.00068   0.00000  -0.00097  -0.00098   2.14832
    D9        3.13139   0.00055   0.00000   0.00086   0.00085   3.13225
   D10        0.04450   0.00183   0.00000   0.00349   0.00350   0.04799
   D11        1.04165  -0.00021   0.00000  -0.00050  -0.00050   1.04115
   D12       -2.04525   0.00107   0.00000   0.00213   0.00215  -2.04310
   D13        3.11599   0.00432   0.00000   0.00966   0.00969   3.12568
   D14        0.01854  -0.00872   0.00000  -0.01893  -0.01897  -0.00044
   D15       -0.08316   0.00350   0.00000   0.00746   0.00750  -0.07566
   D16        3.10257  -0.00954   0.00000  -0.02113  -0.02116   3.08141
   D17        2.93270   0.02594   0.00000   0.05694   0.05703   2.98973
   D18        0.02476   0.02003   0.00000   0.04342   0.04326   0.06802
   D19       -0.16136   0.01175   0.00000   0.02594   0.02610  -0.13527
   D20       -3.06930   0.00585   0.00000   0.01242   0.01233  -3.05698
   D21        1.79419   0.05351   0.00000   0.10530   0.10741   1.90160
   D22       -1.63614   0.00886   0.00000   0.03855   0.03667  -1.59947
   D23       -1.59157   0.06269   0.00000   0.12344   0.12533  -1.46625
   D24        1.26128   0.01804   0.00000   0.05670   0.05459   1.31586
   D25       -2.99154   0.00260   0.00000   0.01578   0.01426  -2.97729
   D26        0.25109   0.00717   0.00000   0.02582   0.02431   0.27539
   D27       -0.32624  -0.00378   0.00000  -0.01823  -0.01672  -0.34296
   D28        2.91639   0.00080   0.00000  -0.00819  -0.00667   2.90972
   D29        0.09052   0.00747   0.00000   0.01665   0.01666   0.10718
   D30       -3.05041   0.00745   0.00000   0.01661   0.01662  -3.03379
   D31        3.12925   0.00302   0.00000   0.00665   0.00666   3.13591
   D32       -0.01168   0.00299   0.00000   0.00661   0.00662  -0.00506
   D33        3.05167  -0.00733   0.00000  -0.01637  -0.01635   3.03532
   D34       -0.10275  -0.00646   0.00000  -0.01448  -0.01447  -0.11722
   D35        0.01255  -0.00294   0.00000  -0.00647  -0.00646   0.00610
   D36        3.14132  -0.00208   0.00000  -0.00457  -0.00457   3.13674
   D37        0.00547   0.00189   0.00000   0.00417   0.00418   0.00965
   D38       -3.13680   0.00193   0.00000   0.00423   0.00422  -3.13258
   D39       -3.12916  -0.00041   0.00000  -0.00092  -0.00092  -3.13008
   D40        0.00556  -0.00184   0.00000  -0.00404  -0.00404   0.00151
   D41        0.01309  -0.00044   0.00000  -0.00097  -0.00096   0.01213
   D42       -3.13537  -0.00188   0.00000  -0.00409  -0.00409  -3.13946
   D43       -0.00719   0.00160   0.00000   0.00356   0.00357  -0.00362
   D44        3.13036   0.00049   0.00000   0.00111   0.00110   3.13146
   D45       -3.13595   0.00077   0.00000   0.00170   0.00172  -3.13423
   D46        0.00160  -0.00035   0.00000  -0.00075  -0.00075   0.00084
   D47       -0.00036   0.00060   0.00000   0.00129   0.00128   0.00092
   D48       -3.12651   0.00154   0.00000   0.00340   0.00339  -3.12312
   D49        3.13399  -0.00088   0.00000  -0.00196  -0.00195   3.13204
   D50        0.00783   0.00007   0.00000   0.00016   0.00016   0.00800
   D51        0.00123  -0.00049   0.00000  -0.00105  -0.00105   0.00018
   D52        3.12764  -0.00143   0.00000  -0.00314  -0.00315   3.12449
   D53       -3.13623   0.00063   0.00000   0.00143   0.00143  -3.13480
   D54       -0.00982  -0.00031   0.00000  -0.00066  -0.00067  -0.01048
         Item               Value     Threshold  Converged?
 Maximum Force            0.196547     0.000450     NO 
 RMS     Force            0.026231     0.000300     NO 
 Maximum Displacement     0.444325     0.001800     NO 
 RMS     Displacement     0.104222     0.001200     NO 
 Predicted change in Energy=-8.928373D-02
 GradGradGradGradGradGradGradGradGradGradGradGradGradGradGradGradGradGrad

                          Input orientation:                          
 ---------------------------------------------------------------------
 Center     Atomic      Atomic             Coordinates (Angstroms)
 Number     Number       Type             X           Y           Z
 ---------------------------------------------------------------------
      1          6           0        0.314869    0.018900    8.592425
      2          1           0        1.130983    0.742295    8.584565
      3          1           0       -0.471112    0.393149    9.266904
      4          6           0        0.324242    0.768029    6.230601
      5          1           0        0.114474    1.801127    6.512611
      6          7           0       -0.210138   -0.133008    7.245962
      7          1           0        0.690331   -0.937376    8.972191
      8          1           0       -0.136440    0.553349    5.262788
      9          1           0        1.410457    0.632410    6.145005
     10          6           0       -1.103713   -1.115894    6.951082
     11          1           0       -1.416663   -1.088827    5.896593
     12          6           0       -1.625131   -2.062359    7.804982
     13          6           0       -2.727430   -2.960081    7.413450
     14          1           0       -1.338034   -1.986126    8.853575
     15          8           0       -1.903510   -4.000247    7.374303
     16          6           0       -4.131106   -2.830244    7.550340
     17          6           0       -4.963080   -3.929432    7.268111
     18          6           0       -4.682626   -1.559309    7.837433
     19          8           0       -4.441649   -5.148043    6.985872
     20          6           0       -6.333452   -3.738571    7.284178
     21          6           0       -6.044964   -1.426533    7.841151
     22          1           0       -4.036013   -0.710247    8.060217
     23          1           0       -3.476160   -5.107016    7.025285
     24          1           0       -6.948176   -4.599795    7.075253
     25          6           0       -6.888767   -2.502397    7.567320
     26          1           0       -7.968364   -2.361851    7.595326
     27          9           0       -6.565204   -0.225981    8.124635
 ---------------------------------------------------------------------
                    Distance matrix (angstroms):
                    1          2          3          4          5
     1  C    0.000000
     2  H    1.090598   0.000000
     3  H    1.101250   1.776006   0.000000
     4  C    2.477801   2.488502   3.161054   0.000000
     5  H    2.746292   2.539175   3.148244   1.091249   0.000000
     6  N    1.453160   2.087251   2.104557   1.458899   2.093813
     7  H    1.095289   1.779248   1.790560   3.249422   3.725660
     8  H    3.402323   3.560373   4.021270   1.093149   1.783806
     9  H    2.750740   2.457973   3.652917   1.097990   1.783425
    10  C    2.448293   3.333916   2.835565   2.471298   3.191433
    11  H    3.390100   4.131428   3.801227   2.567144   3.328017
    12  C    2.952169   4.008739   3.081963   3.780188   4.429782
    13  C    4.418133   5.474162   4.446394   4.960911   5.617565
    14  H    2.611592   3.689537   2.565803   4.150725   4.683286
    15  O    4.749586   5.758870   4.993560   5.385851   6.202476
    16  C    5.382403   6.443775   5.170341   5.877024   6.368000
    17  C    6.723086   7.790743   6.546577   7.148310   7.693610
    18  C    5.294876   6.297113   4.857194   5.750403   6.004985
    19  O    7.204358   8.264752   7.188400   7.634399   8.323052
    20  C    7.747921   8.802668   7.441059   8.108290   8.535767
    21  C    6.565148   7.533305   6.034223   6.926525   7.079652
    22  H    4.443544   5.392835   3.922002   4.954252   5.092016
    23  H    6.565276   7.607336   6.656350   7.042069   7.802431
    24  H    8.739907   9.802487   8.466711   9.078272   9.548266
    25  C    7.700659   8.710866   7.242864   8.031811   8.287225
    26  H    8.676067   9.665010   8.160453   8.968051   9.156141
    27  F    6.900304   7.770482   6.231056   7.213867   7.164208
                    6          7          8          9         10
     6  N    0.000000
     7  H    2.106590   0.000000
     8  H    2.099880   4.082338   0.000000
     9  H    2.103401   3.312973   1.782539   0.000000
    10  C    1.360696   2.708384   2.563655   3.166603   0.000000
    11  H    2.046971   3.731175   2.176563   3.319183   1.100281
    12  C    2.457051   2.826539   3.939654   4.385441   1.377250
    13  C    3.789084   4.266392   4.866495   5.624683   2.500254
    14  H    2.700114   2.286527   4.559222   4.663398   2.105158
    15  O    4.223685   4.320004   5.321304   5.827097   3.022959
    16  C    4.768828   5.371300   5.713051   6.683851   3.530328
    17  C    6.083073   6.619467   6.885717   7.917938   4.786566
    18  C    4.731524   5.526585   5.635595   6.692802   3.713604
    19  O    6.566879   6.929097   7.349130   8.268485   5.234621
    20  C    7.106091   7.747878   7.804458   8.965005   5.859997
    21  C    6.006051   6.847096   6.743778   7.918299   5.030376
    22  H    3.953927   4.818881   4.962757   5.927461   3.161189
    23  H    5.954524   6.207736   6.804401   7.589133   4.643605
    24  H    8.085944   8.680926   8.731533   9.904952   6.805199
    25  C    7.093755   7.865474   7.761596   8.984826   5.980718
    26  H    8.079596   8.882448   8.676299   9.951448   7.006490
    27  F    6.416196   7.339429   7.080009   8.262381   5.656594
                   11         12         13         14         15
    11  H    0.000000
    12  C    2.152480   0.000000
    13  C    2.742363   1.474539   0.000000
    14  H    3.091128   1.089855   2.225527   0.000000
    15  O    3.301062   2.004592   1.327524   2.562166   0.000000
    16  C    3.624308   2.633326   1.416299   3.195656   2.522316
    17  C    4.746279   3.862136   2.441085   4.408072   3.062231
    18  C    3.828149   3.098772   2.442276   3.521507   3.727754
    19  O    5.178252   4.257366   2.812214   4.808166   2.812555
    20  C    5.755115   5.024860   3.691362   5.521620   4.438579
    21  C    5.031552   4.465479   3.679773   4.846993   4.898325
    22  H    3.418419   2.775915   2.681875   3.088103   3.980220
    23  H    4.654172   3.647489   2.306642   4.201689   1.954477
    24  H    6.656859   5.941877   4.540676   6.439518   5.088963
    25  C    5.893507   5.287341   4.189257   5.721156   5.208991
    26  H    6.887022   6.353759   5.278101   6.759115   6.286147
[...]
 Alpha virt. eigenvalues --    0.05665   0.06059   0.06761   0.07449   0.07916
 Alpha virt. eigenvalues --    0.08099   0.08969   0.09267   0.09654   0.09800
 Alpha virt. eigenvalues --    0.10291   0.11252   0.11990   0.12667   0.13546
 Alpha virt. eigenvalues --    0.14019   0.14404   0.14782   0.15391   0.15743
 Alpha virt. eigenvalues --    0.15992   0.16176   0.16612   0.16884   0.17137
 Alpha virt. eigenvalues --    0.17557   0.17910   0.18016   0.18582   0.18928
 Alpha virt. eigenvalues --    0.19390   0.19556   0.19958   0.20252   0.20690
 Alpha virt. eigenvalues --    0.21076   0.21473   0.21890   0.22151   0.22381
 Alpha virt. eigenvalues --    0.22982   0.23458   0.23936   0.24325   0.24709
 Alpha virt. eigenvalues --    0.25320   0.25542   0.26316   0.27438   0.27742
 Alpha virt. eigenvalues --    0.28280   0.28918   0.28993   0.29459   0.30194
 Alpha virt. eigenvalues --    0.30629   0.30857   0.31656   0.31846   0.32386
 Alpha virt. eigenvalues --    0.33195   0.33448   0.33531   0.34569   0.35228
 Alpha virt. eigenvalues --    0.35479   0.36088   0.36170   0.36989   0.37294
 Alpha virt. eigenvalues --    0.37808   0.38241   0.38370   0.38855   0.39766
 Alpha virt. eigenvalues --    0.40377   0.40821   0.41509   0.42115   0.42964
 Alpha virt. eigenvalues --    0.43772   0.43986   0.44836   0.45543   0.46086
 Alpha virt. eigenvalues --    0.46898   0.48072   0.49729   0.50338   0.50969
 Alpha virt. eigenvalues --    0.51463   0.52114   0.53227   0.54047   0.55162
 Alpha virt. eigenvalues --    0.56273   0.57111   0.58707   0.59226   0.60494
 Alpha virt. eigenvalues --    0.60841   0.61802   0.63779   0.64828   0.65186
 Alpha virt. eigenvalues --    0.66481   0.66974   0.67652   0.67951   0.68349
 Alpha virt. eigenvalues --    0.68855   0.70525   0.71231   0.71749   0.71883
 Alpha virt. eigenvalues --    0.72702   0.72939   0.73784   0.75003   0.75868
 Alpha virt. eigenvalues --    0.76150   0.76711   0.78256   0.78726   0.79797
 Alpha virt. eigenvalues --    0.80414   0.80881   0.82073   0.82946   0.84413
 Alpha virt. eigenvalues --    0.85233   0.86316   0.89124   0.90641   0.91349
 Alpha virt. eigenvalues --    0.92402   0.93494   0.95667   0.96642   0.96950
 Alpha virt. eigenvalues --    0.97625   0.98813   0.99586   1.00418   1.02287
 Alpha virt. eigenvalues --    1.02775   1.04672   1.05208   1.06813   1.08241
 Alpha virt. eigenvalues --    1.09413   1.10088   1.10705   1.12397   1.15051
 Alpha virt. eigenvalues --    1.16891   1.17560   1.18124   1.19763   1.20894
 Alpha virt. eigenvalues --    1.21860   1.23412   1.24407   1.26164   1.28332
 Alpha virt. eigenvalues --    1.29730   1.30693   1.33582   1.35592   1.36036
 Alpha virt. eigenvalues --    1.37395   1.39293   1.41707   1.46395   1.47223
 Alpha virt. eigenvalues --    1.49088   1.51654   1.51967   1.52322   1.52821
 Alpha virt. eigenvalues --    1.53108   1.54929   1.56120   1.57975   1.58929
 Alpha virt. eigenvalues --    1.60649   1.61935   1.62927   1.63419   1.63601
 Alpha virt. eigenvalues --    1.64162   1.64858   1.65712   1.67328   1.68250
 Alpha virt. eigenvalues --    1.70169   1.70336   1.73964   1.74240   1.74706
 Alpha virt. eigenvalues --    1.75753   1.77464   1.78584   1.79360   1.81260
 Alpha virt. eigenvalues --    1.82470   1.84602   1.85782   1.87075   1.88010
 Alpha virt. eigenvalues --    1.89524   1.91475   1.93059   1.95732   1.96485
 Alpha virt. eigenvalues --    1.98137   1.98598   2.01261   2.02971   2.04331
 Alpha virt. eigenvalues --    2.04893   2.05800   2.06595   2.08430   2.10621
 Alpha virt. eigenvalues --    2.11364   2.11905   2.14162   2.15044   2.16751
 Alpha virt. eigenvalues --    2.18282   2.20272   2.22833   2.23420   2.25032
 Alpha virt. eigenvalues --    2.26485   2.27352   2.30384   2.33332   2.35662
 Alpha virt. eigenvalues --    2.37600   2.40823   2.43234   2.44162   2.49046
 Alpha virt. eigenvalues --    2.50491   2.52357   2.54056   2.54844   2.57249
 Alpha virt. eigenvalues --    2.57843   2.60859   2.62855   2.65865   2.66834
 Alpha virt. eigenvalues --    2.68610   2.70536   2.71447   2.72459   2.73437
 Alpha virt. eigenvalues --    2.74345   2.76943   2.78347   2.79025   2.79652
 Alpha virt. eigenvalues --    2.80594   2.81967   2.82373   2.83983   2.85306
 Alpha virt. eigenvalues --    2.86143   2.87859   2.89522   2.92901   2.94336
 Alpha virt. eigenvalues --    2.97423   2.99495   3.01677   3.03687   3.04878
 Alpha virt. eigenvalues --    3.08125   3.10020   3.13463   3.14544   3.15665
 Alpha virt. eigenvalues --    3.16755   3.17255   3.19661   3.24808   3.27826
 Alpha virt. eigenvalues --    3.28368   3.28666   3.33710   3.35427   3.38445
 Alpha virt. eigenvalues --    3.43312   3.47332   3.47822   3.56680   3.57527
 Alpha virt. eigenvalues --    3.66525   3.67850   3.70295   3.74414   3.76950
 Alpha virt. eigenvalues --    3.80269   3.83310   3.84165   3.87513   3.87689
 Alpha virt. eigenvalues --    3.91013   3.94962   3.95099   3.95911   4.02938
 Alpha virt. eigenvalues --    4.06874   4.12157   4.14384   4.17508   4.21018
 Alpha virt. eigenvalues --    4.25470   4.26623   4.36101   4.52911   4.92310
 Alpha virt. eigenvalues --    4.96109   4.99155   5.12711   5.18417   5.19458
 Alpha virt. eigenvalues --    5.42834   5.57065   5.83028   5.90317   6.44216
 Alpha virt. eigenvalues --    6.57228   6.86297  23.67892  23.95786  23.98485
 Alpha virt. eigenvalues --   24.01669  24.06433  24.07947  24.12602  24.15493
 Alpha virt. eigenvalues --   24.20936  24.27278  24.29522  35.71783  50.09922
 Alpha virt. eigenvalues --   50.13176  66.94671
          Condensed to atoms (all electrons):
               1          2          3          4          5          6
     1  C    5.168626   0.386184   0.393473  -0.070143   0.008784   0.232823
     2  H    0.386184   0.506296  -0.029607   0.010066  -0.007563  -0.054858
     3  H    0.393473  -0.029607   0.549160  -0.007194   0.002308  -0.069116
     4  C   -0.070143   0.010066  -0.007194   5.166372   0.401981   0.257887
     5  H    0.008784  -0.007563   0.002308   0.401981   0.586672  -0.063293
     6  N    0.232823  -0.054858  -0.069116   0.257887  -0.063293   6.913552
     7  H    0.433297  -0.010974  -0.048810   0.007472   0.001267  -0.045698
     8  H   -0.005176   0.003927  -0.002407   0.391006  -0.033545  -0.094990
     9  H   -0.006102  -0.002631   0.002623   0.433633  -0.070069  -0.060641
    10  C   -0.324816   0.035776   0.004181  -0.066084  -0.036296   0.261362
    11  H    0.008211  -0.001154   0.000718  -0.032139   0.008669  -0.076743
    12  C    0.300677   0.006252   0.008854  -0.194273   0.018745  -0.327715
    13  C   -0.029814  -0.009611   0.018062  -0.018983   0.009705  -0.013715
    14  H    0.024674  -0.001947  -0.002747  -0.011764   0.002974  -0.041377
    15  O   -0.005061  -0.000506   0.000060  -0.001888  -0.000052  -0.001750
    16  C   -0.128563  -0.007848   0.011926   0.030591   0.004051  -0.064561
    17  C   -0.006384  -0.000448  -0.000955   0.004357   0.000822  -0.022520
    18  C    0.040180   0.000515  -0.009683   0.019993  -0.001128   0.059236
    19  O    0.000029   0.000000   0.000041  -0.000173   0.000000  -0.000275
    20  C    0.002762   0.000079  -0.001493   0.000582   0.000126  -0.005005
    21  C    0.005983   0.000467   0.004945  -0.003690  -0.000761   0.030501
    22  H    0.005117   0.000537  -0.005930   0.001155  -0.000660   0.008656
    23  H   -0.000677  -0.000071  -0.000031   0.000255  -0.000012   0.000854
    24  H    0.000003   0.000001  -0.000018  -0.000031  -0.000001   0.000010
    25  C   -0.002323  -0.000199   0.002054   0.001706   0.000070  -0.001663
    26  H   -0.000067  -0.000005   0.000037   0.000035   0.000002   0.000010
    27  F   -0.000120  -0.000007   0.000125  -0.000014   0.000002  -0.000025
               7          8          9         10         11         12
     1  C    0.433297  -0.005176  -0.006102  -0.324816   0.008211   0.300677
     2  H   -0.010974   0.003927  -0.002631   0.035776  -0.001154   0.006252
     3  H   -0.048810  -0.002407   0.002623   0.004181   0.000718   0.008854
     4  C    0.007472   0.391006   0.433633  -0.066084  -0.032139  -0.194273
     5  H    0.001267  -0.033545  -0.070069  -0.036296   0.008669   0.018745
     6  N   -0.045698  -0.094990  -0.060641   0.261362  -0.076743  -0.327715
     7  H    0.520512  -0.000975  -0.001330   0.014213  -0.003735   0.008814
     8  H   -0.000975   0.552565  -0.017073   0.097495  -0.008961  -0.016958
     9  H   -0.001330  -0.017073   0.569909   0.000077  -0.002160  -0.011067
    10  C    0.014213   0.097495   0.000077   8.660568   0.207326  -2.137731
    11  H   -0.003735  -0.008961  -0.002160   0.207326   0.547354   0.225844
    12  C    0.008814  -0.016958  -0.011067  -2.137731   0.225844  15.232798
    13  C   -0.052906  -0.001353  -0.006189  -0.960750   0.019625   2.342718
    14  H   -0.005904  -0.002695  -0.001767  -0.227415   0.024627   0.703523
    15  O   -0.000293   0.001627   0.000196  -0.006264  -0.007359  -0.640953
    16  C   -0.004645   0.000424   0.002180   1.039967   0.008615  -5.444631
    17  C   -0.001066  -0.000090   0.000314   0.045540   0.028682  -1.379648
    18  C    0.003575   0.000129  -0.001338  -0.038438  -0.077432  -2.120020
    19  O   -0.000128   0.000065  -0.000004  -0.007991  -0.001305  -0.025198
    20  C   -0.000454  -0.000283   0.000027  -0.134657   0.005857  -0.727926
    21  C    0.000755   0.001557  -0.000507   0.140009  -0.024252   0.846158
    22  H    0.000850   0.000640   0.000046  -0.034833  -0.005684  -0.060722
    23  H    0.000243   0.000066   0.000026   0.006157  -0.002187  -0.003575
    24  H   -0.000002   0.000014  -0.000002  -0.001677  -0.000137  -0.000271
    25  C    0.000191  -0.000179   0.000012   0.123653   0.002922  -0.431528
    26  H    0.000006  -0.000004   0.000001   0.002716   0.000080  -0.007365
    27  F    0.000011  -0.000004   0.000001   0.001045   0.000024  -0.003595
              13         14         15         16         17         18
     1  C   -0.029814   0.024674  -0.005061  -0.128563  -0.006384   0.040180
     2  H   -0.009611  -0.001947  -0.000506  -0.007848  -0.000448   0.000515
     3  H    0.018062  -0.002747   0.000060   0.011926  -0.000955  -0.009683
     4  C   -0.018983  -0.011764  -0.001888   0.030591   0.004357   0.019993
     5  H    0.009705   0.002974  -0.000052   0.004051   0.000822  -0.001128
     6  N   -0.013715  -0.041377  -0.001750  -0.064561  -0.022520   0.059236
     7  H   -0.052906  -0.005904  -0.000293  -0.004645  -0.001066   0.003575
     8  H   -0.001353  -0.002695   0.001627   0.000424  -0.000090   0.000129
     9  H   -0.006189  -0.001767   0.000196   0.002180   0.000314  -0.001338
    10  C   -0.960750  -0.227415  -0.006264   1.039967   0.045540  -0.038438
    11  H    0.019625   0.024627  -0.007359   0.008615   0.028682  -0.077432
    12  C    2.342718   0.703523  -0.640953  -5.444631  -1.379648  -2.120020
    13  C   14.483001   0.014073   0.780268  -2.005242  -1.457467  -4.150492
    14  H    0.014073   0.535091   0.004794  -0.066238   0.006830  -0.130613
    15  O    0.780268   0.004794   8.059691   0.035196   0.149502  -0.127355
    16  C   -2.005242  -0.066238   0.035196  17.025335   0.716221  -3.555362
    17  C   -1.457467   0.006830   0.149502   0.716221  15.820529  -5.558199
    18  C   -4.150492  -0.130613  -0.127355  -3.555362  -5.558199  22.308936
    19  O   -0.111424   0.000676  -0.030526   0.145590   0.320545   0.059011
    20  C   -3.619166   0.005244  -0.048787  -2.670143  -1.697012   4.355024
    21  C    1.843264  -0.029395  -0.014592  -1.171924   0.195692  -3.443765
    22  H   -0.098531  -0.007010  -0.000219  -0.249793  -0.009360   0.998805
    23  H    0.025097  -0.001891   0.091865  -0.205618   0.097308   0.007676
    24  H   -0.017940  -0.000105   0.000272  -0.105008  -0.158373   0.103055
    25  C   -1.100776  -0.011273  -0.003630   1.437921  -0.795841  -1.898942
    26  H    0.002977  -0.000198   0.000079   0.122525   0.072531  -0.187716
    27  F   -0.001624  -0.000393  -0.000023   0.030707   0.009410  -0.094470
              19         20         21         22         23         24
     1  C    0.000029   0.002762   0.005983   0.005117  -0.000677   0.000003
     2  H    0.000000   0.000079   0.000467   0.000537  -0.000071   0.000001
     3  H    0.000041  -0.001493   0.004945  -0.005930  -0.000031  -0.000018
     4  C   -0.000173   0.000582  -0.003690   0.001155   0.000255  -0.000031
     5  H    0.000000   0.000126  -0.000761  -0.000660  -0.000012  -0.000001
     6  N   -0.000275  -0.005005   0.030501   0.008656   0.000854   0.000010
     7  H   -0.000128  -0.000454   0.000755   0.000850   0.000243  -0.000002
     8  H    0.000065  -0.000283   0.001557   0.000640   0.000066   0.000014
     9  H   -0.000004   0.000027  -0.000507   0.000046   0.000026  -0.000002
    10  C   -0.007991  -0.134657   0.140009  -0.034833   0.006157  -0.001677
    11  H   -0.001305   0.005857  -0.024252  -0.005684  -0.002187  -0.000137
    12  C   -0.025198  -0.727926   0.846158  -0.060722  -0.003575  -0.000271
    13  C   -0.111424  -3.619166   1.843264  -0.098531   0.025097  -0.017940
    14  H    0.000676   0.005244  -0.029395  -0.007010  -0.001891  -0.000105
    15  O   -0.030526  -0.048787  -0.014592  -0.000219   0.091865   0.000272
    16  C    0.145590  -2.670143  -1.171924  -0.249793  -0.205618  -0.105008
    17  C    0.320545  -1.697012   0.195692  -0.009360   0.097308  -0.158373
    18  C    0.059011   4.355024  -3.443765   0.998805   0.007676   0.103055
    19  O    8.014095  -0.363150   0.003602  -0.000740   0.245951  -0.025977
    20  C   -0.363150  11.640724  -1.442461   0.160030   0.052570   0.583448
    21  C    0.003602  -1.442461  10.941191  -0.213262   0.012783   0.025716
    22  H   -0.000740   0.160030  -0.213262   0.482734   0.001019   0.004304
    23  H    0.245951   0.052570   0.012783   0.001019   0.368574   0.002057
    24  H   -0.025977   0.583448   0.025716   0.004304   0.002057   0.455685
    25  C    0.023909   0.326241  -1.471049  -0.201945  -0.012579  -0.101099
    26  H    0.001531  -0.127507  -0.179475  -0.007603  -0.000311  -0.014687
    27  F    0.000142  -0.008547   0.373943  -0.033362   0.000173   0.000899
              25         26         27
     1  C   -0.002323  -0.000067  -0.000120
     2  H   -0.000199  -0.000005  -0.000007
     3  H    0.002054   0.000037   0.000125
     4  C    0.001706   0.000035  -0.000014
     5  H    0.000070   0.000002   0.000002
     6  N   -0.001663   0.000010  -0.000025
     7  H    0.000191   0.000006   0.000011
     8  H   -0.000179  -0.000004  -0.000004
     9  H    0.000012   0.000001   0.000001
    10  C    0.123653   0.002716   0.001045
    11  H    0.002922   0.000080   0.000024
    12  C   -0.431528  -0.007365  -0.003595
    13  C   -1.100776   0.002977  -0.001624
    14  H   -0.011273  -0.000198  -0.000393
    15  O   -0.003630   0.000079  -0.000023
    16  C    1.437921   0.122525   0.030707
    17  C   -0.795841   0.072531   0.009410
    18  C   -1.898942  -0.187716  -0.094470
    19  O    0.023909   0.001531   0.000142
    20  C    0.326241  -0.127507  -0.008547
    21  C   -1.471049  -0.179475   0.373943
    22  H   -0.201945  -0.007603  -0.033362
    23  H   -0.012579  -0.000311   0.000173
    24  H   -0.101099  -0.014687   0.000899
    25  C    9.669157   0.624655  -0.223491
    26  H    0.624655   0.461463  -0.020749
    27  F   -0.223491  -0.020749   9.138205
 Mulliken charges:
               1
     1  C   -0.431577
     2  H    0.177330
     3  H    0.179422
     4  C   -0.320715
     5  H    0.167202
     6  N    0.179056
     7  H    0.185713
     8  H    0.135176
     9  H    0.171836
    10  C   -0.663133
    11  H    0.154694
    12  C   -0.161206
    13  C    0.117194
    14  H    0.220225
    15  O   -0.234293
    16  C    1.068326
    17  C   -0.380920
    18  C   -0.561184
    19  O   -0.248299
    20  C   -0.286122
    21  C   -0.431430
    22  H    0.265759
    23  H    0.314278
    24  H    0.249865
    25  C    0.044026
    26  H    0.257037
    27  F   -0.168260
 Sum of Mulliken charges =   0.00000
 Mulliken charges with hydrogens summed into heavy atoms:
               1
     1  C    0.110887
     4  C    0.153499
     6  N    0.179056
    10  C   -0.508439
    12  C    0.059019
    13  C    0.117194
    15  O   -0.234293
    16  C    1.068326
    17  C   -0.380920
    18  C   -0.295424
    19  O    0.065979
    20  C   -0.036257
    21  C   -0.431430
    25  C    0.301063
    27  F   -0.168260
 Electronic spatial extent (au):  <R**2>=           4268.3049
 Charge=              0.0000 electrons
 Dipole moment (field-independent basis, Debye):
    X=             -2.5918    Y=              2.6072    Z=              0.7175  Tot=              3.7457
 Quadrupole moment (field-independent basis, Debye-Ang):
   XX=            -65.3862   YY=           -102.6609   ZZ=            -85.0428
   XY=             -4.5130   XZ=              0.0287   YZ=              0.0370
 Traceless Quadrupole moment (field-independent basis, Debye-Ang):
   XX=             18.9771   YY=            -18.2976   ZZ=             -0.6795
   XY=             -4.5130   XZ=              0.0287   YZ=              0.0370
 Octapole moment (field-independent basis, Debye-Ang**2):
  XXX=            -27.0850  YYY=             12.5817  ZZZ=              1.0315  XYY=            -14.2921
  XXY=             23.8227  XXZ=             12.2871  XZZ=            -14.3913  YZZ=              2.4513
  YYZ=              1.6020  XYZ=              2.9400
 Hexadecapole moment (field-independent basis, Debye-Ang**3):
 XXXX=          -3496.6569 YYYY=          -1193.3927 ZZZZ=           -306.8678 XXXY=              5.5169
 XXXZ=             32.7845 YYYX=             -9.1178 YYYZ=             -1.8748 ZZZX=            -13.4588
 ZZZY=             -0.7640 XXYY=           -932.0401 XXZZ=           -718.7306 YYZZ=           -235.6986
 XXYZ=              8.8588 YYXZ=             -2.6435 ZZXY=              9.6515
 N-N= 9.457606465676D+02 E-N=-3.602108217436D+03  KE= 7.285208799646D+02
 1\1\GINC-NXN37\FOpt\RwB97XD TD-FC\6-311++G(d,p)\C11H12F1N1O2\BTX008\04
 -Sep-2017\0\\# wb97xd 6-311++g** opt td=(nstates=1,root=1)\\title\\0,1
 \C,0.4285745006,0.0305420262,8.5494957122\H,1.2960324034,0.6799155886,
 8.4464202334\H,-0.2929452913,0.5048963631,9.2194410878\C,0.3335405937,
 0.6418572584,6.1415826852\H,0.137611942,1.6961863523,6.3531634314\N,-0
 .1557188783,-0.1860257385,7.2327199806\H,0.7487736726,-0.9198089253,8.
 9800567489\H,-0.1682371466,0.3671809476,5.2155901444\H,1.4096035946,0.
 4977454399,6.0203504205\C,-1.1340835831,-1.0643739986,7.0449525877\H,-
 1.4905798885,-1.1642798201,6.0258213768\C,-1.7387448497,-1.8371347319,
 8.0247334081\C,-2.7084047103,-2.8618450664,7.6311310529\H,-1.356215834
 7,-1.8308585398,9.0435390214\O,-1.9674977585,-3.8887506117,7.346187551
 8\C,-4.1151187086,-2.7594631069,7.6103628988\C,-4.9126786241,-3.868728
 0363,7.199318151\C,-4.7811596291,-1.565904965,7.9753466053\O,-4.341678
 9699,-5.0448358886,6.8418768663\C,-6.2887586223,-3.7591053037,7.155966
 9428\C,-6.1550478552,-1.5042104622,7.9163605998\H,-4.2255854669,-0.697
 7370539,8.3086890199\H,-3.3767467594,-4.9606136389,6.9339853575\H,-6.8
 617073698,-4.6215184647,6.8364688457\C,-6.9343848818,-2.5716250291,7.5
 131139156\H,-8.0119804264,-2.4815116635,7.4829835749\F,-6.7632404523,-
 0.3440709311,8.2725027793\\Version=ES64L-G09RevD.01\State=1-A\HF=-731.
 345773\RMSD=2.979e-09\RMSF=5.881e-06\Dipole=3.7366543,3.1347453,-0.138
 0482\PG=C01 [X(C11H12F1N1O2)]\\@


 THE WORLD IS MADE UP OF THE WILLS, THE WON'TS, AND THE CANT'S:
 THE WILLS DO EVERYTHING,
 THE WON'TS DO NOTHING,
 THE CAN'TS CAN'T DO ANYTHING.

                               -- FROM WALT DISNEY'S "BLACK HOLE"
 Job cpu time:       1 days  1 hours 26 minutes  4.2 seconds.
 File lengths (MBytes):  RWF=    172 Int=      0 D2E=      0 Chk=     26 Scr=      1
 Normal termination of Gaussian 09 at Mon Sep  4 23:44:02 2017.
