 Entering Gaussian System, Link 0=g09
 Input=4_opt.com
 Output=4_opt.out
 Initial command:
 /share/apps/gaussian/g09_D01/g09/l1.exe "/tmp/3820132.1.serial.q/Gau-13564.inp" -scrdir="/tmp/3820132.1.serial.q/"
 Entering Link 1 = /share/apps/gaussian/g09_D01/g09/l1.exe PID=     13565.
  
 Copyright (c) 1988,1990,1992,1993,1995,1998,2003,2009,2013,
            Gaussian, Inc.  All Rights Reserved.
  
 This is part of the Gaussian(R) 09 program.  It is based on
 the Gaussian(R) 03 system (copyright 2003, Gaussian, Inc.),
 the Gaussian(R) 98 system (copyright 1998, Gaussian, Inc.),
 the Gaussian(R) 94 system (copyright 1995, Gaussian, Inc.),
 the Gaussian 92(TM) system (copyright 1992, Gaussian, Inc.),
 the Gaussian 90(TM) system (copyright 1990, Gaussian, Inc.),
 the Gaussian 88(TM) system (copyright 1988, Gaussian, Inc.),
 the Gaussian 86(TM) system (copyright 1986, Carnegie Mellon
 University), and the Gaussian 82(TM) system (copyright 1983,
 Carnegie Mellon University). Gaussian is a federally registered
 trademark of Gaussian, Inc.
  
 This software contains proprietary and confidential information,
 including trade secrets, belonging to Gaussian, Inc.
  
 This software is provided under written license and may be
 used, copied, transmitted, or stored only in accord with that
 written license.
  
 The following legend is applicable only to US Government
 contracts under FAR:
  
                    RESTRICTED RIGHTS LEGEND
  
 Use, reproduction and disclosure by the US Government is
 subject to restrictions as set forth in subparagraphs (a)
 and (c) of the Commercial Computer Software - Restricted
 Rights clause in FAR 52.227-19.
  
 Gaussian, Inc.
 340 Quinnipiac St., Bldg. 40, Wallingford CT 06492
  
  
 ---------------------------------------------------------------
 Warning -- This program may not be used in any manner that
 competes with the business of Gaussian, Inc. or will provide
 assistance to any competitor of Gaussian, Inc.  The licensee
 of this program is prohibited from giving any competitor of
 Gaussian, Inc. access to this program.  By using this program,
 the user acknowledges that Gaussian, Inc. is engaged in the
 business of creating and licensing software in the field of
 computational chemistry and represents and warrants to the
 licensee that it is not a competitor of Gaussian, Inc. and that
 it will not use this program in any manner prohibited above.
 ---------------------------------------------------------------
  

 Cite this work as:
 Gaussian 09, Revision D.01,
 M. J. Frisch, G. W. Trucks, H. B. Schlegel, G. E. Scuseria, 
 M. A. Robb, J. R. Cheeseman, G. Scalmani, V. Barone, B. Mennucci, 
 G. A. Petersson, H. Nakatsuji, M. Caricato, X. Li, H. P. Hratchian, 
 A. F. Izmaylov, J. Bloino, G. Zheng, J. L. Sonnenberg, M. Hada, 
 M. Ehara, K. Toyota, R. Fukuda, J. Hasegawa, M. Ishida, T. Nakajima, 
 Y. Honda, O. Kitao, H. Nakai, T. Vreven, J. A. Montgomery, Jr., 
 J. E. Peralta, F. Ogliaro, M. Bearpark, J. J. Heyd, E. Brothers, 
 K. N. Kudin, V. N. Staroverov, T. Keith, R. Kobayashi, J. Normand, 
 K. Raghavachari, A. Rendell, J. C. Burant, S. S. Iyengar, J. Tomasi, 
 M. Cossi, N. Rega, J. M. Millam, M. Klene, J. E. Knox, J. B. Cross, 
 V. Bakken, C. Adamo, J. Jaramillo, R. Gomperts, R. E. Stratmann, 
 O. Yazyev, A. J. Austin, R. Cammi, C. Pomelli, J. W. Ochterski, 
 R. L. Martin, K. Morokuma, V. G. Zakrzewski, G. A. Voth, 
 P. Salvador, J. J. Dannenberg, S. Dapprich, A. D. Daniels, 
 O. Farkas, J. B. Foresman, J. V. Ortiz, J. Cioslowski, 
 and D. J. Fox, Gaussian, Inc., Wallingford CT, 2013.
 
 ******************************************
 Gaussian 09:  ES64L-G09RevD.01 24-Apr-2013
                18-Oct-2016 
 ******************************************
 %chk=4_opt.chk
 %mem=2GB
 %nproc=4
 Will use up to    4 processors via shared memory.
 -----------------------
 # wb97xd 6-311++g** opt
 -----------------------
 1/14=-1,18=20,19=15,26=3,38=1/1,3;
 2/9=110,12=2,17=6,18=5,40=1/2;
 3/5=4,6=6,7=1111,11=2,16=1,25=1,30=1,71=1,74=-58/1,2,3;
 4//1;
 5/5=2,38=5/2;
 6/7=2,8=2,9=2,10=2,28=1/1;
 7//1,2,3,16;
 1/14=-1,18=20,19=15,26=3/3(2);
 2/9=110/2;
 99//99;
 2/9=110/2;
 3/5=4,6=6,7=1111,11=2,16=1,25=1,30=1,71=1,74=-58/1,2,3;
 4/5=5,16=3,69=1/1;
 5/5=2,38=5/2;
 7//1,2,3,16;
 1/14=-1,18=20,19=15,26=3/3(-5);
 2/9=110/2;
 6/7=2,8=2,9=2,10=2,19=2,28=1/1;
 99/9=1/99;
 -----------
 Geom Opt s0
 -----------
 Symbolic Z-matrix:
 Charge =  0 Multiplicity = 1
 C                     3.7278    1.62815   0.03633 
 H                     4.77567   1.90727   0.1444 
 H                     3.34538   2.05127  -0.9003 
 C                     4.82693  -0.5935   -0.10793 
 H                     5.28356  -0.42712  -1.09033 
 N                     3.61374   0.1847    0.04867 
 H                     3.16648   2.0626    0.86888 
 H                     4.59639  -1.65403  -0.00943 
 H                     5.55388  -0.32581   0.66408 
 C                     2.40431  -0.39839   0.02783 
 H                     2.40635  -1.48458   0.01595 
 C                     1.19474   0.22496   0.02907 
 C                    -0.00074  -0.59666   0.03008 
 H                     1.12141   1.30131   0.0189 
 O                     0.08313  -1.838     0.04384 
 C                    -1.34554   0.03599   0.00857 
 C                    -2.49709  -0.78732  -0.00514 
 C                    -1.53222   1.42727   0.00225 
 O                    -2.43165  -2.11913   0.0008 
 C                    -3.77098  -0.20504  -0.02634 
 C                    -2.78957   1.99635  -0.01799 
 H                    -0.6716    2.08377   0.01392 
 H                    -1.47209  -2.3492    0.019 
 H                    -4.62956  -0.86581  -0.03682 
 C                    -3.91345   1.16644  -0.03254 
 F                    -2.92973   3.33905  -0.02317 
 H                    -4.8936    1.59531  -0.0488 
 

 GradGradGradGradGradGradGradGradGradGradGradGradGradGradGradGradGradGrad
 Berny optimization.
 Initialization pass.
                           ----------------------------
                           !    Initial Parameters    !
                           ! (Angstroms and Degrees)  !
 --------------------------                            --------------------------
 ! Name  Definition              Value          Derivative Info.                !
 --------------------------------------------------------------------------------
 ! R1    R(1,2)                  1.0898         estimate D2E/DX2                !
 ! R2    R(1,3)                  1.0966         estimate D2E/DX2                !
 ! R3    R(1,6)                  1.448          estimate D2E/DX2                !
 ! R4    R(1,7)                  1.0941         estimate D2E/DX2                !
 ! R5    R(4,5)                  1.096          estimate D2E/DX2                !
 ! R6    R(4,6)                  1.4498         estimate D2E/DX2                !
 ! R7    R(4,8)                  1.0898         estimate D2E/DX2                !
 ! R8    R(4,9)                  1.0937         estimate D2E/DX2                !
 ! R9    R(6,10)                 1.3428         estimate D2E/DX2                !
 ! R10   R(10,11)                1.0863         estimate D2E/DX2                !
 ! R11   R(10,12)                1.3607         estimate D2E/DX2                !
 ! R12   R(12,13)                1.4506         estimate D2E/DX2                !
 ! R13   R(12,14)                1.0789         estimate D2E/DX2                !
 ! R14   R(13,15)                1.2442         estimate D2E/DX2                !
 ! R15   R(13,16)                1.4863         estimate D2E/DX2                !
 ! R16   R(16,17)                1.4157         estimate D2E/DX2                !
 ! R17   R(16,18)                1.4038         estimate D2E/DX2                !
 ! R18   R(17,19)                1.3334         estimate D2E/DX2                !
 ! R19   R(17,20)                1.4008         estimate D2E/DX2                !
 ! R20   R(18,21)                1.3803         estimate D2E/DX2                !
 ! R21   R(18,22)                1.0825         estimate D2E/DX2                !
 ! R22   R(19,23)                0.9869         estimate D2E/DX2                !
 ! R23   R(20,24)                1.0835         estimate D2E/DX2                !
 ! R24   R(20,25)                1.3789         estimate D2E/DX2                !
 ! R25   R(21,25)                1.3972         estimate D2E/DX2                !
 ! R26   R(21,26)                1.35           estimate D2E/DX2                !
 ! R27   R(25,27)                1.07           estimate D2E/DX2                !
 ! A1    A(2,1,3)              108.7349         estimate D2E/DX2                !
 ! A2    A(2,1,6)              109.2826         estimate D2E/DX2                !
 ! A3    A(2,1,7)              108.4307         estimate D2E/DX2                !
 ! A4    A(3,1,6)              111.3731         estimate D2E/DX2                !
 ! A5    A(3,1,7)              108.5308         estimate D2E/DX2                !
 ! A6    A(6,1,7)              110.4234         estimate D2E/DX2                !
 ! A7    A(5,4,6)              111.3431         estimate D2E/DX2                !
 ! A8    A(5,4,8)              108.4749         estimate D2E/DX2                !
 ! A9    A(5,4,9)              108.5797         estimate D2E/DX2                !
 ! A10   A(6,4,8)              109.6073         estimate D2E/DX2                !
 ! A11   A(6,4,9)              110.4006         estimate D2E/DX2                !
 ! A12   A(8,4,9)              108.3616         estimate D2E/DX2                !
 ! A13   A(1,6,4)              117.9197         estimate D2E/DX2                !
 ! A14   A(1,6,10)             120.2438         estimate D2E/DX2                !
 ! A15   A(4,6,10)             121.26           estimate D2E/DX2                !
 ! A16   A(6,10,11)            115.6378         estimate D2E/DX2                !
 ! A17   A(6,10,12)            126.9902         estimate D2E/DX2                !
 ! A18   A(11,10,12)           117.3704         estimate D2E/DX2                !
 ! A19   A(10,12,13)           118.2363         estimate D2E/DX2                !
 ! A20   A(10,12,14)           121.1593         estimate D2E/DX2                !
 ! A21   A(13,12,14)           120.6013         estimate D2E/DX2                !
 ! A22   A(12,13,15)           120.633          estimate D2E/DX2                !
 ! A23   A(12,13,16)           120.302          estimate D2E/DX2                !
 ! A24   A(15,13,16)           119.0645         estimate D2E/DX2                !
 ! A25   A(13,16,17)           119.2471         estimate D2E/DX2                !
 ! A26   A(13,16,18)           122.8365         estimate D2E/DX2                !
 ! A27   A(17,16,18)           117.9164         estimate D2E/DX2                !
 ! A28   A(16,17,19)           122.7449         estimate D2E/DX2                !
 ! A29   A(16,17,20)           119.877          estimate D2E/DX2                !
 ! A30   A(19,17,20)           117.3781         estimate D2E/DX2                !
 ! A31   A(16,18,21)           121.9939         estimate D2E/DX2                !
 ! A32   A(16,18,22)           119.6897         estimate D2E/DX2                !
 ! A33   A(21,18,22)           118.3163         estimate D2E/DX2                !
 ! A34   A(17,19,23)           106.2981         estimate D2E/DX2                !
 ! A35   A(17,20,24)           117.8583         estimate D2E/DX2                !
 ! A36   A(17,20,25)           120.4949         estimate D2E/DX2                !
 ! A37   A(24,20,25)           121.6468         estimate D2E/DX2                !
 ! A38   A(18,21,25)           119.2098         estimate D2E/DX2                !
 ! A39   A(18,21,26)           120.3107         estimate D2E/DX2                !
 ! A40   A(25,21,26)           120.4795         estimate D2E/DX2                !
 ! A41   A(20,25,21)           120.5079         estimate D2E/DX2                !
 ! A42   A(20,25,27)           119.5623         estimate D2E/DX2                !
 ! A43   A(21,25,27)           119.9298         estimate D2E/DX2                !
 ! D1    D(2,1,6,4)            -13.4849         estimate D2E/DX2                !
 ! D2    D(2,1,6,10)           175.1118         estimate D2E/DX2                !
 ! D3    D(3,1,6,4)            106.669          estimate D2E/DX2                !
 ! D4    D(3,1,6,10)           -64.7343         estimate D2E/DX2                !
 ! D5    D(7,1,6,4)           -132.6736         estimate D2E/DX2                !
 ! D6    D(7,1,6,10)            55.9231         estimate D2E/DX2                !
 ! D7    D(5,4,6,1)            -63.8899         estimate D2E/DX2                !
 ! D8    D(5,4,6,10)           107.4215         estimate D2E/DX2                !
 ! D9    D(8,4,6,1)            176.0861         estimate D2E/DX2                !
 ! D10   D(8,4,6,10)           -12.6025         estimate D2E/DX2                !
 ! D11   D(9,4,6,1)             56.7938         estimate D2E/DX2                !
 ! D12   D(9,4,6,10)          -131.8948         estimate D2E/DX2                !
 ! D13   D(1,6,10,11)          178.6481         estimate D2E/DX2                !
 ! D14   D(1,6,10,12)           -1.8191         estimate D2E/DX2                !
 ! D15   D(4,6,10,11)            7.5366         estimate D2E/DX2                !
 ! D16   D(4,6,10,12)         -172.9307         estimate D2E/DX2                !
 ! D17   D(6,10,12,13)        -178.8301         estimate D2E/DX2                !
 ! D18   D(6,10,12,14)           1.815          estimate D2E/DX2                !
 ! D19   D(11,10,12,13)          0.6956         estimate D2E/DX2                !
 ! D20   D(11,10,12,14)       -178.6593         estimate D2E/DX2                !
 ! D21   D(10,12,13,15)          0.7511         estimate D2E/DX2                !
 ! D22   D(10,12,13,16)       -178.9787         estimate D2E/DX2                !
 ! D23   D(14,12,13,15)       -179.8902         estimate D2E/DX2                !
 ! D24   D(14,12,13,16)          0.3799         estimate D2E/DX2                !
 ! D25   D(12,13,16,17)        179.2972         estimate D2E/DX2                !
 ! D26   D(12,13,16,18)         -0.7586         estimate D2E/DX2                !
 ! D27   D(15,13,16,17)         -0.4368         estimate D2E/DX2                !
 ! D28   D(15,13,16,18)        179.5074         estimate D2E/DX2                !
 ! D29   D(13,16,17,19)          0.0215         estimate D2E/DX2                !
 ! D30   D(13,16,17,20)       -179.9581         estimate D2E/DX2                !
 ! D31   D(18,16,17,19)       -179.9254         estimate D2E/DX2                !
 ! D32   D(18,16,17,20)          0.0949         estimate D2E/DX2                !
 ! D33   D(13,16,18,21)        179.9907         estimate D2E/DX2                !
 ! D34   D(13,16,18,22)         -0.038          estimate D2E/DX2                !
 ! D35   D(17,16,18,21)         -0.0644         estimate D2E/DX2                !
 ! D36   D(17,16,18,22)        179.9069         estimate D2E/DX2                !
 ! D37   D(16,17,19,23)          0.2018         estimate D2E/DX2                !
 ! D38   D(20,17,19,23)       -179.818          estimate D2E/DX2                !
 ! D39   D(16,17,20,24)        179.9737         estimate D2E/DX2                !
 ! D40   D(16,17,20,25)         -0.0695         estimate D2E/DX2                !
 ! D41   D(19,17,20,24)         -0.0071         estimate D2E/DX2                !
 ! D42   D(19,17,20,25)        179.9497         estimate D2E/DX2                !
 ! D43   D(16,18,21,25)          0.0065         estimate D2E/DX2                !
 ! D44   D(16,18,21,26)        179.9846         estimate D2E/DX2                !
 ! D45   D(22,18,21,25)       -179.9653         estimate D2E/DX2                !
 ! D46   D(22,18,21,26)          0.0129         estimate D2E/DX2                !
 ! D47   D(17,20,25,21)          0.0099         estimate D2E/DX2                !
 ! D48   D(17,20,25,27)        179.9995         estimate D2E/DX2                !
 ! D49   D(24,20,25,21)        179.965          estimate D2E/DX2                !
 ! D50   D(24,20,25,27)         -0.0454         estimate D2E/DX2                !
 ! D51   D(18,21,25,20)          0.022          estimate D2E/DX2                !
 ! D52   D(18,21,25,27)       -179.9676         estimate D2E/DX2                !
 ! D53   D(26,21,25,20)       -179.9561         estimate D2E/DX2                !
 ! D54   D(26,21,25,27)          0.0543         estimate D2E/DX2                !
 --------------------------------------------------------------------------------
 Trust Radius=3.00D-01 FncErr=1.00D-07 GrdErr=1.00D-06
 Number of steps in this run=    134 maximum allowed number of steps=    162.
 GradGradGradGradGradGradGradGradGradGradGradGradGradGradGradGradGradGrad

                          Input orientation:                          
 ---------------------------------------------------------------------
 Center     Atomic      Atomic             Coordinates (Angstroms)
 Number     Number       Type             X           Y           Z
 ---------------------------------------------------------------------
      1          6           0        3.727801    1.628145    0.036330
      2          1           0        4.775665    1.907272    0.144395
      3          1           0        3.345378    2.051267   -0.900297
      4          6           0        4.826931   -0.593504   -0.107932
      5          1           0        5.283559   -0.427116   -1.090329
      6          7           0        3.613736    0.184696    0.048668
      7          1           0        3.166484    2.062598    0.868877
      8          1           0        4.596388   -1.654034   -0.009431
      9          1           0        5.553881   -0.325812    0.664079
     10          6           0        2.404312   -0.398388    0.027827
     11          1           0        2.406350   -1.484580    0.015950
     12          6           0        1.194736    0.224960    0.029067
     13          6           0       -0.000736   -0.596655    0.030076
     14          1           0        1.121408    1.301311    0.018904
     15          8           0        0.083130   -1.837999    0.043844
     16          6           0       -1.345538    0.035994    0.008573
     17          6           0       -2.497091   -0.787316   -0.005144
     18          6           0       -1.532215    1.427273    0.002253
     19          8           0       -2.431648   -2.119129    0.000800
     20          6           0       -3.770983   -0.205043   -0.026342
     21          6           0       -2.789570    1.996353   -0.017985
     22          1           0       -0.671598    2.083773    0.013922
     23          1           0       -1.472094   -2.349198    0.018999
     24          1           0       -4.629560   -0.865807   -0.036820
     25          6           0       -3.913445    1.166443   -0.032541
     26          9           0       -2.929727    3.339048   -0.023173
     27          1           0       -4.893604    1.595308   -0.048803
 ---------------------------------------------------------------------
                    Distance matrix (angstroms):
                    1          2          3          4          5
     1  C    0.000000
     2  H    1.089775   0.000000
     3  H    1.096608   1.777030   0.000000
     4  C    2.482866   2.513996   3.133314   0.000000
     5  H    2.813155   2.689213   3.151990   1.096037   0.000000
     6  N    1.448001   2.080027   2.111075   1.449814   2.111856
     7  H    1.094057   1.771571   1.778232   3.281176   3.810403
     8  H    3.395473   3.569132   4.010975   1.089760   1.773661
     9  H    2.747105   2.421230   3.602119   1.093671   1.778000
    10  C    2.420440   3.309527   2.783492   2.434252   3.088877
    11  H    3.381672   4.139422   3.771405   2.582359   3.258898
    12  C    2.895755   3.958096   2.970585   3.725788   4.289140
    13  C    4.341862   5.394138   4.367329   4.829640   5.404426
    14  H    2.626863   3.706283   2.520597   4.163810   4.641267
    15  O    5.029696   6.004752   5.163338   4.906674   5.506487
    16  C    5.317376   6.402285   5.185756   6.205579   6.735502
    17  C    6.677234   7.757329   6.556927   7.327307   7.864215
    18  C    5.263960   6.327713   4.999488   6.673411   7.147536
    19  O    7.209864   8.256990   7.181797   7.417973   7.973574
    20  C    7.719862   8.805465   7.516470   8.607072   9.119546
    21  C    6.527990   7.567502   6.198312   8.045280   8.496972
    22  H    4.422987   5.451683   4.119824   6.116901   6.556510
    23  H    6.546638   7.560936   6.589176   6.540358   7.110827
    24  H    8.721848   9.807194   8.535488   9.460678   9.978590
    25  C    7.655492   8.722429   7.363859   8.916124   9.393787
    26  F    6.874111   7.839077   6.465653   8.697004   9.098399
    27  H    8.621887   9.676229   8.295406   9.964095  10.428308
                    6          7          8          9         10
     6  N    0.000000
     7  H    2.097449   0.000000
     8  H    2.085643   4.077917   0.000000
     9  H    2.098455   3.383210   1.770475   0.000000
    10  C    1.342806   2.710115   2.526506   3.214011   0.000000
    11  H    2.060421   3.726628   2.196731   3.416104   1.086259
    12  C    2.419414   2.823116   3.886301   4.439452   1.360749
    13  C    3.698008   4.219774   4.717326   5.597239   2.413208
    14  H    2.731193   2.341868   4.561837   4.765564   2.129530
    15  O    4.068968   5.040080   4.517320   5.709686   2.731414
    16  C    4.961665   5.020517   6.177621   6.939926   3.774975
    17  C    6.187884   6.400157   7.146234   8.091909   4.916920
    18  C    5.294050   4.820005   6.859618   7.329671   4.339348
    19  O    6.469665   7.041270   7.043416   8.211248   5.133049
    20  C    7.395377   7.353371   8.491923   9.351169   6.178558
    21  C    6.654988   6.022084   8.238797   8.687395   5.719554
    22  H    4.687407   3.932209   6.459367   6.707115   3.952536
    23  H    5.682180   6.457758   6.108235   7.339928   4.339615
    24  H    8.310403   8.377001   9.259599  10.221806   7.049682
    25  C    7.591369   7.193125   8.965092   9.609494   6.508947
    26  F    7.264434   6.291968   9.031803   9.266883   6.513294
    27  H    8.624045   8.125608  10.030938  10.646541   7.565730
                   11         12         13         14         15
    11  H    0.000000
    12  C    2.095402   0.000000
    13  C    2.565672   1.450588   0.000000
    14  H    3.067943   1.078894   2.204905   0.000000
    15  O    2.350114   2.343435   1.244250   3.306646   0.000000
    16  C    4.048316   2.547375   1.486338   2.772536   2.356732
    17  C    4.952813   3.828245   2.503873   4.178095   2.786373
    18  C    4.898099   2.980359   2.538205   2.656663   3.643223
    19  O    4.879458   4.318126   2.868470   4.931931   2.530809
    20  C    6.308601   4.984610   3.790950   5.119242   4.186366
    21  C    6.254249   4.360590   3.808359   3.972429   4.791501
    22  H    4.712421   2.634126   2.763152   1.956308   3.993846
    23  H    3.973651   3.706531   2.288323   4.477998   1.637273
    24  H    7.063264   5.925921   4.637125   6.145986   4.812599
    25  C    6.853472   5.194584   4.292054   5.036922   5.000512
    26  F    7.193235   5.168313   4.906279   4.534957   5.990293
    27  H    7.923334   6.241137   5.362003   6.022573   6.046822
                   16         17         18         19         20
    16  C    0.000000
    17  C    1.415663   0.000000
    18  C    1.403761   2.415667   0.000000
    19  O    2.413348   1.333433   3.658681   0.000000
    20  C    2.437643   1.400818   2.770804   2.336296   0.000000
    21  C    2.434942   2.799022   1.380291   4.131060   2.410267
    22  H    2.155835   3.402343   1.082493   4.556570   3.853114
    23  H    2.388570   1.868335   3.776987   0.986918   3.143938
    24  H    3.405893   2.134148   3.853996   2.530425   1.083454
    25  C    2.806021   2.413293   2.395725   3.604416   1.378879
    26  F    3.663445   4.149021   2.368242   5.480908   3.642568
    27  H    3.876019   3.379656   3.365973   4.456537   2.121802
                   21         22         23         24         25
    21  C    0.000000
    22  H    2.120015   0.000000
    23  H    4.541027   4.504670   0.000000
    24  H    3.402628   4.936402   3.489005   0.000000
    25  C    1.397161   3.369455   4.280489   2.154734   0.000000
    26  F    1.350000   2.583841   5.872190   4.535463   2.384953
    27  H    2.142135   4.250631   5.222111   2.475267   1.070000
                   26         27
    26  F    0.000000
    27  H    2.626423   0.000000
 Stoichiometry    C11H12FNO2
 Framework group  C1[X(C11H12FNO2)]
 Deg. of freedom    75
 Full point group                 C1      NOp   1
 Largest Abelian subgroup         C1      NOp   1
 Largest concise Abelian subgroup C1      NOp   1
                         Standard orientation:                         
 ---------------------------------------------------------------------
 Center     Atomic      Atomic             Coordinates (Angstroms)
 Number     Number       Type             X           Y           Z
 ---------------------------------------------------------------------
      1          6           0       -3.773276    1.790616   -0.039576
      2          1           0       -4.785940    2.178423   -0.147861
      3          1           0       -3.347821    2.173052    0.895988
      4          6           0       -5.100398   -0.302472    0.109918
      5          1           0       -5.536357   -0.086790    1.092119
      6          7           0       -3.812020    0.343163   -0.048820
      7          1           0       -3.169783    2.161707   -0.873272
      8          1           0       -4.982998   -1.381603    0.013637
      9          1           0       -5.795537    0.038724   -0.662405
     10          6           0       -2.670791   -0.364124   -0.027157
     11          1           0       -2.787315   -1.444021   -0.012919
     12          6           0       -1.402243    0.128233   -0.030197
     13          6           0       -0.300047   -0.814830   -0.029861
     14          1           0       -1.215850    1.190876   -0.022400
     15          8           0       -0.514314   -2.040442   -0.040901
     16          6           0        1.103968   -0.327431   -0.010228
     17          6           0        2.162320   -1.267519    0.004854
     18          6           0        1.436275    1.036427   -0.007000
     19          8           0        1.956840   -2.585021    0.001828
     20          6           0        3.490508   -0.822740    0.024317
     21          6           0        2.746627    1.469827    0.011538
     22          1           0        0.649654    1.779968   -0.019779
     23          1           0        0.978368   -2.712690   -0.015518
     24          1           0        4.274651   -1.570309    0.035915
     25          6           0        3.776760    0.526096    0.027484
     26          9           0        3.027551    2.790273    0.013757
     27          1           0        4.796677    0.849276    0.042453
 ---------------------------------------------------------------------
 Rotational constants (GHZ):      1.0536263      0.2924996      0.2296758
 Standard basis: 6-311++G(d,p) (5D, 7F)
 There are   429 symmetry adapted cartesian basis functions of A   symmetry.
 There are   414 symmetry adapted basis functions of A   symmetry.
   414 basis functions,   648 primitive gaussians,   429 cartesian basis functions
    55 alpha electrons       55 beta electrons
       nuclear repulsion energy       943.2469084115 Hartrees.
 NAtoms=   27 NActive=   27 NUniq=   27 SFac= 1.00D+00 NAtFMM=   60 NAOKFM=F Big=F
 Integral buffers will be    131072 words long.
 Raffenetti 2 integral format.
 Two-electron integral symmetry is turned on.
 Nuclear repulsion after empirical dispersion term =      943.2317684299 Hartrees.
 One-electron integrals computed using PRISM.
 NBasis=   414 RedAO= T EigKep=  1.71D-06  NBF=   414
 NBsUse=   411 1.00D-06 EigRej=  7.54D-07 NBFU=   411
 ExpMin= 3.60D-02 ExpMax= 1.14D+04 ExpMxC= 1.72D+03 IAcc=3 IRadAn=         5 AccDes= 0.00D+00
 Harris functional with IExCor= 4639 and IRadAn=       5 diagonalized for initial guess.
 HarFok:  IExCor= 4639 AccDes= 0.00D+00 IRadAn=         5 IDoV= 1 UseB2=F ITyADJ=14
 ICtDFT=  3500011 ScaDFX=  1.000000  1.000000  1.000000  1.000000
 FoFCou: FMM=F IPFlag=           0 FMFlag=      100000 FMFlg1=           0
         NFxFlg=           0 DoJE=T BraDBF=F KetDBF=T FulRan=T
         wScrn=  0.000000 ICntrl=     500 IOpCl=  0 I1Cent=   200000004 NGrid=           0
         NMat0=    1 NMatS0=      1 NMatT0=    0 NMatD0=    1 NMtDS0=    0 NMtDT0=    0
 Petite list used in FoFCou.
 Requested convergence on RMS density matrix=1.00D-08 within 128 cycles.
 Requested convergence on MAX density matrix=1.00D-06.
 Requested convergence on             energy=1.00D-06.
 No special actions if energy rises.
 SCF Done:  E(RwB97XD) =  -731.391764402     A.U. after   16 cycles
            NFock= 16  Conv=0.83D-08     -V/T= 2.0038

 **********************************************************************

            Population analysis using the SCF density.

 **********************************************************************

 Orbital symmetries:
       Occupied  (A) (A) (A) (A) (A) (A) (A) (A) (A) (A) (A) (A)
                 (A) (A) (A) (A) (A) (A) (A) (A) (A) (A) (A) (A)
                 (A) (A) (A) (A) (A) (A) (A) (A) (A) (A) (A) (A)
                 (A) (A) (A) (A) (A) (A) (A) (A) (A) (A) (A) (A)
                 (A) (A) (A) (A) (A) (A) (A)
       Virtual   (A) (A) (A) (A) (A) (A) (A) (A) (A) (A) (A) (A)
                 (A) (A) (A) (A) (A) (A) (A) (A) (A) (A) (A) (A)
                 (A) (A) (A) (A) (A) (A) (A) (A) (A) (A) (A) (A)
                 (A) (A) (A) (A) (A) (A) (A) (A) (A) (A) (A) (A)
                 (A) (A) (A) (A) (A) (A) (A) (A) (A) (A) (A) (A)
                 (A) (A) (A) (A) (A) (A) (A) (A) (A) (A) (A) (A)
                 (A) (A) (A) (A) (A) (A) (A) (A) (A) (A) (A) (A)
                 (A) (A) (A) (A) (A) (A) (A) (A) (A) (A) (A) (A)
                 (A) (A) (A) (A) (A) (A) (A) (A) (A) (A) (A) (A)
                 (A) (A) (A) (A) (A) (A) (A) (A) (A) (A) (A) (A)
                 (A) (A) (A) (A) (A) (A) (A) (A) (A) (A) (A) (A)
                 (A) (A) (A) (A) (A) (A) (A) (A) (A) (A) (A) (A)
                 (A) (A) (A) (A) (A) (A) (A) (A) (A) (A) (A) (A)
                 (A) (A) (A) (A) (A) (A) (A) (A) (A) (A) (A) (A)
                 (A) (A) (A) (A) (A) (A) (A) (A) (A) (A) (A) (A)
                 (A) (A) (A) (A) (A) (A) (A) (A) (A) (A) (A) (A)
                 (A) (A) (A) (A) (A) (A) (A) (A) (A) (A) (A) (A)
                 (A) (A) (A) (A) (A) (A) (A) (A) (A) (A) (A) (A)
                 (A) (A) (A) (A) (A) (A) (A) (A) (A) (A) (A) (A)
                 (A) (A) (A) (A) (A) (A) (A) (A) (A) (A) (A) (A)
                 (A) (A) (A) (A) (A) (A) (A) (A) (A) (A) (A) (A)
                 (A) (A) (A) (A) (A) (A) (A) (A) (A) (A) (A) (A)
                 (A) (A) (A) (A) (A) (A) (A) (A) (A) (A) (A) (A)
                 (A) (A) (A) (A) (A) (A) (A) (A) (A) (A) (A) (A)
                 (A) (A) (A) (A) (A) (A) (A) (A) (A) (A) (A) (A)
                 (A) (A) (A) (A) (A) (A) (A) (A) (A) (A) (A) (A)
                 (A) (A) (A) (A) (A) (A) (A) (A) (A) (A) (A) (A)
                 (A) (A) (A) (A) (A) (A) (A) (A) (A) (A) (A) (A)
                 (A) (A) (A) (A) (A) (A) (A) (A) (A) (A) (A) (A)
                 (A) (A) (A) (A) (A) (A) (A) (A)
 The electronic state is 1-A.
 Alpha  occ. eigenvalues --  -24.81646 -19.25605 -19.22768 -14.49400 -10.37933
 Alpha  occ. eigenvalues --  -10.36963 -10.35673 -10.34969 -10.34188 -10.33899
 Alpha  occ. eigenvalues --  -10.30415 -10.30298 -10.30236 -10.29065 -10.27770
 Alpha  occ. eigenvalues --   -1.32977  -1.16728  -1.13201  -1.09122  -0.96860
 Alpha  occ. eigenvalues --   -0.89905  -0.87404  -0.85539  -0.84474  -0.80590
 Alpha  occ. eigenvalues --   -0.75333  -0.71380  -0.69871  -0.65797  -0.64199
 Alpha  occ. eigenvalues --   -0.62992  -0.60813  -0.60023  -0.58768  -0.58364
 Alpha  occ. eigenvalues --   -0.55992  -0.55014  -0.52871  -0.52548  -0.52011
 Alpha  occ. eigenvalues --   -0.51838  -0.51700  -0.50639  -0.49879  -0.49770
 Alpha  occ. eigenvalues --   -0.47532  -0.47221  -0.45562  -0.43605  -0.42050
 Alpha  occ. eigenvalues --   -0.41990  -0.34607  -0.34403  -0.30351  -0.29009
 Alpha virt. eigenvalues --   -0.00411   0.02628   0.04334   0.05150   0.05229
 Alpha virt. eigenvalues --    0.05704   0.05916   0.06870   0.07674   0.08028
 Alpha virt. eigenvalues --    0.08230   0.08370   0.08444   0.10262   0.11115
 Alpha virt. eigenvalues --    0.11694   0.11910   0.12694   0.12959   0.13840
 Alpha virt. eigenvalues --    0.14372   0.14573   0.14862   0.15375   0.15867
 Alpha virt. eigenvalues --    0.15977   0.16508   0.16824   0.16850   0.17410
 Alpha virt. eigenvalues --    0.17730   0.17924   0.18596   0.19054   0.19284
 Alpha virt. eigenvalues --    0.19702   0.20226   0.20478   0.20731   0.21310
 Alpha virt. eigenvalues --    0.21687   0.21876   0.21929   0.22868   0.23162
 Alpha virt. eigenvalues --    0.23694   0.24000   0.24621   0.25288   0.25896
 Alpha virt. eigenvalues --    0.26125   0.26583   0.27135   0.27411   0.27677
 Alpha virt. eigenvalues --    0.27991   0.28547   0.28932   0.29495   0.30413
 Alpha virt. eigenvalues --    0.30610   0.31093   0.32122   0.32266   0.33048
 Alpha virt. eigenvalues --    0.33253   0.34321   0.34818   0.35087   0.35494
 Alpha virt. eigenvalues --    0.36574   0.36915   0.37140   0.38102   0.38657
 Alpha virt. eigenvalues --    0.38748   0.39243   0.39547   0.39850   0.40160
 Alpha virt. eigenvalues --    0.41121   0.42257   0.43027   0.43060   0.43321
 Alpha virt. eigenvalues --    0.43957   0.45261   0.45876   0.46715   0.47652
 Alpha virt. eigenvalues --    0.48738   0.49360   0.50628   0.51207   0.51383
 Alpha virt. eigenvalues --    0.52119   0.53283   0.55374   0.55967   0.57487
 Alpha virt. eigenvalues --    0.58695   0.60685   0.61477   0.61893   0.62510
 Alpha virt. eigenvalues --    0.63328   0.63548   0.65571   0.65747   0.65967
 Alpha virt. eigenvalues --    0.66889   0.67166   0.68870   0.69403   0.69838
 Alpha virt. eigenvalues --    0.70105   0.70497   0.70651   0.71710   0.71999
 Alpha virt. eigenvalues --    0.72804   0.73819   0.74188   0.75869   0.76292
 Alpha virt. eigenvalues --    0.77703   0.78396   0.79551   0.79765   0.80811
 Alpha virt. eigenvalues --    0.81961   0.83465   0.85329   0.86692   0.87632
 Alpha virt. eigenvalues --    0.87824   0.89256   0.92842   0.93846   0.94442
 Alpha virt. eigenvalues --    0.94745   0.94926   0.96884   0.98328   0.99129
 Alpha virt. eigenvalues --    0.99681   1.01606   1.02030   1.02907   1.04419
 Alpha virt. eigenvalues --    1.05015   1.05857   1.07539   1.07592   1.10903
 Alpha virt. eigenvalues --    1.11872   1.12714   1.13948   1.14748   1.15556
 Alpha virt. eigenvalues --    1.17030   1.17842   1.18883   1.19409   1.20047
 Alpha virt. eigenvalues --    1.21463   1.23971   1.24275   1.27999   1.31727
 Alpha virt. eigenvalues --    1.32551   1.33062   1.34211   1.36143   1.37830
 Alpha virt. eigenvalues --    1.39033   1.42418   1.45243   1.46704   1.50346
 Alpha virt. eigenvalues --    1.51208   1.51810   1.52093   1.53187   1.54172
 Alpha virt. eigenvalues --    1.55567   1.57601   1.58479   1.59030   1.60805
 Alpha virt. eigenvalues --    1.61314   1.62592   1.63987   1.64847   1.65331
 Alpha virt. eigenvalues --    1.65596   1.67603   1.68247   1.68984   1.70773
 Alpha virt. eigenvalues --    1.71049   1.72654   1.73244   1.75596   1.76566
 Alpha virt. eigenvalues --    1.77176   1.79300   1.80431   1.81679   1.82582
 Alpha virt. eigenvalues --    1.83365   1.84460   1.86364   1.86769   1.89682
 Alpha virt. eigenvalues --    1.92513   1.94247   1.96000   1.96204   1.98113
 Alpha virt. eigenvalues --    2.00707   2.02819   2.03891   2.04051   2.04484
 Alpha virt. eigenvalues --    2.06033   2.06869   2.07478   2.09148   2.11815
 Alpha virt. eigenvalues --    2.13558   2.13677   2.15858   2.18488   2.18954
 Alpha virt. eigenvalues --    2.20845   2.21825   2.23954   2.24135   2.26095
 Alpha virt. eigenvalues --    2.28281   2.30878   2.31676   2.35600   2.40073
 Alpha virt. eigenvalues --    2.40958   2.42617   2.46612   2.47269   2.50586
 Alpha virt. eigenvalues --    2.50904   2.52355   2.54891   2.56133   2.57348
 Alpha virt. eigenvalues --    2.58709   2.61913   2.63817   2.66286   2.69341
 Alpha virt. eigenvalues --    2.70604   2.71117   2.73378   2.74584   2.75659
 Alpha virt. eigenvalues --    2.76990   2.78667   2.80273   2.80657   2.81965
 Alpha virt. eigenvalues --    2.83245   2.84754   2.85002   2.87262   2.87779
 Alpha virt. eigenvalues --    2.89456   2.90411   2.93806   2.94458   2.95615
 Alpha virt. eigenvalues --    2.96086   2.98680   3.02294   3.03618   3.07923
 Alpha virt. eigenvalues --    3.10333   3.13088   3.16506   3.18205   3.20246
 Alpha virt. eigenvalues --    3.22226   3.23846   3.24923   3.26878   3.30138
 Alpha virt. eigenvalues --    3.31252   3.32665   3.37862   3.42832   3.46449
 Alpha virt. eigenvalues --    3.51747   3.57129   3.61057   3.61997   3.66377
 Alpha virt. eigenvalues --    3.68700   3.71581   3.75088   3.79951   3.80553
 Alpha virt. eigenvalues --    3.83207   3.83843   3.84778   3.88233   3.89361
 Alpha virt. eigenvalues --    3.92753   3.94517   3.96264   4.03985   4.08332
 Alpha virt. eigenvalues --    4.08624   4.13295   4.17787   4.21358   4.28998
 Alpha virt. eigenvalues --    4.29606   4.39818   4.64323   4.95108   4.97381
 Alpha virt. eigenvalues --    4.98377   5.14008   5.17674   5.18441   5.43357
 Alpha virt. eigenvalues --    5.62522   5.90087   5.94306   6.44758   6.58666
 Alpha virt. eigenvalues --    6.88370  23.71064  23.94227  24.01961  24.03175
 Alpha virt. eigenvalues --   24.04496  24.06809  24.08784  24.14882  24.23032
 Alpha virt. eigenvalues --   24.29998  24.31907  35.70168  50.13949  50.19717
 Alpha virt. eigenvalues --   66.96402
          Condensed to atoms (all electrons):
               1          2          3          4          5          6
     1  C    5.244242   0.386464   0.416656  -0.070317   0.013130   0.243796
     2  H    0.386464   0.489004  -0.019271   0.005559  -0.006778  -0.048767
     3  H    0.416656  -0.019271   0.525923  -0.007264   0.000666  -0.054820
     4  C   -0.070317   0.005559  -0.007264   5.179808   0.396208   0.270719
     5  H    0.013130  -0.006778   0.000666   0.396208   0.560037  -0.049182
     6  N    0.243796  -0.048767  -0.054820   0.270719  -0.049182   6.853585
     7  H    0.418666  -0.021101  -0.051975   0.009274   0.001896  -0.035812
     8  H   -0.001935   0.003618  -0.000619   0.411574  -0.029770  -0.093257
     9  H   -0.013876  -0.003233   0.003165   0.411584  -0.064306  -0.049586
    10  C    0.194935   0.017917  -0.005447  -0.066168  -0.032992   0.177526
    11  H    0.005573  -0.001321  -0.002115  -0.035806   0.004376  -0.065909
    12  C    0.127342   0.029638  -0.001241  -0.051178   0.013155  -0.235970
    13  C   -0.302892  -0.017793   0.013922  -0.117285   0.003520   0.004307
    14  H    0.013070   0.001218  -0.015907  -0.002790   0.000505  -0.005817
    15  O   -0.000589   0.000115   0.000216   0.000629  -0.000097   0.003811
    16  C   -0.187574  -0.003988  -0.001057  -0.002815  -0.000683  -0.008232
    17  C   -0.022582   0.000803  -0.001812  -0.005260  -0.000328   0.005886
    18  C   -0.015673  -0.004939   0.007067  -0.012168   0.000428  -0.026702
    19  O   -0.000097  -0.000007   0.000051   0.000278   0.000008  -0.000179
    20  C    0.005768   0.000311  -0.000752  -0.000512   0.000016  -0.000328
    21  C   -0.010529  -0.000651   0.000619   0.001713  -0.000056   0.003971
    22  H    0.004145   0.000110   0.002120  -0.002804  -0.000016  -0.015505
    23  H   -0.001001  -0.000086   0.000092  -0.000155   0.000005  -0.000241
    24  H    0.000099   0.000004  -0.000009   0.000008   0.000000  -0.000032
    25  C   -0.010870  -0.000451  -0.000221  -0.000221  -0.000010   0.003164
    26  F   -0.000202  -0.000012  -0.000064  -0.000001   0.000000   0.000006
    27  H   -0.000207  -0.000009   0.000008   0.000005   0.000000   0.000031
               7          8          9         10         11         12
     1  C    0.418666  -0.001935  -0.013876   0.194935   0.005573   0.127342
     2  H   -0.021101   0.003618  -0.003233   0.017917  -0.001321   0.029638
     3  H   -0.051975  -0.000619   0.003165  -0.005447  -0.002115  -0.001241
     4  C    0.009274   0.411574   0.411584  -0.066168  -0.035806  -0.051178
     5  H    0.001896  -0.029770  -0.064306  -0.032992   0.004376   0.013155
     6  N   -0.035812  -0.093257  -0.049586   0.177526  -0.065909  -0.235970
     7  H    0.532215  -0.003198  -0.001425   0.023714   0.003014  -0.034635
     8  H   -0.003198   0.535061  -0.021441   0.056579  -0.008033   0.003906
     9  H   -0.001425  -0.021441   0.559683  -0.003894   0.000489   0.006178
    10  C    0.023714   0.056579  -0.003894  11.938998   0.316849   3.525257
    11  H    0.003014  -0.008033   0.000489   0.316849   0.465567   0.040183
    12  C   -0.034635   0.003906   0.006178   3.525257   0.040183  12.307900
    13  C   -0.025020   0.002881   0.000994  -4.102391   0.107317   0.904729
    14  H    0.006447  -0.001824   0.000599   0.123173  -0.002373   0.578660
    15  O    0.000663   0.000094   0.000074   0.003476   0.011910  -0.214866
    16  C   -0.007745   0.005049   0.000928  -3.044662  -0.053734  -4.213026
    17  C   -0.001835   0.003589  -0.000244  -1.754423  -0.064637  -3.405377
    18  C    0.002011  -0.003899   0.000502  -1.481088   0.049904  -1.801238
    19  O    0.000035  -0.000107   0.000002   0.005656   0.000284  -0.042303
    20  C   -0.000680   0.000123  -0.000013  -0.146095  -0.003448   0.042577
    21  C    0.002117  -0.000055  -0.000002   0.168407  -0.000124  -0.297567
    22  H   -0.002132   0.000217  -0.000031  -0.149149   0.003884  -0.110133
    23  H   -0.000004   0.000019   0.000034  -0.017983   0.001044  -0.000998
    24  H   -0.000013   0.000003   0.000000   0.001463  -0.000129   0.010210
    25  C   -0.000050   0.000057   0.000012  -0.234206  -0.004149  -0.808552
    26  F   -0.000081   0.000000   0.000000  -0.001692  -0.000051   0.002148
    27  H    0.000010   0.000001   0.000000  -0.002607  -0.000052  -0.016499
              13         14         15         16         17         18
     1  C   -0.302892   0.013070  -0.000589  -0.187574  -0.022582  -0.015673
     2  H   -0.017793   0.001218   0.000115  -0.003988   0.000803  -0.004939
     3  H    0.013922  -0.015907   0.000216  -0.001057  -0.001812   0.007067
     4  C   -0.117285  -0.002790   0.000629  -0.002815  -0.005260  -0.012168
     5  H    0.003520   0.000505  -0.000097  -0.000683  -0.000328   0.000428
     6  N    0.004307  -0.005817   0.003811  -0.008232   0.005886  -0.026702
     7  H   -0.025020   0.006447   0.000663  -0.007745  -0.001835   0.002011
     8  H    0.002881  -0.001824   0.000094   0.005049   0.003589  -0.003899
     9  H    0.000994   0.000599   0.000074   0.000928  -0.000244   0.000502
    10  C   -4.102391   0.123173   0.003476  -3.044662  -1.754423  -1.481088
    11  H    0.107317  -0.002373   0.011910  -0.053734  -0.064637   0.049904
    12  C    0.904729   0.578660  -0.214866  -4.213026  -3.405377  -1.801238
    13  C   13.763764  -0.029510   0.911640   1.766922  -3.917665  -0.375284
    14  H   -0.029510   0.883433  -0.020689   0.100186   0.023830  -0.675531
    15  O    0.911640  -0.020689   8.135394  -0.164423  -0.185285  -0.167369
    16  C    1.766922   0.100186  -0.164423  18.726299   1.529180  -6.699580
    17  C   -3.917665   0.023830  -0.185285   1.529180  15.871738  -4.206128
    18  C   -0.375284  -0.675531  -0.167369  -6.699580  -4.206128  21.918857
    19  O   -0.062698  -0.002282  -0.000223   0.087019   0.346632   0.008619
    20  C   -0.736356  -0.009184  -0.035863  -2.730390   0.796633   1.117598
    21  C   -0.239164  -0.042790   0.005980  -1.346290   0.355721   0.981479
    22  H   -0.057065  -0.180958   0.006623  -0.502503   0.024334   1.527315
    23  H    0.023108  -0.004787   0.072153  -0.149376   0.002159   0.068023
    24  H    0.012931  -0.000809   0.001340  -0.090607  -0.125524   0.053667
    25  C   -1.033236   0.138770  -0.034528   0.898227   0.534588  -2.201466
    26  F    0.010889   0.017860  -0.000007   0.109402   0.009797  -0.155537
    27  H   -0.011794   0.002120  -0.000338   0.121355   0.058327  -0.166084
              19         20         21         22         23         24
     1  C   -0.000097   0.005768  -0.010529   0.004145  -0.001001   0.000099
     2  H   -0.000007   0.000311  -0.000651   0.000110  -0.000086   0.000004
     3  H    0.000051  -0.000752   0.000619   0.002120   0.000092  -0.000009
     4  C    0.000278  -0.000512   0.001713  -0.002804  -0.000155   0.000008
     5  H    0.000008   0.000016  -0.000056  -0.000016   0.000005   0.000000
     6  N   -0.000179  -0.000328   0.003971  -0.015505  -0.000241  -0.000032
     7  H    0.000035  -0.000680   0.002117  -0.002132  -0.000004  -0.000013
     8  H   -0.000107   0.000123  -0.000055   0.000217   0.000019   0.000003
     9  H    0.000002  -0.000013  -0.000002  -0.000031   0.000034   0.000000
    10  C    0.005656  -0.146095   0.168407  -0.149149  -0.017983   0.001463
    11  H    0.000284  -0.003448  -0.000124   0.003884   0.001044  -0.000129
    12  C   -0.042303   0.042577  -0.297567  -0.110133  -0.000998   0.010210
    13  C   -0.062698  -0.736356  -0.239164  -0.057065   0.023108   0.012931
    14  H   -0.002282  -0.009184  -0.042790  -0.180958  -0.004787  -0.000809
    15  O   -0.000223  -0.035863   0.005980   0.006623   0.072153   0.001340
    16  C    0.087019  -2.730390  -1.346290  -0.502503  -0.149376  -0.090607
    17  C    0.346632   0.796633   0.355721   0.024334   0.002159  -0.125524
    18  C    0.008619   1.117598   0.981479   1.527315   0.068023   0.053667
    19  O    8.090554  -0.387951   0.005841  -0.000872   0.259486  -0.024893
    20  C   -0.387951   7.962206  -0.139648   0.086594   0.068169   0.528237
    21  C    0.005841  -0.139648   8.790679  -0.064291   0.011487   0.041209
    22  H   -0.000872   0.086594  -0.064291   0.747992   0.005237   0.004288
    23  H    0.259486   0.068169   0.011487   0.005237   0.302692   0.001621
    24  H   -0.024893   0.528237   0.041209   0.004288   0.001621   0.461133
    25  C    0.013561   0.046989  -1.763854  -0.399111  -0.003792  -0.098936
    26  F    0.000123   0.006735   0.351538  -0.079044   0.000144   0.001257
    27  H    0.001197  -0.069629  -0.211568  -0.012019  -0.000456  -0.016058
              25         26         27
     1  C   -0.010870  -0.000202  -0.000207
     2  H   -0.000451  -0.000012  -0.000009
     3  H   -0.000221  -0.000064   0.000008
     4  C   -0.000221  -0.000001   0.000005
     5  H   -0.000010   0.000000   0.000000
     6  N    0.003164   0.000006   0.000031
     7  H   -0.000050  -0.000081   0.000010
     8  H    0.000057   0.000000   0.000001
     9  H    0.000012   0.000000   0.000000
    10  C   -0.234206  -0.001692  -0.002607
    11  H   -0.004149  -0.000051  -0.000052
    12  C   -0.808552   0.002148  -0.016499
    13  C   -1.033236   0.010889  -0.011794
    14  H    0.138770   0.017860   0.002120
    15  O   -0.034528  -0.000007  -0.000338
    16  C    0.898227   0.109402   0.121355
    17  C    0.534588   0.009797   0.058327
    18  C   -2.201466  -0.155537  -0.166084
    19  O    0.013561   0.000123   0.001197
    20  C    0.046989   0.006735  -0.069629
    21  C   -1.763854   0.351538  -0.211568
    22  H   -0.399111  -0.079044  -0.012019
    23  H   -0.003792   0.000144  -0.000456
    24  H   -0.098936   0.001257  -0.016058
    25  C   10.432967  -0.216609   0.622697
    26  F   -0.216609   9.131221  -0.022895
    27  H    0.622697  -0.022895   0.479683
 Mulliken charges:
               1
     1  C   -0.435541
     2  H    0.193646
     3  H    0.192070
     4  C   -0.312612
     5  H    0.190267
     6  N    0.123535
     7  H    0.185644
     8  H    0.141366
     9  H    0.173805
    10  C    0.488847
    11  H    0.231486
    12  C   -0.358301
    13  C   -0.498769
    14  H    0.105381
    15  O   -0.329840
    16  C    1.862120
    17  C    0.127886
    18  C   -1.742783
    19  O   -0.297736
    20  C   -0.401109
    21  C   -0.604175
    22  H    0.162775
    23  H    0.363409
    24  H    0.239540
    25  C    0.119230
    26  F   -0.164923
    27  H    0.244782
 Sum of Mulliken charges =   0.00000
 Mulliken charges with hydrogens summed into heavy atoms:
               1
     1  C    0.135820
     4  C    0.192826
     6  N    0.123535
    10  C    0.720334
    12  C   -0.252920
    13  C   -0.498769
    15  O   -0.329840
    16  C    1.862120
    17  C    0.127886
    18  C   -1.580008
    19  O    0.065673
    20  C   -0.161568
    21  C   -0.604175
    25  C    0.364011
    26  F   -0.164923
 Electronic spatial extent (au):  <R**2>=           4485.9438
 Charge=              0.0000 electrons
 Dipole moment (field-independent basis, Debye):
    X=             -5.9434    Y=              2.5031    Z=              0.1471  Tot=              6.4507
 Quadrupole moment (field-independent basis, Debye-Ang):
   XX=            -59.2482   YY=            -96.5547   ZZ=            -90.9562
   XY=             -4.8459   XZ=             -0.4665   YZ=             -0.2763
 Traceless Quadrupole moment (field-independent basis, Debye-Ang):
   XX=             23.0048   YY=            -14.3016   ZZ=             -8.7032
   XY=             -4.8459   XZ=             -0.4665   YZ=             -0.2763
 Octapole moment (field-independent basis, Debye-Ang**2):
  XXX=            -89.3132  YYY=             15.1919  ZZZ=              0.5274  XYY=            -38.3602
  XXY=              1.7507  XXZ=              2.5050  XZZ=             -2.4101  YZZ=              2.6679
  YYZ=             -0.4079  XYZ=              0.7347
 Hexadecapole moment (field-independent basis, Debye-Ang**3):
 XXXX=          -3685.7518 YYYY=          -1236.9164 ZZZZ=           -110.7421 XXXY=            -16.1086
 XXXZ=             -0.1605 YYYX=              1.9201 YYYZ=             -0.8108 ZZZX=             -3.1701
 ZZZY=              0.7029 XXYY=           -971.8252 XXZZ=           -803.3438 YYZZ=           -210.8191
 XXYZ=             -3.9060 YYXZ=              1.5513 ZZXY=             12.6821
 N-N= 9.432317684299D+02 E-N=-3.597367056558D+03  KE= 7.286552674046D+02
 Calling FoFJK, ICntrl=      2127 FMM=F ISym2X=0 I1Cent= 0 IOpClX= 0 NMat=1 NMatS=1 NMatT=0.
 ***** Axes restored to original set *****
 -------------------------------------------------------------------
 Center     Atomic                   Forces (Hartrees/Bohr)
 Number     Number              X              Y              Z
 -------------------------------------------------------------------
      1        6          -0.000008706    0.000276863    0.000038057
      2        1          -0.000095559    0.000183207   -0.000008822
      3        1           0.000088692   -0.000046119    0.000051681
      4        6           0.000384411   -0.000224158   -0.000043418
      5        1          -0.000103527    0.000011108    0.000094983
      6        7          -0.001318216   -0.000598723   -0.000153013
      7        1          -0.000014874   -0.000062744   -0.000049759
      8        1          -0.000157863    0.000058778    0.000001689
      9        1          -0.000025811   -0.000030688   -0.000011208
     10        6           0.001702546   -0.000285386    0.000086856
     11        1           0.000233078    0.000134057   -0.000022048
     12        6          -0.002272636    0.000413423    0.000025772
     13        6           0.003751202    0.000263750   -0.000003264
     14        1           0.000204079    0.000168587   -0.000016477
     15        8          -0.001399359    0.001029584   -0.000019365
     16        6          -0.007171676   -0.000454961   -0.000038639
     17        6           0.001665063   -0.000642796   -0.000011053
     18        6           0.002004792    0.008624488   -0.000013862
     19        8          -0.000144522   -0.000872893    0.000005817
     20        6           0.005180182    0.000939354    0.000093577
     21        6           0.003144333   -0.017888999    0.000119594
     22        1          -0.001312217    0.001356045   -0.000029882
     23        1          -0.000211633   -0.000135324    0.000014399
     24        1          -0.000187981    0.001283903   -0.000008386
     25        6           0.005103574    0.004485650    0.000044407
     26        9          -0.000280799   -0.003606255   -0.000003127
     27        1          -0.008756572    0.005620251   -0.000144509
 -------------------------------------------------------------------
 Cartesian Forces:  Max     0.017888999 RMS     0.002924225

 GradGradGradGradGradGradGradGradGradGradGradGradGradGradGradGradGradGrad
 Berny optimization.
 FormGI is forming the generalized inverse of G from B-inverse, IUseBI=4.
 Internal  Forces:  Max     0.010277677 RMS     0.002038106
 Search for a local minimum.
 Step number   1 out of a maximum of  134
 All quantities printed in internal units (Hartrees-Bohrs-Radians)
 Mixed Optimization -- RFO/linear search
 Second derivative matrix not updated -- first step.
 ITU=  0
     Eigenvalues ---    0.00947   0.01033   0.01057   0.01187   0.01420
     Eigenvalues ---    0.01445   0.01654   0.01965   0.02017   0.02086
     Eigenvalues ---    0.02167   0.02169   0.02211   0.02238   0.02255
     Eigenvalues ---    0.02295   0.02448   0.02529   0.02572   0.02608
     Eigenvalues ---    0.07401   0.07416   0.07589   0.07635   0.15999
     Eigenvalues ---    0.16000   0.16000   0.16000   0.16000   0.16000
     Eigenvalues ---    0.16000   0.16000   0.16000   0.16000   0.16000
     Eigenvalues ---    0.16000   0.22000   0.22000   0.22362   0.23484
     Eigenvalues ---    0.24597   0.24709   0.24813   0.25000   0.25000
     Eigenvalues ---    0.25000   0.25000   0.25000   0.33854   0.34060
     Eigenvalues ---    0.34124   0.34348   0.34392   0.34839   0.34840
     Eigenvalues ---    0.35249   0.35580   0.35695   0.36128   0.37230
     Eigenvalues ---    0.38168   0.38269   0.38508   0.40994   0.42174
     Eigenvalues ---    0.44543   0.45628   0.47852   0.48793   0.50064
     Eigenvalues ---    0.52796   0.55021   0.56581   0.58702   0.85398
 RFO step:  Lambda=-1.71171531D-03 EMin= 9.46674379D-03
 Linear search not attempted -- first point.
 Iteration  1 RMS(Cart)=  0.01022757 RMS(Int)=  0.00009446
 Iteration  2 RMS(Cart)=  0.00018849 RMS(Int)=  0.00002450
 Iteration  3 RMS(Cart)=  0.00000002 RMS(Int)=  0.00002450
 Variable       Old X    -DE/DX   Delta X   Delta X   Delta X     New X
                                 (Linear)    (Quad)   (Total)
    R1        2.05938  -0.00004   0.00000  -0.00013  -0.00013   2.05925
    R2        2.07229  -0.00010   0.00000  -0.00028  -0.00028   2.07201
    R3        2.73633   0.00033   0.00000   0.00085   0.00085   2.73717
    R4        2.06747  -0.00006   0.00000  -0.00017  -0.00017   2.06730
    R5        2.07121  -0.00013   0.00000  -0.00037  -0.00037   2.07084
    R6        2.73975   0.00019   0.00000   0.00049   0.00049   2.74024
    R7        2.05935  -0.00002   0.00000  -0.00005  -0.00005   2.05930
    R8        2.06674  -0.00004   0.00000  -0.00010  -0.00010   2.06663
    R9        2.53754  -0.00134   0.00000  -0.00236  -0.00236   2.53518
   R10        2.05273  -0.00013   0.00000  -0.00037  -0.00037   2.05236
   R11        2.57144   0.00090   0.00000   0.00171   0.00171   2.57315
   R12        2.74121  -0.00118   0.00000  -0.00307  -0.00307   2.73815
   R13        2.03881   0.00015   0.00000   0.00042   0.00042   2.03924
   R14        2.35129  -0.00112   0.00000  -0.00131  -0.00131   2.34998
   R15        2.80877   0.00035   0.00000   0.00102   0.00102   2.80980
   R16        2.67522  -0.00077   0.00000  -0.00126  -0.00132   2.67390
   R17        2.65272  -0.00079   0.00000  -0.00177  -0.00177   2.65095
   R18        2.51982   0.00098   0.00000   0.00167   0.00167   2.52149
   R19        2.64716   0.00034   0.00000   0.00123   0.00117   2.64833
   R20        2.60837  -0.00793   0.00000  -0.01657  -0.01651   2.59186
   R21        2.04561  -0.00022   0.00000  -0.00061  -0.00061   2.04501
   R22        1.86500  -0.00018   0.00000  -0.00036  -0.00036   1.86465
   R23        2.04743  -0.00064   0.00000  -0.00178  -0.00178   2.04565
   R24        2.60570  -0.00071   0.00000  -0.00144  -0.00144   2.60427
   R25        2.64025  -0.00774   0.00000  -0.01722  -0.01716   2.62309
   R26        2.55113  -0.00355   0.00000  -0.00644  -0.00644   2.54469
   R27        2.02201   0.01028   0.00000   0.02748   0.02748   2.04949
    A1        1.89778  -0.00011   0.00000  -0.00060  -0.00060   1.89718
    A2        1.90734   0.00031   0.00000   0.00207   0.00207   1.90941
    A3        1.89247  -0.00006   0.00000  -0.00018  -0.00018   1.89230
    A4        1.94383  -0.00006   0.00000  -0.00045  -0.00045   1.94338
    A5        1.89422   0.00004   0.00000  -0.00007  -0.00007   1.89415
    A6        1.92725  -0.00012   0.00000  -0.00078  -0.00078   1.92647
    A7        1.94330  -0.00005   0.00000  -0.00026  -0.00026   1.94304
    A8        1.89325   0.00010   0.00000   0.00030   0.00030   1.89354
    A9        1.89507   0.00004   0.00000   0.00062   0.00062   1.89569
   A10        1.91301  -0.00025   0.00000  -0.00175  -0.00176   1.91125
   A11        1.92685   0.00009   0.00000   0.00071   0.00071   1.92756
   A12        1.89127   0.00008   0.00000   0.00041   0.00041   1.89168
   A13        2.05809   0.00042   0.00000   0.00173   0.00173   2.05982
   A14        2.09865  -0.00014   0.00000  -0.00050  -0.00050   2.09815
   A15        2.11639  -0.00027   0.00000  -0.00100  -0.00100   2.11539
   A16        2.01826  -0.00012   0.00000  -0.00092  -0.00092   2.01734
   A17        2.21640  -0.00024   0.00000  -0.00109  -0.00109   2.21531
   A18        2.04850   0.00036   0.00000   0.00200   0.00200   2.05050
   A19        2.06361  -0.00020   0.00000  -0.00088  -0.00088   2.06273
   A20        2.11463  -0.00012   0.00000  -0.00092  -0.00092   2.11371
   A21        2.10489   0.00032   0.00000   0.00181   0.00181   2.10670
   A22        2.10544   0.00154   0.00000   0.00611   0.00611   2.11155
   A23        2.09967   0.00005   0.00000   0.00021   0.00021   2.09988
   A24        2.07807  -0.00159   0.00000  -0.00631  -0.00632   2.07175
   A25        2.08125   0.00075   0.00000   0.00213   0.00216   2.08341
   A26        2.14390  -0.00189   0.00000  -0.00834  -0.00831   2.13559
   A27        2.05803   0.00114   0.00000   0.00621   0.00615   2.06418
   A28        2.14230   0.00151   0.00000   0.00467   0.00473   2.14703
   A29        2.09225  -0.00164   0.00000  -0.00389  -0.00400   2.08824
   A30        2.04863   0.00013   0.00000  -0.00078  -0.00073   2.04791
   A31        2.12920  -0.00511   0.00000  -0.02320  -0.02314   2.10606
   A32        2.08898   0.00447   0.00000   0.02345   0.02342   2.11240
   A33        2.06501   0.00064   0.00000  -0.00025  -0.00028   2.06473
   A34        1.85525   0.00033   0.00000   0.00206   0.00206   1.85732
   A35        2.05702   0.00052   0.00000   0.00333   0.00336   2.06038
   A36        2.10303   0.00129   0.00000   0.00777   0.00771   2.11074
   A37        2.12314  -0.00181   0.00000  -0.01110  -0.01107   2.11207
   A38        2.08060   0.00982   0.00000   0.03801   0.03813   2.11873
   A39        2.09982  -0.00409   0.00000  -0.01572  -0.01578   2.08404
   A40        2.10276  -0.00574   0.00000  -0.02229  -0.02235   2.08042
   A41        2.10326  -0.00550   0.00000  -0.02490  -0.02485   2.07841
   A42        2.08676   0.00442   0.00000   0.02275   0.02272   2.10948
   A43        2.09317   0.00108   0.00000   0.00215   0.00212   2.09529
    D1       -0.23536  -0.00002   0.00000  -0.00184  -0.00184  -0.23720
    D2        3.05628  -0.00003   0.00000  -0.00346  -0.00346   3.05282
    D3        1.86173   0.00000   0.00000  -0.00153  -0.00152   1.86020
    D4       -1.12983  -0.00001   0.00000  -0.00314  -0.00314  -1.13297
    D5       -2.31559  -0.00007   0.00000  -0.00244  -0.00244  -2.31803
    D6        0.97604  -0.00008   0.00000  -0.00405  -0.00405   0.97199
    D7       -1.11509  -0.00005   0.00000  -0.00053  -0.00053  -1.11562
    D8        1.87486  -0.00003   0.00000   0.00115   0.00115   1.87601
    D9        3.07328   0.00002   0.00000   0.00042   0.00042   3.07370
   D10       -0.21995   0.00004   0.00000   0.00210   0.00210  -0.21786
   D11        0.99124   0.00003   0.00000   0.00057   0.00057   0.99181
   D12       -2.30200   0.00005   0.00000   0.00225   0.00225  -2.29975
   D13        3.11800   0.00002   0.00000   0.00053   0.00053   3.11853
   D14       -0.03175   0.00001   0.00000   0.00002   0.00002  -0.03173
   D15        0.13154  -0.00005   0.00000  -0.00137  -0.00137   0.13017
   D16       -3.01821  -0.00006   0.00000  -0.00189  -0.00189  -3.02010
   D17       -3.12117   0.00004   0.00000   0.00143   0.00143  -3.11975
   D18        0.03168   0.00002   0.00000   0.00062   0.00062   0.03230
   D19        0.01214   0.00002   0.00000   0.00089   0.00089   0.01303
   D20       -3.11819   0.00000   0.00000   0.00008   0.00008  -3.11811
   D21        0.01311  -0.00001   0.00000  -0.00009  -0.00009   0.01302
   D22       -3.12377  -0.00003   0.00000  -0.00184  -0.00184  -3.12561
   D23       -3.13968   0.00001   0.00000   0.00069   0.00069  -3.13898
   D24        0.00663  -0.00001   0.00000  -0.00105  -0.00106   0.00558
   D25        3.12933   0.00002   0.00000   0.00180   0.00180   3.13112
   D26       -0.01324   0.00003   0.00000   0.00217   0.00217  -0.01107
   D27       -0.00762   0.00000   0.00000   0.00005   0.00005  -0.00757
   D28        3.13299   0.00000   0.00000   0.00042   0.00042   3.13342
   D29        0.00038   0.00001   0.00000   0.00070   0.00070   0.00108
   D30       -3.14086   0.00000   0.00000   0.00014   0.00014  -3.14072
   D31       -3.14029   0.00001   0.00000   0.00036   0.00036  -3.13993
   D32        0.00166   0.00000   0.00000  -0.00020  -0.00021   0.00145
   D33        3.14143   0.00000   0.00000  -0.00008  -0.00008   3.14135
   D34       -0.00066   0.00000   0.00000  -0.00011  -0.00011  -0.00078
   D35       -0.00112   0.00001   0.00000   0.00028   0.00028  -0.00085
   D36        3.13997   0.00000   0.00000   0.00025   0.00025   3.14022
   D37        0.00352   0.00001   0.00000   0.00024   0.00024   0.00376
   D38       -3.13842   0.00002   0.00000   0.00079   0.00079  -3.13762
   D39        3.14113   0.00000   0.00000   0.00015   0.00016   3.14129
   D40       -0.00121   0.00000   0.00000   0.00014   0.00014  -0.00107
   D41       -0.00012  -0.00001   0.00000  -0.00038  -0.00038  -0.00050
   D42        3.14071  -0.00001   0.00000  -0.00039  -0.00039   3.14032
   D43        0.00011  -0.00001   0.00000  -0.00029  -0.00029  -0.00018
   D44        3.14132   0.00000   0.00000   0.00002   0.00002   3.14134
   D45       -3.14099  -0.00001   0.00000  -0.00026  -0.00026  -3.14125
   D46        0.00022   0.00000   0.00000   0.00004   0.00004   0.00027
   D47        0.00017   0.00000   0.00000  -0.00013  -0.00013   0.00004
   D48        3.14158   0.00000   0.00000   0.00010   0.00010  -3.14150
   D49        3.14098   0.00000   0.00000  -0.00014  -0.00014   3.14085
   D50       -0.00079   0.00000   0.00000   0.00009   0.00009  -0.00070
   D51        0.00038   0.00001   0.00000   0.00020   0.00021   0.00059
   D52       -3.14103   0.00000   0.00000  -0.00003  -0.00002  -3.14105
   D53       -3.14083   0.00000   0.00000  -0.00010  -0.00010  -3.14093
   D54        0.00095  -0.00001   0.00000  -0.00033  -0.00033   0.00062
         Item               Value     Threshold  Converged?
 Maximum Force            0.010278     0.000450     NO 
 RMS     Force            0.002038     0.000300     NO 
 Maximum Displacement     0.056897     0.001800     NO 
 RMS     Displacement     0.010295     0.001200     NO 
 Predicted change in Energy=-8.615822D-04
 GradGradGradGradGradGradGradGradGradGradGradGradGradGradGradGradGradGrad

                          Input orientation:                          
 ---------------------------------------------------------------------
 Center     Atomic      Atomic             Coordinates (Angstroms)
 Number     Number       Type             X           Y           Z
 ---------------------------------------------------------------------
      1          6           0        3.724146    1.630249    0.036959
      2          1           0        4.770294    1.913671    0.149689
      3          1           0        3.344549    2.052795   -0.900903
      4          6           0        4.827164   -0.591649   -0.106424
      5          1           0        5.285612   -0.424656   -1.087651
      6          7           0        3.613061    0.186106    0.047700
      7          1           0        3.157610    2.062086    0.867212
      8          1           0        4.594884   -1.651909   -0.009386
      9          1           0        5.552318   -0.325152    0.667609
     10          6           0        2.405707   -0.398336    0.025171
     11          1           0        2.410475   -1.484318    0.012694
     12          6           0        1.195015    0.224817    0.025980
     13          6           0        0.002016   -0.597528    0.026883
     14          1           0        1.122130    1.301426    0.016296
     15          8           0        0.079966   -1.838560    0.040797
     16          6           0       -1.344298    0.033237    0.007273
     17          6           0       -2.495792   -0.788990   -0.004388
     18          6           0       -1.521473    1.424811    0.000499
     19          8           0       -2.437400   -2.122009    0.002571
     20          6           0       -3.767586   -0.200615   -0.023943
     21          6           0       -2.779998    1.969721   -0.017980
     22          1           0       -0.672153    2.095376    0.010167
     23          1           0       -1.479739   -2.359103    0.020097
     24          1           0       -4.630658   -0.853959   -0.032807
     25          6           0       -3.914241    1.169661   -0.030744
     26          9           0       -2.920629    3.308939   -0.023810
     27          1           0       -4.899029    1.623749   -0.045795
 ---------------------------------------------------------------------
                    Distance matrix (angstroms):
                    1          2          3          4          5
     1  C    0.000000
     2  H    1.089707   0.000000
     3  H    1.096459   1.776470   0.000000
     4  C    2.484762   2.519019   3.134076   0.000000
     5  H    2.815236   2.695243   3.152834   1.095841   0.000000
     6  N    1.448449   2.081843   2.111036   1.450071   2.111748
     7  H    1.093969   1.771332   1.777994   3.282939   3.812318
     8  H    3.396011   3.573434   4.010358   1.089734   1.773672
     9  H    2.750186   2.427371   3.604040   1.093616   1.778193
    10  C    2.419417   3.309403   2.783357   2.432723   3.087542
    11  H    3.380362   4.139304   3.770719   2.579037   3.255773
    12  C    2.893418   3.956027   2.970036   3.725139   4.288937
    13  C    4.337896   5.390517   4.365492   4.826993   5.402634
    14  H    2.622792   3.701586   2.518919   4.162460   4.640328
    15  O    5.031173   6.007518   5.165941   4.910433   5.511014
    16  C    5.314176   6.398793   5.185431   6.204060   6.735298
    17  C    6.673984   7.753975   6.556605   7.326326   7.864888
    18  C    5.249767   6.312493   4.988493   6.662037   7.137297
    19  O    7.214242   8.261913   7.188616   7.424808   7.982137
    20  C    7.712447   8.797486   7.511950   8.604037   9.118228
    21  C    6.513229   7.552361   6.188419   8.027289   8.481233
    22  H    4.420917   5.447267   4.118951   6.121780   6.561306
    23  H    6.557106   7.572074   6.602034   6.551102   7.123144
    24  H    8.716589   9.801580   8.532687   9.461746   9.981453
    25  C    7.652561   8.718214   7.363908   8.917405   9.396606
    26  F    6.853812   7.818387   6.449779   8.674660   9.078209
    27  H    8.623575   9.675644   8.298908   9.975495  10.440706
                    6          7          8          9         10
     6  N    0.000000
     7  H    2.097221   0.000000
     8  H    2.084594   4.077737   0.000000
     9  H    2.099140   3.387236   1.770674   0.000000
    10  C    1.341560   2.707040   2.522922   3.212358   0.000000
    11  H    2.058580   3.723626   2.190939   3.412295   1.086064
    12  C    2.418453   2.816915   3.883614   4.438496   1.361652
    13  C    3.695153   4.211588   4.712480   5.593797   2.411931
    14  H    2.729407   2.333633   4.558823   4.764087   2.129986
    15  O    4.072110   5.036854   4.519053   5.712262   2.735610
    16  C    4.959880   5.012276   6.173644   6.937420   3.774800
    17  C    6.186405   6.391345   7.142992   8.089425   4.917131
    18  C    5.282050   4.801159   6.846614   7.317508   4.329805
    19  O    6.475917   7.039772   7.047989   8.216238   5.140744
    20  C    7.391119   7.339777   8.487483   9.346356   6.176654
    21  C    6.637529   6.003939   8.216152   8.669715   5.700973
    22  H    4.691458   3.924630   6.464070   6.710829   3.961319
    23  H    5.693458   6.462935   6.115720   7.348881   4.352164
    24  H    8.309459   8.364836   9.260016  10.220725   7.051339
    25  C    7.591693   7.184277   8.964760   9.609261   6.511796
    26  F    7.241982   6.268458   9.005174   9.245296   6.489695
    27  H    8.633147   8.120047  10.043189  10.655413   7.579778
                   11         12         13         14         15
    11  H    0.000000
    12  C    2.097299   0.000000
    13  C    2.566568   1.448964   0.000000
    14  H    3.069237   1.079117   2.204721   0.000000
    15  O    2.357446   2.345438   1.243556   3.308507   0.000000
    16  C    4.049855   2.546599   1.486880   2.773384   2.352291
    17  C    4.955324   3.827634   2.505331   4.178473   2.781756
    18  C    4.891155   2.969838   2.532108   2.646528   3.635357
    19  O    4.889647   4.324648   2.876697   4.938659   2.533562
    20  C    6.310125   4.981054   3.790782   5.115376   4.182190
    21  C    6.234769   4.341353   3.785813   3.959090   4.762967
    22  H    4.724067   2.643021   2.776061   1.962102   4.005306
    23  H    3.987364   3.719004   2.301911   4.491015   1.644407
    24  H    7.069440   5.925004   4.640150   6.143506   4.812986
    25  C    6.859120   5.196195   4.296900   5.038314   5.000820
    26  F    7.169192   5.143230   4.879027   4.513936   5.958564
    27  H    7.943070   6.252962   5.381412   6.030100   6.065103
                   16         17         18         19         20
    16  C    0.000000
    17  C    1.414967   0.000000
    18  C    1.402824   2.418727   0.000000
    19  O    2.416605   1.334315   3.663176   0.000000
    20  C    2.434746   1.401438   2.772658   2.337061   0.000000
    21  C    2.410777   2.773346   1.371552   4.106100   2.384476
    22  H    2.168918   3.412542   1.082171   4.571924   3.854147
    23  H    2.396205   1.870353   3.784195   0.986730   3.145672
    24  H    3.404245   2.136043   3.854989   2.533689   1.082511
    25  C    2.810251   2.418472   2.406537   3.607944   1.378119
    26  F    3.635383   4.119938   2.346948   5.452468   3.610306
    27  H    3.894696   3.405668   3.383727   4.482484   2.146846
                   21         22         23         24         25
    21  C    0.000000
    22  H    2.111774   0.000000
    23  H    4.520049   4.527105   0.000000
    24  H    3.376142   4.936617   3.492355   0.000000
    25  C    1.388080   3.371907   4.287372   2.146694   0.000000
    26  F    1.346594   2.555295   5.848487   4.500445   2.358776
    27  H    2.147269   4.253475   5.249667   2.492234   1.084542
                   26         27
    26  F    0.000000
    27  H    2.598926   0.000000
 Stoichiometry    C11H12FNO2
 Framework group  C1[X(C11H12FNO2)]
 Deg. of freedom    75
 Full point group                 C1      NOp   1
 Largest Abelian subgroup         C1      NOp   1
 Largest concise Abelian subgroup C1      NOp   1
                         Standard orientation:                         
 ---------------------------------------------------------------------
 Center     Atomic      Atomic             Coordinates (Angstroms)
 Number     Number       Type             X           Y           Z
 ---------------------------------------------------------------------
      1          6           0       -3.772086    1.786529   -0.041264
      2          1           0       -4.783511    2.175995   -0.154392
      3          1           0       -3.350555    2.169746    0.895582
      4          6           0       -5.098118   -0.309568    0.107256
      5          1           0       -5.536484   -0.094094    1.088211
      6          7           0       -3.810404    0.338607   -0.048845
      7          1           0       -3.164436    2.155886   -0.872590
      8          1           0       -4.976368   -1.388326    0.012505
      9          1           0       -5.792293    0.028552   -0.667206
     10          6           0       -2.669689   -0.367083   -0.025288
     11          1           0       -2.786328   -1.446763   -0.010416
     12          6           0       -1.401231    0.127997   -0.027734
     13          6           0       -0.299319   -0.812900   -0.027082
     14          1           0       -1.217794    1.191384   -0.020439
     15          8           0       -0.504739   -2.039322   -0.038242
     16          6           0        1.104833   -0.324180   -0.009154
     17          6           0        2.165478   -1.260657    0.004071
     18          6           0        1.424457    1.041741   -0.005486
     19          8           0        1.970037   -2.580575    0.000063
     20          6           0        3.491138   -0.806422    0.022054
     21          6           0        2.732440    1.454108    0.011519
     22          1           0        0.648751    1.796230   -0.016449
     23          1           0        0.993035   -2.717764   -0.016732
     24          1           0        4.282298   -1.545200    0.032172
     25          6           0        3.778211    0.541460    0.025802
     26          9           0        3.010321    2.771715    0.014366
     27          1           0        4.804554    0.891687    0.039639
 ---------------------------------------------------------------------
 Rotational constants (GHZ):      1.0609047      0.2929985      0.2303242
 Standard basis: 6-311++G(d,p) (5D, 7F)
 There are   429 symmetry adapted cartesian basis functions of A   symmetry.
 There are   414 symmetry adapted basis functions of A   symmetry.
   414 basis functions,   648 primitive gaussians,   429 cartesian basis functions
    55 alpha electrons       55 beta electrons
       nuclear repulsion energy       944.4005550558 Hartrees.
 NAtoms=   27 NActive=   27 NUniq=   27 SFac= 1.00D+00 NAtFMM=   60 NAOKFM=F Big=F
 Integral buffers will be    131072 words long.
 Raffenetti 2 integral format.
 Two-electron integral symmetry is turned on.
 Nuclear repulsion after empirical dispersion term =      944.3854081823 Hartrees.
 One-electron integrals computed using PRISM.
 NBasis=   414 RedAO= T EigKep=  1.72D-06  NBF=   414
 NBsUse=   411 1.00D-06 EigRej=  7.36D-07 NBFU=   411
 Initial guess from the checkpoint file:  "4_opt.chk"
 B after Tr=     0.000000    0.000000    0.000000
         Rot=    1.000000    0.000010    0.000015   -0.000936 Ang=   0.11 deg.
 ExpMin= 3.60D-02 ExpMax= 1.14D+04 ExpMxC= 1.72D+03 IAcc=3 IRadAn=         5 AccDes= 0.00D+00
 Harris functional with IExCor= 4639 and IRadAn=       5 diagonalized for initial guess.
 HarFok:  IExCor= 4639 AccDes= 0.00D+00 IRadAn=         5 IDoV= 1 UseB2=F ITyADJ=14
 ICtDFT=  3500011 ScaDFX=  1.000000  1.000000  1.000000  1.000000
 FoFCou: FMM=F IPFlag=           0 FMFlag=      100000 FMFlg1=           0
         NFxFlg=           0 DoJE=T BraDBF=F KetDBF=T FulRan=T
         wScrn=  0.000000 ICntrl=     500 IOpCl=  0 I1Cent=   200000004 NGrid=           0
         NMat0=    1 NMatS0=      1 NMatT0=    0 NMatD0=    1 NMtDS0=    0 NMtDT0=    0
 Petite list used in FoFCou.
 Requested convergence on RMS density matrix=1.00D-08 within 128 cycles.
 Requested convergence on MAX density matrix=1.00D-06.
 Requested convergence on             energy=1.00D-06.
 No special actions if energy rises.
 SCF Done:  E(RwB97XD) =  -731.392657701     A.U. after   13 cycles
            NFock= 13  Conv=0.56D-08     -V/T= 2.0037
 Calling FoFJK, ICntrl=      2127 FMM=F ISym2X=0 I1Cent= 0 IOpClX= 0 NMat=1 NMatS=1 NMatT=0.
 ***** Axes restored to original set *****
 -------------------------------------------------------------------
 Center     Atomic                   Forces (Hartrees/Bohr)
 Number     Number              X              Y              Z
 -------------------------------------------------------------------
      1        6           0.000017994    0.000087397    0.000038410
      2        1           0.000006563   -0.000036559    0.000015504
      3        1           0.000023820   -0.000021923   -0.000015719
      4        6           0.000195505   -0.000074417   -0.000008114
      5        1          -0.000025168    0.000026292    0.000033820
      6        7          -0.000205292   -0.000016032   -0.000136836
      7        1          -0.000006518   -0.000036081   -0.000013811
      8        1          -0.000000183    0.000018979   -0.000006485
      9        1          -0.000034007    0.000019853   -0.000006584
     10        6           0.000384638   -0.000022302    0.000151706
     11        1          -0.000053868   -0.000000202   -0.000024144
     12        6          -0.000740561   -0.000044103   -0.000035342
     13        6           0.000834476   -0.000662331    0.000145632
     14        1           0.000043300   -0.000145822   -0.000026331
     15        8           0.000410540    0.000000681   -0.000041021
     16        6          -0.002315688   -0.001048881   -0.000053622
     17        6           0.000735785    0.000999428    0.000032479
     18        6           0.002089681    0.001810419    0.000006510
     19        8           0.000381831   -0.000781180    0.000020982
     20        6           0.001019901   -0.000990700    0.000023131
     21        6           0.000451531   -0.004363414    0.000015414
     22        1          -0.000977267    0.000229367   -0.000022173
     23        1          -0.000501770    0.000636733   -0.000048469
     24        1          -0.000160040   -0.000263665   -0.000002771
     25        6          -0.002111240    0.001043222   -0.000038201
     26        9          -0.000428703    0.003313597   -0.000016412
     27        1           0.000964740    0.000321646    0.000012447
 -------------------------------------------------------------------
 Cartesian Forces:  Max     0.004363414 RMS     0.000856218

 GradGradGradGradGradGradGradGradGradGradGradGradGradGradGradGradGradGrad
 Berny optimization.
 Using GEDIIS/GDIIS optimizer.
 FormGI is forming the generalized inverse of G from B-inverse, IUseBI=4.
 GSVD:  received Info=                   1 from GESDD.
 Internal  Forces:  Max     0.003346156 RMS     0.000465073
 Search for a local minimum.
 Step number   2 out of a maximum of  134
 All quantities printed in internal units (Hartrees-Bohrs-Radians)
 Mixed Optimization -- En-DIIS/RFO-DIIS
 Update second derivatives using D2CorX and points    1    2
 DE= -8.93D-04 DEPred=-8.62D-04 R= 1.04D+00
 TightC=F SS=  1.41D+00  RLast= 7.98D-02 DXNew= 5.0454D-01 2.3927D-01
[...]
 Alpha virt. eigenvalues --   -0.00387   0.02610   0.04317   0.05142   0.05199
 Alpha virt. eigenvalues --    0.05691   0.05911   0.06871   0.07666   0.08019
 Alpha virt. eigenvalues --    0.08227   0.08450   0.08476   0.10250   0.11122
 Alpha virt. eigenvalues --    0.11660   0.11934   0.12685   0.12941   0.13828
 Alpha virt. eigenvalues --    0.14391   0.14588   0.14870   0.15438   0.15854
 Alpha virt. eigenvalues --    0.15981   0.16503   0.16825   0.16846   0.17392
 Alpha virt. eigenvalues --    0.17710   0.17918   0.18576   0.19087   0.19284
 Alpha virt. eigenvalues --    0.19717   0.20204   0.20438   0.20855   0.21314
 Alpha virt. eigenvalues --    0.21689   0.21902   0.21983   0.22816   0.23166
 Alpha virt. eigenvalues --    0.23640   0.24002   0.24631   0.25313   0.25902
 Alpha virt. eigenvalues --    0.26155   0.26538   0.27198   0.27448   0.27818
 Alpha virt. eigenvalues --    0.28029   0.28530   0.28944   0.29520   0.30365
 Alpha virt. eigenvalues --    0.30615   0.31105   0.32122   0.32243   0.33018
 Alpha virt. eigenvalues --    0.33277   0.34270   0.34853   0.35189   0.35574
 Alpha virt. eigenvalues --    0.36590   0.36993   0.37084   0.38113   0.38621
 Alpha virt. eigenvalues --    0.38680   0.39308   0.39576   0.39843   0.40149
 Alpha virt. eigenvalues --    0.41156   0.42389   0.43011   0.43075   0.43314
 Alpha virt. eigenvalues --    0.43942   0.45256   0.45929   0.47082   0.47725
 Alpha virt. eigenvalues --    0.48819   0.49371   0.50602   0.51219   0.51517
 Alpha virt. eigenvalues --    0.52106   0.53425   0.55450   0.56093   0.57503
 Alpha virt. eigenvalues --    0.58647   0.60651   0.61429   0.62191   0.62474
 Alpha virt. eigenvalues --    0.63262   0.63520   0.65561   0.65712   0.65978
 Alpha virt. eigenvalues --    0.66864   0.67103   0.68875   0.69432   0.69841
 Alpha virt. eigenvalues --    0.70081   0.70475   0.70664   0.71687   0.71995
 Alpha virt. eigenvalues --    0.73359   0.73819   0.74532   0.76089   0.76327
 Alpha virt. eigenvalues --    0.77823   0.78190   0.79442   0.79529   0.80691
 Alpha virt. eigenvalues --    0.82027   0.83379   0.85375   0.86664   0.87630
 Alpha virt. eigenvalues --    0.87786   0.89161   0.92644   0.93796   0.94348
 Alpha virt. eigenvalues --    0.94738   0.95047   0.96923   0.98262   0.99013
 Alpha virt. eigenvalues --    0.99679   1.01689   1.02023   1.03010   1.04459
 Alpha virt. eigenvalues --    1.05204   1.05964   1.07572   1.07690   1.10754
 Alpha virt. eigenvalues --    1.11836   1.12724   1.13808   1.14651   1.15472
 Alpha virt. eigenvalues --    1.16776   1.17825   1.18841   1.19772   1.20076
 Alpha virt. eigenvalues --    1.21600   1.24111   1.25106   1.28001   1.31814
 Alpha virt. eigenvalues --    1.32638   1.33116   1.34241   1.36529   1.38028
 Alpha virt. eigenvalues --    1.38514   1.42451   1.45149   1.46533   1.50330
 Alpha virt. eigenvalues --    1.51291   1.52051   1.52272   1.53207   1.54452
 Alpha virt. eigenvalues --    1.55504   1.57488   1.58566   1.59404   1.60472
 Alpha virt. eigenvalues --    1.61470   1.62606   1.63914   1.64833   1.65561
 Alpha virt. eigenvalues --    1.65594   1.67542   1.68940   1.69096   1.70209
 Alpha virt. eigenvalues --    1.71652   1.72705   1.73485   1.76003   1.76600
 Alpha virt. eigenvalues --    1.77222   1.79134   1.80313   1.81657   1.82328
 Alpha virt. eigenvalues --    1.83101   1.84555   1.86517   1.86762   1.89751
 Alpha virt. eigenvalues --    1.92837   1.94456   1.96096   1.96240   1.98931
 Alpha virt. eigenvalues --    2.00271   2.02715   2.03906   2.04066   2.04385
 Alpha virt. eigenvalues --    2.06614   2.06879   2.08024   2.09020   2.11811
 Alpha virt. eigenvalues --    2.13107   2.13651   2.15661   2.18496   2.18884
 Alpha virt. eigenvalues --    2.20877   2.21405   2.23961   2.24155   2.26149
 Alpha virt. eigenvalues --    2.28566   2.31029   2.31739   2.36138   2.40376
 Alpha virt. eigenvalues --    2.41447   2.43279   2.46650   2.47564   2.50597
 Alpha virt. eigenvalues --    2.51030   2.52375   2.54882   2.56041   2.57512
 Alpha virt. eigenvalues --    2.58747   2.61885   2.63737   2.66203   2.69585
 Alpha virt. eigenvalues --    2.70710   2.71151   2.73526   2.74010   2.75632
 Alpha virt. eigenvalues --    2.76917   2.78594   2.79642   2.81567   2.81879
 Alpha virt. eigenvalues --    2.83588   2.84597   2.84963   2.86953   2.87646
 Alpha virt. eigenvalues --    2.89114   2.90511   2.93942   2.94386   2.95564
 Alpha virt. eigenvalues --    2.96107   2.98693   3.02307   3.03563   3.07980
 Alpha virt. eigenvalues --    3.10240   3.12971   3.16523   3.18505   3.20398
 Alpha virt. eigenvalues --    3.22267   3.23751   3.24816   3.26922   3.30786
 Alpha virt. eigenvalues --    3.31164   3.32930   3.38345   3.42974   3.46953
 Alpha virt. eigenvalues --    3.51513   3.56946   3.61101   3.62725   3.66785
 Alpha virt. eigenvalues --    3.68791   3.71542   3.75130   3.80021   3.80717
 Alpha virt. eigenvalues --    3.83120   3.83311   3.84819   3.88615   3.89339
 Alpha virt. eigenvalues --    3.92739   3.94459   3.96705   4.03969   4.08446
 Alpha virt. eigenvalues --    4.08580   4.13216   4.17867   4.22671   4.28835
 Alpha virt. eigenvalues --    4.29754   4.39783   4.64479   4.95544   4.97704
 Alpha virt. eigenvalues --    4.98283   5.14077   5.17680   5.18492   5.43496
 Alpha virt. eigenvalues --    5.62581   5.90194   5.94195   6.45027   6.59131
 Alpha virt. eigenvalues --    6.88775  23.70880  23.94255  24.02466  24.03411
 Alpha virt. eigenvalues --   24.04536  24.06827  24.09363  24.15842  24.24235
 Alpha virt. eigenvalues --   24.29643  24.32844  35.70191  50.14067  50.19792
 Alpha virt. eigenvalues --   66.96490
          Condensed to atoms (all electrons):
               1          2          3          4          5          6
     1  C    5.244886   0.386334   0.416722  -0.071435   0.013444   0.243824
     2  H    0.386334   0.488724  -0.019326   0.005597  -0.006569  -0.048386
     3  H    0.416722  -0.019326   0.524063  -0.007171   0.000593  -0.054185
     4  C   -0.071435   0.005597  -0.007171   5.179068   0.395636   0.271564
     5  H    0.013444  -0.006569   0.000593   0.395636   0.559873  -0.049175
     6  N    0.243824  -0.048386  -0.054185   0.271564  -0.049175   6.852727
     7  H    0.418283  -0.021266  -0.051522   0.009241   0.001895  -0.036115
     8  H   -0.002402   0.003539  -0.000633   0.411649  -0.029900  -0.093363
     9  H   -0.013589  -0.003303   0.003169   0.411371  -0.064328  -0.049339
    10  C    0.166138   0.015383  -0.007141  -0.063843  -0.033361   0.183382
    11  H    0.005971  -0.001327  -0.002196  -0.036658   0.004389  -0.065949
    12  C    0.143466   0.030594  -0.001171  -0.059250   0.014306  -0.245351
    13  C   -0.292207  -0.016799   0.014484  -0.114619   0.003373   0.005508
    14  H    0.011950   0.001368  -0.015153  -0.002886   0.000462  -0.006767
    15  O   -0.000766   0.000105   0.000205   0.000710  -0.000099   0.003924
    16  C   -0.191937  -0.003835  -0.000570   0.000044  -0.000864  -0.004151
    17  C   -0.022340   0.000886  -0.001781  -0.004479  -0.000358   0.006646
    18  C   -0.006817  -0.004689   0.006598  -0.013162   0.000528  -0.030493
    19  O   -0.000092  -0.000007   0.000048   0.000268   0.000008  -0.000170
    20  C    0.006474   0.000337  -0.000789  -0.000489   0.000020  -0.000361
    21  C   -0.011665  -0.000699   0.000702   0.001849  -0.000069   0.004480
    22  H    0.004503   0.000056   0.001869  -0.002795   0.000009  -0.014815
    23  H   -0.000940  -0.000082   0.000086  -0.000145   0.000006  -0.000247
    24  H    0.000104   0.000004  -0.000010   0.000008   0.000000  -0.000032
    25  C   -0.011192  -0.000446  -0.000180  -0.000193  -0.000017   0.003380
    26  F   -0.000200  -0.000012  -0.000062  -0.000001   0.000000   0.000006
    27  H   -0.000207  -0.000009   0.000008   0.000005   0.000000   0.000031
               7          8          9         10         11         12
     1  C    0.418283  -0.002402  -0.013589   0.166138   0.005971   0.143466
     2  H   -0.021266   0.003539  -0.003303   0.015383  -0.001327   0.030594
     3  H   -0.051522  -0.000633   0.003169  -0.007141  -0.002196  -0.001171
     4  C    0.009241   0.411649   0.411371  -0.063843  -0.036658  -0.059250
     5  H    0.001895  -0.029900  -0.064328  -0.033361   0.004389   0.014306
     6  N   -0.036115  -0.093363  -0.049339   0.183382  -0.065949  -0.245351
     7  H    0.532870  -0.003190  -0.001464   0.028132   0.003093  -0.036196
     8  H   -0.003190   0.534999  -0.021430   0.056197  -0.008394   0.002904
     9  H   -0.001464  -0.021430   0.559432  -0.004675   0.000525   0.006796
    10  C    0.028132   0.056197  -0.004675  11.819435   0.304540   3.270494
    11  H    0.003093  -0.008394   0.000525   0.304540   0.465849   0.055506
    12  C   -0.036196   0.002904   0.006796   3.270494   0.055506  12.283750
    13  C   -0.026653   0.004235   0.000918  -3.936363   0.107682   0.957221
    14  H    0.006220  -0.001544   0.000592   0.132833  -0.002209   0.553591
    15  O    0.000680   0.000136   0.000073   0.009843   0.012005  -0.225089
    16  C   -0.007881   0.005740   0.000892  -2.858902  -0.058958  -4.312614
    17  C   -0.001881   0.003838  -0.000264  -1.671139  -0.066076  -3.418378
    18  C    0.001128  -0.004302   0.000515  -1.569773   0.052981  -1.520958
    19  O    0.000034  -0.000104   0.000002   0.005477   0.000246  -0.039321
    20  C   -0.000728   0.000106  -0.000014  -0.134551  -0.002891   0.119596
    21  C    0.002226  -0.000037  -0.000005   0.194816  -0.000399  -0.321496
    22  H   -0.002116   0.000104  -0.000018  -0.160517   0.003976  -0.092229
    23  H   -0.000010   0.000013   0.000034  -0.017700   0.001053   0.001134
    24  H   -0.000014   0.000002   0.000000   0.001274  -0.000113   0.010459
    25  C   -0.000094   0.000093   0.000009  -0.220414  -0.004463  -0.797521
    26  F   -0.000085   0.000000   0.000000  -0.001480  -0.000056   0.003380
    27  H    0.000010   0.000001   0.000000  -0.002366  -0.000060  -0.016297
              13         14         15         16         17         18
     1  C   -0.292207   0.011950  -0.000766  -0.191937  -0.022340  -0.006817
     2  H   -0.016799   0.001368   0.000105  -0.003835   0.000886  -0.004689
     3  H    0.014484  -0.015153   0.000205  -0.000570  -0.001781   0.006598
     4  C   -0.114619  -0.002886   0.000710   0.000044  -0.004479  -0.013162
     5  H    0.003373   0.000462  -0.000099  -0.000864  -0.000358   0.000528
     6  N    0.005508  -0.006767   0.003924  -0.004151   0.006646  -0.030493
     7  H   -0.026653   0.006220   0.000680  -0.007881  -0.001881   0.001128
     8  H    0.004235  -0.001544   0.000136   0.005740   0.003838  -0.004302
     9  H    0.000918   0.000592   0.000073   0.000892  -0.000264   0.000515
    10  C   -3.936363   0.132833   0.009843  -2.858902  -1.671139  -1.569773
    11  H    0.107682  -0.002209   0.012005  -0.058958  -0.066076   0.052981
    12  C    0.957221   0.553591  -0.225089  -4.312614  -3.418378  -1.520958
    13  C   13.579867  -0.026846   0.906133   1.616457  -4.136291  -0.163165
    14  H   -0.026846   0.875611  -0.020097   0.125052   0.030885  -0.699678
    15  O    0.906133  -0.020097   8.136463  -0.160033  -0.196744  -0.149604
    16  C    1.616457   0.125052  -0.160033  18.949483   1.421037  -6.968827
    17  C   -4.136291   0.030885  -0.196744   1.421037  16.107539  -4.147735
    18  C   -0.163165  -0.699678  -0.149604  -6.968827  -4.147735  22.092792
    19  O   -0.064648  -0.002050  -0.000942   0.092537   0.344644   0.006204
    20  C   -0.599737  -0.008132  -0.034836  -2.816521   0.732521   1.180663
    21  C   -0.253611  -0.038783   0.006858  -1.361093   0.389916   0.974813
    22  H   -0.039027  -0.173035   0.006160  -0.540791   0.010300   1.581878
    23  H    0.023854  -0.004748   0.071634  -0.151892   0.002433   0.067930
    24  H    0.015897  -0.000778   0.001316  -0.093477  -0.127165   0.059949
    25  C   -1.064850   0.144513  -0.036659   1.230046   0.575565  -2.704653
    26  F    0.011246   0.017930  -0.000003   0.123510   0.011869  -0.163830
    27  H   -0.014670   0.002035  -0.000344   0.122773   0.059706  -0.175273
              19         20         21         22         23         24
     1  C   -0.000092   0.006474  -0.011665   0.004503  -0.000940   0.000104
     2  H   -0.000007   0.000337  -0.000699   0.000056  -0.000082   0.000004
     3  H    0.000048  -0.000789   0.000702   0.001869   0.000086  -0.000010
     4  C    0.000268  -0.000489   0.001849  -0.002795  -0.000145   0.000008
     5  H    0.000008   0.000020  -0.000069   0.000009   0.000006   0.000000
     6  N   -0.000170  -0.000361   0.004480  -0.014815  -0.000247  -0.000032
     7  H    0.000034  -0.000728   0.002226  -0.002116  -0.000010  -0.000014
     8  H   -0.000104   0.000106  -0.000037   0.000104   0.000013   0.000002
     9  H    0.000002  -0.000014  -0.000005  -0.000018   0.000034   0.000000
    10  C    0.005477  -0.134551   0.194816  -0.160517  -0.017700   0.001274
    11  H    0.000246  -0.002891  -0.000399   0.003976   0.001053  -0.000113
    12  C   -0.039321   0.119596  -0.321496  -0.092229   0.001134   0.010459
    13  C   -0.064648  -0.599737  -0.253611  -0.039027   0.023854   0.015897
    14  H   -0.002050  -0.008132  -0.038783  -0.173035  -0.004748  -0.000778
    15  O   -0.000942  -0.034836   0.006858   0.006160   0.071634   0.001316
    16  C    0.092537  -2.816521  -1.361093  -0.540791  -0.151892  -0.093477
    17  C    0.344644   0.732521   0.389916   0.010300   0.002433  -0.127165
    18  C    0.006204   1.180663   0.974813   1.581878   0.067930   0.059949
    19  O    8.089312  -0.388872   0.005613  -0.001002   0.261020  -0.025524
    20  C   -0.388872   7.969632  -0.094362   0.086790   0.068378   0.533657
    21  C    0.005613  -0.094362   8.906517  -0.073964   0.011846   0.042172
    22  H   -0.001002   0.086790  -0.073964   0.727592   0.005167   0.004183
    23  H    0.261020   0.068378   0.011846   0.005167   0.303329   0.001630
    24  H   -0.025524   0.533657   0.042172   0.004183   0.001630   0.462403
    25  C    0.015953  -0.137417  -1.929441  -0.414144  -0.005686  -0.111559
    26  F    0.000152   0.006084   0.352613  -0.078763   0.000146   0.001136
    27  H    0.001122  -0.068813  -0.214030  -0.011410  -0.000470  -0.014824
              25         26         27
     1  C   -0.011192  -0.000200  -0.000207
     2  H   -0.000446  -0.000012  -0.000009
     3  H   -0.000180  -0.000062   0.000008
     4  C   -0.000193  -0.000001   0.000005
     5  H   -0.000017   0.000000   0.000000
     6  N    0.003380   0.000006   0.000031
     7  H   -0.000094  -0.000085   0.000010
     8  H    0.000093   0.000000   0.000001
     9  H    0.000009   0.000000   0.000000
    10  C   -0.220414  -0.001480  -0.002366
    11  H   -0.004463  -0.000056  -0.000060
    12  C   -0.797521   0.003380  -0.016297
    13  C   -1.064850   0.011246  -0.014670
    14  H    0.144513   0.017930   0.002035
    15  O   -0.036659  -0.000003  -0.000344
    16  C    1.230046   0.123510   0.122773
    17  C    0.575565   0.011869   0.059706
    18  C   -2.704653  -0.163830  -0.175273
    19  O    0.015953   0.000152   0.001122
    20  C   -0.137417   0.006084  -0.068813
    21  C   -1.929441   0.352613  -0.214030
    22  H   -0.414144  -0.078763  -0.011410
    23  H   -0.005686   0.000146  -0.000470
    24  H   -0.111559   0.001136  -0.014824
    25  C   10.935212  -0.228758   0.635020
    26  F   -0.228758   9.130482  -0.022380
    27  H    0.635020  -0.022380   0.473146
 Mulliken charges:
               1
     1  C   -0.436310
     2  H    0.193829
     3  H    0.193343
     4  C   -0.309884
     5  H    0.190197
     6  N    0.123426
     7  H    0.185401
     8  H    0.141744
     9  H    0.174102
    10  C    0.494282
    11  H    0.231933
    12  C   -0.367326
    13  C   -0.497390
    14  H    0.099664
    15  O   -0.331030
    16  C    1.844776
    17  C    0.096846
    18  C   -1.703021
    19  O   -0.299908
    20  C   -0.415746
    21  C   -0.594766
    22  H    0.172040
    23  H    0.362229
    24  H    0.239301
    25  C    0.127896
    26  F   -0.162923
    27  H    0.247295
 Sum of Mulliken charges =   0.00000
 Mulliken charges with hydrogens summed into heavy atoms:
               1
     1  C    0.136263
     4  C    0.196158
     6  N    0.123426
    10  C    0.726215
    12  C   -0.267662
    13  C   -0.497390
    15  O   -0.331030
    16  C    1.844776
    17  C    0.096846
    18  C   -1.530981
    19  O    0.062321
    20  C   -0.176444
    21  C   -0.594766
    25  C    0.375191
    26  F   -0.162923
 Electronic spatial extent (au):  <R**2>=           4477.1797
 Charge=              0.0000 electrons
 Dipole moment (field-independent basis, Debye):
    X=             -6.0177    Y=              2.5153    Z=              0.1343  Tot=              6.5236
 Quadrupole moment (field-independent basis, Debye-Ang):
   XX=            -59.0216   YY=            -96.6252   ZZ=            -90.9145
   XY=             -4.7948   XZ=             -0.4457   YZ=             -0.2835
 Traceless Quadrupole moment (field-independent basis, Debye-Ang):
   XX=             23.1655   YY=            -14.4381   ZZ=             -8.7274
   XY=             -4.7948   XZ=             -0.4457   YZ=             -0.2835
 Octapole moment (field-independent basis, Debye-Ang**2):
  XXX=            -89.3987  YYY=             14.8681  ZZZ=              0.5392  XYY=            -38.9534
  XXY=              2.2458  XXZ=              2.2468  XZZ=             -2.4612  YZZ=              2.6463
  YYZ=             -0.4197  XYZ=              0.7570
 Hexadecapole moment (field-independent basis, Debye-Ang**3):
 XXXX=          -3672.8971 YYYY=          -1230.4843 ZZZZ=           -110.5520 XXXY=            -12.0919
 XXXZ=             -0.0032 YYYX=              0.5312 YYYZ=             -0.8231 ZZZX=             -3.0151
 ZZZY=              0.7515 XXYY=           -971.3152 XXZZ=           -802.2780 YYZZ=           -209.7825
 XXYZ=             -4.1458 YYXZ=              1.5449 ZZXY=             12.3613
 N-N= 9.441883931646D+02 E-N=-3.599353939915D+03  KE= 7.286941235587D+02
 1\1\GINC-DN35\FOpt\RwB97XD\6-311++G(d,p)\C11H12F1N1O2\CA12053\18-Oct-2
 016\0\\# wb97xd 6-311++g** opt\\Geom Opt s0\\0,1\C,3.7258294492,1.6293
 3391,0.0388803616\H,4.7716429543,1.9109124145,0.1590965558\H,3.3527545
 931,2.0546958853,-0.900288319\C,4.8274435036,-0.5930007168,-0.10714216
 71\H,5.2893230647,-0.4223774307,-1.0860020054\N,3.6131077784,0.1852385
 16,0.0451065197\H,3.1544165777,2.0591259971,0.8667502471\H,4.594029700
 5,-1.6534127598,-0.0149777758\H,5.5497076541,-0.3295344559,0.670576577
 8\C,2.405736796,-0.3983735005,0.0231845294\H,2.4097345163,-1.484355606
 3,0.0095746013\C,1.1944146642,0.224664468,0.0246105127\C,0.0029598556,
 -0.5982664822,0.0258384722\H,1.1210187086,1.3010414712,0.0145754652\O,
 0.0823141017,-1.8390656265,0.0393526665\C,-1.3449843936,0.0343407579,0
 .0066468483\C,-2.494892808,-0.7874697099,-0.0024101143\C,-1.5208207665
 ,1.4277498079,-0.0021808315\O,-2.4344097293,-2.1211407658,0.0059824838
 \C,-3.7682565639,-0.202946337,-0.0209021523\C,-2.7822063024,1.96567825
 96,-0.0198454521\H,-0.6781480329,2.1051203476,0.004943002\H,-1.4763027
 031,-2.3541803795,0.0214584798\H,-4.629147815,-0.8598453737,-0.0276256
 429\C,-3.9181024983,1.1679214838,-0.0296434176\F,-2.9265312338,3.30987
 96281,-0.0278542549\H,-4.8986803512,1.6281254376,-0.0439384603\\Versio
 n=ES64L-G09RevD.01\State=1-A\HF=-731.3927118\RMSD=6.555e-09\RMSF=1.213
 e-05\Dipole=2.4572444,0.7391069,-0.0549159\Quadrupole=17.6574263,-11.1
 673597,-6.4900666,0.609966,-0.3089126,0.2576474\PG=C01 [X(C11H12F1N1O2
 )]\\@


 EDUCATION WITHOUT COMMON SENSE IS A LOAD OF BOOKS ON THE BACK OF AN ASS.
 Job cpu time:       0 days  4 hours  3 minutes 56.7 seconds.
 File lengths (MBytes):  RWF=    103 Int=      0 D2E=      0 Chk=     13 Scr=      1
 Normal termination of Gaussian 09 at Tue Oct 18 17:02:52 2016.
